Membrane in water
40155
    1TCq1    O1    1   1.816   0.067  11.297 -0.2288  0.4711 -0.4624
    1TCq1    C1    2   1.707   4.708  11.300 -0.6110 -0.1773 -0.1825
    1TCq1    O2    3   1.641   4.669  11.206  0.1695  0.0956 -0.5407
    1TCq1    C2    4   1.649   4.700  11.431 -0.0897  0.1032  0.6648
    1TCq1    C3    5   1.616   0.103  11.488 -0.0100 -0.1453  0.0139
    1TCq1    C4    6   1.519   0.103  11.585  0.2133  0.0987 -0.1560
    1TCq1    C5    7   1.460   4.708  11.628 -0.0233 -0.2955  0.3828
    1TCq1    C6    8   1.476   4.594  11.554 -0.0007 -0.3041 -0.2644
    1TCq1    C7    9   1.574   4.584  11.457  0.7120 -0.0066  0.2739
    1TCq1    C8   10   1.399   4.476  11.592 -0.5081 -0.9404 -0.4083
    1TCq1    O4   11   1.324   4.493  11.684  0.5150  0.3397 -0.4499
    1TCq1    C9   12   1.496   0.225  11.661 -0.3234 -0.4438  0.5041
    1TCq1    O5   13   1.585   0.316  11.674  0.4028  1.0912  0.1688
    1TCq1    O6   14   1.408   0.220  11.748  0.2650  0.0996 -0.1661
    1TCq1    H1   15   1.841   0.081  11.391  0.6580  2.6548 -1.0396
    1TCq1    H2   16   1.670   0.195  11.469 -0.9708 -0.0090 -2.0816
    1TCq1    H3   17   1.383   4.709  11.704  0.1636 -4.3214  0.6483
    1TCq1    H4   18   1.585   4.500  11.389  0.1815  0.3696 -0.2797
    2MPD2     C   19   1.283   3.966  11.552 -0.1437  0.4092  0.3106
    2MPD2    C1   20   1.204   4.066  11.600  0.1101 -0.0292 -0.0588
    2MPD2    C2   21   1.248   4.199  11.591 -0.1728  0.6717  0.5409
    2MPD2    C3   22   1.376   4.230  11.546 -0.0602  0.7209 -0.4613
    2MPD2    C4   23   1.452   4.121  11.508 -0.1777  0.6638 -0.0284
    2MPD2    C5   24   1.403   3.994  11.503 -0.2336  0.6824 -0.2339
    2MPD2     H   25   1.187   4.281  11.627  1.2420  0.7439  2.7032
    2MPD2    H1   26   1.554   4.142  11.478  0.2049 -0.9982  0.1609
    2MPD2    H2   27   1.265   3.862  11.575  1.1256  0.1541  0.1606
    2MPD2    H3   28   1.462   3.915  11.459 -1.1190  0.1242 -0.4067
    2MPD2     N   29   1.442   4.354  11.540  0.8435  0.1429 -0.3112
    2MPD2    H5   30   1.529   4.352  11.487  1.1879 -1.3860  0.2922
    2MPD2    N1   31   1.073   4.033  11.655 -0.1858  0.3677 -0.3038
    2MPD2    H7   32   1.028   4.114  11.696 -1.9873 -0.7612 -0.0633
    3TCq1    O1   33   0.814   1.514  10.081 -0.6737  0.0960  0.1215
    3TCq1    C1   34   0.860   1.390  10.064 -0.6682  0.6271 -0.1435
    3TCq1    O2   35   0.979   1.363  10.054 -0.0273  0.4449  0.4380
    3TCq1    C2   36   0.745   1.298  10.083  0.4496 -0.2796  0.1691
    3TCq1    C3   37   0.782   1.186  10.144 -0.0918 -0.2541  0.2231
    3TCq1    C4   38   0.686   1.111  10.191 -0.4944  0.3327  0.1084
    3TCq1    C5   39   0.553   1.139  10.194 -0.5771  0.0031 -0.2020
    3TCq1    C6   40   0.524   1.260  10.138  0.4906 -0.3223 -0.2074
    3TCq1    C7   41   0.617   1.342  10.079  0.3442  0.7845  0.0742
    3TCq1    C8   42   0.382   1.296  10.140  1.1409  0.2752  0.0618
    3TCq1    O4   43   0.339   1.365  10.049 -0.3182 -0.1839  0.0746
    3TCq1    C9   44   0.724   0.976  10.230 -0.0680  0.4560  0.0681
    3TCq1    O5   45   0.632   0.905  10.285 -0.5151 -0.3554 -0.0194
    3TCq1    O6   46   0.827   0.924  10.183 -0.1104 -0.2912 -0.7993
    3TCq1    H1   47   0.719   1.521  10.104 -0.9105 -0.5139 -0.6708
    3TCq1    H2   48   0.884   1.153  10.130  0.5614  1.4992  0.8315
    3TCq1    H3   49   0.481   1.066  10.230  0.9516 -2.0008 -1.1864
    3TCq1    H4   50   0.595   1.437  10.032 -0.5183  1.0492  1.0047
    4MPD2     C   51   4.627   1.236  10.298 -0.2992 -0.2503  0.1424
    4MPD2    C1   52   4.710   1.206  10.405 -0.1631  0.2414 -0.0749
    4MPD2    C2   53   0.126   1.203  10.381 -0.1450 -0.0264  0.1567
    4MPD2    C3   54   0.179   1.240  10.258  0.7163  0.3714  0.3983
    4MPD2    C4   55   0.098   1.278  10.152  0.2223  0.8048 -0.0392
    4MPD2    C5   56   4.681   1.276  10.177 -0.7989 -0.7513 -0.3445
    4MPD2     H   57   0.195   1.171  10.459  0.7371  3.6211  0.9017
    4MPD2    H1   58   0.127   1.321  10.057  1.7794 -2.2019 -0.9368
    4MPD2    H2   59   4.519   1.224  10.308 -0.1371 -1.6309  0.1668
    4MPD2    H3   60   4.611   1.309  10.101 -0.8392  1.2242  0.5556
    4MPD2     N   61   0.314   1.243  10.249 -0.5203 -0.1791 -0.2553
    4MPD2    H5   62   0.365   1.214  10.332  0.4489  2.2511 -0.0249
    4MPD2    N1   63   4.664   1.167  10.534 -0.0900  0.3354 -0.4994
    4MPD2    H7   64   0.013   1.138  10.602 -0.5806 -1.2629 -0.6876
    5TCq1    O1   65   0.311   1.722  10.843  0.0695  0.0677 -0.0861
    5TCq1    C1   66   0.382   1.837  10.867  0.4998 -0.3705  0.1729
    5TCq1    O2   67   0.368   1.940  10.804  0.4390 -0.3462  0.0448
    5TCq1    C2   68   0.503   1.803  10.944  0.0464 -0.5154  0.0898
    5TCq1    C3   69   0.516   1.707  11.042  0.4335  0.6047  0.3987
    5TCq1    C4   70   0.639   1.671  11.085  0.8280  0.1053 -0.6230
    5TCq1    C5   71   0.749   1.728  11.025  0.6611 -0.1728 -0.1030
    5TCq1    C6   72   0.736   1.832  10.939  0.3058 -0.6850 -0.4228
    5TCq1    C7   73   0.610   1.871  10.896  0.0040  0.3310  0.2049
    5TCq1    C8   74   0.859   1.882  10.881  0.4258 -0.3517  0.2448
    5TCq1    O4   75   0.959   1.819  10.908 -0.4877  0.5989 -1.1563
    5TCq1    C9   76   0.647   1.574  11.192 -0.2024 -0.2348  0.0047
    5TCq1    O5   77   0.761   1.525  11.223 -0.1932  0.0709 -0.2062
    5TCq1    O6   78   0.536   1.540  11.237  0.4144  0.4837 -0.1997
    5TCq1    H1   79   0.335   1.639  10.889  1.7385  0.3434 -0.4611
    5TCq1    H2   80   0.424   1.671  11.087  1.0349 -2.0393 -0.4905
    5TCq1    H3   81   0.849   1.701  11.058  1.8372  1.6523 -2.1252
    5TCq1    H4   82   0.601   1.950  10.822  1.8153 -1.6225 -2.1139
    6MPD2     C   83   0.901   2.207  10.709 -0.0207 -0.5264 -0.5229
    6MPD2    C1   84   0.920   2.071  10.734  0.2414  0.1329  0.0264
    6MPD2    C2   85   1.026   2.000  10.672 -0.1790  0.3495  0.8934
    6MPD2    C3   86   1.113   2.061  10.584 -0.9680 -0.1047 -0.1930
    6MPD2    C4   87   1.098   2.196  10.567 -0.1200 -0.3102  0.4755
    6MPD2    C5   88   0.995   2.271  10.628 -0.2892  0.3336  0.0833
    6MPD2     H   89   1.045   1.895  10.686  1.1030  0.4536 -0.0656
    6MPD2    H1   90   1.169   2.249  10.504 -1.6683  1.6519  0.3856
    6MPD2    H2   91   0.825   2.265  10.761 -0.6063 -0.7668 -1.1074
    6MPD2    H3   92   0.975   2.373  10.599  1.6508  0.1743 -1.7651
    6MPD2     N   93   1.207   1.979  10.526 -0.0560 -0.2468  0.3544
    6MPD2    H5   94   1.194   1.880  10.547 -1.1440 -0.4338 -1.2023
    6MPD2    N1   95   0.832   2.003  10.820 -0.0405  0.2950  0.3327
    6MPD2    H7   96   0.746   2.048  10.850 -0.2208 -0.7770  1.4335
    7TCq1    O1   97   2.939   2.610  13.398  0.5104 -0.2900  0.7500
    7TCq1    C1   98   2.954   2.542  13.512 -0.3689  0.1831  0.0792
    7TCq1    O2   99   2.864   2.506  13.578  0.1038  0.5782  0.3715
    7TCq1    C2  100   3.082   2.471  13.510 -0.6838 -0.0697  0.2149
    7TCq1    C3  101   3.195   2.554  13.475 -0.4127 -0.4091  0.4898
    7TCq1    C4  102   3.308   2.487  13.454  0.4982 -0.1398  0.2012
    7TCq1    C5  103   3.310   2.352  13.455 -0.4591  0.4414  0.2085
    7TCq1    C6  104   3.195   2.270  13.483  0.3088 -0.7380 -0.0574
    7TCq1    C7  105   3.083   2.338  13.518 -0.6872  0.1674 -0.4122
    7TCq1    C8  106   3.197   2.133  13.446 -0.5719 -0.2628  0.4790
    7TCq1    O4  107   3.103   2.062  13.483 -0.1308  0.4679 -0.8284
    7TCq1    C9  108   3.429   2.556  13.418  0.4497  0.3062  0.0124
    7TCq1    O5  109   3.425   2.682  13.410 -0.2225 -0.2009 -0.1493
    7TCq1    O6  110   3.539   2.488  13.411 -0.2996 -0.8105 -0.5022
    7TCq1    H1  111   3.019   2.624  13.343 -0.8750 -1.7024 -1.6510
    7TCq1    H2  112   3.187   2.662  13.474  1.0953 -0.3166 -0.3364
    7TCq1    H3  113   3.402   2.298  13.435 -0.5104  1.1583 -1.9230
    7TCq1    H4  114   2.991   2.282  13.535  0.3423 -1.2535  0.4880
    8MPD2     C  115   3.310   1.788  13.095 -0.1042 -0.6901 -0.9104
    8MPD2    C1  116   3.249   1.766  13.218 -0.0030  0.8332  0.2876
    8MPD2    C2  117   3.240   1.877  13.305 -0.4385  0.1365 -0.3729
    8MPD2    C3  118   3.298   1.999  13.269 -0.1667 -0.0102  0.0982
    8MPD2    C4  119   3.356   2.011  13.149  0.5318  0.0699 -0.1053
    8MPD2    C5  120   3.359   1.906  13.061  0.1382 -0.0296  0.3762
    8MPD2     H  121   3.212   1.868  13.409 -0.8160  3.0481 -0.2302
    8MPD2    H1  122   3.401   2.104  13.114 -1.9359  2.2087  2.4053
    8MPD2    H2  123   3.322   1.704  13.028  2.5277 -0.4100 -0.8010
    8MPD2    H3  124   3.399   1.912  12.961 -0.3718  1.6157  0.2775
    8MPD2     N  125   3.290   2.115  13.344  0.0542  0.3801 -0.8216
    8MPD2    H5  126   3.330   2.199  13.305  0.1529  0.0082 -1.5150
    8MPD2    N1  127   3.212   1.632  13.256 -0.2277 -0.3529  0.2935
    8MPD2    H7  128   3.222   1.555  13.191 -0.5882 -0.8245  0.7982
    9TCq1    O1  129   1.169   0.889  11.341  0.0932 -0.0355 -0.1051
    9TCq1    C1  130   1.101   0.836  11.230 -0.1488 -0.4433  1.0567
    9TCq1    O2  131   1.004   0.887  11.174  0.2479 -0.3920 -0.9612
    9TCq1    C2  132   1.140   0.694  11.222 -0.2680 -0.4392 -0.5566
    9TCq1    C3  133   1.268   0.657  11.209  0.0243 -0.1816  0.4245
    9TCq1    C4  134   1.306   0.530  11.168 -0.6634  0.2226 -0.0423
    9TCq1    C5  135   1.212   0.433  11.158  0.0076  0.1762 -0.1340
    9TCq1    C6  136   1.083   0.473  11.172  0.3249  0.5030 -0.2152
    9TCq1    C7  137   1.040   0.600  11.200 -0.9771  0.2482  0.0473
    9TCq1    C8  138   0.984   0.366  11.186 -0.5872  0.3160  0.1824
    9TCq1    O4  139   0.970   0.289  11.091  0.7710 -0.1018  0.7965
    9TCq1    C9  140   1.448   0.496  11.172 -0.0630 -0.1094  0.5897
    9TCq1    O5  141   1.528   0.591  11.192  0.3005  0.0397 -0.0729
    9TCq1    O6  142   1.479   0.373  11.178  0.1785  0.2321 -0.1619
    9TCq1    H1  143   1.218   0.825  11.396 -0.0423 -0.1874 -0.1618
    9TCq1    H2  144   1.343   0.730  11.236  1.2665 -2.4635  3.0043
    9TCq1    H3  145   1.237   0.329  11.141 -0.7128 -0.3217  1.9334
    9TCq1    H4  146   0.937   0.631  11.213 -0.7754  0.9106  0.0284
   10MPD2     C  147   0.851   0.130  11.313 -0.1220 -0.2559 -0.0354
   10MPD2    C1  148   0.863   0.254  11.377 -0.4998  0.6412  0.6916
   10MPD2    C2  149   0.811   0.272  11.508  0.8016 -0.9427 -0.0464
   10MPD2    C3  150   0.759   0.157  11.568  0.6293 -0.4806  0.0690
   10MPD2    C4  151   0.774   0.033  11.518  0.4749  0.2191 -0.3297
   10MPD2    C5  152   0.812   0.020  11.382  0.2738 -0.0127 -0.6874
   10MPD2     H  153   0.823   0.366  11.560 -1.8382 -1.8943  2.2818
   10MPD2    H1  154   0.733   4.669  11.574  1.6882  0.4796  0.9424
   10MPD2    H2  155   0.896   0.102  11.219  0.3906  2.0804 -0.4972
   10MPD2    H3  156   0.835   4.641  11.344  0.8136 -0.0400 -0.2967
   10MPD2     N  157   0.714   0.175  11.703  0.3055 -0.0184  0.6329
   10MPD2    H5  158   0.709   0.093  11.763 -0.5458 -0.8221 -0.5153
   10MPD2    N1  159   0.938   0.363  11.313 -0.0461 -0.5467  0.0334
   10MPD2    H7  160   0.956   0.441  11.376 -1.8411  0.2728 -0.4617
   11TCq1    O1  161   2.547   4.526  14.458  0.1839  0.2429  0.4217
   11TCq1    C1  162   2.415   4.506  14.463  0.2084  0.3533 -0.4174
   11TCq1    O2  163   2.354   4.404  14.485  0.4345  0.1505  0.3433
   11TCq1    C2  164   2.348   4.624  14.401  0.1561  0.6284  0.1615
   11TCq1    C3  165   2.418   0.020  14.361  0.3115  0.7903 -1.2332
   11TCq1    C4  166   2.346   0.131  14.343  0.0011  0.6420  0.1473
   11TCq1    C5  167   2.213   0.143  14.360 -0.0724  0.7899  0.2576
   11TCq1    C6  168   2.150   0.032  14.405 -0.7129  0.7759  0.4947
   11TCq1    C7  169   2.216   4.633  14.423  0.0614  0.6537 -0.2757
   11TCq1    C8  170   2.005   0.032  14.405 -0.1145 -0.7013 -0.6553
   11TCq1    O4  171   1.944   0.138  14.419 -0.2196 -0.0192  0.7407
   11TCq1    C9  172   2.411   0.252  14.303 -0.8574  0.3706 -0.2487
   11TCq1    O5  173   2.512   0.244  14.227  0.5558 -0.3016 -0.3193
   11TCq1    O6  174   2.348   0.361  14.315 -0.5521 -0.2775  0.3958
   11TCq1    H1  175   2.581   4.617  14.441  2.0625 -0.4609  0.4586
   11TCq1    H2  176   2.525   0.016  14.341  0.7303  6.5663 -0.0322
   11TCq1    H3  177   2.163   0.237  14.339 -2.2702 -0.4501 -0.0937
   11TCq1    H4  178   2.166   4.551  14.472  0.5666  0.1077 -0.6872
   12MPD2     C  179   1.724   4.654  14.417 -0.3337  0.0945  0.4778
   12MPD2    C1  180   1.823   4.591  14.347  0.1143  0.3570 -0.3905
   12MPD2    C2  181   1.800   4.493  14.251 -0.4319 -0.1329  0.4587
   12MPD2    C3  182   1.673   4.452  14.216 -0.0612 -0.4513  0.1335
   12MPD2    C4  183   1.571   4.527  14.276 -0.4178 -0.2272  0.0604
   12MPD2    C5  184   1.597   4.623  14.372  0.2602 -0.4209 -0.4684
   12MPD2     H  185   1.886   4.447  14.204 -1.2374 -1.0425 -0.1414
   12MPD2    H1  186   1.468   4.516  14.245 -0.5305 -1.0205  0.7167
   12MPD2    H2  187   1.739   0.017  14.486 -0.9492 -1.5979  2.6579
   12MPD2    H3  188   1.507   4.677  14.402  1.5356  0.9644  0.8281
   12MPD2     N  189   1.635   4.363  14.111  0.2262 -0.3722  0.2054
   12MPD2    H5  190   1.551   4.382  14.058  0.9062  1.6847 -0.1466
   12MPD2    N1  191   1.957   4.627  14.366 -0.6892 -0.7018  0.0140
   12MPD2    H7  192   2.028   4.562  14.334  0.6723  1.0117 -0.4592
   13TCq1    O1  193   0.888   0.085  10.424 -0.3874  0.1027  0.3384
   13TCq1    C1  194   0.900   0.219  10.409  0.0492  0.3958  0.2336
   13TCq1    O2  195   0.976   0.274  10.332 -0.0883  0.6327  0.1442
   13TCq1    C2  196   0.851   0.281  10.530 -0.3528 -0.0709 -0.6794
   13TCq1    C3  197   0.843   0.414  10.510 -0.4661  0.3367  0.2918
   13TCq1    C4  198   0.756   0.482  10.587  0.3034 -0.3367 -1.5094
   13TCq1    C5  199   0.700   0.426  10.697 -0.5591  0.4867 -0.2867
   13TCq1    C6  200   0.730   0.292  10.727  0.7038 -0.3406 -0.7913
   13TCq1    C7  201   0.807   0.211  10.644  0.5497 -0.5828 -0.6938
   13TCq1    C8  202   0.656   0.234  10.844 -0.4594  0.2620  0.0773
   13TCq1    O4  203   0.577   0.305  10.906  0.3176 -0.2456  0.0730
   13TCq1    C9  204   0.709   0.615  10.545 -0.7048 -0.5630 -0.1078
   13TCq1    O5  205   0.747   0.656  10.435  0.2538 -0.3611 -0.2515
   13TCq1    O6  206   0.648   0.688  10.622 -0.2586  0.2766 -0.1765
   13TCq1    H1  207   0.826   0.061  10.496 -2.2758 -0.8363 -1.6384
   13TCq1    H2  208   0.884   0.465  10.424 -1.4614  2.1440  0.9042
   13TCq1    H3  209   0.635   0.486  10.760 -0.4213 -0.1172  0.4251
   13TCq1    H4  210   0.848   0.114  10.669 -1.7450 -0.8906  1.8284
   14MPD2     C  211   0.634   4.594  10.946 -0.4485 -0.3963 -0.5068
   14MPD2    C1  212   0.620   0.015  10.954  0.0953 -0.3150  0.1116
   14MPD2    C2  213   0.558   0.066  11.062 -0.1394  0.7101  0.1913
   14MPD2    C3  214   0.539   4.716  11.174  0.4125 -0.2107  0.6313
   14MPD2    C4  215   0.566   4.580  11.171  0.1377  0.0201 -0.4714
   14MPD2    C5  216   0.601   4.525  11.055 -0.1184  0.6573  0.2820
   14MPD2     H  217   0.533   0.171  11.072 -0.4946  0.9317 -2.9165
   14MPD2    H1  218   0.552   4.510  11.252  1.9958 -2.0535 -1.9558
   14MPD2    H2  219   0.668   4.549  10.854 -0.8764 -1.0203 -0.3598
   14MPD2    H3  220   0.601   4.417  11.061  0.4073  0.5775 -1.1323
   14MPD2     N  221   0.475   0.063  11.277 -0.1593 -0.2232 -0.5108
   14MPD2    H5  222   0.455   0.162  11.265 -0.4252 -0.1498  0.5752
   14MPD2    N1  223   0.657   0.100  10.845 -0.2588 -0.5625 -0.8477
   14MPD2    H7  224   0.690   0.050  10.763 -0.6338 -1.5636 -0.3877
   15TCq1    O1  225   2.023   3.757   1.706 -0.1593 -0.7262 -0.3303
   15TCq1    C1  226   1.980   3.869   1.642  0.2683  0.0972  0.8635
   15TCq1    O2  227   1.864   3.875   1.603  0.6873 -0.5005  0.4477
   15TCq1    C2  228   2.096   3.884   1.556 -0.0784 -0.6031 -0.3396
   15TCq1    C3  229   2.177   3.983   1.580  0.6022  1.3571 -0.2418
   15TCq1    C4  230   2.300   3.975   1.519  0.0302  0.1097  0.1594
   15TCq1    C5  231   2.340   3.867   1.443  0.0633 -0.4759  0.2767
   15TCq1    C6  232   2.255   3.761   1.434 -0.0183 -0.2468  0.8685
   15TCq1    C7  233   2.128   3.765   1.492 -0.0443  0.0348  0.9075
   15TCq1    C8  234   2.306   3.650   1.348  0.2727  0.8211 -0.0168
   15TCq1    O4  235   2.427   3.644   1.330 -0.3543  0.3773  0.0600
   15TCq1    C9  236   2.383   4.093   1.531 -0.1717 -0.1175 -0.5506
   15TCq1    O5  237   2.499   4.095   1.475 -0.2657  0.6277  0.2634
   15TCq1    O6  238   2.346   4.175   1.620  0.2730 -0.5313  0.0346
   15TCq1    H1  239   2.120   3.761   1.714 -0.3002 -0.8518  1.5260
   15TCq1    H2  240   2.154   4.070   1.641 -0.9659 -0.5109  1.8126
   15TCq1    H3  241   2.443   3.867   1.409  0.0626 -3.1864  0.2172
   15TCq1    H4  242   2.067   3.678   1.472  0.5853 -0.6703  2.0458
   16MPD2     C  243   2.128   3.398   1.141 -0.2518 -0.2256  0.1803
   16MPD2    C1  244   2.224   3.450   1.224 -0.5646 -0.4389  0.1183
   16MPD2    C2  245   2.339   3.372   1.252 -0.4023 -0.3138 -0.9961
   16MPD2    C3  246   2.341   3.250   1.193 -0.5749  0.4577  0.6070
   16MPD2    C4  247   2.247   3.197   1.120 -0.2052 -0.2206 -0.5316
   16MPD2    C5  248   2.137   3.273   1.091 -0.4124  0.1497  0.4058
   16MPD2     H  249   2.417   3.398   1.323  0.4877  1.4847 -2.6287
   16MPD2    H1  250   2.246   3.100   1.071 -0.5258 -0.4749 -0.0147
   16MPD2    H2  251   2.033   3.450   1.136  1.1751  2.3471 -0.0354
   16MPD2    H3  252   2.061   3.226   1.029  0.6558  0.8498 -1.4332
   16MPD2     N  253   2.452   3.176   1.229  0.0975  0.4511  0.4854
   16MPD2    H5  254   2.508   3.225   1.298 -0.0660 -1.3605  1.8978
   16MPD2    N1  255   2.207   3.574   1.287  0.3831 -0.0299  0.1986
   16MPD2    H7  256   2.112   3.610   1.296  0.6600  0.7452 -0.0366
   17TCq1    O1  257   0.448   3.778  11.570 -0.7731 -0.5274  0.0417
   17TCq1    C1  258   0.486   3.900  11.598  0.1581 -0.1482  0.4157
   17TCq1    O2  259   0.494   3.959  11.705 -0.2709  0.0395 -0.0866
   17TCq1    C2  260   0.544   3.961  11.479  1.1015 -0.8755 -0.7970
   17TCq1    C3  261   0.556   3.893  11.359 -0.1714  0.1732  0.8539
   17TCq1    C4  262   0.634   3.947  11.262 -0.5277 -0.4037  0.3615
   17TCq1    C5  263   0.708   4.060  11.274  0.2873 -0.4035 -0.0773
   17TCq1    C6  264   0.696   4.125  11.389  0.3947 -0.6669 -0.2136
   17TCq1    C7  265   0.609   4.079  11.487 -0.1067 -0.2717 -0.3498
   17TCq1    C8  266   0.793   4.230  11.430 -0.2323  0.7877 -0.1072
   17TCq1    O4  267   0.774   4.301  11.528  0.2631  0.5946  0.2344
   17TCq1    C9  268   0.654   3.870  11.140  1.2616  0.5940 -0.1165
   17TCq1    O5  269   0.754   3.904  11.076 -0.3859  0.4150 -0.0647
   17TCq1    O6  270   0.574   3.775  11.121  0.0304 -0.2324 -0.0077
   17TCq1    H1  271   0.424   3.782  11.474  0.3748  0.3181 -0.2008
   17TCq1    H2  272   0.500   3.806  11.330  2.2365 -1.8615  2.2919
   17TCq1    H3  273   0.769   4.081  11.187  1.0254 -1.6628  0.1242
   17TCq1    H4  274   0.607   4.137  11.579 -3.2855  1.0186 -1.2302
   18MPD2     C  275   1.008   4.438  11.413  0.5026 -0.4361 -0.1496
   18MPD2    C1  276   0.997   4.329  11.336  0.4257 -0.3253 -0.3495
   18MPD2    C2  277   1.088   4.311  11.232  0.5116  0.3469 -0.1744
   18MPD2    C3  278   1.181   4.405  11.195  0.3551 -1.0288  0.2909
   18MPD2    C4  279   1.182   4.525  11.276 -0.5996 -0.4091  0.4891
   18MPD2    C5  280   1.107   4.532  11.392 -0.5268 -0.0878  0.1308
   18MPD2     H  281   1.072   4.222  11.172 -0.7304  0.1526  0.4544
   18MPD2    H1  282   1.244   4.608  11.246 -0.3803 -0.2292  1.4478
   18MPD2    H2  283   0.943   4.462  11.497  0.6877 -1.1603  0.2035
   18MPD2    H3  284   1.106   4.616  11.461 -2.9956  0.6619 -0.8077
   18MPD2     N  285   1.258   4.396  11.069 -0.5589 -0.0431 -0.3211
   18MPD2    H5  286   1.310   4.478  11.042 -1.2949  0.8413  0.9755
   18MPD2    N1  287   0.905   4.226  11.347 -0.8868 -0.3101 -0.2327
   18MPD2    H7  288   0.906   4.148  11.283 -1.5099 -0.4989 -0.0088
   19TMC2    C1  289   2.143   0.101  13.815  0.0680 -0.1518  0.9355
   19TMC2    C2  290   2.074   0.218  13.834  0.8174 -0.0186  0.0445
   19TMC2    C3  291   2.060   0.297  13.729  0.4407  1.0660 -0.5453
   19TMC2    C4  292   2.192   0.058  13.696 -0.4545 -0.3384 -0.3534
   19TMC2    C5  293   2.162   0.133  13.592 -0.6601  0.3008  0.4531
   19TMC2    C6  294   2.101   0.255  13.609 -0.6066  0.0686  0.6116
   19TMC2     C  295   2.147   0.011  13.934  0.4909 -0.3416 -0.3613
   19TMC2     O  296   2.068   0.024  14.026  0.2897 -0.6057 -0.0204
   19TMC2     H  297   2.037   0.251  13.931  1.1461 -2.0042  0.8590
   19TMC2    H1  298   2.211   4.671  13.687  1.1628 -0.1806  1.1033
   19TMC2    H2  299   2.088   0.321  13.524 -1.0260 -0.5563  0.1919
   19TMC2    C7  300   2.195   0.082  13.458 -0.0574 -0.3036 -0.0019
   19TMC2    C8  301   1.984   0.415  13.736 -0.4246  0.3887 -0.0478
   19TMC2    O1  302   2.265   4.700  13.465 -0.2474  0.0985  0.3782
   19TMC2    O2  303   1.904   0.457  13.823 -0.2562 -0.4754  0.2114
   19TMC2    O5  304   2.077   0.504  13.680 -0.2119 -0.1319 -0.4959
   19TMC2    H5  305   2.144   0.466  13.620 -1.9683 -2.2579 -1.1054
   20MPD2     C  306   2.182   4.466  14.057  0.0575  0.7603  0.0178
   20MPD2    C1  307   2.286   4.533  14.006  0.1668  0.5079 -0.2449
   20MPD2    C2  308   2.413   4.484  14.025  0.3085 -1.5138  0.0051
   20MPD2    C3  309   2.441   4.384  14.115 -0.4272  0.1633  1.0952
   20MPD2    C4  310   2.336   4.307  14.160 -0.1346  0.3723 -0.0760
   20MPD2    C5  311   2.207   4.351  14.135  0.3601  0.2101 -0.3901
   20MPD2     H  312   2.490   4.538  13.972  0.7318 -1.6641  0.4670
   20MPD2    H1  313   2.356   4.219  14.219  1.2243  0.7104 -0.0456
   20MPD2    H2  314   2.077   4.493  14.052 -0.4571 -1.5243 -1.1019
   20MPD2    H3  315   2.123   4.299  14.180  0.9899 -0.1040  0.4214
   20MPD2     N  316   2.578   4.352  14.148  0.3055  1.1268  0.0453
   20MPD2    H5  317   2.579   4.280  14.220  2.7757  0.2539 -0.8770
   20MPD2    N1  318   2.259   4.648  13.929  0.1474  0.1194  0.1446
   20MPD2    H7  319   2.340   4.677  13.875  1.7197 -2.5430  1.0668
   21MPD2     C  320   0.405   0.368  14.261 -0.5846 -0.0926  0.1725
   21MPD2    C1  321   0.448   0.271  14.349 -0.2737  0.5047  0.4758
   21MPD2    C2  322   0.366   0.242  14.457 -0.2613 -0.0163 -0.4042
   21MPD2    C3  323   0.252   0.313  14.494 -0.2718  0.3751 -0.7617
   21MPD2    C4  324   0.215   0.412  14.400 -0.2177  0.6051 -0.4934
   21MPD2    C5  325   0.288   0.432  14.287 -0.3065  0.3256  0.4634
   21MPD2     H  326   0.403   0.160  14.517 -0.0333  0.3066 -0.1034
   21MPD2    H1  327   0.131   0.479  14.419 -0.7449 -0.4005  0.7211
   21MPD2    H2  328   0.461   0.392  14.171 -1.8457  2.1995 -0.0048
   21MPD2    H3  329   0.260   0.511  14.219  3.5812  1.0258 -0.2881
   21MPD2     N  330   0.172   0.287  14.607 -0.3425  0.1336  0.1660
   21MPD2    H5  331   0.097   0.352  14.627  0.0084  0.0594  1.7665
   21MPD2    N1  332   0.572   0.205  14.334 -0.3083 -0.2129 -0.3224
   21MPD2    H7  333   0.584   0.120  14.387 -1.6192 -1.2984 -1.7809
   22TCq2    C1  334   0.208   0.191  14.700 -0.5529 -0.9219 -0.6343
   22TCq2    O2  335   0.292   0.102  14.709 -0.0002 -0.1604  0.6681
   22TCq2    C2  336   0.125   0.213  14.818 -0.3326  0.2642  0.3412
   22TCq2    C3  337   0.097   0.102  14.895 -0.3048 -0.3783 -0.5755
   22TCq2    C4  338   0.025   0.116  15.011 -0.1632 -0.0868  0.0351
   22TCq2    C5  339   4.690   0.236  15.047  0.7318 -0.4534  0.1498
   22TCq2    C6  340   4.715   0.347  14.969  0.1313 -0.6636 -0.2872
   22TCq2    C7  341   0.082   0.337  14.862  0.3474 -0.1071  0.2030
   22TCq2    C8  342   4.682   0.476  15.018  0.1799  0.9959 -0.8465
   22TCq2    O4  343   4.659   0.489  15.138  0.6016  0.1925  0.2672
   22TCq2    C9  344   0.009   4.717  15.096  0.3361  0.7343  0.0029
   22TCq2    O5  345   4.666   0.015  15.205  0.2328 -0.2850 -0.2229
   22TCq2    O6  346   0.091   4.623  15.087 -0.1700  0.2819 -0.1236
   22TCq2    H2  347   0.135   0.003  14.875  0.6587  0.1829 -1.5068
   22TCq2    H3  348   4.647   0.248  15.146  2.3975 -1.3894  0.9897
   22TCq2    H4  349   0.105   0.427  14.805 -1.8494  0.2607 -0.1207
   23MPD2     C  350   2.016   1.331  15.160 -0.2894 -0.8405  0.1920
   23MPD2    C1  351   1.883   1.310  15.180  0.2067  0.4404 -0.3544
   23MPD2    C2  352   1.789   1.384  15.107 -0.1538 -0.1160 -0.3568
   23MPD2    C3  353   1.826   1.482  15.016 -0.1695  0.1725  0.1686
   23MPD2    C4  354   1.964   1.500  14.997  0.5877  0.0618  0.7134
   23MPD2    C5  355   2.060   1.419  15.065  0.2903 -0.6924  0.6261
   23MPD2     H  356   1.684   1.369  15.129  0.3825 -1.3555  1.3520
   23MPD2    H1  357   1.997   1.561  14.913  2.1756 -0.6297  0.8339
   23MPD2    H2  358   2.092   1.264  15.199 -0.3303 -0.8763  0.2097
   23MPD2    H3  359   2.165   1.429  15.040 -0.0428  2.6942  0.5848
   23MPD2     N  360   1.740   1.561  14.938  0.3674  0.8074 -0.3259
   23MPD2    H5  361   1.771   1.648  14.897 -1.0958  0.9097 -1.2098
   23MPD2    N1  362   1.831   1.216  15.277 -0.0461  0.1852 -0.3886
   23MPD2    H7  363   1.731   1.214  15.291 -0.1081 -1.8753 -1.2016
   24TCq2    C1  364   1.604   1.542  14.925  0.6749 -0.7141  0.4540
   24TCq2    O2  365   1.539   1.451  14.974 -0.0704 -0.5358  0.2107
   24TCq2    C2  366   1.537   1.637  14.847  1.1536 -0.6229  0.6478
   24TCq2    C3  367   1.405   1.665  14.873  0.7967 -0.1761  0.9793
   24TCq2    C4  368   1.337   1.741  14.778  0.5897 -0.4486  0.4045
   24TCq2    C5  369   1.395   1.787  14.660  0.1723  0.0649 -0.0299
   24TCq2    C6  370   1.521   1.751  14.639 -0.2118 -0.2907  0.1890
   24TCq2    C7  371   1.597   1.676  14.726  0.7801  0.2469 -0.2780
   24TCq2    C8  372   1.552   1.736  14.499 -0.1997 -0.0331 -0.3833
   24TCq2    O4  373   1.670   1.725  14.468  0.0372  0.1895 -0.3098
   24TCq2    C9  374   1.210   1.799  14.807 -0.0844  0.2845 -0.1879
   24TCq2    O5  375   1.162   1.784  14.923 -0.3898  0.0458  0.1011
   24TCq2    O6  376   1.150   1.846  14.709  0.4419 -0.0410  0.6213
   24TCq2    H2  377   1.372   1.650  14.975  1.6049 -0.3346  1.2164
   24TCq2    H3  378   1.341   1.859  14.600  0.7064  0.3600 -0.1474
   24TCq2    H4  379   1.691   1.634  14.690  0.4335 -2.6711  2.1927
   25TMC2    C1  380   0.634   3.219  11.608 -0.2556 -0.1441 -0.3481
   25TMC2    C2  381   0.740   3.306  11.576 -0.3266 -0.2677  0.1468
   25TMC2    C3  382   0.719   3.444  11.591  0.1662  0.4150  0.4150
   25TMC2    C4  383   0.524   3.260  11.676 -0.1571 -0.1210 -0.2799
   25TMC2    C5  384   0.503   3.401  11.683 -0.9100 -0.0399 -0.5780
   25TMC2    C6  385   0.598   3.495  11.644 -0.1018  0.2176  0.0567
   25TMC2     C  386   0.634   3.091  11.535  0.3086  0.0775 -0.7874
   25TMC2     O  387   0.734   3.052  11.475  0.1993  0.5304 -0.1497
   25TMC2     H  388   0.824   3.277  11.513  0.6452 -0.0339  1.3212
   25TMC2    H1  389   0.453   3.193  11.724 -0.2156  0.0417 -0.1413
   25TMC2    H2  390   0.598   3.602  11.657 -0.0506  0.2420 -0.1387
   25TMC2    C7  391   0.421   3.446  11.797  0.8610 -0.1958 -0.5434
   25TMC2    C8  392   0.810   3.543  11.544  0.1731  0.5827 -0.0703
   25TMC2    O1  393   0.390   3.359  11.879 -0.0329 -0.1976 -0.4175
   25TMC2    O2  394   0.775   3.653  11.502 -0.2039  0.2005 -0.5517
   25TMC2    O5  395   0.938   3.492  11.562  0.2492  0.0504  0.1730
   25TMC2    H5  396   0.943   3.421  11.629 -0.2107  0.0784  0.2380
   26MPD2     C  397   0.372   2.712  11.305  0.5635 -0.8228 -0.0327
   26MPD2    C1  398   0.288   2.777  11.385 -0.6926 -0.2880  0.7036
   26MPD2    C2  399   0.336   2.877  11.467  0.3631 -0.5062 -0.4761
   26MPD2    C3  400   0.467   2.910  11.473 -0.5976  0.0212 -0.2441
   26MPD2    C4  401   0.554   2.822  11.406  0.4479 -0.5305  0.1249
   26MPD2    C5  402   0.506   2.722  11.321 -1.1152  0.5232  0.3779
   26MPD2     H  403   0.270   2.942  11.524  1.1726 -0.2763  0.1998
   26MPD2    H1  404   0.661   2.832  11.423  0.6222 -0.2490 -1.0957
   26MPD2    H2  405   0.328   2.645  11.231 -2.8302 -0.0870  1.3320
   26MPD2    H3  406   0.564   2.652  11.262 -0.4094  0.5797  1.0079
   26MPD2     N  407   0.506   3.031  11.536 -0.0455 -0.3309 -0.1602
   26MPD2    H5  408   0.427   3.090  11.560  0.4268 -0.3565  1.4516
   26MPD2    N1  409   0.153   2.750  11.365 -0.4260  0.3149  0.7647
   26MPD2    H7  410   0.139   2.669  11.306  0.5410 -1.2526  2.6761
   27TMC2    C1  411   4.286   1.278  12.205 -0.2765 -0.2587  0.2069
   27TMC2    C2  412   4.257   1.311  12.073 -0.6322 -0.1376 -0.3375
   27TMC2    C3  413   4.241   1.441  12.044  0.4402 -0.5570 -0.4532
   27TMC2    C4  414   4.297   1.370  12.299  0.0636 -0.4592 -0.1956
   27TMC2    C5  415   4.284   1.503  12.275 -0.4139 -0.0156  0.0028
   27TMC2    C6  416   4.267   1.542  12.139 -0.1316 -0.7210 -0.2560
   27TMC2     C  417   4.222   1.162  12.256  0.5202  0.5681 -0.3598
   27TMC2     O  418   4.273   1.051  12.233  0.0353 -0.0574  0.2771
   27TMC2     H  419   4.237   1.232  12.002  2.6001 -1.6816  0.4966
   27TMC2    H1  420   4.306   1.326  12.398  0.4348 -0.5075 -0.2497
   27TMC2    H2  421   4.243   1.643  12.107 -1.3307 -0.0036  2.9439
   27TMC2    C7  422   4.225   1.583  12.380  0.7541 -0.0215  0.2593
   27TMC2    C8  423   4.196   1.477  11.912  0.4919 -0.0342 -0.3431
   27TMC2    O1  424   4.154   1.678  12.342  0.5898  0.1519  0.5623
   27TMC2    O2  425   4.105   1.421  11.850  0.6103 -0.3664 -0.0428
   27TMC2    O5  426   4.249   1.595  11.884  0.2391 -0.5205 -0.3947
   27TMC2    H5  427   4.332   1.613  11.934  0.7605 -2.8258 -0.4490
   28MPD2     C  428   3.905   1.017  12.623  0.1754 -0.2554 -0.3433
   28MPD2    C1  429   3.870   1.142  12.582  0.1544 -0.0367 -0.5706
   28MPD2    C2  430   3.937   1.200  12.484 -0.8076 -0.4791  0.4638
   28MPD2    C3  431   4.046   1.143  12.429 -0.2275 -0.0453  0.1952
   28MPD2    C4  432   4.098   1.030  12.481 -0.3871  0.3927  0.8552
   28MPD2    C5  433   4.022   0.962  12.573  0.2750 -0.0112  0.3984
   28MPD2     H  434   3.898   1.288  12.434  1.9878  0.4507 -0.0968
   28MPD2    H1  435   4.187   0.990  12.435 -0.3231 -0.6351  1.8641
   28MPD2    H2  436   3.850   0.969  12.703 -0.4847  0.2780 -0.4829
   28MPD2    H3  437   4.061   0.867  12.609  0.5874 -0.4801 -1.1568
   28MPD2     N  438   4.108   1.207  12.325  0.0215 -0.6566  0.2821
   28MPD2    H5  439   4.070   1.293  12.286 -0.0938 -1.2318 -0.8792
   28MPD2    N1  440   3.754   1.194  12.645  0.0698  0.1039 -0.2053
   28MPD2    H7  441   3.709   1.138  12.716  1.7112  0.1840  0.9016
   29MPD2     C  442   4.043   3.406  14.253 -0.5304  1.3343 -0.0206
   29MPD2    C1  443   3.949   3.329  14.320 -0.4858 -0.0020  0.7823
   29MPD2    C2  444   3.853   3.404  14.385 -0.5680  0.6492 -0.6495
   29MPD2    C3  445   3.841   3.540  14.377  0.2272  0.1357  0.3253
   29MPD2    C4  446   3.942   3.606  14.312  0.8323 -0.0038 -0.0116
   29MPD2    C5  447   4.040   3.539  14.248  0.3475 -0.4182  1.0011
   29MPD2     H  448   3.787   3.338  14.440  0.9364 -0.4763 -0.2155
   29MPD2    H1  449   3.954   3.714  14.308 -0.5620  0.2175  2.0760
   29MPD2    H2  450   4.130   3.363  14.205 -1.4277 -0.4125 -0.1000
   29MPD2    H3  451   4.122   3.588  14.196  0.0855 -2.4199 -1.3176
   29MPD2     N  452   3.750   3.622  14.445 -0.2520  0.3276 -0.3324
   29MPD2    H5  453   3.759   3.722  14.429  1.6966  0.2753  0.3493
   29MPD2    N1  454   3.935   3.185  14.316 -0.6850 -0.0124  0.2686
   29MPD2    H7  455   3.854   3.144  14.361 -0.6598 -0.2016  0.1403
   30TCq2    C1  456   3.643   3.582  14.519 -0.3287  0.3419  1.2134
   30TCq2    O2  457   3.624   3.468  14.563 -0.5145 -0.2279  0.2444
   30TCq2    C2  458   3.574   3.689  14.590  0.4851  0.4093 -0.0355
   30TCq2    C3  459   3.497   3.642  14.696  0.5699  0.0672  0.4051
   30TCq2    C4  460   3.461   3.732  14.793 -0.2915 -0.2799 -0.3830
   30TCq2    C5  461   3.498   3.860  14.780  0.4699 -0.1266 -0.7423
   30TCq2    C6  462   3.581   3.897  14.683 -0.0653 -0.0311  0.3799
   30TCq2    C7  463   3.616   3.815  14.578  0.6269 -0.4735 -0.1359
   30TCq2    C8  464   3.605   4.042  14.669  0.4097 -0.0014 -0.1810
   30TCq2    O4  465   3.591   4.092  14.560 -0.7399  0.6736  0.0206
   30TCq2    C9  466   3.373   3.686  14.904 -0.0148 -0.1458 -0.4073
   30TCq2    O5  467   3.304   3.778  14.966 -0.4050 -0.1527  0.2838
   30TCq2    O6  468   3.363   3.563  14.928  0.6866 -0.0402 -0.1199
   30TCq2    H2  469   3.454   3.542  14.696 -1.3222  0.8883  1.6486
   30TCq2    H3  470   3.451   3.932  14.846  2.8497  1.4520 -0.7855
   30TCq2    H4  471   3.676   3.855  14.497  1.1468  0.8412  0.9037
   31MPD2     C  472   1.695   1.884  15.119 -0.1623 -0.1903  0.0861
   31MPD2    C1  473   1.568   1.914  15.089 -0.5906  0.1935 -0.2714
   31MPD2    C2  474   1.474   1.831  15.149 -0.2128  0.4220  0.1047
   31MPD2    C3  475   1.501   1.737  15.253  0.0275 -0.4252 -0.1259
   31MPD2    C4  476   1.638   1.725  15.286  0.2955  0.1023 -0.5636
   31MPD2    C5  477   1.730   1.806  15.221  0.1451 -0.6709 -0.3176
   31MPD2     H  478   1.368   1.841  15.125 -0.5248  0.8573  1.6718
   31MPD2    H1  479   1.674   1.660  15.365  0.2076  0.5322 -0.1689
   31MPD2    H2  480   1.769   1.949  15.075  1.0837 -0.9497  1.0582
   31MPD2    H3  481   1.836   1.810  15.244 -0.0665 -1.0839  0.7038
   31MPD2     N  482   1.404   1.666  15.337  0.4137 -0.2454  0.2038
   31MPD2    H5  483   1.432   1.598  15.407 -0.0604 -1.6812 -1.0000
   31MPD2    N1  484   1.550   2.017  14.992 -0.1143  0.4859 -0.2569
   31MPD2    H7  485   1.633   2.071  14.968 -0.0993  0.6332  0.1242
   32TCq2    C1  486   1.273   1.683  15.329 -0.0742  0.5662  0.2589
   32TCq2    O2  487   1.205   1.769  15.270 -0.0939  0.0717 -0.6847
   32TCq2    C2  488   1.213   1.641  15.460 -0.0102 -0.1779 -0.5149
   32TCq2    C3  489   1.084   1.678  15.486 -1.0793 -0.0483 -0.2337
   32TCq2    C4  490   1.020   1.641  15.595 -0.3804  0.3634  0.0453
   32TCq2    C5  491   1.099   1.579  15.695 -0.9607  0.0932  0.1225
   32TCq2    C6  492   1.226   1.543  15.674 -0.2039 -0.3548  0.6670
   32TCq2    C7  493   1.280   1.564  15.552 -0.2966 -0.3322 -0.3070
   32TCq2    C8  494   1.295   1.457  15.762  0.3231  0.8212 -0.2788
   32TCq2    O4  495   1.373   1.379  15.719  0.1410 -0.6614  0.5239
   32TCq2    C9  496   0.890   1.686  15.602 -0.6204  0.3367 -0.5929
   32TCq2    O5  497   0.836   1.700  15.713 -0.3886 -0.1977  0.0324
   32TCq2    O6  498   0.832   1.707  15.496 -0.7362 -0.5281  0.4777
   32TCq2    H2  499   1.029   1.743  15.419  0.2233  2.4343  1.0842
   32TCq2    H3  500   1.041   1.561  15.785 -2.5476 -0.7539 -1.0683
   32TCq2    H4  501   1.385   1.536  15.543  0.5050  2.8232 -0.8113
   33MPD2     C  502   1.313   0.088  10.483 -0.4253  0.1883 -0.3049
   33MPD2    C1  503   1.349   4.675  10.466  0.3209 -0.8261 -0.3799
   33MPD2    C2  504   1.353   4.619  10.345 -0.2030  0.1236 -0.6317
   33MPD2    C3  505   1.296   4.692  10.239  0.9109  0.0179  0.4636
   33MPD2    C4  506   1.232   0.092  10.256  0.0517 -0.2141  0.5560
   33MPD2    C5  507   1.249   0.150  10.383  0.3755 -0.0011 -0.1236
   33MPD2     H  508   1.397   4.522  10.326 -0.6689 -1.0035  3.9246
   33MPD2    H1  509   1.184   0.155  10.182  0.8283  0.7692  0.8745
   33MPD2    H2  510   1.328   0.133  10.580 -1.8038  3.5300 -1.6651
   33MPD2    H3  511   1.215   0.253  10.389 -0.0503 -0.1635  0.3036
   33MPD2     N  512   1.306   4.651  10.104  0.1672 -0.1711  0.0147
   33MPD2    H5  513   1.265   4.711  10.034  0.2461  1.2001  1.1390
   33MPD2    N1  514   1.389   4.601  10.583 -1.0320  0.2099 -0.7495
   33MPD2    H7  515   1.397   4.645  10.674  0.2956  0.8322 -1.1676
   34TCq2    C1  516   1.369   4.538  10.056  0.7803  0.2421 -0.0025
   34TCq2    O2  517   1.408   4.436  10.114 -0.1837  0.0577  0.5072
   34TCq2    C2  518   1.383   4.543   9.913  0.0756 -0.1665  0.6975
   34TCq2    C3  519   1.368   4.438   9.832  0.1750  0.2149  0.2671
   34TCq2    C4  520   1.390   4.453   9.696  0.1979  0.3579  0.2142
   34TCq2    C5  521   1.425   4.581   9.645  0.0994 -0.4141 -0.6316
   34TCq2    C6  522   1.435   4.686   9.737  0.2868  0.7576 -0.4644
   34TCq2    C7  523   1.436   4.666   9.872 -0.4754  0.1233 -0.0079
   34TCq2    C8  524   1.483   0.093   9.685  0.4021  0.3663 -0.3793
   34TCq2    O4  525   1.536   0.174   9.765  0.0677  0.1899 -0.1061
   34TCq2    C9  526   1.361   4.355   9.603  0.6529 -0.4683 -0.1532
   34TCq2    O5  527   1.352   4.391   9.484  0.2589  0.3792  0.1870
   34TCq2    O6  528   1.320   4.246   9.652 -0.3709 -0.2374 -0.4114
   34TCq2    H2  529   1.323   4.343   9.860  0.5699  0.3329  1.2887
   34TCq2    H3  530   1.443   4.597   9.540 -0.7808 -1.2184 -0.9088
   34TCq2    H4  531   1.460   0.027   9.940  1.2393 -0.3909  0.0161
   35MPD2     C  532   3.281   1.855  11.655 -0.6865 -0.1679  0.5552
   35MPD2    C1  533   3.280   1.753  11.748  0.0478 -0.4682  0.5027
   35MPD2    C2  534   3.176   1.663  11.761  0.4475 -0.3459 -0.0755
   35MPD2    C3  535   3.067   1.675  11.686 -0.5411 -0.0845 -0.8670
   35MPD2    C4  536   3.067   1.773  11.594  0.1874 -0.3560  0.4887
   35MPD2    C5  537   3.172   1.855  11.574 -0.1941  0.6668  0.1239
   35MPD2     H  538   3.175   1.587  11.838  0.0620 -0.0416  0.2158
   35MPD2    H1  539   2.986   1.794  11.525  1.1085  1.0880 -0.1488
   35MPD2    H2  540   3.367   1.917  11.633  0.0856 -1.3278  0.3171
   35MPD2    H3  541   3.166   1.921  11.488  2.2372  1.5418  0.6328
   35MPD2     N  542   2.954   1.595  11.711  0.0633 -0.0658  0.6893
   35MPD2    H5  543   2.957   1.538  11.795  0.4358  0.7004  1.2028
   35MPD2    N1  544   3.385   1.743  11.840  0.8129  0.3096 -0.0048
   35MPD2    H7  545   3.441   1.827  11.856  1.1280  0.1413 -0.2277
   36TCq2    C1  546   2.842   1.600  11.635  1.2291  0.5311  0.9540
   36TCq2    O2  547   2.795   1.678  11.553 -0.2297  0.1097  0.0525
   36TCq2    C2  548   2.737   1.518  11.706 -0.3263  0.3562 -0.9045
   36TCq2    C3  549   2.606   1.547  11.684  0.4721  0.1469  0.0456
   36TCq2    C4  550   2.516   1.469  11.752 -0.1445 -0.8490 -0.2938
   36TCq2    C5  551   2.559   1.361  11.825  0.2234  0.3518 -0.7458
   36TCq2    C6  552   2.694   1.335  11.839  0.2136 -0.5218  0.2612
   36TCq2    C7  553   2.786   1.411  11.777  0.1714  0.2966 -0.8113
   36TCq2    C8  554   2.724   1.196  11.847  0.5603 -0.4077  1.5874
   36TCq2    O4  555   2.646   1.116  11.803 -0.2676 -0.0018 -0.0035
   36TCq2    C9  556   2.379   1.505  11.766 -0.6875  0.2064  0.2933
   36TCq2    O5  557   2.309   1.431  11.834  0.0150  0.1261 -0.0568
   36TCq2    O6  558   2.342   1.613  11.710 -0.0985  0.0092 -0.1234
   36TCq2    H2  559   2.574   1.633  11.626 -0.3164 -0.7995 -0.9132
   36TCq2    H3  560   2.491   1.294  11.877 -0.9429  2.9540  1.0810
   36TCq2    H4  561   2.887   1.376  11.761  0.2716  0.3116 -0.2284
   37TMC2    C1  562   0.289   1.276  11.574  0.2598  0.5480 -0.3266
   37TMC2    C2  563   0.287   1.252  11.440  0.5769 -0.2473 -0.1720
   37TMC2    C3  564   0.398   1.269  11.366 -0.1405 -0.8024 -0.1573
   37TMC2    C4  565   0.399   1.322  11.636  0.3654  0.2634  0.0984
   37TMC2    C5  566   0.504   1.349  11.554  0.4053 -0.7033  0.3876
   37TMC2    C6  567   0.507   1.324  11.415  0.0596 -0.1054  0.1128
   37TMC2     C  568   0.163   1.261  11.648 -0.3974 -0.1347 -0.1047
   37TMC2     O  569   0.056   1.252  11.585  0.1354 -0.2825 -0.0161
   37TMC2     H  570   0.196   1.219  11.391  0.6489 -2.0444  0.8789
   37TMC2    H1  571   0.405   1.338  11.743  0.2674  1.8398 -0.1265
   37TMC2    H2  572   0.587   1.363  11.353  0.0366 -0.4563 -0.1350
   37TMC2    C7  573   0.626   1.385  11.627  0.6308 -0.1854 -0.3970
   37TMC2    C8  574   0.390   1.218  11.231 -0.7046 -0.3877 -0.1092
   37TMC2    O1  575   0.637   1.376  11.749  0.2969  0.0907 -0.4491
   37TMC2    O2  576   0.298   1.148  11.196  0.3641 -0.0074 -0.1948
   37TMC2    O5  577   0.430   1.321  11.154 -0.4984 -0.0627  0.4767
   37TMC2    H5  578   0.477   1.396  11.196 -1.1512  0.6354 -0.0323
   38MPD2     C  579   4.611   1.280  12.083 -0.5727  0.6758 -0.4884
   38MPD2    C1  580   0.018   1.226  12.104 -0.2413 -0.6971 -0.4026
   38MPD2    C2  581   0.106   1.214  12.003 -0.2975  1.1728 -0.2932
   38MPD2    C3  582   0.078   1.258  11.880  0.4384 -0.2840 -0.3465
   38MPD2    C4  583   4.674   1.323  11.857 -0.6042  0.2320 -0.6976
   38MPD2    C5  584   4.582   1.342  11.964 -0.1850  0.1929  0.3140
   38MPD2     H  585   0.198   1.168  12.037  0.0595  1.2138 -1.1990
   38MPD2    H1  586   4.645   1.355  11.757 -1.0152  0.8120 -0.3886
   38MPD2    H2  587   4.546   1.294  12.169  0.0081 -1.2408  0.2678
   38MPD2    H3  588   4.497   1.405  11.942  0.2810  0.8131  0.2964
   38MPD2     N  589   0.176   1.243  11.782 -0.3303 -0.3522 -0.0661
   38MPD2    H5  590   0.264   1.216  11.825  1.7497  0.8209 -3.6180
   38MPD2    N1  591   0.064   1.183  12.239 -0.0782  0.1080  0.4539
   38MPD2    H7  592   0.161   1.154  12.248 -1.0108 -2.6430  1.5761
   39MPD2     C  593   3.098   2.764   1.658  0.4629  0.4284 -0.2725
   39MPD2    C1  594   3.005   2.842   1.722  0.1027 -0.2220 -0.0844
   39MPD2    C2  595   2.880   2.842   1.674 -0.6916  0.7985 -1.6097
   39MPD2    C3  596   2.838   2.755   1.574 -0.2342 -0.0705 -0.2950
   39MPD2    C4  597   2.931   2.669   1.521  0.3937  0.2497 -0.5871
   39MPD2    C5  598   3.064   2.676   1.555  0.5619 -0.3790  0.3765
   39MPD2     H  599   2.810   2.913   1.717 -0.3588  0.9490 -1.3194
   39MPD2    H1  600   2.915   2.613   1.430  0.2164 -1.5436  0.5298
   39MPD2    H2  601   3.206   2.778   1.669  0.7001 -0.4477 -1.5955
   39MPD2    H3  602   3.142   2.628   1.498 -0.7598  0.4143 -2.1519
   39MPD2     N  603   2.711   2.757   1.509 -0.1279 -0.2616  1.2434
   39MPD2    H5  604   2.702   2.679   1.444 -0.1432 -1.1247  2.2792
   39MPD2    N1  605   3.050   2.917   1.834  0.2791 -0.3688 -1.4647
   39MPD2    H7  606   3.149   2.910   1.854  0.2519  3.4517  0.0392
   40TCq2    C1  607   2.972   2.985   1.929  0.2922  0.2019  0.5349
   40TCq2    O2  608   2.849   2.988   1.949 -0.1556 -0.5319  0.0037
   40TCq2    C2  609   3.053   3.087   2.005  0.6716 -0.0291 -0.9488
   40TCq2    C3  610   2.974   3.171   2.084 -0.0848  0.6518 -0.0239
   40TCq2    C4  611   3.039   3.263   2.163  0.0377 -0.1149  0.4525
   40TCq2    C5  612   3.181   3.275   2.161 -0.3461 -0.0169  0.1240
   40TCq2    C6  613   3.254   3.189   2.080  0.7716 -0.1379  0.3211
   40TCq2    C7  614   3.190   3.093   2.005 -0.9687  0.3139  0.1720
   40TCq2    C8  615   3.391   3.225   2.037  0.3558 -0.0768 -0.2830
   40TCq2    O4  616   3.458   3.142   1.979 -0.2608 -0.2248 -0.0068
   40TCq2    C9  617   2.964   3.343   2.257  0.5597  0.3131 -0.4438
   40TCq2    O5  618   2.840   3.352   2.252  0.6288  0.5853 -0.1780
   40TCq2    O6  619   3.038   3.413   2.332  0.7694  0.2571  0.2430
   40TCq2    H2  620   2.866   3.168   2.089 -0.1519  0.3063 -1.4991
   40TCq2    H3  621   3.226   3.351   2.224  0.7089  1.3046 -2.2214
   40TCq2    H4  622   3.254   3.026   1.950  0.6987 -0.7322  3.3689
   41TMC2    C1  623   2.024   1.046  13.789  0.0941  0.3419  0.1129
   41TMC2    C2  624   2.154   1.058  13.801  0.0930 -0.1191 -0.1394
   41TMC2    C3  625   2.226   1.115  13.702 -0.2765 -0.6383  0.0947
   41TMC2    C4  626   1.966   1.082  13.666  0.4077 -0.1941  0.3915
   41TMC2    C5  627   2.051   1.105  13.564 -0.3011  0.4744  1.0698
   41TMC2    C6  628   2.185   1.116  13.571  0.5859  0.4408 -0.4888
   41TMC2     C  629   1.925   1.013  13.900  0.4474 -0.0586 -0.2538
   41TMC2     O  630   1.802   1.011  13.893 -0.0988 -0.1773  0.3071
   41TMC2     H  631   2.201   1.036  13.897 -1.1239 -2.0677  0.0198
   41TMC2    H1  632   1.858   1.071  13.659  0.2517  0.6610  1.5568
   41TMC2    H2  633   2.257   1.115  13.489 -0.9087 -1.5759 -1.7602
   41TMC2    C7  634   1.991   1.104  13.435  0.1134  0.4848 -0.2822
   41TMC2    C8  635   2.370   1.111  13.721 -0.0683  0.5053  0.1607
   41TMC2    O1  636   1.873   1.075  13.431 -0.0362 -1.0457 -1.1062
   41TMC2    O2  637   2.416   1.067  13.824  0.0439  0.1526 -0.2866
   41TMC2    O5  638   2.411   1.241  13.677 -0.1375 -0.2917  0.2261
   41TMC2    H5  639   2.365   1.277  13.598 -0.4852 -1.1721  0.0275
   42MPD2     C  640   1.807   0.976  14.183 -0.1557 -0.6260 -0.4482
   42MPD2    C1  641   1.925   1.046  14.146  0.3507  0.0576  0.4931
   42MPD2    C2  642   1.990   1.102  14.258 -0.1739  0.2934 -0.4131
   42MPD2    C3  643   1.945   1.080  14.387 -0.2847 -0.2858  0.6678
   42MPD2    C4  644   1.837   0.998  14.407  0.1796 -0.0656  0.3540
   42MPD2    C5  645   1.756   0.963  14.303  0.3232 -0.6276  0.4027
   42MPD2     H  646   2.081   1.158  14.238 -0.9165  1.6174 -0.1180
   42MPD2    H1  647   1.804   0.987  14.510 -0.5558 -0.1594  0.1128
   42MPD2    H2  648   1.757   0.925  14.101  0.1903 -0.8956 -0.4918
   42MPD2    H3  649   1.662   0.910  14.320  2.0361 -4.0385 -0.7676
   42MPD2     N  650   2.030   1.125  14.496 -0.2456 -0.2872  0.2696
   42MPD2    H5  651   2.016   1.087  14.589 -0.2133 -0.9363  0.0099
   42MPD2    N1  652   1.985   1.053  14.020 -0.3469  1.0260 -0.3366
   42MPD2    H7  653   2.076   1.099  14.016  1.2208 -1.9414  0.7082
   43MPD2     C  654   3.991   4.440   1.234 -0.0911 -0.0430  0.0020
   43MPD2    C1  655   3.971   4.325   1.303  0.3197  0.1451 -0.1339
   43MPD2    C2  656   3.879   4.321   1.400  0.6661 -0.3733 -1.2033
   43MPD2    C3  657   3.793   4.432   1.421  0.2359  0.3906  0.0037
   43MPD2    C4  658   3.830   4.546   1.362  0.8818  0.7414  0.0743
   43MPD2    C5  659   3.932   4.549   1.274  0.0639 -1.1701  0.4920
   43MPD2     H  660   3.870   4.230   1.458 -0.0008  1.2808  1.2724
   43MPD2    H1  661   3.774   4.635   1.386  0.4785  0.2570  0.9318
   43MPD2    H2  662   4.069   4.455   1.160  0.0896 -0.7619  0.0485
   43MPD2    H3  663   3.937   4.641   1.217 -3.1599 -0.1474  1.8715
   43MPD2     N  664   3.700   4.453   1.527 -0.0942 -1.3077 -0.2837
   43MPD2    H5  665   3.664   4.547   1.534  1.8048 -0.6354  0.1376
   43MPD2    N1  666   4.043   4.203   1.282 -0.4754 -0.4953 -0.2228
   43MPD2    H7  667   4.009   4.119   1.328 -1.0437  0.0554  0.3687
   44TCq2    C1  668   3.281   4.322   1.904  0.1419 -0.2209 -0.3682
   44TCq2    O2  669   3.275   4.198   1.910 -0.1745  0.5570 -0.0673
   44TCq2    C2  670   3.406   4.387   1.872 -0.0794  0.5695 -0.3919
   44TCq2    C3  671   3.430   4.517   1.910 -0.0489 -0.2098  0.5074
   44TCq2    C4  672   3.519   4.596   1.842  0.0173 -0.4362 -0.2348
   44TCq2    C5  673   3.591   4.542   1.743  0.6087  0.0293  0.0405
   44TCq2    C6  674   3.573   4.408   1.712 -0.5934  0.3087 -0.1145
   44TCq2    C7  675   3.475   4.329   1.768  0.7526 -0.1175  0.4113
   44TCq2    C8  676   3.651   4.349   1.600  0.2857 -0.3276 -0.3183
   44TCq2    O4  677   3.654   4.226   1.580 -0.3804 -0.7250  0.1588
   44TCq2    C9  678   3.553   0.006   1.887 -0.2927  0.9749 -0.7735
   44TCq2    O5  679   3.489   0.051   1.984 -0.8738 -0.8542  0.3198
   44TCq2    O6  680   3.638   0.077   1.823  0.6024  0.2971 -0.1982
   44TCq2    H2  681   3.383   4.544   2.004 -0.4750 -1.6858  0.7316
   44TCq2    H3  682   3.666   4.608   1.699  0.6719 -0.5373 -0.6995
   44TCq2    H4  683   3.461   4.226   1.736 -0.4670  0.1308  0.1401
   45TMC2    C1  684   0.102   1.380   9.569  0.0829  0.2514  0.2516
   45TMC2    C2  685   0.073   1.278   9.652  0.8300 -0.1226  0.2385
   45TMC2    C3  686   0.162   1.241   9.749  0.9996 -0.4112 -0.2987
   45TMC2    C4  687   0.225   1.441   9.571  0.0069 -0.4970 -0.3697
   45TMC2    C5  688   0.321   1.398   9.652  0.4636 -1.0835  0.2985
   45TMC2    C6  689   0.288   1.306   9.751  0.7638  0.0938  0.2643
   45TMC2     C  690   4.711   1.462   9.539 -0.6570 -0.4535  0.2362
   45TMC2     O  691   0.014   1.581   9.528  0.3636 -0.1543  0.0298
   45TMC2     H  692   4.697   1.225   9.654  1.2929 -1.0027 -0.8107
   45TMC2    H1  693   0.237   1.529   9.508  0.8280  0.4399  1.0989
   45TMC2    H2  694   0.368   1.278   9.818  0.2096  0.4857  1.1086
   45TMC2    C7  695   0.415   1.504   9.689 -0.3323  0.2210 -0.5473
   45TMC2    C8  696   0.166   1.097   9.781 -0.2119 -0.2861 -0.7266
   45TMC2    O1  697   0.462   1.570   9.602  0.3147 -0.1281  0.3417
   45TMC2    O2  698   0.058   1.039   9.790  0.0609  0.0531  0.1232
   45TMC2    O5  699   0.286   1.053   9.819 -0.2600  0.5624  0.2738
   45TMC2    H5  700   0.364   1.105   9.790  1.0300 -0.1876  2.4166
   46MPD2     C  701   4.437   1.583   9.526 -0.1413  0.2217  0.0082
   46MPD2    C1  702   4.464   1.450   9.497  0.5721 -0.3282  0.4968
   46MPD2    C2  703   4.360   1.373   9.443 -0.3306  0.7596  0.1008
   46MPD2    C3  704   4.235   1.415   9.430  0.3825 -0.3829  0.1225
   46MPD2    C4  705   4.206   1.539   9.480  0.5436 -0.5818  0.2334
   46MPD2    C5  706   4.305   1.626   9.523  0.0212  0.6294 -0.0500
   46MPD2     H  707   4.375   1.266   9.431 -1.5899  0.9916 -3.4437
   46MPD2    H1  708   4.107   1.579   9.462 -0.3921 -3.4886 -1.0290
   46MPD2    H2  709   4.511   1.650   9.568  1.2786 -1.6869  0.5597
   46MPD2    H3  710   4.280   1.726   9.555  0.3968  1.1571 -1.4434
   46MPD2     N  711   4.141   1.317   9.387  1.0438  0.3923 -0.0561
   46MPD2    H5  712   4.177   1.224   9.367  1.4488  0.1514  1.8578
   46MPD2    N1  713   4.599   1.390   9.504 -1.3276 -0.1791  0.0378
   46MPD2    H7  714   4.607   1.291   9.485 -2.1743 -0.2113 -0.1578
   47TMC2    C1  715   1.339   2.409   9.630 -0.0013 -0.2016  0.0265
   47TMC2    C2  716   1.366   2.416   9.501  0.2563 -0.5210 -0.5417
   47TMC2    C3  717   1.263   2.391   9.414  1.1758  0.1015 -0.1429
   47TMC2    C4  718   1.220   2.403   9.680  0.6122  1.1051  1.0249
   47TMC2    C5  719   1.117   2.404   9.595  0.1423 -0.2183 -0.0123
   47TMC2    C6  720   1.133   2.385   9.459 -0.2789  0.3296  0.1316
   47TMC2     C  721   1.445   2.421   9.724  0.2371 -0.0761  0.5484
   47TMC2     O  722   1.419   2.482   9.826 -0.3943 -0.7153  0.5763
   47TMC2     H  723   1.467   2.421   9.462  0.5783 -0.7245  0.2556
   47TMC2    H1  724   1.209   2.400   9.788 -3.1060  1.0767  0.6379
   47TMC2    H2  725   1.050   2.386   9.390  0.9008 -0.9644 -1.2854
   47TMC2    C7  726   0.987   2.373   9.652 -0.5279 -0.4373 -0.2659
   47TMC2    C8  727   1.271   2.437   9.277  0.3054  0.3061  0.3205
   47TMC2    O1  728   0.956   2.443   9.748  0.1480 -0.1853  0.2503
   47TMC2    O2  729   1.184   2.416   9.192 -0.0218  0.5262 -0.1606
   47TMC2    O5  730   1.317   2.566   9.300 -0.1469 -0.2406  0.2923
   47TMC2    H5  731   1.355   2.578   9.390 -0.0056 -0.7480  0.3015
   48MPD2     C  732   1.693   2.412   9.871 -0.5637  0.6937 -0.3612
   48MPD2    C1  733   1.658   2.330   9.764  0.0435 -0.0466 -0.2434
   48MPD2    C2  734   1.747   2.231   9.737 -0.0111 -0.3507 -1.2635
   48MPD2    C3  735   1.871   2.222   9.793  0.1478  0.5514  0.5843
   48MPD2    C4  736   1.909   2.307   9.903 -0.4427 -0.4645 -0.3542
   48MPD2    C5  737   1.811   2.399   9.939  0.0162  0.4945 -0.1982
   48MPD2     H  738   1.718   2.163   9.658  0.9662  0.5441 -2.3976
   48MPD2    H1  739   1.995   2.291   9.967  1.0437  0.5884 -2.0663
   48MPD2    H2  740   1.633   2.494   9.907  0.8017  1.1782  0.8135
   48MPD2    H3  741   1.834   2.473  10.016 -1.7783  0.8522 -0.0087
   48MPD2     N  742   1.944   2.106   9.760  0.5566  0.0976 -0.2135
   48MPD2    H5  743   1.914   2.064   9.672  2.1156 -2.3644  0.4341
   48MPD2    N1  744   1.547   2.346   9.681  0.4585  0.0004  0.3490
   48MPD2    H7  745   1.547   2.299   9.592  0.2476 -0.0123  0.3548
   49MPD2     C  746   0.770   0.083  10.008  0.7072  0.1943 -0.3389
   49MPD2    C1  747   0.751   0.009  10.125 -0.8967 -0.0746  0.3344
   49MPD2    C2  748   0.647   0.040  10.214  0.5866 -0.4557  0.6057
   49MPD2    C3  749   0.562   0.146  10.189 -0.2967 -0.0512 -0.5418
   49MPD2    C4  750   0.577   0.214  10.069  0.5640  0.8160  1.0428
   49MPD2    C5  751   0.678   0.182   9.979  0.1286  0.0333 -0.6380
   49MPD2     H  752   0.639   4.708  10.309  0.7141 -0.8510  0.4035
   49MPD2    H1  753   0.511   0.298  10.050 -1.4451 -0.8449  0.6653
   49MPD2    H2  754   0.859   0.069   9.949  0.5263 -1.8600 -0.1254
   49MPD2    H3  755   0.696   0.232   9.885 -0.9539 -0.0027 -0.8668
   49MPD2     N  756   0.465   0.200  10.278 -0.0995 -0.2961  0.7111
   49MPD2    H5  757   0.408   0.282  10.259  3.0496  2.0314  1.2203
   49MPD2    N1  758   0.832   4.621  10.161 -0.0931 -0.5429  0.6581
   49MPD2    H7  759   0.802   4.575  10.246 -0.8605  0.9935  1.2149
   50TCq2    C1  760   0.927   4.568  10.088  0.5745 -0.1838  0.0554
   50TCq2    O2  761   0.972   4.590   9.978  0.5510  0.4306  0.1715
   50TCq2    C2  762   1.003   4.478  10.171  0.1367 -0.2633 -0.1807
   50TCq2    C3  763   1.076   4.386  10.099 -0.4017 -0.3467  0.2289
   50TCq2    C4  764   1.136   4.284  10.173 -0.5521 -0.0734 -0.7058
   50TCq2    C5  765   1.131   4.280  10.312  0.4874  0.1318 -0.6936
   50TCq2    C6  766   1.070   4.387  10.374  0.0977  0.7884  0.6724
   50TCq2    C7  767   1.008   4.485  10.306 -0.1571 -0.1725  0.0012
   50TCq2    C8  768   1.070   4.390  10.517  0.9527 -0.3321  0.8116
   50TCq2    O4  769   1.089   4.279  10.577  0.1242 -0.6928  0.3105
   50TCq2    C9  770   1.213   4.181  10.101 -0.4087 -0.0388 -0.9682
   50TCq2    O5  771   1.178   4.166   9.982 -0.2672 -0.2593 -0.3346
   50TCq2    O6  772   1.314   4.137  10.163  0.0640 -0.1650  0.0093
   50TCq2    H2  773   1.076   4.391   9.991 -2.9839  0.6497  0.2874
   50TCq2    H3  774   1.193   4.208  10.364 -0.3601  0.7559  1.2157
   50TCq2    H4  775   0.932   4.536  10.363 -0.7984 -1.0122 -0.0979
   51MPD2     C  776   0.589   2.351   1.189 -0.3587  0.0817 -0.2201
   51MPD2    C1  777   0.538   2.224   1.211  0.3541 -0.8206 -0.0907
   51MPD2    C2  778   0.574   2.156   1.328 -0.6238 -0.8134 -0.6636
   51MPD2    C3  779   0.645   2.225   1.425  0.6222  0.1563 -1.0395
   51MPD2    C4  780   0.667   2.356   1.407  0.1099 -0.1096  0.4559
   51MPD2    C5  781   0.657   2.413   1.287 -0.0177  0.1871  0.5369
   51MPD2     H  782   0.550   2.050   1.336 -1.9797 -0.4560 -0.0842
   51MPD2    H1  783   0.730   2.411   1.475  0.0237  1.3578 -0.6623
   51MPD2    H2  784   0.573   2.400   1.093  0.5094 -0.8252 -0.8345
   51MPD2    H3  785   0.697   2.513   1.271  1.5711 -0.1628  2.2777
   51MPD2     N  786   0.682   2.160   1.548 -0.1579 -0.1410 -0.1223
   51MPD2    H5  787   0.755   2.209   1.599 -0.3232 -0.6508  0.5907
   51MPD2    N1  788   0.466   2.149   1.111 -0.7156 -0.0625  0.2995
   51MPD2    H7  789   0.456   2.050   1.131  0.6014  0.1435  1.9979
   52TCq2    C1  790   0.650   2.034   1.584  0.6582  0.1118  0.4331
   52TCq2    O2  791   0.564   1.963   1.535  0.1456  0.3753  0.1021
   52TCq2    C2  792   0.716   1.981   1.701  0.4182 -0.3658  0.7120
   52TCq2    C3  793   0.670   1.862   1.751  0.3403  0.4347  0.2532
   52TCq2    C4  794   0.750   1.799   1.843 -0.1965  0.0614  0.1166
   52TCq2    C5  795   0.873   1.843   1.872  0.6387  0.0773  0.5470
   52TCq2    C6  796   0.913   1.964   1.823  0.9838 -0.4607 -0.2849
   52TCq2    C7  797   0.838   2.037   1.738 -0.0822 -0.8652  0.5718
   52TCq2    C8  798   1.040   2.023   1.866 -0.2358 -0.9429 -0.2933
   52TCq2    O4  799   1.069   2.131   1.818 -0.4178  0.0051  0.5068
   52TCq2    C9  800   0.706   1.667   1.895 -0.6982  0.5488  0.3375
   52TCq2    O5  801   0.624   1.608   1.825  0.1968 -0.4136  0.0456
   52TCq2    O6  802   0.753   1.634   2.005 -0.1083 -0.0987 -0.5079
   52TCq2    H2  803   0.572   1.822   1.731  0.3877  0.7219 -0.5436
   52TCq2    H3  804   0.930   1.779   1.939  1.4139  2.0398  1.7570
   52TCq2    H4  805   0.876   2.127   1.690 -0.3377  0.7110  3.3327
   53TMC2    C1  806   1.167   1.530  12.088 -0.2684  0.3058 -0.4567
   53TMC2    C2  807   1.284   1.497  12.151 -0.4472 -0.7347 -0.1611
   53TMC2    C3  808   1.262   1.464  12.285  0.1684  0.5243 -0.1276
   53TMC2    C4  809   1.053   1.567  12.148 -1.0480  0.7972  0.2280
   53TMC2    C5  810   1.046   1.563  12.283  0.4953 -0.5507  0.2902
   53TMC2    C6  811   1.151   1.506  12.351  0.6987 -0.1764  0.7279
   53TMC2     C  812   1.172   1.514  11.947 -0.0011  0.0426 -0.0446
   53TMC2     O  813   1.269   1.457  11.903  0.1919 -0.0632 -0.3066
   53TMC2     H  814   1.379   1.485  12.100 -1.2039  0.6393 -1.8879
   53TMC2    H1  815   0.972   1.611  12.091 -0.6083 -0.7196 -1.5510
   53TMC2    H2  816   1.135   1.490  12.457  0.2926  0.1371  0.7138
   53TMC2    C7  817   0.922   1.592  12.349  0.3798  0.1314  0.6220
   53TMC2    C8  818   1.373   1.421  12.370  0.0556 -0.3966  0.4457
   53TMC2    O1  819   0.834   1.633  12.276 -0.6590 -0.0704 -0.1087
   53TMC2    O2  820   1.384   1.444  12.491 -0.0160  0.6950  0.3938
   53TMC2    O5  821   1.445   1.329  12.298 -0.5357  0.1431  0.2794
   53TMC2    H5  822   1.419   1.302  12.208  0.1752  0.1274  0.0746
   54MPD2     C  823   1.127   1.480  11.656  0.1160 -0.4134 -0.4027
   54MPD2    C1  824   1.028   1.496  11.752 -0.5243 -0.3915 -0.6610
   54MPD2    C2  825   0.897   1.490  11.707 -0.4765  0.3167 -0.1926
   54MPD2    C3  826   0.863   1.458  11.579  0.2813  0.0729  0.5431
   54MPD2    C4  827   0.959   1.461  11.484 -0.1168  0.0020  0.3331
   54MPD2    C5  828   1.089   1.474  11.523 -0.5122  0.0592 -0.5284
   54MPD2     H  829   0.821   1.497  11.784 -0.8599  0.6065 -0.5954
   54MPD2    H1  830   0.937   1.439  11.380 -0.2417  0.2438  0.3105
   54MPD2    H2  831   1.232   1.495  11.679 -0.0585 -0.9401  0.7702
   54MPD2    H3  832   1.164   1.473  11.444 -0.7561 -0.4237 -0.7585
   54MPD2     N  833   0.724   1.432  11.542  0.1849  0.2746  0.5278
   54MPD2    H5  834   0.686   1.438  11.448  1.5090  1.2760  0.0619
   54MPD2    N1  835   1.047   1.524  11.891 -0.0017  0.0401 -0.5790
   54MPD2    H7  836   0.964   1.516  11.949  0.5669  1.5278  0.4247
   55MPD2     C  837   1.622   2.888  17.308  1.0478 -0.2918 -0.7342
   55MPD2    C1  838   1.593   2.880  17.443  0.5719  0.0496  0.1977
   55MPD2    C2  839   1.545   2.995  17.499 -0.5517  0.4422 -0.0889
   55MPD2    C3  840   1.539   3.122  17.444 -0.0682 -0.1911 -0.2743
   55MPD2    C4  841   1.569   3.130  17.309 -0.2285 -0.0976  0.3978
   55MPD2    C5  842   1.605   3.013  17.243 -0.6571 -0.0872  0.3310
   55MPD2     H  843   1.501   2.998  17.598  0.8093  0.5203  0.5106
   55MPD2    H1  844   1.564   3.223  17.253  1.8961 -1.0998 -1.4427
   55MPD2    H2  845   1.651   2.797  17.258  0.9583 -1.3591  1.1345
   55MPD2    H3  846   1.627   3.021  17.137  0.9778 -0.1560  0.6678
   55MPD2     N  847   1.499   3.230  17.525  0.7209 -0.3465 -0.2692
   55MPD2    H5  848   1.483   3.208  17.622 -1.0820  0.9277 -0.2873
   55MPD2    N1  849   1.608   2.759  17.521 -0.1593 -0.2232 -0.6696
   55MPD2    H7  850   1.613   2.667  17.477 -0.4362 -1.1302  1.1716
   56TCq2    C1  851   1.586   2.754  17.659  0.1686 -0.1093  0.4858
   56TCq2    O2  852   1.552   2.841   0.063 -0.0330  0.0450  0.3288
   56TCq2    C2  853   1.607   2.616   0.029  0.0255  0.4601 -0.1657
   56TCq2    C3  854   1.658   2.514  17.634  0.5854  0.2867 -0.3404
   56TCq2    C4  855   1.675   2.391   0.015 -0.0254  0.2366 -0.5081
   56TCq2    C5  856   1.641   2.369   0.141 -0.2707 -0.5089 -0.3561
   56TCq2    C6  857   1.579   2.464   0.213 -0.2569  1.4008 -0.0472
   56TCq2    C7  858   1.561   2.587   0.160  0.8275 -0.0910  0.4418
   56TCq2    C8  859   1.560   2.438   0.359 -0.0539  0.0366  0.1797
   56TCq2    O4  860   1.552   2.319   0.403 -0.3257  0.4492  0.0941
   56TCq2    C9  861   1.724   2.276  17.620  0.3692  0.2496 -0.1225
   56TCq2    O5  862   1.754   2.173  17.678  0.1542 -0.2254  0.0470
   56TCq2    O6  863   1.731   2.293  17.497 -0.5812 -0.1151  0.1713
   56TCq2    H2  864   1.678   2.521  17.528 -0.9063 -2.0344 -0.7713
   56TCq2    H3  865   1.646   2.270   0.184  1.6713  0.1302  0.9323
   56TCq2    H4  866   1.497   2.664   0.202 -0.9561 -0.6954 -1.1672
   57TMC2    C1  867   1.145   0.109  13.860 -0.0247  0.1505  0.3788
   57TMC2    C2  868   1.210   0.015  13.934 -1.1144 -0.1273 -0.9626
   57TMC2    C3  869   1.334   4.696  13.892  0.2324 -0.1667  0.2256
   57TMC2    C4  870   1.206   0.164  13.746  0.7084  1.0543 -0.2416
   57TMC2    C5  871   1.330   0.124  13.710  0.2877  0.3599 -0.2643
   57TMC2    C6  872   1.400   0.032  13.787  0.3259  0.6422  0.3621
   57TMC2     C  873   1.000   0.105  13.847  0.7034  0.1155  0.3169
   57TMC2     O  874   0.945   0.192  13.781  0.2215 -0.1248 -0.1498
   57TMC2     H  875   1.168   4.688  14.022  1.4472 -2.5396 -0.9880
   57TMC2    H1  876   1.155   0.243  13.692  0.4784  1.9309  1.2859
   57TMC2    H2  877   1.492   4.706  13.753 -0.9675 -0.6302 -1.4461
   57TMC2    C7  878   1.376   0.139  13.576  0.6310 -0.1430  0.2454
   57TMC2    C8  879   1.403   4.601  13.978  0.3929 -0.0386  0.1069
   57TMC2    O1  880   1.319   0.231  13.517  0.2471  0.4923  0.2737
   57TMC2    O2  881   1.350   4.496  14.016 -0.3644 -0.7208  0.0185
   57TMC2    O5  882   1.534   4.637  13.974  0.3089 -0.1210  0.0083
   57TMC2    H5  883   1.536   0.015  13.968  0.0841 -0.0999  0.2919
   58MPD2     C  884   0.544   4.594  13.923  0.1141 -0.1978 -0.0621
   58MPD2    C1  885   0.574   0.008  13.896  0.8061 -0.2104  0.3227
   58MPD2    C2  886   0.708   0.049  13.882 -0.3421  0.1186  0.8322
   58MPD2    C3  887   0.810   4.672  13.898  0.3423 -0.3629  0.0230
   58MPD2    C4  888   0.772   4.540  13.924  0.1029  0.7751  0.4757
   58MPD2    C5  889   0.647   4.502  13.936  0.4566 -0.4888  0.0394
   58MPD2     H  890   0.733   0.154  13.878 -0.7519  0.1491 -1.3679
   58MPD2    H1  891   0.844   4.462  13.945 -0.4096  0.2730  0.3354
   58MPD2    H2  892   0.447   4.558  13.956 -0.0130  1.2788  1.1911
   58MPD2    H3  893   0.626   4.399  13.961  2.0451 -0.6476  0.7175
   58MPD2     N  894   0.948   4.702  13.899 -0.3930 -0.0977  0.1939
   58MPD2    H5  895   1.017   4.628  13.906 -1.2729 -0.5783  3.5864
   58MPD2    N1  896   0.482   0.118  13.908  0.8298 -0.1191  0.0190
   58MPD2    H7  897   0.518   0.212  13.899 -0.8240  0.6644  1.4017
   59MPD2     C  898   3.308   0.820  13.246 -0.2954 -0.3605 -0.4608
   59MPD2    C1  899   3.387   0.729  13.169 -0.4529  0.1572  0.6548
   59MPD2    C2  900   3.470   0.643  13.239 -0.2804  0.3382  0.4848
   59MPD2    C3  901   3.474   0.656  13.379 -0.2568  0.1228  0.2328
   59MPD2    C4  902   3.394   0.747  13.452 -0.4758  0.6944 -0.2792
   59MPD2    C5  903   3.306   0.825  13.383 -0.8814  0.1764 -0.1009
   59MPD2     H  904   3.529   0.576  13.178 -0.9627  1.7899 -1.7212
   59MPD2    H1  905   3.395   0.761  13.560 -0.7200 -1.6993  0.0416
   59MPD2    H2  906   3.246   0.890  13.193 -0.8358  0.7142  1.5858
   59MPD2    H3  907   3.243   0.900  13.428 -1.9212 -0.4131 -0.5654
   59MPD2     N  908   3.558   0.575  13.459 -0.1442  0.1712 -0.0908
   59MPD2    H5  909   3.536   0.580  13.558 -1.3445  0.8715 -0.3966
   59MPD2    N1  910   3.379   0.719  13.030  0.2164  0.0860 -0.4439
   59MPD2    H7  911   3.424   0.637  12.989 -0.0366  0.5883 -1.7133
   60TCq2    C1  912   3.310   0.802  12.949  0.7601 -0.1184  0.0314
   60TCq2    O2  913   3.296   0.922  12.961  0.1028  0.0865  0.4436
   60TCq2    C2  914   3.313   0.741  12.820 -0.4691 -0.4199 -0.3133
   60TCq2    C3  915   3.263   0.612  12.810 -0.4122 -0.4033  0.5793
   60TCq2    C4  916   3.300   0.542  12.693  0.2169 -0.2644  0.3400
   60TCq2    C5  917   3.381   0.600  12.594 -0.5301 -0.3001 -0.3205
   60TCq2    C6  918   3.419   0.729  12.607  0.0799  0.2267  0.1847
   60TCq2    C7  919   3.390   0.796  12.722  0.7908  0.3604  0.4417
   60TCq2    C8  920   3.520   0.774  12.516  0.2006 -0.3877 -1.0770
   60TCq2    O4  921   3.596   0.692  12.464 -0.2966 -0.3357 -0.1704
   60TCq2    C9  922   3.263   0.399  12.686  0.0795 -0.4230  0.0120
   60TCq2    O5  923   3.333   0.333  12.606  0.2900  0.1064  0.4252
   60TCq2    O6  924   3.205   0.356  12.787 -0.1655 -0.4211 -0.4766
   60TCq2    H2  925   3.213   0.555  12.887 -1.1648  1.2416  1.2988
   60TCq2    H3  926   3.393   0.548  12.499 -0.0683  1.9184 -1.4739
   60TCq2    H4  927   3.435   0.891  12.750 -0.1864  0.3220  2.1622
   61MPD2     C  928   2.644   1.342  14.520  0.6647  0.3352  0.5603
   61MPD2    C1  929   2.712   1.449  14.577  0.8133 -0.4009 -0.1813
   61MPD2    C2  930   2.747   1.553  14.499 -0.4520  0.3498  0.3385
   61MPD2    C3  931   2.711   1.566  14.366 -0.0745  0.8357 -0.2531
   61MPD2    C4  932   2.637   1.454  14.313  0.7519  0.2384 -0.6225
   61MPD2    C5  933   2.603   1.347  14.391 -0.4323 -0.2421  0.1418
   61MPD2     H  934   2.812   1.628  14.541  1.6408 -0.9408 -0.5969
   61MPD2    H1  935   2.601   1.457  14.211 -0.4946  0.1906 -0.1891
   61MPD2    H2  936   2.621   1.248  14.570 -0.8582 -0.3848 -1.5053
   61MPD2    H3  937   2.549   1.266  14.344  0.7858 -2.3587  2.3849
   61MPD2     N  938   2.733   1.684  14.288  0.7537  0.6069  0.2397
   61MPD2    H5  939   2.685   1.681  14.199  1.0708  1.3819  0.0447
   61MPD2    N1  940   2.747   1.455  14.712  0.2829 -0.1832  0.3284
   61MPD2    H7  941   2.782   1.548  14.733  0.5274 -0.2599  0.2578
   62TCq2    C1  942   2.729   1.357  14.806  0.5500  0.4553 -0.9716
   62TCq2    O2  943   2.702   1.234  14.802 -0.0071 -0.3413  0.2014
   62TCq2    C2  944   2.748   1.402  14.950  0.0523  1.1189  0.1302
   62TCq2    C3  945   2.686   1.337  15.046  0.0033 -0.2073 -0.1296
   62TCq2    C4  946   2.681   1.392  15.170 -0.4221 -0.6204  0.4106
   62TCq2    C5  947   2.728   1.519  15.186  0.3047  0.0464  0.2955
   62TCq2    C6  948   2.796   1.587  15.090 -0.3240  0.6411 -0.2923
   62TCq2    C7  949   2.810   1.519  14.973 -0.4339  0.7243  1.8593
   62TCq2    C8  950   2.786   1.731  15.075 -0.0469  0.8964 -1.0641
   62TCq2    O4  951   2.839   1.787  14.982 -0.4394  0.2255 -0.4324
   62TCq2    C9  952   2.608   1.331  15.275 -0.3303  0.0295 -1.2415
   62TCq2    O5  953   2.557   1.406  15.361 -0.0527 -0.5223  0.1884
   62TCq2    O6  954   2.584   1.211  15.255  0.2648  0.0902  0.5791
   62TCq2    H2  955   2.619   1.254  15.025  1.7141 -1.7815  0.6128
   62TCq2    H3  956   2.727   1.565  15.284 -1.3974 -1.0474  0.7795
   62TCq2    H4  957   2.876   1.562  14.899 -2.3462 -1.1790 -0.9403
   63TMC2    C1  958   1.863   1.618  11.363 -1.3359 -0.3630  0.7357
   63TMC2    C2  959   1.889   1.720  11.442 -0.3316 -0.7350 -0.1909
   63TMC2    C3  960   1.975   1.812  11.391 -0.9551  0.8606  0.2151
   63TMC2    C4  961   1.911   1.609  11.234 -0.0412  0.1750 -0.3735
   63TMC2    C5  962   2.001   1.704  11.192 -0.3836 -0.9691 -0.3321
   63TMC2    C6  963   2.039   1.812  11.270 -0.4981 -0.1001 -0.3729
   63TMC2     C  964   1.814   1.495  11.419  0.2467  0.2492  0.1669
   63TMC2     O  965   1.758   1.505  11.526 -0.0560  0.0974 -0.1580
   63TMC2     H  966   1.856   1.719  11.545 -1.9653  0.1080 -0.6941
   63TMC2    H1  967   1.878   1.541  11.156  0.2171 -0.1686 -0.1837
   63TMC2    H2  968   2.073   1.907  11.231 -0.7610  0.0061 -0.3500
   63TMC2    C7  969   2.032   1.716  11.050  0.2396  0.0236  0.1298
   63TMC2    C8  970   1.984   1.942  11.460  0.1953 -0.2751 -0.3267
   63TMC2    O1  971   1.954   1.668  10.971  0.4687  0.2022 -0.3452
   63TMC2    O2  972   1.968   2.047  11.405  0.2909  0.2125 -0.4157
   63TMC2    O5  973   2.074   1.920  11.557 -0.1500 -0.2111  0.6630
   63TMC2    H5  974   2.086   1.825  11.579 -1.3852 -0.8157 -1.2397
   64MPD2     C  975   1.769   0.982  11.416  0.4434 -0.5537  0.8077
   64MPD2    C1  976   1.852   1.021  11.316  0.3438 -0.2554  0.2802
   64MPD2    C2  977   1.864   1.155  11.285  0.4615 -0.3082  0.5458
   64MPD2    C3  978   1.818   1.251  11.371  0.3274  0.0037  0.0182
   64MPD2    C4  979   1.740   1.210  11.478  0.1241  0.3496 -0.4465
   64MPD2    C5  980   1.713   1.074  11.495  0.2458 -0.3736 -0.1659
   64MPD2     H  981   1.930   1.177  11.202  0.1229 -0.3027  0.2772
   64MPD2    H1  982   1.695   1.283  11.544 -0.1859 -1.4015  1.2862
   64MPD2    H2  983   1.759   0.875  11.435 -2.1465 -0.2809  0.9619
   64MPD2    H3  984   1.661   1.037  11.583 -0.0894 -0.7103 -0.5085
   64MPD2     N  985   1.847   1.386  11.342  0.1527 -0.1037 -0.5788
   64MPD2    H5  986   1.897   1.404  11.256  1.5240  0.0279  0.2428
   64MPD2    N1  987   1.914   0.934  11.223  0.3732  0.3415 -0.3503
   64MPD2    H7  988   1.961   0.972  11.141  0.9302 -3.8113 -1.9844
   65MPD2     C  989   3.142   0.761  15.900  0.4744  0.0842 -0.4357
   65MPD2    C1  990   3.147   0.687  15.786 -0.9494 -0.0276  0.0350
   65MPD2    C2  991   3.167   0.552  15.797 -0.6679 -0.0309 -0.2941
   65MPD2    C3  992   3.163   0.488  15.915  0.1070 -0.0350 -0.0406
   65MPD2    C4  993   3.167   0.565  16.031  0.4157  0.2289 -0.4428
   65MPD2    C5  994   3.161   0.700  16.020  0.4945  0.2724 -0.3318
   65MPD2     H  995   3.156   0.486  15.711  1.0997  0.7825 -1.1538
   65MPD2    H1  996   3.175   0.523  16.131 -1.5803  0.0710 -0.3620
   65MPD2    H2  997   3.140   0.869  15.912  1.3183 -0.5079  5.1015
   65MPD2    H3  998   3.168   0.765  16.107  2.1422 -2.2433  1.4228
   65MPD2     N  999   3.168   0.346  15.932 -0.0186 -0.5350 -0.5964
   65MPD2    H5 1000   3.159   0.306  16.025 -0.0441  1.8810  0.4356
   65MPD2    N1 1001   3.139   0.740  15.655  0.1938 -0.1489  0.1342
   65MPD2    H7 1002   3.136   0.673  15.579  0.1209 -0.2096  0.1902
   66TCq2    C1 1003   3.128   0.871  15.630 -0.5344  0.5744  0.1505
   66TCq2    O2 1004   3.126   0.973  15.704  0.5966 -0.1468 -0.2850
   66TCq2    C2 1005   3.149   0.892  15.488 -0.1043  0.1471 -0.3773
   66TCq2    C3 1006   3.228   0.811  15.419 -0.5933 -0.1627 -0.0727
   66TCq2    C4 1007   3.280   0.855  15.302 -0.2578  0.0102  0.5591
   66TCq2    C5 1008   3.264   0.982  15.259 -0.9263  0.3026  0.6846
   66TCq2    C6 1009   3.178   1.066  15.331  0.1727 -0.1218  0.2031
   66TCq2    C7 1010   3.117   1.017  15.446 -0.2546  0.3043 -0.0561
   66TCq2    C8 1011   3.181   1.210  15.294  0.3513  0.3033  0.2921
   66TCq2    O4 1012   3.221   1.241  15.185 -0.3148  0.5614  0.1125
   66TCq2    C9 1013   3.380   0.768  15.231 -0.6828 -0.1763  0.3913
   66TCq2    O5 1014   3.426   0.671  15.297  0.3253  0.7636  0.6398
   66TCq2    O6 1015   3.378   0.790  15.108  0.2960 -0.4254 -0.6176
   66TCq2    H2 1016   3.263   0.715  15.453 -2.8531 -0.2253  2.0375
   66TCq2    H3 1017   3.312   1.023  15.171 -2.3224  0.5732  0.0482
   66TCq2    H4 1018   3.054   1.078  15.511 -0.1688 -1.3014  1.5399
   67MPD2     C 1019   3.411   0.454  14.116 -0.2495  0.3449 -0.3387
   67MPD2    C1 1020   3.388   0.588  14.136 -0.1272  0.2893 -0.1695
   67MPD2    C2 1021   3.292   0.651  14.064  0.5359 -0.3754  0.1280
   67MPD2    C3 1022   3.213   0.579  13.974 -0.1843 -0.1200  0.7409
   67MPD2    C4 1023   3.231   0.446  13.957  0.3858  0.2162 -0.1625
   67MPD2    C5 1024   3.329   0.387  14.029 -0.3383 -0.2313  0.3631
   67MPD2     H 1025   3.269   0.753  14.093  0.2297  0.0197 -1.4639
   67MPD2    H1 1026   3.174   0.383  13.889 -0.7847  0.3939  0.6593
   67MPD2    H2 1027   3.497   0.403  14.160 -0.6527  1.0848  1.3296
   67MPD2    H3 1028   3.340   0.280  14.012  0.8829 -0.4175  2.3900
   67MPD2     N 1029   3.112   0.634  13.898 -0.1025 -0.1541  0.0769
   67MPD2    H5 1030   3.057   0.571  13.840 -0.1192 -2.1003  2.1973
   67MPD2    N1 1031   3.464   0.663  14.226 -0.0024 -0.0612 -0.1790
   67MPD2    H7 1032   3.440   0.761  14.223  1.4810  0.3301  0.9013
   68TCq2    C1 1033   3.546   0.619  14.326 -0.6037  0.0530  0.5730
   68TCq2    O2 1034   3.583   0.505  14.358 -0.1834 -0.0266  0.5673
   68TCq2    C2 1035   3.577   0.721  14.424  0.2648 -0.1772 -0.1044
   68TCq2    C3 1036   3.464   0.794  14.466  0.4601 -0.6359 -0.4407
   68TCq2    C4 1037   3.449   0.835  14.601  1.0123  0.2640 -0.6126
   68TCq2    C5 1038   3.541   0.794  14.691 -0.0227 -0.1046  0.0817
   68TCq2    C6 1039   3.653   0.725  14.648 -0.4117  0.0364  0.5892
   68TCq2    C7 1040   3.673   0.683  14.517  0.1305 -0.4900 -0.4236
   68TCq2    C8 1041   3.741   0.691  14.753  0.2053  0.1457  0.4239
   68TCq2    O4 1042   3.860   0.693  14.727 -0.1691 -0.6498 -0.4063
   68TCq2    C9 1043   3.323   0.891  14.640 -0.5445  0.0725  0.0123
   68TCq2    O5 1044   3.286   0.875  14.757 -0.3179  0.2790  0.0235
   68TCq2    O6 1045   3.252   0.951  14.554 -0.5494 -0.1321 -0.2899
   68TCq2    H2 1046   3.372   0.813  14.412  1.6650  1.8561 -1.5831
   68TCq2    H3 1047   3.529   0.827  14.794  1.2944 -0.1278  0.2377
   68TCq2    H4 1048   3.761   0.621  14.504 -0.7743 -1.5922 -1.2662
   69TMC2    C1 1049   0.289   1.950  12.199  0.4738 -0.4184 -0.7544
   69TMC2    C2 1050   0.154   1.955  12.170  0.5989  0.5755 -0.2087
   69TMC2    C3 1051   0.115   1.944  12.039 -0.4116  0.0333 -1.0728
   69TMC2    C4 1052   0.383   1.945  12.094 -0.1285 -0.8436 -0.0788
   69TMC2    C5 1053   0.337   1.948  11.964  0.2336  0.0778 -0.4275
   69TMC2    C6 1054   0.203   1.941  11.939 -0.3360 -0.0927  0.1647
   69TMC2     C 1055   0.320   1.962  12.340  0.8173  0.2705 -0.1265
   69TMC2     O 1056   0.228   1.976  12.418 -0.4313  0.1998  0.2859
   69TMC2     H 1057   0.074   1.968  12.242 -1.1006  1.6097 -2.2786
   69TMC2    H1 1058   0.488   1.960  12.116 -0.6790  0.8074  1.4101
   69TMC2    H2 1059   0.165   1.940  11.837 -0.7650 -2.7568  0.3656
   69TMC2    C7 1060   0.443   1.954  11.862 -0.7697  0.1752 -0.3079
   69TMC2    C8 1061   4.694   1.971  12.015  0.0189  0.3311 -0.7220
   69TMC2    O1 1062   0.556   1.967  11.906  0.0190  0.1279  0.6434
   69TMC2    O2 1063   4.600   1.954  12.094 -0.6881  0.7049  0.0175
   69TMC2    O5 1064   4.692   2.072  11.920 -0.1627 -0.2800  0.2386
   69TMC2    H5 1065   0.053   2.102  11.872  1.3095 -2.7331  1.2022
   70MPD2     C 1066   0.662   2.000  12.493  0.4337  0.8124 -0.7126
   70MPD2    C1 1067   0.524   2.009  12.493 -0.5002  0.0552 -0.3978
   70MPD2    C2 1068   0.456   2.036  12.606 -0.2698  0.6911 -0.1920
   70MPD2    C3 1069   0.527   2.058  12.729 -1.3619 -0.3970 -0.2293
   70MPD2    C4 1070   0.665   2.057  12.724 -0.1116 -0.0968  0.2819
   70MPD2    C5 1071   0.735   2.021  12.607 -0.2995  0.5848  0.5598
   70MPD2     H 1072   0.348   2.045  12.605 -0.4269 -0.9962  0.5240
   70MPD2    H1 1073   0.729   2.086  12.807 -0.3606 -2.9864  1.4889
   70MPD2    H2 1074   0.720   1.975  12.405  0.4003 -0.7022 -0.2990
   70MPD2    H3 1075   0.843   2.015  12.605 -0.3502 -0.5195  1.0727
   70MPD2     N 1076   0.468   2.087  12.855 -0.4993 -0.3314  0.4589
   70MPD2    H5 1077   0.537   2.077  12.928  0.6033 -0.4049 -0.5963
   70MPD2    N1 1078   0.454   1.977  12.368  0.7464  0.2846 -0.0321
   70MPD2    H7 1079   0.514   1.951  12.291 -2.3759 -2.8372 -1.3781
   71TMC2    C1 1080   3.486   1.695   1.941  0.3898 -0.1259 -0.5226
   71TMC2    C2 1081   3.582   1.756   2.024  0.6871  0.0576  0.8146
   71TMC2    C3 1082   3.590   1.713   2.155  0.2979  0.2191 -0.2587
   71TMC2    C4 1083   3.400   1.604   1.992  0.4319  0.8533 -0.1450
   71TMC2    C5 1084   3.411   1.567   2.124 -0.6819  0.5911 -0.3689
   71TMC2    C6 1085   3.507   1.620   2.207 -0.0589 -0.0792  0.8325
   71TMC2     C 1086   3.477   1.738   1.796  0.2395 -0.2557  0.1390
   71TMC2     O 1087   3.363   1.728   1.754 -0.0245  0.0328  0.8030
   71TMC2     H 1088   3.640   1.844   1.998  0.5161 -0.2097 -0.4658
   71TMC2    H1 1089   3.338   1.547   1.924 -0.1272  0.0958  1.0101
   71TMC2    H2 1090   3.514   1.593   2.312  0.8521 -3.2408 -0.0463
   71TMC2    C7 1091   3.287   1.508   2.188 -0.6198 -0.4840 -0.4771
   71TMC2    C8 1092   3.676   1.797   2.241 -0.1084  0.0451  0.6637
   71TMC2    O1 1093   3.290   1.468   2.304 -0.0629 -0.1954  0.4862
   71TMC2    O2 1094   3.626   1.858   2.336 -0.0909 -0.1041 -0.0544
   71TMC2    O5 1095   3.792   1.813   2.174 -0.3216 -0.3578  0.0411
   71TMC2    H5 1096   3.790   1.762   2.090  1.2404 -1.3323  0.5947
   72MPD2     C 1097   3.690   1.970   1.384 -0.9344 -0.7288 -0.4445
   72MPD2    C1 1098   3.557   1.937   1.406  0.6742  0.2970  0.9464
   72MPD2    C2 1099   3.522   1.860   1.516  0.6215  0.3236  0.4133
   72MPD2    C3 1100   3.621   1.842   1.618  0.6011  0.4447 -0.6596
   72MPD2    C4 1101   3.755   1.878   1.594  0.3022  0.1141 -0.9033
   72MPD2    C5 1102   3.785   1.940   1.479 -0.0999 -0.3289  0.1820
   72MPD2     H 1103   3.421   1.823   1.526  0.5519 -0.0855 -1.8702
   72MPD2    H1 1104   3.840   1.847   1.654  1.1643  1.8979 -1.1968
   72MPD2    H2 1105   3.722   2.022   1.295 -0.7196  1.0398  0.6470
   72MPD2    H3 1106   3.890   1.952   1.455  0.1025 -1.1975  0.6430
   72MPD2     N 1107   3.596   1.784   1.744 -0.1667 -0.4338  0.5924
   72MPD2    H5 1108   3.670   1.777   1.812 -0.1014  2.2182  0.7882
   72MPD2    N1 1109   3.466   1.961   1.305 -0.3325 -0.1912  0.4797
   72MPD2    H7 1110   3.385   1.900   1.300  0.1352 -0.8330  0.6493
   73TMC2    C1 1111   3.116   3.900  13.532 -0.0680  0.2188  0.4337
   73TMC2    C2 1112   3.156   3.770  13.517  0.3326  0.1271 -0.0964
   73TMC2    C3 1113   3.228   3.708  13.616  0.5281  0.6779  0.1685
   73TMC2    C4 1114   3.137   3.961  13.649  0.6396  0.2221  0.4659
   73TMC2    C5 1115   3.196   3.891  13.755  0.4377  0.1526  0.6939
   73TMC2    C6 1116   3.249   3.767  13.738 -0.1773  0.6443  0.7838
   73TMC2     C 1117   3.058   3.971  13.422 -0.2015 -0.2107  0.2861
   73TMC2     O 1118   3.052   3.926  13.310  0.3350 -0.1379  0.5328
   73TMC2     H 1119   3.144   3.720  13.422  1.6240 -0.0142 -0.1895
   73TMC2    H1 1120   3.126   4.068  13.666  0.7528  0.3960 -0.5629
   73TMC2    H2 1121   3.309   3.713  13.810  1.3602  0.7296 -0.4117
   73TMC2    C7 1122   3.218   3.956  13.884 -0.5476  0.8136  0.8757
   73TMC2    C8 1123   3.244   3.567  13.604 -0.1528  0.2717 -0.3416
   73TMC2    O1 1124   3.316   3.922  13.944  0.4163  0.4740 -0.0358
   73TMC2    O2 1125   3.160   3.499  13.552 -0.3694  0.5399  0.2358
   73TMC2    O5 1126   3.359   3.524  13.663 -0.1418  0.0356  0.0891
   73TMC2    H5 1127   3.403   3.610  13.680 -0.0071  0.6839 -3.5499
   74MPD2     C 1128   2.938   4.437  13.247  0.3984  0.0842  0.4270
   74MPD2    C1 1129   2.926   4.425  13.380 -0.2100  0.0516 -0.1202
   74MPD2    C2 1130   2.935   4.304  13.446  0.2821 -0.7266 -0.9015
   74MPD2    C3 1131   2.956   4.191  13.374 -0.4083 -0.0965  0.0561
   74MPD2    C4 1132   2.979   4.198  13.241  0.1923  0.0130  0.0940
   74MPD2    C5 1133   2.969   4.317  13.180 -0.0776 -0.4125  0.2460
   74MPD2     H 1134   2.943   4.295  13.553 -1.4452 -1.0814 -0.7976
   74MPD2    H1 1135   3.010   4.114  13.179  0.1160 -0.6803  1.0078
   74MPD2    H2 1136   2.929   4.533  13.197  0.0774  0.1340  0.5839
   74MPD2    H3 1137   2.988   4.320  13.073  1.0917 -1.1656  0.4336
   74MPD2     N 1138   2.989   4.080  13.458  0.7914  0.2913 -0.6141
   74MPD2    H5 1139   2.976   4.094  13.557 -1.6424 -1.0207 -0.7540
   74MPD2    N1 1140   2.916   4.544  13.456 -0.4526 -0.6429  0.0736
   74MPD2    H7 1141   2.913   4.632  13.404 -0.2363  1.0575  2.9139
   75TCq2    C1 1142   3.071   0.769  13.908  0.0934  0.4070 -0.1439
   75TCq2    O2 1143   3.135   0.866  13.941 -0.1412  0.5554 -0.0903
   75TCq2    C2 1144   2.927   0.779  13.886 -0.1381 -0.1293  0.0467
   75TCq2    C3 1145   2.846   0.695  13.952 -0.2679  0.4602 -0.1888
   75TCq2    C4 1146   2.713   0.697  13.924 -1.0235 -0.2927  0.0098
   75TCq2    C5 1147   2.662   0.784  13.835 -0.0866  0.0627  0.4137
   75TCq2    C6 1148   2.741   0.872  13.779  0.1789  0.0543  0.7095
   75TCq2    C7 1149   2.878   0.873  13.799  0.0438 -0.0428 -0.3006
   75TCq2    C8 1150   2.680   0.942  13.671 -0.0576 -0.4300  0.2724
   75TCq2    O4 1151   2.581   0.890  13.612 -0.1102  0.0479  0.1399
   75TCq2    C9 1152   2.625   0.615  14.004  0.0630  0.0490 -0.6261
   75TCq2    O5 1153   2.662   0.573  14.115  0.3300  0.0432 -0.0065
   75TCq2    O6 1154   2.511   0.600  13.959  0.3856 -0.2410  0.3649
   75TCq2    H2 1155   2.884   0.629  14.029 -1.4768  1.3287  1.1526
   75TCq2    H3 1156   2.556   0.786  13.813  0.4796 -0.9793 -2.4049
   75TCq2    H4 1157   2.943   0.940  13.744 -0.0851 -0.2671 -0.7267
   76MPD2     C 1158   1.546   1.696  12.058 -0.5197  0.5930 -0.1627
   76MPD2    C1 1159   1.546   1.639  11.930 -0.3647  0.9094 -0.0340
   76MPD2    C2 1160   1.617   1.518  11.907  0.1150 -0.2226  0.3029
   76MPD2    C3 1161   1.684   1.458  12.012 -0.4669  0.0845  0.3736
   76MPD2    C4 1162   1.697   1.523  12.132  0.2037  0.2106 -1.0210
   76MPD2    C5 1163   1.626   1.640  12.157 -0.2881 -0.1129 -0.1808
   76MPD2     H 1164   1.617   1.480  11.806 -1.4528 -0.6864  0.4635
   76MPD2    H1 1165   1.764   1.489  12.210  0.9877  1.8518 -0.9745
   76MPD2    H2 1166   1.487   1.785  12.080 -1.9218 -0.2851 -0.3446
   76MPD2    H3 1167   1.628   1.692  12.252  1.9889  1.4670 -1.0909
   76MPD2     N 1168   1.745   1.333  12.001 -0.1239 -0.0086  0.5834
   76MPD2    H5 1169   1.798   1.294  12.079  0.4682 -0.2368  0.0662
   76MPD2    N1 1170   1.467   1.689  11.825 -0.2536  1.2227 -0.0177
   76MPD2    H7 1171   1.472   1.642  11.735 -0.1539  2.4454 -0.6623
   77TCq2    C1 1172   1.703   1.237  11.911  0.5220  0.0378 -0.3576
   77TCq2    O2 1173   1.601   1.234  11.845 -0.2637  0.5285 -0.4929
   77TCq2    C2 1174   1.776   1.112  11.911 -0.2537  0.2267  0.0502
   77TCq2    C3 1175   1.708   1.009  11.847  0.1426 -0.3852 -0.4533
   77TCq2    C4 1176   1.788   0.898  11.813 -0.1487 -0.7017 -0.0102
   77TCq2    C5 1177   1.914   0.881  11.856  0.6496  0.3065 -0.2840
   77TCq2    C6 1178   1.973   0.987  11.917  0.0165 -0.5015 -0.4248
   77TCq2    C7 1179   1.911   1.111  11.940 -0.5632  0.6690  0.1952
   77TCq2    C8 1180   2.118   0.967  11.933 -0.5722 -0.0107  0.0127
   77TCq2    O4 1181   2.179   0.869  11.890 -0.0126 -0.2662  0.9738
   77TCq2    C9 1182   1.726   0.788  11.744  0.0019  0.5249 -0.5590
   77TCq2    O5 1183   1.603   0.792  11.717  0.5719  0.4034  0.0598
   77TCq2    O6 1184   1.804   0.692  11.719  0.2214 -0.4047  0.2230
   77TCq2    H2 1185   1.604   1.015  11.817  0.2790 -1.2969 -1.0886
   77TCq2    H3 1186   1.972   0.792  11.834 -1.5404 -0.7443 -1.8486
   77TCq2    H4 1187   1.969   1.199  11.967  0.4479  0.7675 -2.2107
   78MPD1     C 1188   2.265   1.739   0.589 -0.6273 -0.2290  0.2766
   78MPD1    C1 1189   2.192   1.775   0.700  0.3843 -0.6626 -0.6373
   78MPD1    C2 1190   2.236   1.732   0.823  0.6730 -0.1627 -0.0199
   78MPD1    C3 1191   2.342   1.645   0.835  0.3038 -0.1776  1.5422
   78MPD1    C4 1192   2.410   1.603   0.725 -0.2990  1.1632  0.3784
   78MPD1    C5 1193   2.379   1.659   0.609  0.2196 -0.2047 -0.5688
   78MPD1     H 1194   2.193   1.776   0.912 -1.5415 -1.6880 -0.3351
   78MPD1    H1 1195   2.502   1.547   0.734 -1.3811 -0.8661 -1.2465
   78MPD1    H2 1196   2.244   1.781   0.491 -0.8931  0.4506  0.6262
   78MPD1    H3 1197   2.436   1.644   0.518  1.1752  0.1337 -0.0217
   78MPD1     N 1198   2.399   1.608   0.962 -0.4276 -0.3837 -0.2722
   78MPD1    H5 1199   2.480   1.547   0.961 -0.8719 -0.9402 -3.9126
   78MPD1    N1 1200   2.073   1.854   0.686 -0.5564  0.7649 -0.5550
   78MPD1    H6 1201   2.072   1.917   0.606 -2.2148  1.1080 -0.2739
   78MPD1    H7 1202   2.065   1.919   0.764  0.5012  1.0122 -0.6584
   79TCq2    C1 1203   2.341   1.637   1.085  0.4188  0.1974 -0.6778
   79TCq2    O2 1204   2.236   1.690   1.113  0.0487 -0.2804 -0.3011
   79TCq2    C2 1205   2.407   1.562   1.201 -0.2700  0.1494 -0.7755
   79TCq2    C3 1206   2.327   1.538   1.312 -0.9723  0.2818 -0.5952
   79TCq2    C4 1207   2.382   1.477   1.417  0.0624  0.0706  0.1069
   79TCq2    C5 1208   2.511   1.443   1.414  0.4466  0.1571 -1.4802
   79TCq2    C6 1209   2.585   1.462   1.298  0.4229 -1.0350  0.4834
   79TCq2    C7 1210   2.531   1.517   1.188  0.2142  0.5441  0.0074
   79TCq2    C8 1211   2.727   1.428   1.300  0.2922  1.0943  0.3949
   79TCq2    O4 1212   2.778   1.419   1.409 -0.5694 -0.5768  0.1903
   79TCq2    C9 1213   2.306   1.443   1.535  0.1041 -0.9882  0.4194
   79TCq2    O5 1214   2.347   1.344   1.605 -0.1733  0.4338 -0.0777
   79TCq2    O6 1215   2.214   1.519   1.567 -0.0093  0.1517  0.3102
   79TCq2    H2 1216   2.223   1.567   1.326 -0.1288  1.9448  2.2597
   79TCq2    H3 1217   2.553   1.395   1.501 -1.7798  1.6268  0.4309
   79TCq2    H4 1218   2.593   1.556   1.108 -1.5667  0.0511 -1.6315
   80MPD2     C 1219   0.916   1.275  12.663 -0.1055 -0.7310  0.4851
   80MPD2    C1 1220   0.847   1.229  12.547 -0.3877  0.2582 -0.2848
   80MPD2    C2 1221   0.711   1.235  12.540 -0.1455 -0.0940 -0.4762
   80MPD2    C3 1222   0.642   1.297  12.643  0.1140 -0.0358  0.6298
   80MPD2    C4 1223   0.710   1.336  12.761 -0.5685  0.3548  0.2431
   80MPD2    C5 1224   0.842   1.317  12.766  0.7968 -0.2037  0.0701
   80MPD2     H 1225   0.660   1.202  12.450 -1.6429  0.6873  0.0791
   80MPD2    H1 1226   0.663   1.365  12.854  0.2966 -0.0344  0.8057
   80MPD2    H2 1227   1.024   1.285  12.670  0.1816 -0.7597 -3.8366
   80MPD2    H3 1228   0.906   1.338  12.852 -0.0960 -0.0738  0.6985
   80MPD2     N 1229   0.500   1.318  12.640 -0.3746 -0.1462 -0.0446
   80MPD2    H5 1230   0.449   1.347  12.722 -0.8981  0.4283 -0.5677
   80MPD2    N1 1231   0.912   1.165  12.436  0.0805 -0.1291  0.4402
   80MPD2    H7 1232   0.858   1.136  12.355 -0.4875  1.7178  0.1526
   81TCq2    C1 1233   1.048   1.141  12.429 -0.0471  0.4398  0.5486
   81TCq2    O2 1234   1.138   1.174  12.507  0.5791  0.5405 -0.4833
   81TCq2    C2 1235   1.079   1.058  12.311  0.5179 -0.2237  0.5435
   81TCq2    C3 1236   1.188   1.101  12.242  0.4971 -0.0118 -0.7127
   81TCq2    C4 1237   1.197   1.072  12.110 -0.4669 -0.2246  0.3754
   81TCq2    C5 1238   1.105   0.990  12.048 -0.1145  0.4365 -0.8008
   81TCq2    C6 1239   1.004   0.935  12.131  1.4037 -0.3670 -0.7398
   81TCq2    C7 1240   0.982   0.973  12.259  0.7507  0.2070  0.2207
   81TCq2    C8 1241   0.901   0.857  12.064  0.1470 -0.4496  0.1387
   81TCq2    O4 1242   0.901   0.859  11.942  0.1900 -0.0566  0.2503
   81TCq2    C9 1243   1.320   1.112  12.041  0.0442 -0.1814 -1.1694
   81TCq2    O5 1244   1.336   1.073  11.922 -0.3572  0.6614  0.0613
   81TCq2    O6 1245   1.363   1.229  12.073 -0.0165 -0.6673 -0.1041
   81TCq2    H2 1246   1.263   1.166  12.285 -1.0103 -1.0518  3.4399
   81TCq2    H3 1247   1.130   0.968  11.945  2.5560 -0.5722  0.0662
   81TCq2    H4 1248   0.904   0.937  12.325  0.1692 -1.7222 -1.5438
   82MPD2     C 1249   4.102   0.943  10.521  0.1501  0.3831 -0.5865
   82MPD2    C1 1250   4.044   0.816  10.523 -0.2217  0.0392 -0.5430
   82MPD2    C2 1251   4.099   0.725  10.608  0.0990 -0.1745  0.6950
   82MPD2    C3 1252   4.204   0.756  10.692 -0.4505  0.5028 -0.1315
   82MPD2    C4 1253   4.268   0.883  10.684  0.3015 -0.1555 -0.0189
   82MPD2    C5 1254   4.212   0.971  10.594 -0.5819  1.0921 -0.4119
   82MPD2     H 1255   4.052   0.631  10.632  2.6541 -1.6402 -0.0057
   82MPD2    H1 1256   4.356   0.910  10.742  0.0466  2.5598 -0.9232
   82MPD2    H2 1257   4.055   1.018  10.459  1.1560  2.2202  0.8674
   82MPD2    H3 1258   4.256   1.069  10.584  0.0691  0.6548 -1.7537
   82MPD2     N 1259   4.246   0.677  10.798  0.2734  0.0902 -0.0644
   82MPD2    H5 1260   4.319   0.712  10.859 -0.9196 -0.4233  1.6657
   82MPD2    N1 1261   3.925   0.794  10.447  0.0369  0.0014  0.2732
   82MPD2    H7 1262   3.892   0.872  10.390  1.2947 -0.0045 -0.4941
   83TCq2    C1 1263   4.216   0.548  10.816  0.7861  1.2082  0.3711
   83TCq2    O2 1264   4.158   0.465  10.747  0.2597 -0.3162  0.3936
   83TCq2    C2 1265   4.220   0.509  10.963 -0.4476  0.5215 -0.4100
   83TCq2    C3 1266   4.211   0.602  11.058 -0.0836  0.6765  0.4794
   83TCq2    C4 1267   4.161   0.568  11.176 -0.4674 -0.5054 -0.3737
   83TCq2    C5 1268   4.122   0.436  11.199  0.4410 -0.3790 -0.3313
   83TCq2    C6 1269   4.134   0.340  11.097  0.1074  0.5204 -0.1395
   83TCq2    C7 1270   4.179   0.380  10.981  0.3602 -0.3591 -0.1980
   83TCq2    C8 1271   4.061   0.218  11.107  0.0617  0.3196  0.7973
   83TCq2    O4 1272   4.043   0.175  11.216  0.3320  0.4331  0.1138
   83TCq2    C9 1273   4.164   0.656  11.291  0.5438 -0.1787 -0.0576
   83TCq2    O5 1274   4.149   0.604  11.405 -0.2883  0.3341  0.4035
   83TCq2    O6 1275   4.147   0.779  11.271 -0.9310 -0.3954 -0.6125
   83TCq2    H2 1276   4.233   0.707  11.042  0.1471  0.6435  0.5755
   83TCq2    H3 1277   4.085   0.409  11.297  0.2752 -0.7801 -0.5036
   83TCq2    H4 1278   4.193   0.303  10.906 -0.0507 -0.8966  0.2718
   84TCq2    C1 1279   0.441   0.143  10.401  0.4724 -0.4050  0.3590
   84TCq2    O2 1280   0.464   0.028  10.436  0.2002  0.2760 -0.2448
   84TCq2    C2 1281   0.380   0.239  10.490  1.0480 -0.1234  0.4211
   84TCq2    C3 1282   0.393   0.377  10.465  0.9452 -0.1629 -0.3245
   84TCq2    C4 1283   0.348   0.460  10.563 -0.4003 -0.2874  0.2051
   84TCq2    C5 1284   0.301   0.411  10.675 -0.4844  0.1188  0.3437
   84TCq2    C6 1285   0.290   0.275  10.696 -0.8956  0.2421 -0.1384
   84TCq2    C7 1286   0.341   0.188  10.606 -0.8605 -0.1719 -0.0276
   84TCq2    C8 1287   0.254   0.220  10.830  0.2917 -0.3211  1.1959
   84TCq2    O4 1288   0.247   0.098  10.844  0.0046 -0.2721  0.1415
   84TCq2    C9 1289   0.345   0.604  10.542  0.0970  0.7091  0.3838
   84TCq2    O5 1290   0.324   0.673  10.647  0.1362 -0.9619  0.5814
   84TCq2    O6 1291   0.409   0.650  10.442  0.2367 -0.1374  0.4504
   84TCq2    H2 1292   0.435   0.412  10.372 -0.2230 -0.7934 -1.0768
   84TCq2    H3 1293   0.262   0.478  10.752 -0.5245 -0.1640  0.5682
   84TCq2    H4 1294   0.346   0.083  10.634  0.1452  0.0220  0.5025
   85MPD2     C 1295   0.745   1.929  16.458 -0.5281  0.2251  0.4650
   85MPD2    C1 1296   0.729   1.886  16.326 -0.5793  0.8163  0.8241
   85MPD2    C2 1297   0.772   1.972  16.221  0.5257 -0.0747 -0.0991
   85MPD2    C3 1298   0.826   2.101  16.248 -0.0551 -0.0814 -0.6881
   85MPD2    C4 1299   0.842   2.133  16.384 -0.4393  0.4818 -0.3410
   85MPD2    C5 1300   0.783   2.055  16.484 -0.5625  0.1435  0.5621
   85MPD2     H 1301   0.757   1.938  16.120  3.0635 -1.8009  0.0995
   85MPD2    H1 1302   0.882   2.230  16.411  0.8997 -1.3263  4.1380
   85MPD2    H2 1303   0.720   1.873  16.548 -0.7433 -1.6300 -0.7577
   85MPD2    H3 1304   0.781   2.093  16.585  0.8702  0.8129  0.3471
   85MPD2     N 1305   0.861   2.190  16.140  0.2538  0.6165 -0.3397
   85MPD2    H5 1306   0.815   2.174  16.051 -0.2632  2.6897 -0.4446
   85MPD2    N1 1307   0.656   1.769  16.300 -0.5393 -0.5234 -0.4004
   85MPD2    H7 1308   0.616   1.765  16.206  0.3787 -0.9353 -0.7786
   86TCq2    C1 1309   0.944   2.296  16.165 -0.3645  0.0285  0.2617
   86TCq2    O2 1310   1.047   2.290  16.232 -0.3526 -0.3770  0.3944
   86TCq2    C2 1311   0.931   2.392  16.063  0.2620  1.2601  0.2896
   86TCq2    C3 1312   1.041   2.454  16.019 -0.0111  0.2208  0.4838
   86TCq2    C4 1313   1.031   2.554  15.922 -0.2087  1.1798 -0.1862
   86TCq2    C5 1314   0.908   2.576  15.863  0.4377 -0.3704 -0.8660
   86TCq2    C6 1315   0.799   2.514  15.918 -0.5248 -0.1899 -0.1563
   86TCq2    C7 1316   0.806   2.426  16.017  0.0181  0.4805 -0.5382
   86TCq2    C8 1317   0.660   2.523  15.857  0.3521  0.1498 -0.3815
   86TCq2    O4 1318   0.573   2.479  15.927  0.0914  0.1849  0.0280
   86TCq2    C9 1319   1.150   2.620  15.868 -1.0067  0.2905  0.2117
   86TCq2    O5 1320   1.132   2.677  15.753  0.1226 -0.2376 -0.0195
   86TCq2    O6 1321   1.255   2.614  15.934  0.1547  0.3317 -0.3881
   86TCq2    H2 1322   1.137   2.421  16.058 -0.0893 -2.3971 -1.5713
   86TCq2    H3 1323   0.891   2.651  15.787  0.3349  0.0585 -0.4244
   86TCq2    H4 1324   0.714   2.378  16.049  0.4671  1.2819  1.8916
   87MPD2     C 1325   2.019   0.626   1.594  0.1376 -0.2846 -0.0630
   87MPD2    C1 1326   2.139   0.627   1.516  0.5716  0.3367 -0.6784
   87MPD2    C2 1327   2.181   0.748   1.465  0.4437 -0.6406  0.3654
   87MPD2    C3 1328   2.099   0.853   1.469  0.1493  0.3797  0.8063
   87MPD2    C4 1329   1.985   0.857   1.536  0.1382 -0.0012 -0.2146
   87MPD2    C5 1330   1.944   0.739   1.602  0.1278  0.3855 -0.1920
   87MPD2     H 1331   2.262   0.769   1.396 -1.5180 -1.6966 -2.2685
   87MPD2    H1 1332   1.921   0.943   1.545 -0.8061 -0.9014  1.7803
   87MPD2    H2 1333   1.985   0.536   1.643  0.3287 -0.1794  0.2640
   87MPD2    H3 1334   1.854   0.739   1.662 -0.1262  0.0585 -0.5727
   87MPD2     N 1335   2.137   0.962   1.383 -0.7073 -0.2114 -0.3309
   87MPD2    H5 1336   2.216   0.935   1.326  0.6743  2.2475  0.3901
   87MPD2    N1 1337   2.201   0.504   1.490  0.3303  0.8575  0.7279
   87MPD2    H7 1338   2.141   0.425   1.512 -1.9780  2.2620 -0.5322
   88TCq2    C1 1339   2.314   0.481   1.408  0.4881  0.3709 -0.3331
   88TCq2    O2 1340   2.415   0.555   1.401 -0.0634 -0.1854 -0.2111
   88TCq2    C2 1341   2.306   0.348   1.345 -0.8805  0.2761 -0.6691
   88TCq2    C3 1342   2.192   0.316   1.275  0.1214 -0.0525  0.3501
   88TCq2    C4 1343   2.210   0.248   1.158  0.3435 -0.7586 -0.3860
   88TCq2    C5 1344   2.330   0.198   1.115 -0.1486 -0.5324  0.4562
   88TCq2    C6 1345   2.437   0.214   1.195 -0.1368  0.1753 -0.0117
   88TCq2    C7 1346   2.427   0.292   1.305 -0.2947 -0.5804 -0.0090
   88TCq2    C8 1347   2.563   0.187   1.128  0.7899 -0.3134 -0.8054
   88TCq2    O4 1348   2.572   0.165   1.006  0.5126 -0.4204 -0.1665
   88TCq2    C9 1349   2.090   0.223   1.080 -0.1569 -0.4862 -0.3850
   88TCq2    O5 1350   1.980   0.238   1.136  1.0540  0.2256 -0.3468
   88TCq2    O6 1351   2.098   0.192   0.957 -0.1635 -0.1486 -0.2483
   88TCq2    H2 1352   2.097   0.362   1.297 -0.1230 -0.6251  0.4721
   88TCq2    H3 1353   2.319   0.138   1.026 -0.4579 -0.8408  0.7031
   88TCq2    H4 1354   2.517   0.345   1.334 -1.3417  0.9463  0.4075
   89MPD2     C 1355   3.658   3.374   2.028  0.1308  0.2419 -0.2474
   89MPD2    C1 1356   3.534   3.432   2.052 -0.0668  0.8327 -0.1642
   89MPD2    C2 1357   3.528   3.563   2.077  0.2936 -0.6998 -0.0722
   89MPD2    C3 1358   3.627   3.649   2.062 -0.0253 -0.0885  0.0746
   89MPD2    C4 1359   3.747   3.598   2.020 -0.5855 -0.4444 -0.0842
   89MPD2    C5 1360   3.762   3.462   2.008  0.0371  0.0764  0.5033
   89MPD2     H 1361   3.429   3.598   2.105  0.7260  0.1213  0.3967
   89MPD2    H1 1362   3.830   3.660   1.987 -1.3640 -0.4116 -1.9884
   89MPD2    H2 1363   3.673   3.269   2.007 -0.6265  0.0844 -0.0138
   89MPD2    H3 1364   3.858   3.421   1.980 -0.6329 -0.9072 -0.3640
   89MPD2     N 1365   3.600   3.788   2.091  0.3196 -0.1378  0.1915
   89MPD2    H5 1366   3.501   3.809   2.095  0.0206 -1.7028  1.4704
   89MPD2    N1 1367   3.411   3.361   2.064 -0.7080  0.0023  0.5824
   89MPD2    H7 1368   3.326   3.414   2.081 -0.5506  0.3195  0.3850
   90TCq2    C1 1369   3.693   3.891   2.072  0.2238  0.5362 -0.5481
   90TCq2    O2 1370   3.808   3.884   2.036 -0.7109  0.0297  0.1471
   90TCq2    C2 1371   3.636   4.024   2.090  0.3388  0.0742  0.0091
   90TCq2    C3 1372   3.508   4.038   2.138  0.0358 -0.5152  0.2515
   90TCq2    C4 1373   3.465   4.166   2.178 -0.0815  0.0167 -0.0832
   90TCq2    C5 1374   3.542   4.272   2.154 -0.0082  0.4530 -0.1118
   90TCq2    C6 1375   3.666   4.258   2.100 -0.0428 -0.1142 -0.0979
   90TCq2    C7 1376   3.711   4.133   2.067  0.9379 -0.0560  0.0319
   90TCq2    C8 1377   3.745   4.377   2.083  0.3607 -0.4862  0.3110
   90TCq2    O4 1378   3.717   4.479   2.148  0.2220  0.2133 -0.2527
   90TCq2    C9 1379   3.341   4.187   2.252 -0.0995 -0.0832 -0.2280
   90TCq2    O5 1380   3.330   4.301   2.307  0.3243 -0.2966 -0.7202
   90TCq2    O6 1381   3.279   4.089   2.297  0.6798  0.4632 -0.6141
   90TCq2    H2 1382   3.448   3.950   2.159 -0.8902 -0.5251 -2.3885
   90TCq2    H3 1383   3.508   4.370   2.184 -1.7563 -0.2143  0.0793
   90TCq2    H4 1384   3.812   4.119   2.031  0.5828 -1.8508 -0.2674
   91TMC2    C1 1385   0.227   2.875  16.892  0.5998 -0.3327 -0.2407
   91TMC2    C2 1386   0.264   2.884  17.023 -0.0571 -0.2991 -0.1459
   91TMC2    C3 1387   0.179   2.953  17.111 -1.1260  0.1457 -0.2412
   91TMC2    C4 1388   0.114   2.936  16.846  0.2455  0.1101 -0.4294
   91TMC2    C5 1389   0.045   3.020  16.927  0.7755 -0.2333  0.0810
   91TMC2    C6 1390   0.064   3.021  17.063 -0.3590  0.7645  0.1092
   91TMC2     C 1391   0.269   2.756  16.827  0.1736  0.0534  0.0672
   91TMC2     O 1392   0.192   2.697  16.753 -0.2572 -0.5978 -0.2819
   91TMC2     H 1393   0.351   2.831  17.061  0.9635  1.0410 -0.6304
   91TMC2    H1 1394   0.084   2.922  16.743 -1.4089 -0.1694  0.0879
   91TMC2    H2 1395   4.718   3.073  17.131  0.0561  2.8991 -1.1147
   91TMC2    C7 1396   4.666   3.113  16.878 -0.7316  0.0339  0.2857
   91TMC2    C8 1397   0.185   2.918  17.247  0.0893  0.3778  0.2716
   91TMC2    O1 1398   4.600   3.174  16.964 -0.1655 -0.1923 -0.5166
   91TMC2    O2 1399   0.097   2.857  17.297 -0.3436  0.2204  0.1600
   91TMC2    O5 1400   0.291   2.986  17.304 -0.0602 -0.5285 -0.1791
   91TMC2    H5 1401   0.337   3.036  17.233  0.4562 -1.3802 -0.4575
   92MPD2     C 1402   0.426   2.542  16.736  0.8608 -0.3194  0.1663
   92MPD2    C1 1403   0.470   2.669  16.728 -1.1860  0.3590 -0.8429
   92MPD2    C2 1404   0.595   2.698  16.681 -0.0071 -0.6224  0.7112
   92MPD2    C3 1405   0.656   2.601  16.603 -0.5453  0.3145 -0.0900
   92MPD2    C4 1406   0.614   2.466  16.605 -0.1941  0.0474  0.0278
   92MPD2    C5 1407   0.495   2.443  16.670 -0.6151 -0.1264 -0.0571
   92MPD2     H 1408   0.633   2.800  16.679  0.3624 -0.7994 -1.8563
   92MPD2    H1 1409   0.655   2.383  16.549 -0.4449 -0.1790  0.1840
   92MPD2    H2 1410   0.339   2.514  16.794 -0.2212  4.0685  0.6489
   92MPD2    H3 1411   0.465   2.339  16.683  0.0457 -0.0854  1.8434
   92MPD2     N 1412   0.762   2.650  16.523  0.3777 -0.8311  0.5824
   92MPD2    H5 1413   0.766   2.750  16.507  1.7221 -0.7331  1.6014
   92MPD2    N1 1414   0.402   2.765  16.805 -0.6921 -0.1363 -0.5168
   92MPD2    H7 1415   0.439   2.850  16.845 -1.8932  0.6361 -1.0414
   93MPD2     C 1416   2.233   3.020  13.983 -0.0505 -0.3294 -0.0902
   93MPD2    C1 1417   2.183   3.148  14.035  0.1331 -0.2181 -1.0240
   93MPD2    C2 1418   2.052   3.154  14.080  0.4026  0.0671  0.0166
   93MPD2    C3 1419   1.969   3.042  14.090 -0.5789  0.2420 -0.2989
   93MPD2    C4 1420   2.022   2.915  14.056 -0.4650  0.2901 -0.9437
   93MPD2    C5 1421   2.152   2.904  14.003 -0.4159  0.0043 -0.1266
   93MPD2     H 1422   2.014   3.254  14.097  1.8254  0.1746  2.7427
   93MPD2    H1 1423   1.966   2.823  14.065  1.1373 -0.5885  0.1615
   93MPD2    H2 1424   2.337   3.016  13.953 -0.4812  0.1641 -1.6320
   93MPD2    H3 1425   2.196   2.807  13.985  0.6629  0.4840 -0.0754
   93MPD2     N 1426   1.833   3.051  14.117  0.7283  0.3439  0.3716
   93MPD2    H5 1427   1.784   2.963  14.125 -0.1886  0.8585  0.4230
   93MPD2    N1 1428   2.261   3.270  14.035  0.2997 -0.1604 -0.6581
   93MPD2    H7 1429   2.220   3.343  14.093 -0.1858  0.3214 -1.6056
   94TCq2    C1 1430   2.379   3.284  13.969 -0.5211  0.1570 -0.1929
   94TCq2    O2 1431   2.449   3.201  13.913  0.2576 -0.2636  0.3487
   94TCq2    C2 1432   2.439   3.415  13.990  0.0059 -0.5414 -0.3372
   94TCq2    C3 1433   2.356   3.511  14.053  0.1694  1.0362  0.1206
   94TCq2    C4 1434   2.430   3.617  14.112 -0.4632  0.1597  0.1593
   94TCq2    C5 1435   2.564   3.624  14.105  0.1627  0.4631  0.1689
   94TCq2    C6 1436   2.636   3.523  14.039 -0.2912  0.1884  0.1389
   94TCq2    C7 1437   2.576   3.414  13.978  0.0204  0.0648 -0.4272
   94TCq2    C8 1438   2.783   3.536  14.033  0.3202  0.6722 -0.4899
   94TCq2    O4 1439   2.844   3.451  13.965 -0.0424  0.7123 -0.3532
   94TCq2    C9 1440   2.356   3.746  14.147  0.2560 -0.0518 -0.2424
   94TCq2    O5 1441   2.419   3.850  14.169  0.5284 -0.7956  0.0383
   94TCq2    O6 1442   2.232   3.741  14.138  0.4248 -0.1388 -0.6191
   94TCq2    H2 1443   2.248   3.513  14.052  0.1664  0.3354 -1.4460
   94TCq2    H3 1444   2.606   3.723  14.123  1.5085 -0.1108  0.1072
   94TCq2    H4 1445   2.627   3.337  13.922 -1.9927 -2.2324  0.9113
   95TMC2    C1 1446   2.693   0.160  16.747  0.2985 -1.0378  0.7827
   95TMC2    C2 1447   2.730   0.104  16.864 -1.0577 -0.3966  0.5713
   95TMC2    C3 1448   2.714   0.183  16.977 -0.1909 -0.4685 -0.3575
   95TMC2    C4 1449   2.646   0.292  16.734  0.0949 -0.1823 -0.4004
   95TMC2    C5 1450   2.638   0.367  16.857  0.1651  0.2011 -0.7710
   95TMC2    C6 1451   2.672   0.311  16.980  0.6512 -0.2355  0.5691
   95TMC2     C 1452   2.713   0.086  16.625 -0.3223  0.5412 -0.2694
   95TMC2     O 1453   2.732   0.157  16.524 -0.1803 -0.6433  0.5152
   95TMC2     H 1454   2.778   0.007  16.872  2.0573  0.9951 -0.9031
   95TMC2    H1 1455   2.626   0.346  16.642  0.3964  1.9505  0.7837
   95TMC2    H2 1456   2.663   0.363  17.074  0.7218 -0.3585  0.6438
   95TMC2    C7 1457   2.549   0.485  16.868  0.3701 -0.0494 -0.2197
   95TMC2    C8 1458   2.797   0.149  17.083  0.4302  0.3932  0.2097
   95TMC2    O1 1459   2.557   0.558  16.967  0.5130  0.1883  0.9656
   95TMC2    O2 1460   2.916   0.136  17.070 -0.1495 -0.0450 -0.0453
   95TMC2    O5 1461   2.728   0.049  17.144  0.1979  0.0203  0.3577
   95TMC2    H5 1462   2.632   0.051  17.123 -0.2789 -0.7464  2.4817
   96MPD2     C 1463   2.850   4.394  16.343  0.3756 -0.2832  0.6524
   96MPD2    C1 1464   2.883   4.529  16.332  0.0710  0.1021 -0.0616
   96MPD2    C2 1465   2.842   4.621  16.424 -0.5620  0.9242  0.3775
   96MPD2    C3 1466   2.764   4.586  16.537  0.2281  0.6002  0.5502
   96MPD2    C4 1467   2.752   4.445  16.554  0.2909 -0.3344  0.0053
   96MPD2    C5 1468   2.789   4.354  16.459 -0.1418  0.2533 -0.7886
   96MPD2     H 1469   2.876   0.003  16.407 -2.0603  1.4386  0.4803
   96MPD2    H1 1470   2.693   4.402  16.634  1.3378 -3.8986 -1.1279
   96MPD2    H2 1471   2.864   4.325  16.261  1.8340  0.2603  0.4376
   96MPD2    H3 1472   2.762   4.249  16.464 -0.0799  0.3066  0.5282
   96MPD2     N 1473   2.719   4.669  16.641 -0.4711  1.0435 -0.2345
   96MPD2    H5 1474   2.684   4.630  16.728  2.3810 -2.0533 -0.4703
   96MPD2    N1 1475   2.961   4.559  16.218 -0.1074 -0.4032 -0.6600
   96MPD2    H7 1476   2.985   4.482  16.156  0.1095  0.4505 -1.6252
   97MPD2     C 1477   0.036   2.240   1.276  0.1672 -0.0899  0.6682
   97MPD2    C1 1478   4.626   2.239   1.224  0.1172 -0.7371  0.5631
   97MPD2    C2 1479   4.605   2.273   1.093 -0.0506  0.0332 -0.8693
   97MPD2    C3 1480   4.699   2.334   1.013  0.2221  0.1215  0.0140
   97MPD2    C4 1481   0.110   2.336   1.067 -0.1643 -0.5545 -0.2327
   97MPD2    C5 1482   0.136   2.279   1.191  0.3943 -0.1057 -0.1452
   97MPD2     H 1483   4.505   2.282   1.051  1.5121  3.0655 -3.9682
   97MPD2    H1 1484   0.199   2.380   1.023  1.7828 -1.0169  3.3048
   97MPD2    H2 1485   0.061   2.232   1.381  0.3887 -0.4648  0.5876
   97MPD2    H3 1486   0.241   2.268   1.217  0.2311  0.1903  0.6179
   97MPD2     N 1487   4.655   2.402   0.896  0.5917 -0.0390 -0.2387
   97MPD2    H5 1488   4.560   2.380   0.868  0.4049  0.6642 -0.1573
   97MPD2    N1 1489   4.524   2.199   1.320  0.0662  0.5869  0.5434
   97MPD2    H7 1490   4.555   2.185   1.416  0.2767  4.2855  0.9980
   98TCq2    C1 1491   0.006   2.497   0.828  0.4926  0.1601  0.2946
   98TCq2    O2 1492   0.108   2.555   0.865 -0.1854  0.0950  0.4424
   98TCq2    C2 1493   4.649   2.558   0.715  0.4265  0.9664  0.4772
   98TCq2    C3 1494   4.554   2.486   0.653 -0.1456 -0.3888 -0.2969
   98TCq2    C4 1495   4.479   2.549   0.565 -0.7736  0.0393  0.3075
   98TCq2    C5 1496   4.498   2.680   0.531  0.4379 -0.1137 -0.3473
   98TCq2    C6 1497   4.600   2.746   0.597 -0.1529 -0.4320  0.1161
   98TCq2    C7 1498   4.678   2.684   0.687  0.0818  0.0881 -0.3208
   98TCq2    C8 1499   4.654   2.877   0.553  0.0478 -0.6581 -0.8188
   98TCq2    O4 1500   0.041   2.918   0.596 -0.9058  0.0739 -0.0112
   98TCq2    C9 1501   4.364   2.481   0.501 -0.7042  0.0288 -0.2729
   98TCq2    O5 1502   4.294   2.545   0.418  0.4187  0.2397  0.5556
   98TCq2    O6 1503   4.328   2.375   0.560 -0.2166 -0.3133 -0.6425
   98TCq2    H2 1504   4.518   2.390   0.687  0.2814 -0.4501 -0.0152
   98TCq2    H3 1505   4.428   2.730   0.466 -0.1084 -0.5201 -0.0774
   98TCq2    H4 1506   0.029   2.745   0.742 -0.6422  0.6134  0.0259
   99MPD2     C 1507   2.791   4.361   2.050  0.1023 -0.9557 -0.2257
   99MPD2    C1 1508   2.840   4.487   2.025 -0.5545  0.0769 -0.0953
   99MPD2    C2 1509   2.971   4.496   1.986  0.6396 -1.0659 -0.0695
   99MPD2    C3 1510   3.048   4.387   1.969  1.3634  0.0170  0.0891
   99MPD2    C4 1511   2.998   4.259   1.984 -0.1157  0.4870 -0.6080
   99MPD2    C5 1512   2.871   4.253   2.027  0.3457 -0.7146  0.7552
   99MPD2     H 1513   2.999   4.597   1.957 -0.0567 -0.4772  1.2928
   99MPD2    H1 1514   3.054   4.168   1.968  0.9597  1.0344  0.0535
   99MPD2    H2 1515   2.694   4.329   2.086 -0.4363  1.0079  0.0625
   99MPD2    H3 1516   2.835   4.151   2.035 -2.1198  0.1761  1.0598
   99MPD2     N 1517   3.184   4.416   1.934  0.2963 -0.1964 -0.3223
   99MPD2    H5 1518   3.222   4.510   1.928 -0.8491  0.1958 -1.4856
   99MPD2    N1 1519   2.750   4.592   2.037 -0.6882  0.0085 -0.5031
   99MPD2    H7 1520   2.788   4.686   2.034 -4.2500  1.4414 -0.0847
  100TCq2    C1 1521   2.615   4.587   2.059 -0.0767  0.2732  0.3706
  100TCq2    O2 1522   2.539   4.490   2.055 -0.5141 -0.2741 -0.2366
  100TCq2    C2 1523   2.549   0.001   2.066 -0.0955 -0.0656 -0.1470
  100TCq2    C3 1524   2.613   0.108   2.117  0.2121 -0.0795  0.0712
  100TCq2    C4 1525   2.541   0.219   2.158 -0.0225  0.2239 -0.8804
  100TCq2    C5 1526   2.408   0.216   2.142 -0.3939  0.5555  0.2196
  100TCq2    C6 1527   2.347   0.117   2.076 -0.1331 -0.2348  0.7471
  100TCq2    C7 1528   2.416   0.004   2.035 -0.1481 -0.1978  0.6437
  100TCq2    C8 1529   2.217   0.151   2.021 -0.2112  0.0104  0.2394
  100TCq2    O4 1530   2.161   0.255   2.056  0.4289 -0.1713 -0.6204
  100TCq2    C9 1531   2.604   0.329   2.228 -0.6071 -0.0089 -0.5667
  100TCq2    O5 1532   2.727   0.345   2.207 -0.2559  0.1437  0.0301
  100TCq2    O6 1533   2.532   0.416   2.286  0.0507  0.5622  0.2734
  100TCq2    H2 1534   2.717   0.108   2.148  0.4211 -0.5831 -0.6301
  100TCq2    H3 1535   2.353   0.301   2.181 -0.7787  0.7547 -0.7733
  100TCq2    H4 1536   2.369   4.637   1.991 -1.4684  1.2611 -0.8072
  101MPD2     C 1537   4.469   0.779  13.323  0.0910  0.1227  0.8536
  101MPD2    C1 1538   4.351   0.848  13.343  0.0816  0.0785 -0.5747
  101MPD2    C2 1539   4.245   0.780  13.399  0.1543 -0.1149 -0.5152
  101MPD2    C3 1540   4.257   0.644  13.419 -0.1463 -0.3695  0.4712
  101MPD2    C4 1541   4.371   0.573  13.386 -0.5520 -0.0105 -0.2706
  101MPD2    C5 1542   4.476   0.641  13.341 -0.7871  0.1566  0.1907
  101MPD2     H 1543   4.147   0.823  13.416 -1.0789 -3.3006  0.4039
  101MPD2    H1 1544   4.382   0.466  13.401 -0.1090 -0.1253 -1.4427
  101MPD2    H2 1545   4.555   0.823  13.274 -1.0476 -0.0059 -1.3015
  101MPD2    H3 1546   4.573   0.592  13.337 -1.5120 -1.1169 -1.5850
  101MPD2     N 1547   4.140   0.576  13.482  0.6182 -1.2054 -0.1708
  101MPD2    H5 1548   4.063   0.636  13.508  2.2719  0.3787  1.0936
  101MPD2    N1 1549   4.341   0.985  13.302  0.4955 -0.1904 -0.2509
  101MPD2    H7 1550   4.416   1.022  13.245 -0.0372 -2.1272 -2.2246
  102TCq2    C1 1551   4.324   1.405  13.005  0.8236 -0.3158 -0.2941
  102TCq2    O2 1552   4.401   1.328  12.947  0.7047  0.0084  0.1839
  102TCq2    C2 1553   4.250   1.358  13.119  0.4967 -0.3140  0.1493
  102TCq2    C3 1554   4.147   1.440  13.168  0.2258  0.4122 -0.0688
  102TCq2    C4 1555   4.093   1.400  13.289 -0.3637 -0.1016 -0.0495
  102TCq2    C5 1556   4.135   1.282  13.344 -0.3088  0.5986 -0.3337
  102TCq2    C6 1557   4.236   1.211  13.298 -0.1245 -0.2894 -0.1019
  102TCq2    C7 1558   4.301   1.245  13.183  0.5778 -0.1664  0.3930
  102TCq2    C8 1559   4.253   1.076  13.362 -0.0914  0.3612  0.8467
  102TCq2    O4 1560   4.184   1.063  13.463 -0.7988  0.0992  1.0994
  102TCq2    C9 1561   3.986   1.471  13.355  0.3935 -0.3043  0.0096
  102TCq2    O5 1562   3.917   1.402  13.436 -0.4996  0.0144  0.0704
  102TCq2    O6 1563   3.962   1.588  13.312  0.4886 -0.0415  0.4877
  102TCq2    H2 1564   4.099   1.523  13.118  1.3321  1.1976  0.1791
  102TCq2    H3 1565   4.096   1.263  13.444  0.4203  1.3450  0.0961
  102TCq2    H4 1566   4.394   1.197  13.154  0.4206  0.7226 -1.5813
  103TMC2    C1 1567   2.419   1.345  12.575 -0.3963  0.0801  0.5848
  103TMC2    C2 1568   2.546   1.406  12.574  0.6755  0.2948 -0.2516
  103TMC2    C3 1569   2.585   1.469  12.686 -1.4269  0.0193 -0.1041
  103TMC2    C4 1570   2.337   1.353  12.687  0.5422 -0.4315  0.4044
  103TMC2    C5 1571   2.384   1.415  12.796 -0.2472  0.5699 -0.0860
  103TMC2    C6 1572   2.513   1.475  12.808 -0.2783  0.5063  0.5417
  103TMC2     C 1573   2.362   1.285  12.447 -0.1486  0.0912  0.4062
  103TMC2     O 1574   2.241   1.265  12.449  0.0882 -0.3236 -0.0288
  103TMC2     H 1575   2.616   1.366  12.502 -1.1889  0.6127 -2.2259
  103TMC2    H1 1576   2.243   1.299  12.686  0.8231 -0.8912 -1.0415
  103TMC2    H2 1577   2.550   1.536  12.890  4.3605 -1.7439  0.1363
  103TMC2    C7 1578   2.313   1.379  12.919  0.1337 -0.4051  0.8588
  103TMC2    C8 1579   2.720   1.523  12.681  0.3667 -0.1126  0.7744
  103TMC2    O1 1580   2.388   1.367  13.011  0.0367 -0.0445  0.0983
  103TMC2    O2 1581   2.763   1.566  12.786 -0.1452 -0.7726  0.3885
  103TMC2    O5 1582   2.725   1.600  12.570  0.2998 -0.5599  0.0220
  103TMC2    H5 1583   2.657   1.578  12.503 -0.7213 -0.1696  0.9280
  104MPD2     C 1584   2.551   1.091  12.193 -0.0289  1.0527 -0.3736
  104MPD2    C1 1585   2.439   1.143  12.259  0.2333 -0.6791 -0.6587
  104MPD2    C2 1586   2.312   1.130  12.201 -0.4661 -0.6834  0.3217
  104MPD2    C3 1587   2.291   1.049  12.092 -0.4386 -0.3466 -0.2375
  104MPD2    C4 1588   2.399   0.981  12.037 -0.0292  0.1618  0.1817
  104MPD2    C5 1589   2.529   1.008  12.087 -0.6863 -0.2669 -0.2322
  104MPD2     H 1590   2.226   1.185  12.240  0.9834  0.6915  1.5501
  104MPD2    H1 1591   2.389   0.901  11.965  0.8786  0.6135 -0.4398
  104MPD2    H2 1592   2.647   1.079  12.243 -1.4875 -0.0850  2.2027
  104MPD2    H3 1593   2.618   0.961  12.047 -0.3620 -0.1020  0.2877
  104MPD2     N 1594   2.162   1.047  12.034 -0.2114 -0.3403  0.6970
  104MPD2    H5 1595   2.086   1.100  12.075  0.9934  2.6964 -0.9808
  104MPD2    N1 1596   2.460   1.227  12.371  0.7002 -0.3687  0.4087
  104MPD2    H7 1597   2.556   1.245  12.396  1.3415  0.1654 -2.4373
  105MPD2     C 1598   4.011   0.215   0.363  0.1782  0.0456 -0.4268
  105MPD2    C1 1599   3.930   0.301   0.289  0.5453 -0.2981  0.1060
  105MPD2    C2 1600   3.805   0.328   0.343  0.1475  0.2887  0.2471
  105MPD2    C3 1601   3.753   0.259   0.454 -0.4430  0.1719 -0.5275
  105MPD2    C4 1602   3.837   0.174   0.526 -0.5018 -0.0339 -0.9147
  105MPD2    C5 1603   3.967   0.156   0.478 -1.0934 -0.0220 -0.4675
  105MPD2     H 1604   3.743   0.402   0.294 -1.1455 -1.4226 -0.7362
  105MPD2    H1 1605   3.803   0.116   0.611  0.6739  1.0904  0.3210
  105MPD2    H2 1606   4.105   0.178   0.326 -0.5827 -2.5603  0.2221
  105MPD2    H3 1607   4.021   0.073   0.522  0.0150  0.6464 -0.5809
  105MPD2     N 1608   3.617   0.278   0.494  0.3982 -0.0270 -0.0213
  105MPD2    H5 1609   3.569   0.346   0.436 -1.3506 -1.1716  0.0825
  105MPD2    N1 1610   3.968   0.356   0.160  0.0972  0.0884  0.7350
  105MPD2    H7 1611   3.911   0.432   0.125  1.4011  0.6505 -0.1748
  106TCq2    C1 1612   3.549   0.205   0.589 -0.2315 -0.2837 -0.0121
  106TCq2    O2 1613   3.584   0.121   0.665  0.0689  0.1840 -0.0377
  106TCq2    C2 1614   3.422   0.269   0.621  0.9647 -0.0040  0.0642
  106TCq2    C3 1615   3.341   0.311   0.522  0.3734 -0.1545 -0.0730
  106TCq2    C4 1616   3.212   0.339   0.552 -0.1793  0.0364  0.3900
  106TCq2    C5 1617   3.170   0.330   0.683 -0.5629  0.2198 -0.6916
  106TCq2    C6 1618   3.241   0.265   0.778  0.4594  0.3276 -1.1484
  106TCq2    C7 1619   3.376   0.239   0.746  0.0274 -0.7093  0.2229
  106TCq2    C8 1620   3.195   0.252   0.915  0.3807  0.2274 -0.1275
  106TCq2    O4 1621   3.285   0.268   0.997 -1.0055 -0.0738  0.1069
  106TCq2    C9 1622   3.134   0.424   0.468 -0.5521 -0.3737  0.2244
  106TCq2    O5 1623   3.020   0.456   0.514 -0.1773  0.4584  0.0489
  106TCq2    O6 1624   3.160   0.405   0.346  0.1397 -0.2430  0.4275
  106TCq2    H2 1625   3.379   0.345   0.427  1.4388 -2.3964 -0.4376
  106TCq2    H3 1626   3.074   0.374   0.710  0.8742  1.8660  1.7454
  106TCq2    H4 1627   3.426   0.177   0.819 -1.7185 -1.6973  0.5794
  107TMC2    C1 1628   0.032   4.452  11.655  0.2752 -0.2269  0.1222
  107TMC2    C2 1629   0.146   4.379  11.635 -0.0735 -0.9008 -0.5033
  107TMC2    C3 1630   0.219   4.406  11.522 -0.6373 -0.3405 -0.8847
  107TMC2    C4 1631   4.716   4.558  11.577 -0.0716 -0.1581 -0.2724
  107TMC2    C5 1632   0.082   4.591  11.473  0.1202  0.5458 -0.0143
  107TMC2    C6 1633   0.188   4.512  11.443 -0.6588  0.0196  0.3176
  107TMC2     C 1634   4.707   4.461  11.793  0.5707  0.6773  0.1848
  107TMC2     O 1635   4.590   4.487  11.812  0.7280 -0.4872 -1.0205
  107TMC2     H 1636   0.177   4.305  11.708  1.1806 -1.7331 -1.8740
  107TMC2    H1 1637   4.619   4.604  11.594  0.6992  0.1890  3.1323
  107TMC2    H2 1638   0.231   4.545  11.349  2.4992  0.9297  2.1060
  107TMC2    C7 1639   0.086   0.008  11.440 -0.1036  0.1338  0.3285
  107TMC2    C8 1640   0.312   4.301  11.485 -0.5617  0.6709 -0.2436
  107TMC2    O1 1641   0.048   0.088  11.524  0.3003  0.2766  0.4009
  107TMC2    O2 1642   0.270   4.188  11.488 -0.2452  0.0198  0.3900
  107TMC2    O5 1643   0.409   4.359  11.415  0.1237  1.1507 -0.0881
  107TMC2    H5 1644   0.416   4.456  11.427  0.9107  0.6401  3.6187
  108MPD2     C 1645   0.186   4.440  12.108 -0.8406  0.3147 -0.2877
  108MPD2    C1 1646   0.071   4.438  12.028 -0.5049 -0.0557  0.2427
  108MPD2    C2 1647   4.668   4.423  12.092  1.0490 -0.1177  0.4380
  108MPD2    C3 1648   4.649   4.433  12.224 -0.3854 -0.3232 -0.4863
  108MPD2    C4 1649   0.046   4.438  12.304 -0.6582 -0.5291  0.5160
  108MPD2    C5 1650   0.170   4.444  12.242  1.0443  0.0016 -0.6237
  108MPD2     H 1651   4.576   4.422  12.035  0.0462  0.5209  2.0268
  108MPD2    H1 1652   0.044   4.437  12.412  1.5177  0.2835  0.5625
  108MPD2    H2 1653   0.287   4.449  12.072 -1.0213 -1.8757 -1.3250
  108MPD2    H3 1654   0.258   4.457  12.304  1.3396 -2.1441 -0.5935
  108MPD2     N 1655   4.520   4.427  12.293 -0.2223  0.1884 -0.0941
  108MPD2    H5 1656   4.519   4.449  12.392  1.4963 -0.4173  0.0567
  108MPD2    N1 1657   0.088   4.441  11.882 -0.1966 -0.0647  0.2179
  108MPD2    H7 1658   0.186   4.443  11.856 -0.4883 -1.1633 -0.9602
  109MPD2     C 1659   3.540   1.248   2.050 -0.1439 -0.2810  0.1256
  109MPD2    C1 1660   3.620   1.330   1.964  0.7533 -0.6182  1.0323
  109MPD2    C2 1661   3.739   1.375   2.017  0.6615 -0.5622 -0.3229
  109MPD2    C3 1662   3.776   1.366   2.153  0.2550  0.4290  0.0071
  109MPD2    C4 1663   3.690   1.295   2.240  0.4186  0.3961  0.4048
  109MPD2    C5 1664   3.576   1.247   2.183  0.3645 -0.4129  0.1822
  109MPD2     H 1665   3.796   1.436   1.947 -0.4185 -1.7705 -2.2293
  109MPD2    H1 1666   3.715   1.296   2.345 -2.0628 -0.2705  0.9805
  109MPD2    H2 1667   3.452   1.202   2.006  0.0801  0.4699 -1.1247
  109MPD2    H3 1668   3.511   1.193   2.251  1.0593 -0.1804  1.0415
  109MPD2     N 1669   3.898   1.427   2.187  0.2427  0.0822 -0.5293
  109MPD2    H5 1670   3.951   1.468   2.110 -2.0193  0.2849 -1.9873
  109MPD2    N1 1671   3.579   1.353   1.827 -0.3583  0.3561  0.2686
  109MPD2    H7 1672   3.483   1.324   1.809 -0.8977  1.2297  1.7427
  110TCq2    C1 1673   3.954   1.434   2.312  0.0911 -0.1792  0.4064
  110TCq2    O2 1674   3.910   1.392   2.417  0.4896  0.6415 -0.2234
  110TCq2    C2 1675   4.082   1.505   2.321 -0.5486 -0.7417 -0.2134
  110TCq2    C3 1676   4.156   1.476   2.430 -0.3116 -0.1463  0.3967
  110TCq2    C4 1677   4.287   1.503   2.430  0.6497 -0.7447  0.6487
  110TCq2    C5 1678   4.348   1.561   2.324 -0.2461  0.0640  0.1250
  110TCq2    C6 1679   4.266   1.608   2.224 -0.5951 -0.2218  0.2115
  110TCq2    C7 1680   4.134   1.576   2.218  0.3315 -1.3022 -1.2907
  110TCq2    C8 1681   4.319   1.688   2.121 -0.2416 -0.5654 -0.0400
  110TCq2    O4 1682   4.232   1.741   2.053  0.4096  0.0469  0.1089
  110TCq2    C9 1683   4.364   1.474   2.550 -0.2342  0.1993  0.1607
  110TCq2    O5 1684   4.306   1.436   2.652  0.2357 -0.7409  0.3576
  110TCq2    O6 1685   4.484   1.506   2.545 -0.1356  0.3784  0.1168
  110TCq2    H2 1686   4.116   1.425   2.517  0.3114 -0.6471  0.3881
  110TCq2    H3 1687   4.455   1.579   2.331 -0.6382  1.4205  2.5208
  110TCq2    H4 1688   4.067   1.616   2.144 -1.5283  0.4751  1.3604
  111TMC2    C1 1689   4.500   1.623  11.368  0.0581  0.2695  0.5493
  111TMC2    C2 1690   4.558   1.532  11.287 -0.7307 -0.2745  0.5494
  111TMC2    C3 1691   4.685   1.493  11.320  0.6992 -0.1697 -0.1865
  111TMC2    C4 1692   4.556   1.672  11.481  0.0759 -0.4071 -0.1344
  111TMC2    C5 1693   4.686   1.629  11.507 -0.2148  0.6479 -0.9312
  111TMC2    C6 1694   0.037   1.544  11.423 -0.0145  0.2869  0.0427
  111TMC2     C 1695   4.415   1.714  11.286 -0.0616 -0.2121  0.3751
  111TMC2     O 1696   4.427   1.691  11.166 -0.0835  0.1031  0.5642
  111TMC2     H 1697   4.514   1.502  11.192  1.3408 -0.3146 -0.3887
  111TMC2    H1 1698   4.512   1.751  11.540  1.1013  0.0184  0.0534
  111TMC2    H2 1699   0.128   1.495  11.455  0.5160  1.0276 -0.3257
  111TMC2    C7 1700   0.028   1.661  11.634 -0.6218  0.3212 -0.0914
  111TMC2    C8 1701   0.027   1.395  11.225 -0.4931 -0.1171 -0.8638
  111TMC2    O1 1702   4.672   1.688  11.725  0.4694  0.2930  0.1050
  111TMC2    O2 1703   4.681   1.331  11.145 -0.0313 -0.5532  0.2832
  111TMC2    O5 1704   0.151   1.447  11.195  0.2578 -0.0338 -0.1698
  111TMC2    H5 1705   0.175   1.537  11.227 -1.4347  0.5622 -0.5640
  112MPD2     C 1706   4.095   2.084  11.148 -0.5728  0.5161 -0.5796
  112MPD2    C1 1707   4.151   1.983  11.068  0.6051 -0.3269  0.7402
  112MPD2    C2 1708   4.235   1.893  11.135 -0.8152 -0.4670 -0.0999
  112MPD2    C3 1709   4.262   1.901  11.274  0.2642 -0.7603  0.6062
  112MPD2    C4 1710   4.206   2.003  11.343  0.3751 -0.0060 -0.4053
  112MPD2    C5 1711   4.123   2.089  11.278  0.5629 -0.1074 -0.4609
  112MPD2     H 1712   4.291   1.826  11.070 -0.2495 -0.7315  0.6485
  112MPD2    H1 1713   4.232   2.016  11.447  1.5600 -0.6168 -0.6228
  112MPD2    H2 1714   4.030   2.163  11.116 -0.0731  1.0487 -0.2794
  112MPD2    H3 1715   4.076   2.168  11.335 -1.4398 -1.6308  0.0224
  112MPD2     N 1716   4.348   1.813  11.343 -1.1233 -0.0849 -0.2813
  112MPD2    H5 1717   4.358   1.825  11.444 -2.0222  0.4006 -0.2497
  112MPD2    N1 1718   4.131   1.969  10.930  0.0339  0.0655  0.0698
  112MPD2    H7 1719   4.182   1.897  10.880 -0.6695  0.7552 -1.6480
  113MPD2     C 1720   1.915   4.368   1.104  0.1190  0.2596 -0.2974
  113MPD2    C1 1721   1.838   4.464   1.164 -0.1935  0.1022 -0.0822
  113MPD2    C2 1722   1.702   4.458   1.151 -0.1932  0.3971 -0.0426
  113MPD2    C3 1723   1.649   4.362   1.064 -0.7676  0.0238 -0.6423
  113MPD2    C4 1724   1.731   4.269   1.000  0.3662  0.0960  0.8820
  113MPD2    C5 1725   1.865   4.274   1.021  0.3578  0.8981 -0.2487
  113MPD2     H 1726   1.631   4.513   1.212  1.0478  0.6318  1.2108
  113MPD2    H1 1727   1.693   4.188   0.938  3.3907 -1.4337  1.0302
  113MPD2    H2 1728   2.021   4.354   1.118 -0.3867 -1.3736  1.8789
  113MPD2    H3 1729   1.933   4.199   0.982 -0.0255  1.0990 -1.2891
  113MPD2     N 1730   1.505   4.347   1.055  0.7533  0.1053  0.2508
  113MPD2    H5 1731   1.465   4.274   0.997 -0.7624  1.6230 -0.6354
  113MPD2    N1 1732   1.886   4.556   1.259  0.6509  0.5997  0.1492
  113MPD2    H7 1733   1.818   4.624   1.292 -0.2924  0.2809 -1.1688
  114TCq2    C1 1734   1.409   4.438   1.090 -0.0976 -0.3995  1.4385
  114TCq2    O2 1735   1.425   4.553   1.133 -0.3364 -0.4075  0.0644
  114TCq2    C2 1736   1.288   4.426   1.010 -0.2406  0.7408 -0.2069
  114TCq2    C3 1737   1.240   4.540   0.945 -0.5033  1.3157  0.5698
  114TCq2    C4 1738   1.138   4.523   0.865  0.6032  0.0403  0.6703
  114TCq2    C5 1739   1.095   4.396   0.836  0.3750  0.4152 -0.1159
  114TCq2    C6 1740   1.147   4.281   0.897  0.7268  0.6114  0.1435
  114TCq2    C7 1741   1.237   4.301   0.996  0.7942 -0.0713 -0.1672
  114TCq2    C8 1742   1.081   4.147   0.882  0.1125 -0.5738  0.3583
  114TCq2    O4 1743   0.974   4.155   0.828  0.2591 -0.4756  0.2020
  114TCq2    C9 1744   1.070   4.634   0.799  0.7499  0.6819 -0.1781
  114TCq2    O5 1745   1.105   0.030   0.831 -0.4653 -0.6050 -0.5266
  114TCq2    O6 1746   0.999   4.602   0.701  0.3561  0.7079 -0.3924
  114TCq2    H2 1747   1.267   4.644   0.962 -0.6935  1.3712  0.5315
  114TCq2    H3 1748   1.025   4.393   0.754  1.2034 -2.2506 -0.7319
  114TCq2    H4 1749   1.270   4.221   1.061 -1.1043 -0.8511 -0.1657
  115TMC2    C1 1750   2.829   2.697  17.660 -0.2632 -0.1416 -0.5362
  115TMC2    C2 1751   2.810   2.786   0.081 -0.4904 -0.2392 -0.3428
  115TMC2    C3 1752   2.839   2.918   0.056  0.2934  0.2711  0.2631
  115TMC2    C4 1753   2.855   2.739  17.535  0.0284  0.0294  0.1714
  115TMC2    C5 1754   2.878   2.871  17.514  0.8004  0.3175 -0.5018
  115TMC2    C6 1755   2.869   2.967  17.612  0.0022  0.5155 -0.8107
  115TMC2     C 1756   2.806   2.551   0.008 -0.1128  0.1525  0.0091
  115TMC2     O 1757   2.766   2.495  17.585  0.8427 -0.3273  0.1953
  115TMC2     H 1758   2.780   2.753   0.179  0.9816  0.2230  0.2614
  115TMC2    H1 1759   2.860   2.668  17.453  0.0591  0.7617 -0.4575
  115TMC2    H2 1760   2.884   3.073  17.596  3.8872  0.1374  0.4766
  115TMC2    C7 1761   2.879   2.916  17.378 -0.2570 -0.2778 -0.0279
  115TMC2    C8 1762   2.786   3.006   0.164 -0.5852 -0.0871 -0.2295
  115TMC2    O1 1763   2.823   2.838  17.299  0.3374 -0.0452  0.1352
  115TMC2    O2 1764   2.795   2.979   0.280  0.1534  0.2594 -0.2744
  115TMC2    O5 1765   2.682   3.083   0.112  0.0065 -0.1491  0.5361
  115TMC2    H5 1766   2.671   3.086   0.014  1.1110 -1.3654  0.3783
  116MPD2     C 1767   2.901   2.089   0.211 -0.0082 -0.1645  0.4372
  116MPD2    C1 1768   2.890   2.124   0.077  0.6167 -0.3172 -0.1275
  116MPD2    C2 1769   2.876   2.260   0.041  1.3193  0.8985  0.2742
  116MPD2    C3 1770   2.861   2.352   0.144 -0.2664  0.5310  0.1929
  116MPD2    C4 1771   2.871   2.311   0.276 -0.4233 -0.7394  0.0940
  116MPD2    C5 1772   2.893   2.183   0.308 -0.1292 -0.5415  0.2938
  116MPD2     H 1773   2.873   2.285  17.617 -0.4459  0.4316  0.2252
  116MPD2    H1 1774   2.862   2.383   0.356  0.0615 -0.6907  0.0997
  116MPD2    H2 1775   2.921   1.990   0.251 -2.2548 -1.7890 -2.4079
  116MPD2    H3 1776   2.892   2.146   0.410 -1.4077 -0.2917  0.3747
  116MPD2     N 1777   2.845   2.490   0.124 -0.3853 -0.3838  0.2458
  116MPD2    H5 1778   2.854   2.548   0.206  1.6035  0.4107 -0.5327
  116MPD2    N1 1779   2.912   2.026  17.655  0.8368 -0.3069 -0.6258
  116MPD2    H7 1780   2.908   2.065  17.561  0.7008 -0.8857 -0.8591
  117TMC2    C1 1781   2.326   4.157  13.052 -0.2550 -0.6675 -0.3286
  117TMC2    C2 1782   2.288   4.127  12.926 -0.6926 -0.4517  0.4689
  117TMC2    C3 1783   2.303   4.227  12.831  0.3482 -0.7676 -0.5195
  117TMC2    C4 1784   2.376   4.282  13.091  0.4871  0.8760 -0.5262
  117TMC2    C5 1785   2.371   4.375  12.990  0.8203  0.0567  0.0762
  117TMC2    C6 1786   2.327   4.360  12.862 -0.3949 -0.0356  0.4270
  117TMC2     C 1787   2.295   4.053  13.152  0.4427  0.5615 -0.0883
  117TMC2     O 1788   2.265   3.938  13.114 -0.4334  0.4620 -0.3533
  117TMC2     H 1789   2.265   4.024  12.898  0.7184 -0.8275  0.7123
  117TMC2    H1 1790   2.401   4.310  13.192 -0.3651  1.3904 -0.4586
  117TMC2    H2 1791   2.339   4.428  12.779  2.5267 -1.1881 -0.1168
  117TMC2    C7 1792   2.369   4.515  13.038  0.0937 -0.3062  0.4908
  117TMC2    C8 1793   2.310   4.192  12.692 -0.0069 -0.7951 -0.3187
  117TMC2    O1 1794   2.439   4.542  13.132  0.1564  0.0751 -0.0603
  117TMC2    O2 1795   2.304   4.274  12.602  0.2061 -0.0737  0.5377
  117TMC2    O5 1796   2.338   4.061  12.680 -0.1807 -0.8697 -0.1056
  117TMC2    H5 1797   2.361   4.012  12.762 -0.2163 -0.1648  0.3249
  118MPD2     C 1798   2.161   0.076  12.944  0.1909 -0.5211  0.0101
  118MPD2    C1 1799   2.227   4.712  13.025 -0.0574 -0.5811 -0.6321
  118MPD2    C2 1800   2.221   0.015  13.162 -0.4869 -0.1036 -0.9560
  118MPD2    C3 1801   2.154   0.123  13.214  0.2649  0.0316  0.2324
  118MPD2    C4 1802   2.082   0.208  13.129 -0.3400  0.2607 -0.4308
  118MPD2    C5 1803   2.087   0.179  12.992 -0.0807 -0.3888  0.3902
  118MPD2     H 1804   2.271   4.660  13.222 -0.1324  0.8484 -0.0751
  118MPD2    H1 1805   2.014   0.286  13.160 -1.0606 -0.9739  1.1072
  118MPD2    H2 1806   2.165   0.077  12.836 -1.4252 -2.2975 -0.0729
  118MPD2    H3 1807   2.045   0.250  12.921  2.4747 -0.5888 -1.3203
  118MPD2     N 1808   2.143   0.152  13.351  0.1352  0.0735 -0.2745
  118MPD2    H5 1809   2.093   0.237  13.373 -2.0259 -1.6379  1.4140
  118MPD2    N1 1810   2.288   4.597  12.964  0.1284  0.1245 -0.4661
  118MPD2    H7 1811   2.259   4.567  12.871  0.4363  1.4564 -0.9838
  119MPD2     C 1812   0.495   0.544  13.508 -0.7756  0.6640 -0.1379
  119MPD2    C1 1813   0.411   0.533  13.616 -0.7892  0.4521  0.3389
  119MPD2    C2 1814   0.291   0.466  13.598 -0.1232  0.3573  0.4580
  119MPD2    C3 1815   0.264   0.402  13.478 -0.4013 -0.7138  0.1744
  119MPD2    C4 1816   0.354   0.411  13.374 -0.3944  0.4798 -0.4137
  119MPD2    C5 1817   0.472   0.488  13.386  0.6488 -0.3660 -0.2100
  119MPD2     H 1818   0.222   0.451  13.680 -3.6752 -0.4144 -2.6891
  119MPD2    H1 1819   0.319   0.370  13.280 -4.2694  2.7890  0.0370
  119MPD2    H2 1820   0.590   0.596  13.516  0.9347 -2.6345  0.8572
  119MPD2    H3 1821   0.541   0.493  13.302  0.6448 -1.1846 -0.2542
  119MPD2     N 1822   0.137   0.344  13.445  0.7102 -0.4608 -0.5555
  119MPD2    H5 1823   0.122   0.303  13.353  1.2080 -0.2222 -0.7371
  119MPD2    N1 1824   0.445   0.592  13.745  0.2914  0.4822  0.3012
  119MPD2    H7 1825   0.531   0.645  13.735  0.2891  0.3763 -0.2406
  120TCq2    C1 1826   0.029   0.335  13.530 -0.2149 -0.0934 -0.0045
  120TCq2    O2 1827   0.010   0.380  13.640  0.2714  0.2368 -0.3217
  120TCq2    C2 1828   4.634   0.275  13.469  0.3933 -0.2040 -0.1875
  120TCq2    C3 1829   4.652   0.203  13.346  0.2714 -0.5381  0.5106
  120TCq2    C4 1830   4.561   0.113  13.308  0.0402  0.4235 -0.3224
  120TCq2    C5 1831   4.455   0.090  13.386 -0.0700 -0.5244 -0.4195
  120TCq2    C6 1832   4.436   0.148  13.505 -0.3290 -0.1653  0.2746
  120TCq2    C7 1833   4.520   0.251  13.549  0.4273 -0.1989 -0.3498
  120TCq2    C8 1834   4.314   0.116  13.590  0.7347  0.1566  0.5868
  120TCq2    O4 1835   4.212   0.079  13.536 -0.0789  0.3697 -0.2267
  120TCq2    C9 1836   4.585   0.039  13.186  0.1895 -0.5191  0.0124
  120TCq2    O5 1837   4.663   0.096  13.106  0.2893  0.2056 -0.6574
  120TCq2    O6 1838   4.525   4.648  13.173  0.4210  0.0225  0.1751
  120TCq2    H2 1839   0.006   0.226  13.270 -1.6586 -0.3522 -1.3043
  120TCq2    H3 1840   4.377   0.024  13.352 -1.3500  0.0666  1.3463
  120TCq2    H4 1841   4.506   0.303  13.643  3.2386  1.6686 -0.9826
  121TMC2    C1 1842   1.808   2.108  14.032  0.0826  0.7029 -0.5415
  121TMC2    C2 1843   1.816   2.098  14.166 -0.0237  0.1094  0.7262
  121TMC2    C3 1844   1.708   2.068  14.242 -0.0319  0.7790 -0.6711
  121TMC2    C4 1845   1.693   2.084  13.966 -0.0365  0.4981 -0.1702
  121TMC2    C5 1846   1.582   2.063  14.039 -0.8530  0.2021  0.3722
  121TMC2    C6 1847   1.587   2.038  14.180  0.8870  0.3983  0.2230
  121TMC2     C 1848   1.945   2.107  13.973 -0.0179 -0.1527 -0.6528
  121TMC2     O 1849   2.038   2.070  14.045 -0.4760  0.2383  0.3936
  121TMC2     H 1850   1.905   2.119  14.224  0.5464 -2.3899  0.7218
  121TMC2    H1 1851   1.685   2.099  13.859  0.9896 -0.1964 -0.3496
  121TMC2    H2 1852   1.508   1.997  14.242 -0.7609  0.9525 -1.5340
  121TMC2    C7 1853   1.450   2.046  13.969  0.2673  0.1716  0.7032
  121TMC2    C8 1854   1.717   2.085  14.389 -0.7952  0.0379 -0.4300
  121TMC2    O1 1855   1.458   2.010  13.851  0.3354  0.0968  0.3420
  121TMC2    O2 1856   1.826   2.092  14.443  0.1219  0.7292  0.4684
  121TMC2    O5 1857   1.591   2.077  14.437 -0.3797  0.6036  0.4103
  121TMC2    H5 1858   1.523   2.121  14.382  0.0888  0.4447 -0.3042
  122MPD2     C 1859   2.193   2.089  13.800 -0.4671  0.4631  0.1055
  122MPD2    C1 1860   2.084   2.170  13.772  0.1220  0.9810  0.0534
  122MPD2    C2 1861   2.088   2.255  13.656  0.0487 -0.4439 -0.1520
  122MPD2    C3 1862   2.185   2.239  13.561 -0.0869  0.1047 -0.0003
  122MPD2    C4 1863   2.288   2.153  13.593  0.3902 -0.3035  0.5297
  122MPD2    C5 1864   2.294   2.078  13.711  0.2711  0.0855 -0.4562
  122MPD2     H 1865   2.001   2.319  13.647  1.6162  1.7038 -0.0229
  122MPD2    H1 1866   2.357   2.149  13.509  0.3934  1.0224  0.4633
  122MPD2    H2 1867   2.201   2.020  13.883 -0.6771  1.5881  1.0439
  122MPD2    H3 1868   2.378   2.017  13.740  0.7874  1.6366  1.3657
  122MPD2     N 1869   2.184   2.305  13.432 -0.1583  0.0613  0.2450
  122MPD2    H5 1870   2.263   2.296  13.368 -0.7855 -1.1487 -0.3670
  122MPD2    N1 1871   1.960   2.175  13.847 -0.0091 -0.2151  0.1304
  122MPD2    H7 1872   1.882   2.231  13.814  0.3846  1.1734  1.5631
  123MPD2     C 1873   0.296   4.696   9.793 -0.6106 -0.1063  0.0332
  123MPD2    C1 1874   0.232   4.590   9.744 -0.4387  0.1239  0.1150
  123MPD2    C2 1875   0.307   4.484   9.696  0.1492 -0.1472  0.2029
  123MPD2    C3 1876   0.442   4.478   9.717 -0.2042  0.8662 -0.1326
  123MPD2    C4 1877   0.505   4.582   9.773 -0.0070  0.3846  0.5203
  123MPD2    C5 1878   0.433   4.687   9.814  0.0078  0.3417 -0.3568
  123MPD2     H 1879   0.255   4.399   9.652 -0.0510 -0.1220  0.3894
  123MPD2    H1 1880   0.612   4.587   9.785 -0.0767  2.8302  0.0689
  123MPD2    H2 1881   0.239   0.063   9.825 -0.6565  0.0537 -0.4690
  123MPD2    H3 1882   0.479   0.059   9.850 -1.0296  0.4547  0.7121
  123MPD2     N 1883   0.510   4.366   9.662  0.2634 -0.4750 -0.2954
  123MPD2    H5 1884   0.450   4.295   9.622 -0.7119  0.8265 -1.1625
  123MPD2    N1 1885   0.084   4.602   9.738  0.3046  0.4443  0.3647
  123MPD2    H7 1886   0.041   4.686   9.775 -2.3216 -1.9139  2.6516
  124TCq2    C1 1887   0.642   4.341   9.652 -0.1230  0.6602  0.0147
  124TCq2    O2 1888   0.736   4.404   9.701 -0.1838  0.0435  0.1383
  124TCq2    C2 1889   0.678   4.214   9.592  0.1812  0.3971  0.1841
  124TCq2    C3 1890   0.755   4.223   9.487 -0.1969  0.2689  1.3095
  124TCq2    C4 1891   0.786   4.110   9.410  0.3407 -0.4898 -0.1140
  124TCq2    C5 1892   0.719   3.993   9.444  0.3059  0.2074  0.1908
  124TCq2    C6 1893   0.637   3.994   9.559 -0.4160  0.3526  0.0090
  124TCq2    C7 1894   0.617   4.108   9.636  0.3184  0.3172 -0.0597
  124TCq2    C8 1895   0.575   3.867   9.603 -0.1077  0.2333 -0.2736
  124TCq2    O4 1896   0.558   3.783   9.516  0.8116 -0.4965  0.3841
  124TCq2    C9 1897   0.883   4.121   9.303  0.8752  0.1535 -0.6961
  124TCq2    O5 1898   0.944   4.232   9.295  0.0898 -0.3363  0.2038
  124TCq2    O6 1899   0.870   4.036   9.212  0.0403 -0.4366 -0.2277
  124TCq2    H2 1900   0.791   4.323   9.470  1.1855 -0.3652  0.5701
  124TCq2    H3 1901   0.749   3.904   9.390  0.3220 -1.7409  3.3987
  124TCq2    H4 1902   0.550   4.125   9.720 -0.3191  0.6225 -0.6373
  125TMC2    C1 1903   0.260   2.754   9.896  0.2133  0.0108  0.2556
  125TMC2    C2 1904   0.126   2.750   9.917  0.5400  0.3262  0.2908
  125TMC2    C3 1905   0.065   2.637   9.886 -0.1955 -0.4540  0.4088
  125TMC2    C4 1906   0.340   2.648   9.852  0.5173 -0.4432 -1.1683
  125TMC2    C5 1907   0.268   2.530   9.827  0.3505  0.3261  0.4623
  125TMC2    C6 1908   0.135   2.524   9.851  0.9041  0.0502  0.1950
  125TMC2     C 1909   0.328   2.878   9.927  0.2307  0.6413 -0.6920
  125TMC2     O 1910   0.272   2.959  10.004  0.1814 -0.1920 -0.0345
  125TMC2     H 1911   0.074   2.845   9.929 -0.0502  0.1860 -1.2897
  125TMC2    H1 1912   0.448   2.643   9.839  0.5157 -1.9207 -0.6270
  125TMC2    H2 1913   0.077   2.432   9.844  0.7855  0.0179  1.6084
  125TMC2    C7 1914   0.331   2.405   9.786  0.1200  0.3620 -0.1003
  125TMC2    C8 1915   4.644   2.648   9.867 -0.0418 -0.0281  0.7851
  125TMC2    O1 1916   0.264   2.304   9.782  0.3726 -0.5540  0.0802
  125TMC2    O2 1917   4.573   2.652   9.965 -0.0101 -0.5338 -0.7703
  125TMC2    O5 1918   4.621   2.581   9.751 -0.4406 -0.4572 -0.2612
  125TMC2    H5 1919   4.699   2.577   9.690 -0.7666 -1.5448 -0.6083
  126MPD1     C 1920   0.672   3.234   9.851  0.5924 -0.0547  0.6451
  126MPD1    C1 1921   0.687   3.141   9.749  0.6351 -0.7329 -0.2077
  126MPD1    C2 1922   0.611   3.022   9.747 -0.2094  0.2437 -0.2298
  126MPD1    C3 1923   0.516   3.012   9.848 -0.3407  0.0936  0.4642
  126MPD1    C4 1924   0.504   3.105   9.947  0.1631  0.3224  0.4413
  126MPD1    C5 1925   0.583   3.217   9.947 -0.4986 -0.4733  0.1463
  126MPD1     H 1926   0.619   2.958   9.660  0.6665  0.7717 -0.5365
  126MPD1    H1 1927   0.433   3.106  10.029  0.4150  2.0602  0.6394
  126MPD1    H2 1928   0.743   3.316   9.854 -0.6821  0.8749  5.3552
  126MPD1    H3 1929   0.573   3.287  10.030  0.9836  0.5585 -0.5436
  126MPD1     N 1930   0.434   2.898   9.839 -0.4436 -0.0670  0.7275
  126MPD1    H5 1931   0.441   2.821   9.772 -1.0385 -0.6279  1.3142
  126MPD1    N1 1932   0.769   3.182   9.639 -0.3117  0.0699 -0.3881
  126MPD1    H6 1933   0.849   3.241   9.662 -0.8716 -0.0169  1.7329
  126MPD1    H7 1934   0.823   3.105   9.599  0.3235  0.5507 -0.4598
  127MPD2     C 1935   1.882   1.242   9.250 -0.2812  0.2632  0.1718
  127MPD2    C1 1936   1.934   1.209   9.376  0.4426 -0.2284  0.7076
  127MPD2    C2 1937   1.987   1.305   9.460 -0.2903  0.5475  0.1413
  127MPD2    C3 1938   1.979   1.439   9.430  0.0503 -0.1835 -0.3695
  127MPD2    C4 1939   1.932   1.476   9.302  0.0019  0.1962  0.3700
  127MPD2    C5 1940   1.886   1.376   9.212  0.4276 -0.5782  0.0873
  127MPD2     H 1941   2.024   1.268   9.555 -0.0341  3.1504  1.0760
  127MPD2    H1 1942   1.915   1.579   9.270 -0.6425 -0.3106 -0.9303
  127MPD2    H2 1943   1.829   1.167   9.191 -0.3718  1.0782 -0.7720
  127MPD2    H3 1944   1.831   1.398   9.122  1.1092  0.8127  0.0034
  127MPD2     N 1945   2.016   1.529   9.534 -0.1697 -0.7226 -0.0019
  127MPD2    H5 1946   2.076   1.483   9.602 -0.2038 -1.4641 -0.4735
  127MPD2    N1 1947   1.932   1.073   9.405 -0.5164 -0.2912  0.4934
  127MPD2    H7 1948   1.866   1.016   9.353 -1.6571  1.5794 -0.0891
  128TCq2    C1 1949   2.020   1.013   9.498 -0.7005 -0.1648 -0.1253
  128TCq2    O2 1950   2.116   1.068   9.556 -1.1151  0.5736 -0.0824
  128TCq2    C2 1951   1.980   0.877   9.525  0.1988 -1.0900  0.0551
  128TCq2    C3 1952   2.048   0.810   9.629 -0.0820  0.1995 -0.0411
  128TCq2    C4 1953   2.005   0.684   9.666  0.3848 -0.0452 -0.4436
  128TCq2    C5 1954   1.916   0.619   9.597  0.6314 -0.5191 -0.4388
  128TCq2    C6 1955   1.852   0.688   9.498 -0.5156  0.4592 -0.6816
  128TCq2    C7 1956   1.879   0.817   9.463  0.0365 -0.0901 -0.4216
  128TCq2    C8 1957   1.755   0.625   9.418  0.2623 -0.2133  0.2236
  128TCq2    O4 1958   1.729   0.675   9.306 -0.2364  0.2022 -0.0251
  128TCq2    C9 1959   2.083   0.611   9.761  0.1149 -0.0899 -0.2957
  128TCq2    O5 1960   2.179   0.672   9.818  0.1307 -0.5024  0.1713
  128TCq2    O6 1961   2.058   0.493   9.782  0.4039  0.0870  0.3080
  128TCq2    H2 1962   2.135   0.852   9.679  0.1213 -1.6043  1.1208
  128TCq2    H3 1963   1.888   0.519   9.628 -0.5884 -0.2381 -0.6188
  128TCq2    H4 1964   1.817   0.866   9.389 -1.5267 -1.2232  0.1475
  129MPD2     C 1965   4.449   1.790   1.276  0.2410  0.5522  0.0394
  129MPD2    C1 1966   4.573   1.799   1.334 -0.5881  0.6702  0.5945
  129MPD2    C2 1967   4.680   1.848   1.257 -0.0712  0.1497  1.0234
  129MPD2    C3 1968   4.667   1.877   1.125  0.9300  0.3992 -0.0544
  129MPD2    C4 1969   4.542   1.869   1.070  0.5184  0.0869 -0.6162
  129MPD2    C5 1970   4.428   1.829   1.142 -0.4700  0.4656  0.2602
  129MPD2     H 1971   0.062   1.853   1.296  0.5277 -1.1552 -0.3701
  129MPD2    H1 1972   4.513   1.905   0.972 -0.7447 -0.2101 -0.3518
  129MPD2    H2 1973   4.363   1.769   1.339 -0.4774 -0.5674 -1.3175
  129MPD2    H3 1974   4.329   1.839   1.100 -0.7183  2.7205  1.3333
  129MPD2     N 1975   0.068   1.903   1.049  0.2934  0.5159  0.2167
  129MPD2    H5 1976   0.154   1.923   1.100  1.2747 -3.5247  0.1736
  129MPD2    N1 1977   4.602   1.750   1.465  0.0471 -0.0600 -0.0997
  129MPD2    H7 1978   4.701   1.753   1.489  0.5512  1.2387 -2.2880
  130TCq2    C1 1979   4.506   1.702   1.548  0.6967  0.1567  0.0185
  130TCq2    O2 1980   4.384   1.720   1.546  0.2935 -0.6444 -0.1739
  130TCq2    C2 1981   4.557   1.612   1.651  0.2711 -0.6559  0.1370
  130TCq2    C3 1982   4.683   1.565   1.645  0.8551  0.3618  0.3053
  130TCq2    C4 1983   0.009   1.500   1.756 -0.2666  0.5010  0.4154
  130TCq2    C5 1984   4.645   1.458   1.855  0.2444 -0.1440 -0.0537
  130TCq2    C6 1985   4.511   1.479   1.840 -0.5841  0.4104 -0.0397
  130TCq2    C7 1986   4.470   1.563   1.745  0.0529 -0.6589  0.7647
  130TCq2    C8 1987   4.409   1.399   1.916 -0.7144 -0.6330 -0.2229
  130TCq2    O4 1988   4.298   1.384   1.865 -0.7100  0.1153 -0.3088
  130TCq2    C9 1989   0.146   1.483   1.780 -0.2498 -0.4349  0.1291
  130TCq2    O5 1990   0.178   1.410   1.879 -0.2544 -0.3360  0.4704
  130TCq2    O6 1991   0.223   1.529   1.697  0.0581 -0.3187  0.0812
  130TCq2    H2 1992   0.025   1.590   1.560  0.0022  0.9095 -0.1478
  130TCq2    H3 1993   4.689   1.391   1.928  0.8795 -1.0458 -1.2728
  130TCq2    H4 1994   4.364   1.586   1.732 -0.3681 -2.7251  0.5476
  131MPD2     C 1995   4.467   0.618   9.502 -0.7026  0.1662 -0.1349
  131MPD2    C1 1996   4.586   0.559   9.540  0.0670  0.3843  0.0132
  131MPD2    C2 1997   4.589   0.424   9.574  0.1205 -0.3163  0.6745
  131MPD2    C3 1998   4.478   0.343   9.558 -0.7735  0.4146  0.1118
  131MPD2    C4 1999   4.361   0.408   9.530 -0.1086 -0.4549 -0.9373
  131MPD2    C5 2000   4.355   0.542   9.503  0.6038  0.0097 -0.3883
  131MPD2     H 2001   4.677   0.367   9.604  0.2678  0.3402  1.5228
  131MPD2    H1 2002   4.266   0.355   9.519  0.2206 -2.0715  3.8635
  131MPD2    H2 2003   4.454   0.723   9.479  0.7442  0.5128  0.6355
  131MPD2    H3 2004   4.271   0.598   9.463  0.3643 -0.4438 -0.5181
  131MPD2     N 2005   4.480   0.203   9.580  0.5599  0.2488 -0.6271
  131MPD2    H5 2006   4.570   0.172   9.615 -0.4821 -3.4247 -1.2097
  131MPD2    N1 2007   4.698   0.645   9.550 -0.3872  0.3842 -0.5262
  131MPD2    H7 2008   4.692   0.740   9.513 -0.5116 -0.3868 -2.4706
  132TCq2    C1 2009   0.306   1.014   9.408  0.3219 -0.2349  0.0318
  132TCq2    O2 2010   0.200   1.051   9.357 -0.1023  0.0998 -0.4611
  132TCq2    C2 2011   0.322   0.891   9.484  0.1338 -0.4055  0.1090
  132TCq2    C3 2012   0.435   0.852   9.541 -0.0892 -1.4514  0.7355
  132TCq2    C4 2013   0.437   0.736   9.614  0.4079  0.0238 -0.2014
  132TCq2    C5 2014   0.326   0.663   9.635 -0.0146  0.4265  0.2690
  132TCq2    C6 2015   0.212   0.704   9.573  1.1465  0.7344  0.3414
  132TCq2    C7 2016   0.201   0.819   9.499 -0.4135 -0.0631  0.5109
  132TCq2    C8 2017   0.103   0.608   9.602  0.3829 -0.2434  0.1650
  132TCq2    O4 2018   0.122   0.511   9.676 -0.6849  0.2329 -0.2004
  132TCq2    C9 2019   0.564   0.692   9.669  0.7686  0.4264 -0.3566
  132TCq2    O5 2020   0.662   0.767   9.663 -0.0863  0.0810  0.0389
  132TCq2    O6 2021   0.569   0.574   9.712 -0.2130  0.2649  0.2216
  132TCq2    H2 2022   0.530   0.899   9.518  0.0913 -1.2221  1.9601
  132TCq2    H3 2023   0.332   0.580   9.704  0.9341  0.5828  0.3740
  132TCq2    H4 2024   0.111   0.859   9.454  0.3549 -0.3668 -1.3082
  133MPD2     C 2025   3.965   0.353   9.180  0.7277  0.0666 -0.2640
  133MPD2    C1 2026   4.072   0.425   9.213 -1.1787 -0.7452 -0.4097
  133MPD2    C2 2027   4.053   0.557   9.239 -0.6785  0.6086 -0.1723
  133MPD2    C3 2028   3.931   0.614   9.246  0.3815  0.1697 -0.7091
  133MPD2    C4 2029   3.827   0.534   9.226 -0.4982  0.2947 -0.4889
  133MPD2    C5 2030   3.835   0.404   9.193  0.0768 -0.7974  0.0851
  133MPD2     H 2031   4.143   0.614   9.258  0.2550 -0.3300 -1.6978
  133MPD2    H1 2032   3.725   0.571   9.231 -0.3921  0.4435  0.4595
  133MPD2    H2 2033   3.981   0.253   9.141  0.4490  0.4721 -1.4373
  133MPD2    H3 2034   3.750   0.340   9.174 -0.4685  0.3766 -1.3981
  133MPD2     N 2035   3.909   0.753   9.266  0.2504 -0.3943  0.1412
  133MPD2    H5 2036   3.811   0.771   9.284  0.8511  1.3157  1.6558
  133MPD2    N1 2037   4.197   0.362   9.192  0.4460 -0.2389 -0.0393
  133MPD2    H7 2038   4.198   0.260   9.189  0.9583 -0.2652  0.9686
  134TCq2    C1 2039   4.312   0.421   9.177 -0.1696  0.0141  0.8396
  134TCq2    O2 2040   4.332   0.544   9.172 -0.1805  0.0218 -0.3489
  134TCq2    C2 2041   4.423   0.321   9.187  0.2672  0.1371 -0.0301
  134TCq2    C3 2042   4.399   0.183   9.203  0.2689  0.4787 -0.2239
  134TCq2    C4 2043   4.503   0.102   9.232 -0.7304 -0.4810  0.4785
  134TCq2    C5 2044   4.629   0.157   9.235  0.3478  0.7190  0.2708
  134TCq2    C6 2045   4.652   0.290   9.217  0.4330  0.4347 -0.3839
  134TCq2    C7 2046   4.548   0.377   9.201 -0.3223 -0.3984 -0.3363
  134TCq2    C8 2047   0.065   0.348   9.265  0.0775 -0.1175 -0.3068
  134TCq2    O4 2048   0.142   0.270   9.320  0.1462 -0.0727 -0.1181
  134TCq2    C9 2049   4.494   4.684   9.244  0.9927 -0.2681  0.1549
  134TCq2    O5 2050   4.595   4.622   9.289 -0.2865 -0.7555 -0.5129
  134TCq2    O6 2051   4.386   4.625   9.204  0.1730  0.6052  0.0233
  134TCq2    H2 2052   4.305   0.128   9.203  0.6838 -0.2299 -0.1464
  134TCq2    H3 2053   4.711   0.088   9.249 -1.5682 -1.7566 -0.6115
  134TCq2    H4 2054   4.559   0.485   9.203 -2.4493 -0.1713 -1.6384
  135MPD2     C 2055   2.195   2.585   9.866  0.3034 -0.2494 -0.3001
  135MPD2    C1 2056   2.111   2.552   9.757  0.1545  0.3416 -0.2091
  135MPD2    C2 2057   2.142   2.439   9.678 -0.1589 -0.0048  0.1004
  135MPD2    C3 2058   2.255   2.367   9.707  0.6253  0.1430 -0.3200
  135MPD2    C4 2059   2.338   2.396   9.820 -0.2718  0.6864  0.1350
  135MPD2    C5 2060   2.300   2.503   9.893 -0.0822  0.0745  0.1527
  135MPD2     H 2061   2.078   2.411   9.595 -1.6685 -0.5911  1.4721
  135MPD2    H1 2062   2.412   2.324   9.854  0.1147  1.2381  0.4643
  135MPD2    H2 2063   2.171   2.667   9.933  0.1664  1.5044 -2.4892
  135MPD2    H3 2064   2.357   2.531   9.981  0.3996 -1.3789  0.3165
  135MPD2     N 2065   2.289   2.250   9.639  0.5503  0.1186 -0.3444
  135MPD2    H5 2066   2.365   2.200   9.685 -1.6683 -1.7561  1.2874
  135MPD2    N1 2067   1.985   2.617   9.731 -0.7400  0.0997 -0.2276
  135MPD2    H7 2068   1.918   2.576   9.667 -0.7371 -1.9919  1.1180
  136TCq2    C1 2069   1.940   2.721   9.810  0.7437 -0.2260  0.7288
  136TCq2    O2 2070   1.986   2.785   9.903  0.5298 -0.2604  0.4583
  136TCq2    C2 2071   1.801   2.745   9.776  0.1277  0.3826  0.4317
  136TCq2    C3 2072   1.759   2.718   9.647  0.0668 -0.8117 -0.5369
  136TCq2    C4 2073   1.621   2.729   9.627 -0.5011 -0.1183 -0.2549
  136TCq2    C5 2074   1.537   2.774   9.725  0.2438 -0.4784 -0.2576
  136TCq2    C6 2075   1.587   2.804   9.845  0.2429  0.5347  0.5620
  136TCq2    C7 2076   1.718   2.787   9.873  0.0697 -0.2673 -0.0157
  136TCq2    C8 2077   1.497   2.845   9.958 -0.3166 -0.0580  0.4984
  136TCq2    O4 2078   1.540   2.906  10.058  0.2515 -0.5136  0.4928
  136TCq2    C9 2079   1.564   2.699   9.491 -0.1224 -0.3305 -0.1915
  136TCq2    O5 2080   1.633   2.635   9.410 -0.4291 -0.1427  0.5890
  136TCq2    O6 2081   1.434   2.699   9.493 -0.4124 -0.5796 -0.0743
  136TCq2    H2 2082   1.826   2.689   9.567  0.0206  0.6039 -1.0885
  136TCq2    H3 2083   1.430   2.765   9.707  0.2278 -0.8014  0.0037
  136TCq2    H4 2084   1.750   2.814   9.973 -0.1868  0.3151 -0.0945
  137MPD2     C 2085   1.189   0.518  10.239 -0.1281  0.1915  0.0514
  137MPD2    C1 2086   1.228   0.626  10.162  0.0810 -0.2916  0.6813
  137MPD2    C2 2087   1.206   0.750  10.202 -0.1761 -0.5601 -0.8274
  137MPD2    C3 2088   1.144   0.781  10.321  0.1901  0.3807 -0.2426
  137MPD2    C4 2089   1.106   0.680  10.403 -0.4845 -0.3479  0.0786
  137MPD2    C5 2090   1.133   0.555  10.362  0.1028  0.0657  0.7483
  137MPD2     H 2091   1.236   0.834  10.141 -0.8437 -0.5967 -1.1945
  137MPD2    H1 2092   1.049   0.691  10.495 -0.9665 -1.2114 -0.1144
  137MPD2    H2 2093   1.199   0.411  10.225 -3.2474  0.0977 -1.5437
  137MPD2    H3 2094   1.110   0.475  10.431 -2.5818  1.0224  0.9726
  137MPD2     N 2095   1.113   0.915  10.347  0.0765 -0.0110 -0.1650
  137MPD2    H5 2096   1.163   0.974  10.281 -0.7779 -1.8800 -2.4893
  137MPD2    N1 2097   1.272   0.618  10.030 -0.0646  0.2649  0.0349
  137MPD2    H7 2098   1.298   0.706   9.988 -2.2551  1.3812  0.9909
  138TCq2    C1 2099   1.277   0.505   9.952  0.1601  0.0081 -0.8279
  138TCq2    O2 2100   1.233   0.392   9.976  0.2059  0.0212 -0.1000
  138TCq2    C2 2101   1.304   0.553   9.812  0.2214  0.3284  0.2155
  138TCq2    C3 2102   1.220   0.505   9.716  0.1537 -0.2378 -0.3987
  138TCq2    C4 2103   1.244   0.549   9.585  0.2358 -0.4599  0.0632
  138TCq2    C5 2104   1.346   0.637   9.559 -0.5854  0.1096 -0.2531
  138TCq2    C6 2105   1.427   0.668   9.664 -0.1465 -0.1616 -0.0929
  138TCq2    C7 2106   1.408   0.633   9.794  0.0507  0.5459 -0.0022
  138TCq2    C8 2107   1.519   0.777   9.657 -0.4533  0.0159 -0.6117
  138TCq2    O4 2108   1.625   0.766   9.718  0.0775 -0.1138  0.6048
  138TCq2    C9 2109   1.150   0.518   9.480 -0.5452  0.6968  0.8998
  138TCq2    O5 2110   1.134   0.602   9.391 -0.0749 -0.1412 -0.2448
  138TCq2    O6 2111   1.082   0.412   9.498  0.3700 -0.8742 -0.4091
  138TCq2    H2 2112   1.140   0.436   9.741 -0.9553  1.5308  0.9362
  138TCq2    H3 2113   1.354   0.674   9.458 -0.6020 -1.8842 -0.9662
  138TCq2    H4 2114   1.486   0.649   9.868  2.3084 -1.3778 -1.9679
  139TMC2    C1 2115   1.906   4.379  13.111  1.2435 -0.5314 -0.5217
  139TMC2    C2 2116   1.912   4.427  12.982 -0.0875  0.2863 -0.0539
  139TMC2    C3 2117   1.886   4.564  12.970 -0.2889 -0.7852 -0.3273
  139TMC2    C4 2118   1.881   4.455  13.223 -0.6256  0.8482  0.0655
  139TMC2    C5 2119   1.873   4.589  13.206  0.0092 -1.0889 -0.7829
  139TMC2    C6 2120   1.869   4.646  13.080  0.0937 -0.2479  0.4839
  139TMC2     C 2121   1.927   4.239  13.128 -0.1076 -0.8783 -0.0691
  139TMC2     O 2122   1.996   4.179  13.050  0.0242 -0.3808 -0.0832
  139TMC2     H 2123   1.940   4.373  12.893 -1.5858 -1.8685  0.7740
  139TMC2    H1 2124   1.894   4.409  13.320  2.4111  0.4639 -0.5253
  139TMC2    H2 2125   1.857   0.033  13.064 -1.2288 -0.2745  1.3137
  139TMC2    C7 2126   1.859   4.676  13.319  0.1000  0.2536  0.2845
  139TMC2    C8 2127   1.864   4.616  12.832  1.1066 -0.1455  0.3804
  139TMC2    O1 2128   1.847   0.073  13.289 -0.6973  0.1680 -0.4976
  139TMC2    O2 2129   1.899   4.567  12.726 -0.0518  0.5030 -0.5013
  139TMC2    O5 2130   1.781   4.718  12.846  0.0795  0.7091  0.1859
  139TMC2    H5 2131   1.755   0.050  12.766  1.1444 -0.4803 -0.9171
  140MPD2     C 2132   1.752   4.054  13.394  0.2464 -0.3921  0.2852
  140MPD2    C1 2133   1.847   4.068  13.290  0.8233  0.3309 -0.0578
  140MPD2    C2 2134   1.913   3.963  13.231 -0.0737  0.0295  0.1661
  140MPD2    C3 2135   1.877   3.839  13.265 -0.0611 -0.4785  0.3288
  140MPD2    C4 2136   1.774   3.821  13.365  0.2888 -0.1156  0.1452
  140MPD2    C5 2137   1.723   3.927  13.429  0.1948 -0.0757  0.4780
  140MPD2     H 2138   1.990   3.985  13.158  0.0998  0.7295  0.5667
  140MPD2    H1 2139   1.731   3.726  13.394  2.0749 -0.7557  0.7072
  140MPD2    H2 2140   1.691   4.136  13.430  1.7230  0.2410  1.3247
  140MPD2    H3 2141   1.668   3.905  13.520 -1.5259  1.8210 -0.1210
  140MPD2     N 2142   1.939   3.728  13.205  0.2163  0.5340 -0.3318
  140MPD2    H5 2143   2.000   3.745  13.126 -0.7696  0.5169 -1.0978
  140MPD2    N1 2144   1.862   4.199  13.238 -0.4218  0.2205 -0.2073
  140MPD2    H7 2145   1.815   4.273  13.290 -0.3272 -0.7204  1.2231
  141TCq2    C1 2146   2.128   1.215  14.486  0.4453  0.7181  0.2519
  141TCq2    O2 2147   2.158   1.286  14.389  0.2406  0.1331 -0.2108
  141TCq2    C2 2148   2.206   1.227  14.614 -0.1353  0.1937  0.0811
  141TCq2    C3 2149   2.217   1.119  14.701  0.3300  0.0363  0.3570
  141TCq2    C4 2150   2.304   1.141  14.805  0.2983  0.4124  0.2799
  141TCq2    C5 2151   2.366   1.255  14.833 -0.5512 -0.6068  0.5907
  141TCq2    C6 2152   2.333   1.364  14.749  0.4462  0.6787  0.2689
  141TCq2    C7 2153   2.274   1.344  14.629  0.6452 -0.4348 -0.2104
  141TCq2    C8 2154   2.391   1.494  14.783 -0.7704 -0.2677  0.6365
  141TCq2    O4 2155   2.440   1.501  14.896 -0.8554 -0.0043  0.0327
  141TCq2    C9 2156   2.313   1.036  14.907 -0.2259 -1.5458  0.0114
  141TCq2    O5 2157   2.396   1.060  14.995 -0.0680  0.1313  0.2978
  141TCq2    O6 2158   2.237   0.934  14.906  0.1392 -0.4819 -0.2604
  141TCq2    H2 2159   2.162   1.026  14.696  1.5356 -0.6436 -0.1148
  141TCq2    H3 2160   2.423   1.266  14.924 -0.2402 -0.0034  0.3230
  141TCq2    H4 2161   2.243   1.427  14.566 -1.2857 -1.2133 -0.2914
  142MPD2     C 2162   4.232   2.873   9.880 -0.1299 -0.1064 -0.6680
  142MPD2    C1 2163   4.332   2.926   9.968 -0.3385  0.3416 -0.3515
  142MPD2    C2 2164   4.454   2.962   9.915 -0.0878 -0.0739  0.2844
  142MPD2    C3 2165   4.481   2.945   9.782  0.0279  0.2043 -0.1057
  142MPD2    C4 2166   4.390   2.886   9.698 -0.0638  0.0602  0.4590
  142MPD2    C5 2167   4.266   2.847   9.745 -0.2275 -0.8424 -0.0794
  142MPD2     H 2168   4.525   3.015   9.978 -0.3096  2.1829 -1.3615
  142MPD2    H1 2169   4.411   2.882   9.592 -0.8363 -0.6777  0.3259
  142MPD2    H2 2170   4.132   2.847   9.912  1.4220 -1.8736  2.7481
  142MPD2    H3 2171   4.194   2.820   9.668  0.7356  0.9757 -1.6282
  142MPD2     N 2172   4.603   2.993   9.726  0.2481 -0.2157 -0.4355
  142MPD2    H5 2173   4.623   2.965   9.630 -0.0440  1.2706 -0.9383
  142MPD2    N1 2174   4.288   2.963  10.101 -0.4199  0.1801 -0.4794
  142MPD2    H7 2175   4.190   2.951  10.124 -0.1202 -1.2714  0.0457
  143TCq2    C1 2176   4.695   3.077   9.787  0.7417 -0.4776  0.4555
  143TCq2    O2 2177   4.680   3.131   9.892 -0.4819  0.1904  0.3452
  143TCq2    C2 2178   0.098   3.100   9.708  0.5718  0.5405  0.0444
  143TCq2    C3 2179   0.141   3.004   9.622 -0.7502  0.0171  0.0635
  143TCq2    C4 2180   0.247   3.034   9.543 -0.4848 -0.0800 -0.2211
  143TCq2    C5 2181   0.306   3.158   9.557 -0.0447 -0.5862  0.2248
  143TCq2    C6 2182   0.267   3.248   9.657 -0.9818 -0.1992 -0.6108
  143TCq2    C7 2183   0.159   3.221   9.729  0.1423  0.0187  0.0622
  143TCq2    C8 2184   0.338   3.373   9.669 -0.3804 -0.3805  0.1031
  143TCq2    O4 2185   0.405   3.416   9.578 -0.0673 -0.9569 -0.0468
  143TCq2    C9 2186   0.306   2.934   9.457 -0.2770 -0.1440  0.7478
  143TCq2    O5 2187   0.279   2.810   9.470  0.2314  0.1414 -0.6855
  143TCq2    O6 2188   0.379   2.987   9.371  0.7251 -0.0777  0.4904
  143TCq2    H2 2189   0.106   2.901   9.627  1.1138 -0.7118 -1.9001
  143TCq2    H3 2190   0.405   3.171   9.515 -0.8386 -0.9662 -1.7374
  143TCq2    H4 2191   0.126   3.293   9.802  0.1878 -0.2048  0.3019
  144MPD2     C 2192   1.754   3.645   0.417  0.6066 -0.2468  0.0899
  144MPD2    C1 2193   1.841   3.546   0.393  0.7153 -0.8427 -0.2338
  144MPD2    C2 2194   1.921   3.504   0.498 -0.0848  0.6681 -0.3978
  144MPD2    C3 2195   1.926   3.565   0.624 -0.2356  0.1883  0.0961
  144MPD2    C4 2196   1.834   3.669   0.641  0.6653  0.1576  0.6743
  144MPD2    C5 2197   1.753   3.705   0.538 -0.0082 -0.0169 -0.2226
  144MPD2     H 2198   1.992   3.424   0.481 -1.0338  0.1094 -1.7573
  144MPD2    H1 2199   1.831   3.726   0.733 -2.2149 -0.0401  0.7067
  144MPD2    H2 2200   1.691   3.686   0.340  0.9834  1.2339  0.5644
  144MPD2    H3 2201   1.678   3.780   0.560  2.8906  2.5558  0.9347
  144MPD2     N 2202   2.007   3.528   0.737  0.3352  0.2549 -0.2068
  144MPD2    H5 2203   1.997   3.593   0.814 -1.6248 -1.4598  0.9587
  144MPD2    N1 2204   1.869   3.489   0.270  0.0085  0.6910  0.0770
  144MPD2    H7 2205   1.945   3.421   0.267 -1.1816 -0.6191 -0.4700
  145TCq2    C1 2206   2.100   3.421   0.730 -0.6368 -0.0431  0.3093
  145TCq2    O2 2207   2.094   3.323   0.657  0.3343 -0.1724  0.4140
  145TCq2    C2 2208   2.219   3.443   0.808  0.5858 -0.0755  0.6472
  145TCq2    C3 2209   2.311   3.340   0.799 -0.3770  0.0533 -0.1109
  145TCq2    C4 2210   2.436   3.357   0.860 -0.5101  0.0416  0.2591
  145TCq2    C5 2211   2.455   3.477   0.920 -0.3031 -0.2825 -0.4190
  145TCq2    C6 2212   2.362   3.579   0.928 -0.0486 -0.4569  0.3831
  145TCq2    C7 2213   2.239   3.567   0.865  0.2900 -0.1069 -0.3435
  145TCq2    C8 2214   2.406   3.712   0.970 -0.3507 -0.2688  0.3651
  145TCq2    O4 2215   2.528   3.728   0.982 -0.6876  0.0529  0.0529
  145TCq2    C9 2216   2.537   3.261   0.851  0.7656  0.4269 -0.2972
  145TCq2    O5 2217   2.653   3.299   0.880 -1.0980  0.4676  0.1955
  145TCq2    O6 2218   2.513   3.162   0.774 -0.4757 -0.2670  0.3272
  145TCq2    H2 2219   2.295   3.248   0.743 -1.8272 -0.9369  1.9190
  145TCq2    H3 2220   2.550   3.484   0.970  0.8784 -1.6883 -2.4454
  145TCq2    H4 2221   2.170   3.650   0.850  2.6530  1.4019 -2.7180
  146TMC2    C1 2222   3.698   3.193  13.460 -0.0005 -0.4959 -1.0980
  146TMC2    C2 2223   3.601   3.292  13.463 -0.7192 -0.0155  0.0091
  146TMC2    C3 2224   3.527   3.312  13.358 -0.7187 -0.1324  0.9550
  146TMC2    C4 2225   3.724   3.118  13.346 -0.2873 -0.9790 -0.2350
  146TMC2    C5 2226   3.645   3.149  13.243  0.1531  0.0927  0.2892
  146TMC2    C6 2227   3.552   3.250  13.237 -0.0678 -0.2402 -0.5781
  146TMC2     C 2228   3.768   3.164  13.581 -0.2043 -0.4767 -0.4623
  146TMC2     O 2229   3.775   3.256  13.658  0.2486 -0.5797 -0.5433
  146TMC2     H 2230   3.567   3.348  13.549  1.5884 -3.7458  3.3518
  146TMC2    H1 2231   3.811   3.055  13.342 -0.4760 -1.2552  0.0298
  146TMC2    H2 2232   3.500   3.270  13.144  0.6076  0.8068 -0.7344
  146TMC2    C7 2233   3.680   3.083  13.115 -0.7395  0.1734  0.5023
  146TMC2    C8 2234   3.431   3.417  13.352  0.3534 -0.4907 -0.8416
  146TMC2    O1 2235   3.618   3.127  13.022 -0.1125 -0.2957 -0.8275
  146TMC2    O2 2236   3.351   3.396  13.264 -0.6269  0.1859 -0.5216
  146TMC2    O5 2237   3.496   3.531  13.378  0.3100  0.2494  0.3714
  146TMC2    H5 2238   3.565   3.523  13.448  0.8214 -1.2316 -0.3032
  147MPD2     C 2239   3.881   2.727  12.795  0.4340 -0.4340  0.0865
  147MPD2    C1 2240   3.948   2.720  12.911  0.2243  0.0330  0.1605
  147MPD2    C2 2241   3.922   2.807  13.020  0.4478  0.6361 -0.2320
  147MPD2    C3 2242   3.820   2.897  13.013 -0.4004 -0.1066 -0.9364
  147MPD2    C4 2243   3.761   2.900  12.889  0.0351 -0.5188  0.0204
  147MPD2    C5 2244   3.781   2.817  12.785  0.9009  0.1693 -0.2852
  147MPD2     H 2245   3.976   2.801  13.113 -1.4432  3.2807  1.0133
  147MPD2    H1 2246   3.674   2.962  12.869  1.4689  1.2735 -0.6506
  147MPD2    H2 2247   3.908   2.672  12.705 -0.9017 -3.2851  1.4378
  147MPD2    H3 2248   3.718   2.814  12.698 -0.0717  1.7909  0.3678
  147MPD2     N 2249   3.778   2.984  13.121  0.0477 -0.1591 -0.3012
  147MPD2    H5 2250   3.823   2.962  13.209  0.1841 -0.2983 -0.4047
  147MPD2    N1 2251   4.042   2.614  12.921  0.3004 -0.0565  0.1334
  147MPD2    H7 2252   4.035   2.555  12.839 -0.7851 -0.7508  0.7294
  148MPD2     C 2253   4.248   4.650  10.933  0.0897 -0.3934 -0.1249
  148MPD2    C1 2254   4.312   0.023  10.852 -1.2100 -0.4316 -0.2579
  148MPD2    C2 2255   4.273   0.030  10.719 -0.2326 -0.4846  0.1388
  148MPD2    C3 2256   4.175   4.668  10.664 -0.7239 -0.5697 -0.5018
  148MPD2    C4 2257   4.120   4.568  10.746  0.2782  0.4775 -0.1557
  148MPD2    C5 2258   4.157   4.559  10.879  0.6539  0.1764  0.0079
  148MPD2     H 2259   4.316   0.113  10.664  1.2879 -0.1761  1.7928
  148MPD2    H1 2260   4.051   4.495  10.707 -1.0982 -0.1181  3.3723
  148MPD2    H2 2261   4.265   4.640  11.040 -1.5739 -0.4244  0.1375
  148MPD2    H3 2262   4.093   4.492  10.936  0.0196 -0.3723 -1.3643
  148MPD2     N 2263   4.131   4.676  10.527  0.0200  0.4590  0.1198
  148MPD2    H5 2264   4.044   4.634  10.496 -1.1630  1.2329  2.3629
  148MPD2    N1 2265   4.407   0.114  10.900  0.1953 -0.4618  0.0728
  148MPD2    H7 2266   4.443   0.181  10.833  1.1460 -2.5011 -1.4734
  149TCq2    C1 2267   4.471   0.136  11.021 -0.0404  0.3046 -0.0886
  149TCq2    O2 2268   4.458   0.073  11.124  0.2690  0.3233 -0.2427
  149TCq2    C2 2269   4.538   0.258  11.008 -0.2321 -0.3808 -0.1053
  149TCq2    C3 2270   4.526   0.352  11.108 -0.0872  0.2358 -0.3830
  149TCq2    C4 2271   4.577   0.474  11.081  0.2408 -0.0636 -0.3108
  149TCq2    C5 2272   4.613   0.520  10.959  0.2726 -0.3662 -0.3807
  149TCq2    C6 2273   4.615   0.424  10.859 -0.2294  0.4522  0.4201
  149TCq2    C7 2274   4.577   0.295  10.884 -0.4957 -0.1986  0.0858
  149TCq2    C8 2275   4.600   0.460  10.718  0.0229  0.2596 -0.4097
  149TCq2    O4 2276   4.541   0.376  10.649 -0.3143  0.0044 -0.0275
  149TCq2    C9 2277   4.561   0.582  11.178  0.6064  0.2038  0.1293
  149TCq2    O5 2278   4.531   0.549  11.293  0.0088 -0.6869  0.4473
  149TCq2    O6 2279   4.585   0.705  11.144  0.7335 -0.1946 -0.5977
  149TCq2    H2 2280   4.489   0.331  11.208  2.9379 -1.4797  0.3542
  149TCq2    H3 2281   4.650   0.622  10.950  1.9338 -0.7689  1.9742
  149TCq2    H4 2282   4.608   0.213  10.822 -0.2016  0.5643 -0.7769
  150MPD2     C 2283   0.975   0.591  12.458  0.2431 -0.3774  0.3323
  150MPD2    C1 2284   0.996   0.549  12.328  0.0818 -0.4457  0.2535
  150MPD2    C2 2285   1.108   0.601  12.269  0.0767 -0.1245 -0.3270
  150MPD2    C3 2286   1.187   0.692  12.327 -0.7556  0.1708 -0.4144
  150MPD2    C4 2287   1.165   0.734  12.455 -0.1942  0.0468  0.8180
  150MPD2    C5 2288   1.056   0.678  12.519  0.3298  0.0389 -0.5077
  150MPD2     H 2289   1.124   0.576  12.165 -4.5580 -1.3063 -0.7332
  150MPD2    H1 2290   1.230   0.807  12.501 -0.9587  0.6598  0.9283
  150MPD2    H2 2291   0.902   0.546  12.524  0.2069 -1.2054 -0.2755
  150MPD2    H3 2292   1.057   0.711  12.623 -0.2092  1.8630 -1.0802
  150MPD2     N 2293   1.301   0.733  12.253 -0.7244  0.2552 -0.5528
  150MPD2    H5 2294   1.312   0.685  12.164  0.8760 -0.3309 -0.0320
  150MPD2    N1 2295   0.900   0.462  12.269 -0.1078  0.2340  0.1738
  150MPD2    H7 2296   0.820   0.426  12.321 -0.9864 -0.2721 -1.5313
  151TCq2    C1 2297   1.402   0.808  12.300  0.9197  0.4649 -0.0733
  151TCq2    O2 2298   1.395   0.908  12.368 -0.0085  0.1612 -0.2068
  151TCq2    C2 2299   1.527   0.763  12.231 -0.1836  0.5195  0.6381
  151TCq2    C3 2300   1.537   0.640  12.168 -0.0666 -0.0753 -0.4523
  151TCq2    C4 2301   1.656   0.595  12.122  0.3755 -0.1563 -0.1217
  151TCq2    C5 2302   1.770   0.666  12.144  0.3435 -0.2259 -0.1469
  151TCq2    C6 2303   1.764   0.793  12.197  0.0002  0.2693  0.8015
  151TCq2    C7 2304   1.637   0.838  12.245  0.5775  0.1916 -0.0358
  151TCq2    C8 2305   1.885   0.845  12.260 -0.4010  0.4776 -0.5548
  151TCq2    O4 2306   1.879   0.952  12.319  0.1694  0.0702 -0.3595
  151TCq2    C9 2307   1.653   0.465  12.056 -0.4727 -0.2686 -0.5813
  151TCq2    O5 2308   1.543   0.402  12.053 -0.1330 -0.5194 -0.1935
  151TCq2    O6 2309   1.765   0.419  12.023 -0.2469 -0.3331  0.4191
  151TCq2    H2 2310   1.461   0.565  12.185  0.2747 -0.2924  0.1341
  151TCq2    H3 2311   1.859   0.629  12.094  0.5718  1.6981 -1.1654
  151TCq2    H4 2312   1.630   0.934  12.295 -0.2703 -0.1826  0.5628
  152MPD2     C 2313   1.147   0.200  12.903  0.2790 -0.3614 -0.6415
  152MPD2    C1 2314   1.128   0.236  12.775  0.4542  0.8505  0.1769
  152MPD2    C2 2315   1.004   0.225  12.720 -0.0758 -0.2376  0.5472
  152MPD2    C3 2316   0.901   0.161  12.788  0.5284  0.3991 -0.0363
  152MPD2    C4 2317   0.920   0.118  12.914  0.1431  0.3465 -0.3507
  152MPD2    C5 2318   1.043   0.145  12.971  0.3794 -0.1679 -0.3484
  152MPD2     H 2319   0.991   0.269  12.621  1.3146  2.5996  1.6244
  152MPD2    H1 2320   0.839   0.075  12.972 -2.2629  3.3473 -1.5086
  152MPD2    H2 2321   1.237   0.195  12.963  1.8503 -0.8890 -3.0686
  152MPD2    H3 2322   1.052   0.114  13.075  2.0522 -0.5786 -0.6248
  152MPD2     N 2323   0.777   0.187  12.725  0.3954 -0.2461 -0.5425
  152MPD2    H5 2324   0.782   0.243  12.640  0.1989  1.4826  0.6033
  152MPD2    N1 2325   1.238   0.302  12.711  0.1857 -0.2760  0.3870
  152MPD2    H7 2326   1.317   0.324  12.771  1.1132 -1.0735 -0.5434
  153TCq2    C1 2327   1.250   0.336  12.578  0.1679  0.2614  0.1945
  153TCq2    O2 2328   1.195   0.284  12.484 -0.0492 -0.2538  0.8558
  153TCq2    C2 2329   1.356   0.428  12.557 -0.7064  1.0598 -0.1161
  153TCq2    C3 2330   1.457   0.390  12.476  0.3072 -0.1240  0.2779
  153TCq2    C4 2331   1.571   0.465  12.477 -0.2178 -0.5953  0.3349
  153TCq2    C5 2332   1.580   0.585  12.540  0.1678  0.2690 -0.5124
  153TCq2    C6 2333   1.482   0.622  12.624  0.0179 -0.5814 -0.0451
  153TCq2    C7 2334   1.367   0.542  12.632  0.3776  0.2271 -0.1128
  153TCq2    C8 2335   1.505   0.708  12.736  0.3787  0.0568  0.8786
  153TCq2    O4 2336   1.416   0.731  12.817 -0.0032  0.5520 -0.2443
  153TCq2    C9 2337   1.682   0.415  12.400 -0.1675  0.2958 -0.4011
  153TCq2    O5 2338   1.794   0.479  12.410 -0.2337 -0.0953 -0.4940
  153TCq2    O6 2339   1.667   0.304  12.352 -0.4743  0.0624 -0.8058
  153TCq2    H2 2340   1.454   0.288  12.439  0.7509  0.0732 -0.3013
  153TCq2    H3 2341   1.673   0.640  12.540 -0.6826  1.7074 -1.9976
  153TCq2    H4 2342   1.280   0.574  12.689  0.6862 -2.8759  2.1036
  154MPD2     C 2343   1.246   0.003   0.324 -0.1797  0.1489 -0.3655
  154MPD2    C1 2344   1.309   4.698   0.445  0.4788 -0.9395  0.5288
  154MPD2    C2 2345   1.345   0.087   0.516 -0.1233  0.5202  0.9284
  154MPD2    C3 2346   1.331   0.214   0.464  0.0463 -0.6038 -0.8220
  154MPD2    C4 2347   1.271   0.235   0.343 -0.5880 -0.1181  0.3030
  154MPD2    C5 2348   1.229   0.128   0.272  0.3136 -0.2786  0.1247
  154MPD2     H 2349   1.389   0.086   0.615 -2.2115  0.8940  1.8461
  154MPD2    H1 2350   1.266   0.327   0.286 -2.6117  0.5770  1.6290
  154MPD2    H2 2351   1.206   4.637   0.271 -0.6081  0.6202 -0.7959
  154MPD2    H3 2352   1.169   0.144   0.184 -0.0650 -0.0334  0.4247
  154MPD2     N 2353   1.380   0.318   0.550  0.4008  0.2914  0.4451
  154MPD2    H5 2354   1.426   0.290   0.636  1.3882  0.4442 -0.0277
  154MPD2    N1 2355   1.335   4.566   0.484  0.6811  0.3525  0.3788
  154MPD2    H7 2356   1.286   4.493   0.432  0.2676 -0.9879  2.6690
  155TCq2    C1 2357   1.407   4.534   0.590  0.6214  1.2124 -0.5098
  155TCq2    O2 2358   1.479   4.598   0.668  0.6484  0.1232 -0.3245
  155TCq2    C2 2359   1.427   4.393   0.605  0.4552  0.6231 -0.4974
  155TCq2    C3 2360   1.339   4.303   0.538  0.1717 -0.7606 -0.0712
  155TCq2    C4 2361   1.373   4.173   0.530 -0.3283  0.6138 -0.6648
  155TCq2    C5 2362   1.489   4.120   0.584 -0.2700  0.3154 -0.8338
  155TCq2    C6 2363   1.583   4.207   0.624 -0.5848  0.0772 -0.3973
  155TCq2    C7 2364   1.552   4.347   0.639  0.1348 -0.1700 -0.9777
  155TCq2    C8 2365   1.704   4.151   0.658 -0.2410  0.5707 -0.0451
  155TCq2    O4 2366   1.694   4.033   0.680 -0.3200 -0.0490  0.1226
  155TCq2    C9 2367   1.276   4.088   0.467 -0.2092 -0.8014  0.2633
  155TCq2    O5 2368   1.295   3.966   0.479  0.0105  0.2604 -0.4221
  155TCq2    O6 2369   1.172   4.151   0.430  0.2792  0.6017  0.2582
  155TCq2    H2 2370   1.241   4.336   0.505  0.1745 -1.4536 -0.7760
  155TCq2    H3 2371   1.513   4.015   0.570 -5.6233 -1.4811  3.5445
  155TCq2    H4 2372   1.623   4.420   0.677 -1.6038  1.6288 -1.2198
  156MPD2     C 2373   1.107   2.108  12.590  0.3173 -0.5187 -0.4608
  156MPD2    C1 2374   1.192   2.206  12.540 -0.0422 -0.1790  0.5786
  156MPD2    C2 2375   1.254   2.293  12.620  0.5109 -0.7942 -0.7317
  156MPD2    C3 2376   1.227   2.289  12.755  0.6874 -0.0138 -1.2516
  156MPD2    C4 2377   1.137   2.198  12.811  0.6180 -0.1554 -0.0731
  156MPD2    C5 2378   1.075   2.110  12.722  0.0610  0.4371  0.2209
  156MPD2     H 2379   1.330   2.360  12.583  0.4771 -0.2485  0.2095
  156MPD2    H1 2380   1.105   2.197  12.915  2.6731 -0.2510  0.5769
  156MPD2    H2 2381   1.053   2.039  12.526 -1.9932  2.3184 -1.6262
  156MPD2    H3 2382   0.997   2.046  12.761 -0.9738  1.5162 -0.0913
  156MPD2     N 2383   1.294   2.390  12.828  0.3983 -0.7197 -0.8814
  156MPD2    H5 2384   1.360   2.444  12.774  1.5721 -1.4251 -0.1414
  156MPD2    N1 2385   1.204   2.218  12.397 -0.8610 -0.4474  0.6107
  156MPD2    H7 2386   1.154   2.155  12.336 -1.3131 -0.3073  0.8347
  157TCq2    C1 2387   1.278   2.310  12.327  0.1607 -0.2268 -0.3053
  157TCq2    O2 2388   1.344   2.404  12.365 -0.3021 -0.0927  0.2245
  157TCq2    C2 2389   1.236   2.315  12.185  0.0760  0.2439  0.8611
  157TCq2    C3 2390   1.135   2.236  12.145 -0.5305  0.5096  0.1531
  157TCq2    C4 2391   1.084   2.257  12.023 -0.5396 -0.1409  0.0072
  157TCq2    C5 2392   1.135   2.362  11.941  0.3509 -0.0717  0.0824
  157TCq2    C6 2393   1.236   2.438  11.982  0.3250 -0.0966  0.0083
  157TCq2    C7 2394   1.288   2.416  12.105  0.3507 -0.1325  1.0232
  157TCq2    C8 2395   1.241   2.581  11.949 -0.3573 -0.6518 -0.4790
  157TCq2    O4 2396   1.353   2.637  11.951 -0.0945 -0.1389 -0.6073
  157TCq2    C9 2397   0.968   2.184  11.975  0.0652 -0.2674  1.0366
  157TCq2    O5 2398   0.900   2.111  12.054  0.4114 -0.6446 -0.3886
  157TCq2    O6 2399   0.915   2.237  11.877  0.5667 -0.2072  0.0212
  157TCq2    H2 2400   1.088   2.157  12.203 -0.0375  0.6748  0.7766
  157TCq2    H3 2401   1.098   2.369  11.839  0.8888  0.8646 -0.0435
  157TCq2    H4 2402   1.363   2.477  12.153  0.2303  1.0123 -0.2184
  158TMC2    C1 2403   1.872   1.514  13.386  0.4999 -0.0152 -0.4703
  158TMC2    C2 2404   1.929   1.589  13.290 -0.3373  0.4248  0.3639
  158TMC2    C3 2405   1.876   1.575  13.162 -0.1044 -0.8378 -0.0423
  158TMC2    C4 2406   1.760   1.440  13.373 -0.5447  0.3859 -0.1321
  158TMC2    C5 2407   1.706   1.437  13.249  0.2128  1.3886 -0.1160
  158TMC2    C6 2408   1.753   1.514  13.145 -0.1632  0.3478  0.3019
  158TMC2     C 2409   1.957   1.476  13.497 -0.1914 -0.0388 -0.1943
  158TMC2     O 2410   2.079   1.480  13.479 -0.1658 -0.3367 -0.0625
  158TMC2     H 2411   2.010   1.656  13.314  0.9750 -0.8051 -0.6622
  158TMC2    H1 2412   1.741   1.368  13.452 -1.6260  1.2552  0.4103
  158TMC2    H2 2413   1.718   1.511  13.043 -0.8049 -2.2602  0.5892
  158TMC2    C7 2414   1.598   1.344  13.232  0.3644  0.3657 -0.3801
  158TMC2    C8 2415   1.945   1.635  13.044 -0.2650 -0.4860  0.9386
  158TMC2    O1 2416   1.523   1.372  13.142  0.4223  0.2462  0.2159
  158TMC2    O2 2417   1.901   1.621  12.932 -0.0422 -0.5184 -0.1264
  158TMC2    O5 2418   2.065   1.686  13.079 -0.7908  1.3848 -0.4789
  158TMC2    H5 2419   2.092   1.700  13.172 -1.9721 -3.8427  0.6448
  159MPD2     C 2420   2.052   1.382  13.990 -0.3225 -0.0103  0.1528
  159MPD2    C1 2421   1.912   1.397  13.975 -0.5118 -0.4560  0.0470
  159MPD2    C2 2422   1.862   1.426  13.845 -0.0473 -0.5032 -0.2993
  159MPD2    C3 2423   1.944   1.433  13.738 -0.3056 -0.2919  0.2252
  159MPD2    C4 2424   2.077   1.414  13.755 -0.5241  0.0898 -0.5083
  159MPD2    C5 2425   2.132   1.392  13.881  0.1520 -0.4404 -0.3217
  159MPD2     H 2426   1.757   1.450  13.832 -0.1933 -0.2717  1.2202
  159MPD2    H1 2427   2.148   1.418  13.674 -1.1758 -0.4001 -1.1028
  159MPD2    H2 2428   2.101   1.368  14.086  0.1970  3.0384  0.3410
  159MPD2    H3 2429   2.240   1.383  13.895  0.3078  2.1057  0.0411
  159MPD2     N 2430   1.885   1.468  13.614 -0.2510 -0.1307  0.0698
  159MPD2    H5 2431   1.788   1.497  13.616 -0.0111  0.7897 -1.6541
  159MPD2    N1 2432   1.837   1.386  14.094  0.4774  0.2217 -0.5221
  159MPD2    H7 2433   1.886   1.367  14.181  1.1180 -0.5764 -1.0605
  160TMC2    C1 2434   1.624   3.771   1.830 -0.3713 -0.2159  0.2018
  160TMC2    C2 2435   1.736   3.702   1.882  0.5389 -0.1702 -0.5937
  160TMC2    C3 2436   1.730   3.573   1.877 -0.0868 -0.2163  0.1636
  160TMC2    C4 2437   1.519   3.708   1.770 -0.5481 -0.4003 -0.0581
  160TMC2    C5 2438   1.531   3.570   1.760 -0.8959 -0.5397 -0.1243
  160TMC2    C6 2439   1.633   3.503   1.815 -0.1084  0.1833 -0.0860
  160TMC2     C 2440   1.621   3.917   1.836 -0.1597 -0.0137  0.2516
  160TMC2     O 2441   1.721   3.980   1.865  0.3051 -0.6467  0.1339
  160TMC2     H 2442   1.822   3.763   1.908 -1.4376  1.3660  2.2874
  160TMC2    H1 2443   1.428   3.757   1.738 -0.2094  0.4056  0.2103
  160TMC2    H2 2444   1.653   3.397   1.804  0.7302  0.4791 -1.4451
  160TMC2    C7 2445   1.421   3.491   1.694 -0.5444  0.3393 -0.4246
  160TMC2    C8 2446   1.834   3.497   1.922 -0.6400  0.0614 -1.0133
  160TMC2    O1 2447   1.412   3.369   1.719  0.2035  0.2150  0.2973
  160TMC2    O2 2448   1.851   3.373   1.907  0.3012 -0.4895  0.6571
  160TMC2    O5 2449   1.908   3.568   2.008  0.0260  0.0203 -0.4802
  160TMC2    H5 2450   1.877   3.652   2.049  1.1075  0.7267 -1.1342
  161MPD2     C 2451   1.547   4.213   1.822  0.0331 -0.5213  0.1007
  161MPD2    C1 2452   1.464   4.106   1.797 -0.4788 -0.0322  0.0927
  161MPD2    C2 2453   1.331   4.126   1.773  0.0262  0.5512 -0.5337
  161MPD2    C3 2454   1.277   4.251   1.776 -0.0106 -0.0941  0.0448
  161MPD2    C4 2455   1.358   4.357   1.796 -0.6016 -0.2740  0.4452
  161MPD2    C5 2456   1.495   4.340   1.816  0.6260 -0.3637  0.4543
  161MPD2     H 2457   1.261   4.042   1.771  0.2877  0.3314 -0.4450
  161MPD2    H1 2458   1.315   4.456   1.792  1.3512  0.6057  1.1037
  161MPD2    H2 2459   1.654   4.208   1.843  0.0139  1.4456  0.6651
  161MPD2    H3 2460   1.556   4.428   1.835 -0.0758  0.0421  0.8260
  161MPD2     N 2461   1.136   4.283   1.766  0.6136  0.5584 -0.8511
  161MPD2    H5 2462   1.110   4.381   1.768 -2.2837 -0.1839 -1.8705
  161MPD2    N1 2463   1.496   3.966   1.812 -0.0320  0.1665 -0.3458
  161MPD2    H7 2464   1.421   3.901   1.792  0.2909 -0.3848  0.2380
  162TMC2    C1 2465   3.982   1.262   1.000  0.0459 -0.1358  0.1798
  162TMC2    C2 2466   3.943   1.343   0.897 -0.7085  0.0177  0.0180
  162TMC2    C3 2467   3.809   1.388   0.892 -0.3821 -0.7553  0.8248
  162TMC2    C4 2468   3.906   1.247   1.109 -0.4257  0.7550 -0.9938
  162TMC2    C5 2469   3.783   1.317   1.120  0.5017  0.2159  0.0243
  162TMC2    C6 2470   3.733   1.384   1.009  0.2768 -0.2751  0.4238
  162TMC2     C 2471   4.098   1.177   0.965 -0.1587 -0.2151 -0.1548
  162TMC2     O 2472   4.180   1.223   0.883  0.0879 -0.0942 -0.4654
  162TMC2     H 2473   4.018   1.369   0.823  1.5567 -0.4862  2.1015
  162TMC2    H1 2474   3.950   1.199   1.196  0.1942 -1.7889 -2.7104
  162TMC2    H2 2475   3.639   1.436   1.023 -0.6278 -1.0898 -2.7740
  162TMC2    C7 2476   3.670   1.250   1.178  0.5614  0.3981 -0.9250
  162TMC2    C8 2477   3.776   1.506   0.805 -0.2550 -0.0795  0.8732
  162TMC2    O1 2478   3.571   1.242   1.117 -0.4011 -0.5961 -0.0511
  162TMC2    O2 2479   3.749   1.607   0.870 -0.6518  0.6833 -0.0625
  162TMC2    O5 2480   3.860   1.510   0.699 -0.1437  0.5535  0.4365
  162TMC2    H5 2481   3.883   1.420   0.667 -3.2100  0.0956 -0.4813
  163MPD2     C 2482   4.383   0.759   1.005 -0.4085 -0.6579 -0.1728
  163MPD2    C1 2483   4.357   0.838   0.893  0.1845 -0.7895  0.0686
  163MPD2    C2 2484   4.275   0.946   0.908 -0.5901 -0.2663  1.3268
  163MPD2    C3 2485   4.204   0.966   1.036 -0.2998 -0.2163  1.1542
  163MPD2    C4 2486   4.218   0.875   1.133  0.0495 -0.4363 -0.0214
  163MPD2    C5 2487   4.312   0.778   1.124  0.5338  0.6210  0.4773
  163MPD2     H 2488   4.261   1.018   0.829 -1.5578  0.8872  2.5378
  163MPD2    H1 2489   4.160   0.881   1.225  0.3469 -0.3130  0.1584
  163MPD2    H2 2490   4.456   0.680   0.997  0.1960 -0.1009 -0.1229
  163MPD2    H3 2491   4.321   0.707   1.206 -2.4597 -0.5283 -0.1698
  163MPD2     N 2492   4.110   1.071   1.050 -0.1973  0.2073  0.0313
  163MPD2    H5 2493   4.037   1.058   1.118  0.9064 -4.1207  0.3941
  163MPD2    N1 2494   4.412   0.796   0.769  0.6146  0.6213  0.5524
  163MPD2    H7 2495   4.491   0.733   0.768  0.0241 -0.1176  0.6764
  164TCq2    C1 2496   4.533   1.175  10.575 -0.9348  0.3781 -0.1620
  164TCq2    O2 2497   4.425   1.198  10.523  0.3037 -0.0214  0.3196
  164TCq2    C2 2498   4.525   1.143  10.711  0.5042 -0.3117 -0.4091
  164TCq2    C3 2499   4.613   1.059  10.765  0.2205  0.0656 -1.1325
  164TCq2    C4 2500   4.620   1.062  10.900  0.3723  0.3817  1.0093
  164TCq2    C5 2501   4.542   1.141  10.977 -0.3597  0.1010 -0.2850
  164TCq2    C6 2502   4.446   1.212  10.915 -0.1122 -0.2627 -0.2116
  164TCq2    C7 2503   4.435   1.215  10.785  0.8512 -0.2842  0.2934
  164TCq2    C8 2504   4.349   1.297  10.992 -0.2254  0.1052  0.1132
  164TCq2    O4 2505   4.261   1.359  10.934  0.0733  0.3203 -0.0478
  164TCq2    C9 2506   0.001   0.988  10.969 -0.4832 -0.2020 -0.5862
  164TCq2    O5 2507   0.009   0.991  11.095 -0.4255 -0.0860 -0.1953
  164TCq2    O6 2508   0.106   0.956  10.896 -0.0527 -0.1377  0.5607
  164TCq2    H2 2509   4.684   0.994  10.713 -0.7581 -2.2408  0.4253
  164TCq2    H3 2510   4.558   1.135  11.084 -0.6407 -4.6808 -0.5410
  164TCq2    H4 2511   4.367   1.287  10.741 -1.9412 -0.7575  3.8047
  165MPD2     C 2512   1.280   1.902   2.135  0.5691 -0.1315  0.2247
  165MPD2    C1 2513   1.218   1.991   2.047 -0.4965 -0.3070  0.2722
  165MPD2    C2 2514   1.274   2.118   2.039  0.0317 -0.7106 -0.7909
  165MPD2    C3 2515   1.398   2.144   2.096 -0.4614  0.4011 -0.0184
  165MPD2    C4 2516   1.459   2.055   2.183 -0.2942 -0.3166  0.4522
  165MPD2    C5 2517   1.396   1.936   2.203  0.1534  0.8847 -0.4742
  165MPD2     H 2518   1.234   2.188   1.967  1.6705 -0.2496 -1.2531
  165MPD2    H1 2519   1.550   2.073   2.238 -0.1324  1.8561 -0.5032
  165MPD2    H2 2520   1.228   1.810   2.163  0.1737 -0.0968 -0.3777
  165MPD2    H3 2521   1.442   1.868   2.275  1.3525  1.4300 -0.7308
  165MPD2     N 2522   1.464   2.266   2.080  0.2050 -0.8398 -0.0081
  165MPD2    H5 2523   1.542   2.280   2.143 -0.0817 -1.5814  0.5245
  165MPD2    N1 2524   1.102   1.954   1.966 -0.2374 -0.4101 -0.2705
  165MPD2    H7 2525   1.060   1.867   1.996 -0.3006 -0.9030 -1.7599
  166TCq2    C1 2526   1.443   2.363   1.988 -0.3898  0.1983 -0.0209
  166TCq2    O2 2527   1.350   2.370   1.908 -0.1254  0.7842  0.2445
  166TCq2    C2 2528   1.534   2.474   1.990 -0.2504 -0.6833  0.0597
  166TCq2    C3 2529   1.653   2.472   2.053 -0.2526 -0.5762  0.1659
  166TCq2    C4 2530   1.737   2.579   2.017  0.4405  0.4700  0.2831
  166TCq2    C5 2531   1.711   2.678   1.927  0.0382  0.1209  0.0356
  166TCq2    C6 2532   1.591   2.662   1.863 -0.3626  0.3686  0.3355
  166TCq2    C7 2533   1.502   2.564   1.895 -0.0973  0.3143 -0.0682
  166TCq2    C8 2534   1.568   2.744   1.747  0.0165  0.8286  0.1342
  166TCq2    O4 2535   1.617   2.856   1.750  0.5197  0.4772 -0.2529
  166TCq2    C9 2536   1.848   2.598   2.100 -1.2354  0.6664  0.7392
  166TCq2    O5 2537   1.884   2.716   2.123 -1.0095 -0.5983 -0.2221
  166TCq2    O6 2538   1.908   2.489   2.130 -0.0954  0.1241 -0.2724
  166TCq2    H2 2539   1.672   2.405   2.137 -0.4705  1.0005  1.4591
  166TCq2    H3 2540   1.787   2.742   1.883  2.2586 -1.7241  1.2013
  166TCq2    H4 2541   1.401   2.572   1.857  0.1959 -0.9739 -1.1274
  167TMC2    C1 2542   3.869   1.216  13.030 -0.3914 -0.8133 -0.1444
  167TMC2    C2 2543   3.817   1.226  13.152  0.3410 -0.0424 -0.0357
  167TMC2    C3 2544   3.838   1.126  13.242 -0.0322  0.5026  0.9300
  167TMC2    C4 2545   3.953   1.116  12.990 -0.2051  0.2047 -0.3830
  167TMC2    C5 2546   3.968   1.010  13.083  0.2556 -0.3412 -0.5411
  167TMC2    C6 2547   3.920   1.020  13.214 -0.2771 -0.3844 -0.6636
  167TMC2     C 2548   3.855   1.336  12.953  0.1981 -0.2242 -0.0866
  167TMC2     O 2549   3.763   1.415  12.980  0.0205 -0.4431 -0.0463
  167TMC2     H 2550   3.755   1.312  13.176  0.7373  0.4100 -0.6042
  167TMC2    H1 2551   3.975   1.091  12.887 -1.8132 -1.1945 -0.3928
  167TMC2    H2 2552   3.940   0.941  13.285 -3.5901  0.1095  0.8205
  167TMC2    C7 2553   4.015   0.880  13.051  0.3423  0.4503  0.0723
  167TMC2    C8 2554   3.748   1.113  13.355 -0.5452  0.4542 -0.1225
  167TMC2    O1 2555   3.983   0.786  13.125  0.4504  0.1553  0.0099
  167TMC2    O2 2556   3.680   1.013  13.362  0.3724 -0.2269 -0.4536
  167TMC2    O5 2557   3.728   1.231  13.412 -0.2311  0.1617  0.0086
  167TMC2    H5 2558   3.804   1.292  13.399 -1.2229  1.6843  1.3187
  168MPD2     C 2559   3.934   1.601  12.794 -0.1098 -0.3947  0.5183
  168MPD2    C1 2560   3.993   1.475  12.789 -0.4051 -0.9739  0.1942
  168MPD2    C2 2561   4.091   1.453  12.695  0.0396  0.2857  0.3102
  168MPD2    C3 2562   4.128   1.549  12.601  0.5427  0.1066  0.5345
  168MPD2    C4 2563   4.072   1.674  12.614 -0.1640  0.5414 -0.8890
  168MPD2    C5 2564   3.974   1.699  12.710  0.0839 -0.3349 -0.2049
  168MPD2     H 2565   4.134   1.353  12.690 -2.2635 -0.5632 -2.8359
  168MPD2    H1 2566   4.092   1.761  12.551  0.0910  0.0798 -1.4450
  168MPD2    H2 2567   3.852   1.637  12.856 -0.0961  0.2800  0.1551
  168MPD2    H3 2568   3.928   1.798  12.716 -1.5408 -0.9105 -3.0408
  168MPD2     N 2569   4.209   1.507  12.494 -0.6045  0.1292 -0.1264
  168MPD2    H5 2570   4.256   1.418  12.510  1.3094  1.1500 -0.0853
  168MPD2    N1 2571   3.965   1.363  12.870  1.1020  0.2273  0.2007
  168MPD2    H7 2572   4.022   1.281  12.856 -0.1535 -0.6628  0.3353
  169MPD1     C 2573   1.402   4.400   8.779  0.6751  0.3726 -0.5996
  169MPD1    C1 2574   1.437   4.337   8.896 -0.6325  0.2300  0.1980
  169MPD1    C2 2575   1.509   4.403   8.992  0.5374 -0.5137 -0.5025
  169MPD1    C3 2576   1.547   4.533   8.975  0.2071 -0.3482 -0.2248
  169MPD1    C4 2577   1.512   4.598   8.855 -0.8887  0.4298 -1.0454
  169MPD1    C5 2578   1.436   4.534   8.762  0.1234  0.1706 -0.1597
  169MPD1     H 2579   1.530   4.360   9.089  2.5594  4.0719  1.1105
  169MPD1    H1 2580   1.539   4.700   8.832  0.8497 -0.0047 -1.0024
  169MPD1    H2 2581   1.336   4.344   8.713  1.1262 -0.5241 -0.2828
  169MPD1    H3 2582   1.392   4.586   8.678 -1.3470 -1.1394 -0.2010
  169MPD1     N 2583   1.616   4.602   9.077  0.5038  0.8510  0.5218
  169MPD1    H5 2584   1.622   4.559   9.169  0.4185  0.1009  0.1803
  169MPD1    N1 2585   1.408   4.197   8.904 -0.7678  0.4681 -0.7071
  169MPD1    H6 2586   1.416   4.154   8.995  0.0734  0.5977 -0.7208
  169MPD1    H7 2587   1.316   4.184   8.861 -0.8123  1.7415 -1.0210
  170MPD1     C 2588   4.357   3.501  13.246 -0.3237  0.3861  0.2840
  170MPD1    C1 2589   4.434   3.609  13.277 -0.1319  0.4742 -0.2258
  170MPD1    C2 2590   4.502   3.605  13.397  0.1563  0.5749  0.7502
  170MPD1    C3 2591   4.508   3.490  13.476  0.5636  1.1533 -0.2203
  170MPD1    C4 2592   4.424   3.389  13.444  0.2972  0.2392  0.4314
  170MPD1    C5 2593   4.354   3.393  13.329  0.1955 -0.4265 -0.1561
  170MPD1     H 2594   4.568   3.688  13.419 -0.6952  1.8089 -1.3418
  170MPD1    H1 2595   4.417   3.297  13.502  4.8575 -1.0577 -1.0187
  170MPD1    H2 2596   4.300   3.513  13.154  0.0894  1.2173  0.1329
  170MPD1    H3 2597   4.293   3.310  13.295 -0.1910 -0.1305 -0.1888
  170MPD1     N 2598   4.582   3.494  13.604 -0.2777 -0.1532  0.3133
  170MPD1    H5 2599   4.643   3.574  13.616 -0.4750 -0.0783  0.8245
  170MPD1    N1 2600   4.420   3.724  13.198  0.2228  0.8942 -0.0664
  170MPD1    H6 2601   4.511   3.770  13.192  0.9495 -0.3412  1.5172
  170MPD1    H7 2602   4.390   3.685  13.109  0.5838  0.8985 -0.1906
  171MPD1     C 2603   3.315   4.225  15.980  0.6066  0.9385  0.8330
  171MPD1    C1 2604   3.273   4.108  15.907  0.2485  0.0739  0.5341
  171MPD1    C2 2605   3.345   4.000  15.935 -0.5464  0.2288 -0.5668
  171MPD1    C3 2606   3.472   4.007  15.999 -0.3106  0.2522  0.2703
  171MPD1    C4 2607   3.516   4.122  16.052  0.3116  0.0976 -0.2520
  171MPD1    C5 2608   3.436   4.231  16.035 -0.5429  0.2463 -0.7868
  171MPD1     H 2609   3.302   3.902  15.913  1.3772 -0.2362 -2.2425
  171MPD1    H1 2610   3.610   4.145  16.100  0.1018  0.2980  0.0665
  171MPD1    H2 2611   3.261   4.319  15.981  0.0876  0.6364  1.1113
  171MPD1    H3 2612   3.467   4.316  16.095 -0.2571 -0.6227  0.3098
  171MPD1     N 2613   3.558   3.887  16.013  0.1913 -0.0338  0.1514
  171MPD1    H5 2614   3.630   3.885  16.084  0.8525  1.2570 -0.4869
  171MPD1    N1 2615   3.151   4.103  15.838  0.2829 -0.0733  0.0561
  171MPD1    H6 2616   3.143   4.200  15.807 -1.4502 -0.6154 -1.1763
  171MPD1    H7 2617   3.154   4.041  15.758  2.4027 -0.1058  0.1492
  172MPD1     C 2618   2.371   3.491   0.419 -0.2177  0.0967 -0.5364
  172MPD1    C1 2619   2.289   3.596   0.385 -0.0086 -0.1530 -0.5630
  172MPD1    C2 2620   2.307   3.726   0.428  0.1210  0.1364 -0.5188
  172MPD1    C3 2621   2.406   3.751   0.524 -0.1954  0.3651 -0.2498
  172MPD1    C4 2622   2.475   3.642   0.577  0.5345  0.2027  0.3455
  172MPD1    C5 2623   2.458   3.516   0.525  0.1521  0.4169  0.0021
  172MPD1     H 2624   2.243   3.803   0.387 -1.7509 -0.3326  1.5138
  172MPD1    H1 2625   2.562   3.657   0.640  0.6693 -1.3840  0.5229
  172MPD1    H2 2626   2.366   3.392   0.376  1.2819  0.8806 -2.5427
  172MPD1    H3 2627   2.518   3.434   0.562 -0.3058 -1.3577 -3.1239
  172MPD1     N 2628   2.444   3.883   0.559 -0.3895  0.0537 -0.3568
  172MPD1    H5 2629   2.526   3.895   0.617 -0.8823  0.4364  0.2553
  172MPD1    N1 2630   2.182   3.579   0.290  0.6066 -0.4042 -0.3715
  172MPD1    H6 2631   2.160   3.479   0.294 -0.6691  0.0004  2.5719
  172MPD1    H7 2632   2.107   3.644   0.311  1.1502  0.5794 -1.4555
  173MPD1     C 2633   4.157   4.123  15.233  0.1020  0.3600 -0.1001
  173MPD1    C1 2634   4.237   4.042  15.163 -0.7244  0.4852  0.4811
  173MPD1    C2 2635   4.181   3.937  15.088  0.3168 -0.3979  0.0525
  173MPD1    C3 2636   4.045   3.944  15.067 -0.3479  0.2344  0.1094
  173MPD1    C4 2637   3.964   4.042  15.129 -0.3690  0.0182 -0.2297
  173MPD1    C5 2638   4.025   4.132  15.204  0.4628 -0.2814  0.2710
  173MPD1     H 2639   4.240   3.861  15.040  1.1933  0.7485 -0.6821
  173MPD1    H1 2640   3.857   4.040  15.117 -0.4257  0.7689  0.1705
  173MPD1    H2 2641   4.202   4.199  15.295  1.2296 -0.8328  0.5321
  173MPD1    H3 2642   3.958   4.211  15.238 -2.7292 -1.7349 -2.6184
  173MPD1     N 2643   3.988   3.844  14.979  0.1727 -0.6105 -0.4145
  173MPD1    H5 2644   4.047   3.767  14.951 -1.5761 -2.2066  0.3346
  173MPD1    N1 2645   4.374   4.053  15.197  0.3263  0.3915  0.3811
  173MPD1    H6 2646   4.401   4.141  15.239  0.6440  0.2798  0.4089
  173MPD1    H7 2647   4.443   4.018  15.130 -1.4435  1.1003 -1.8064
  174MPD1     C 2648   4.377   3.230  14.386  0.1896 -0.4010 -0.3808
  174MPD1    C1 2649   4.375   3.367  14.387 -0.7201  0.2242 -0.4114
  174MPD1    C2 2650   4.282   3.431  14.472  0.5330 -0.3827 -0.3532
  174MPD1    C3 2651   4.194   3.363  14.556 -0.7629  0.4009  0.3456
  174MPD1    C4 2652   4.193   3.229  14.551  0.6538 -0.1906  0.5230
  174MPD1    C5 2653   4.288   3.160  14.475 -0.2124  0.7205  1.0696
  174MPD1     H 2654   4.276   3.539  14.475 -1.7506 -0.5063  0.2379
  174MPD1    H1 2655   4.126   3.171  14.614  1.8874 -1.1736  0.9359
  174MPD1    H2 2656   4.444   3.169  14.326 -0.1769  0.9833 -2.2137
  174MPD1    H3 2657   4.282   3.052  14.478  0.6167  0.5915 -1.5480
  174MPD1     N 2658   4.085   3.414  14.634 -0.0506  0.1606  0.5231
  174MPD1    H5 2659   4.021   3.353  14.684  0.6550  0.1901  1.4522
  174MPD1    N1 2660   4.460   3.443  14.304 -0.0152 -0.2278 -0.1316
  174MPD1    H6 2661   4.501   3.530  14.337 -0.6316  0.7581 -1.9984
  174MPD1    H7 2662   4.520   3.378  14.253  2.0617  0.6061  1.2143
  175MPD1     C 2663   3.216   2.934  16.593 -0.3200  0.2951  0.1695
  175MPD1    C1 2664   3.094   2.960  16.533  0.7550  0.2307  0.2712
  175MPD1    C2 2665   3.077   3.087  16.482 -0.5459 -0.1734 -0.4751
  175MPD1    C3 2666   3.168   3.186  16.507 -0.2373  0.0743 -0.8196
  175MPD1    C4 2667   3.285   3.155  16.566  0.4548 -0.9860  0.1541
  175MPD1    C5 2668   3.313   3.030  16.614 -1.3973 -0.2910  0.2175
  175MPD1     H 2669   2.983   3.097  16.430 -0.2573 -0.5658 -1.0709
  175MPD1    H1 2670   3.368   3.223  16.580 -0.7427 -0.1560  3.2466
  175MPD1    H2 2671   3.247   2.839  16.635 -0.6319  0.4211  0.6880
  175MPD1    H3 2672   3.408   3.014  16.662 -1.0993  0.3243 -0.1610
  175MPD1     N 2673   3.145   3.320  16.479  0.2479 -0.1053 -0.1896
  175MPD1    H5 2674   3.204   3.385  16.529 -0.2334 -0.5932  1.0186
  175MPD1    N1 2675   3.012   2.854  16.490  0.3821  0.2063 -0.0106
  175MPD1    H6 2676   2.914   2.879  16.485 -0.0220 -1.3895  0.0003
  175MPD1    H7 2677   3.018   2.776  16.554  0.6808 -0.9564 -1.4477
  176MPD1     C 2678   4.140   1.400  16.231 -0.2172 -0.1779 -0.0220
  176MPD1    C1 2679   4.265   1.386  16.291 -0.0657  0.2245 -0.2554
  176MPD1    C2 2680   4.272   1.404  16.427 -0.1711 -0.0558 -0.3272
  176MPD1    C3 2681   4.162   1.437  16.503 -0.5811  0.2162  0.3945
  176MPD1    C4 2682   4.040   1.439  16.444  0.3336  0.0985 -0.7211
  176MPD1    C5 2683   4.033   1.431  16.310  0.5487  0.4060 -0.2094
  176MPD1     H 2684   4.369   1.395  16.474 -0.2018 -0.3902 -0.3283
  176MPD1    H1 2685   3.943   1.450  16.489 -0.3127 -0.6396 -1.9103
  176MPD1    H2 2686   4.118   1.396  16.125  0.8567 -1.4909 -0.1854
  176MPD1    H3 2687   3.939   1.450  16.260 -0.2879  0.9086  1.5635
  176MPD1     N 2688   4.180   1.465  16.639 -0.1099 -0.4392  0.2164
  176MPD1    H5 2689   4.271   1.459  16.682  1.2117 -2.1760 -2.8862
  176MPD1    N1 2690   4.372   1.335  16.210 -0.2403  0.6331  0.1771
  176MPD1    H6 2691   4.381   1.379  16.118 -0.2430  0.3341  0.0340
  176MPD1    H7 2692   4.466   1.346  16.248 -0.2750 -1.3089  0.8125
  177MPD1     C 2693   2.693   1.320   9.950 -0.0852  0.0586 -0.4568
  177MPD1    C1 2694   2.640   1.286   9.828  0.2478 -0.1089 -0.0989
  177MPD1    C2 2695   2.567   1.380   9.761  0.1891 -0.0808  0.2182
  177MPD1    C3 2696   2.525   1.503   9.821  0.9792 -0.6018  0.9167
  177MPD1    C4 2697   2.578   1.531   9.946 -0.7067 -0.1513  0.3296
  177MPD1    C5 2698   2.662   1.441  10.012 -0.0706  0.0360 -0.5436
  177MPD1     H 2699   2.538   1.354   9.660  2.1588  2.3250 -0.9649
  177MPD1    H1 2700   2.567   1.625   9.999 -1.0740  0.3020 -0.5509
  177MPD1    H2 2701   2.761   1.255  10.005  0.0513  1.6078  1.1976
  177MPD1    H3 2702   2.698   1.466  10.111  0.3289  0.4134 -0.7858
  177MPD1     N 2703   2.440   1.592   9.762  0.9083 -0.9419  0.1970
  177MPD1    H5 2704   2.403   1.554   9.676 -1.9834  1.0182  0.5777
  177MPD1    N1 2705   2.673   1.166   9.766 -0.2198  0.0721  0.1146
  177MPD1    H6 2706   2.603   1.149   9.694 -1.3574  1.8852  0.7840
  177MPD1    H7 2707   2.679   1.091   9.835  2.6992 -0.7370 -1.0295
  178MPD1     C 2708   0.158   2.232   0.659 -0.2627 -0.3225  0.0883
  178MPD1    C1 2709   0.069   2.158   0.588 -0.5573  0.2501 -0.9777
  178MPD1    C2 2710   0.060   2.184   0.452 -0.4850 -0.2786  0.5769
  178MPD1    C3 2711   0.158   2.251   0.381  0.8005 -1.0047 -0.6015
  178MPD1    C4 2712   0.254   2.311   0.461  0.1713 -0.0359 -0.2300
  178MPD1    C5 2713   0.252   2.309   0.602  0.1816 -0.1440 -0.4356
  178MPD1     H 2714   4.700   2.136   0.397 -1.2371  0.2170  1.2295
  178MPD1    H1 2715   0.337   2.361   0.411  2.0043  0.1866  3.0785
  178MPD1    H2 2716   0.161   2.221   0.767  1.3092 -0.9448 -0.0283
  178MPD1    H3 2717   0.322   2.364   0.664 -1.6271  1.3745  0.2613
  178MPD1     N 2718   0.171   2.260   0.241  0.1927 -0.4461  0.6029
  178MPD1    H5 2719   0.241   2.322   0.202 -0.1748  0.2866  1.1214
  178MPD1    N1 2720   4.685   2.096   0.662  0.2413  0.0412  0.4798
  178MPD1    H6 2721   4.633   2.034   0.601 -2.1860  0.7083  1.8945
  178MPD1    H7 2722   4.714   2.034   0.739  3.1913  0.4254 -0.2987
  179MPD1     C 2723   0.510   4.406  15.677 -0.1310  0.0473 -0.4086
  179MPD1    C1 2724   0.432   4.425  15.566 -0.3035  0.4538 -0.0118
  179MPD1    C2 2725   0.301   4.456  15.586 -0.2699 -0.5147  0.3588
  179MPD1    C3 2726   0.247   4.458  15.714  0.1897 -0.2472  0.7230
  179MPD1    C4 2727   0.331   4.437  15.829 -0.2007  0.3821 -0.3901
  179MPD1    C5 2728   0.471   4.415  15.802 -0.2112  0.0769 -0.0058
  179MPD1     H 2729   0.244   4.482  15.498  0.7220  1.4982  0.3287
  179MPD1    H1 2730   0.296   4.429  15.931  1.9422 -1.3268  0.1942
  179MPD1    H2 2731   0.616   4.387  15.668  0.4006  1.7478  2.1492
  179MPD1    H3 2732   0.545   4.389  15.877 -0.4285 -3.3069 -0.9763
  179MPD1     N 2733   0.106   4.481  15.731  0.0980  0.2212  0.6062
  179MPD1    H5 2734   0.071   4.477  15.826  3.9378 -1.0747  1.9456
  179MPD1    N1 2735   0.489   4.451  15.441 -0.1734 -1.0020  0.4094
  179MPD1    H6 2736   0.410   4.428  15.382  0.3443  1.1299 -1.1487
  179MPD1    H7 2737   0.576   4.400  15.425  0.8201  0.6269  0.5829
  180MPD1     C 2738   0.380   0.565  14.703  0.2922 -0.4520 -0.0820
  180MPD1    C1 2739   0.432   0.616  14.581 -0.2855  0.3296  0.4006
  180MPD1    C2 2740   0.375   0.731  14.522 -0.0120 -0.3666 -0.4947
  180MPD1    C3 2741   0.257   0.783  14.584 -0.2799  0.3303 -0.4695
  180MPD1    C4 2742   0.208   0.725  14.703  0.2027 -0.0654 -0.5140
  180MPD1    C5 2743   0.270   0.621  14.762 -0.1464 -0.7041 -0.0842
  180MPD1     H 2744   0.412   0.774  14.429 -0.1020  3.7517  1.3860
  180MPD1    H1 2745   0.121   0.763  14.755 -0.3053 -0.0569 -1.3787
  180MPD1    H2 2746   0.439   0.491  14.757 -0.2136 -1.7747 -1.3254
  180MPD1    H3 2747   0.251   0.588  14.863  1.4810  0.1407  0.4946
  180MPD1     N 2748   0.194   0.897  14.524  0.3357  0.2520 -0.1858
  180MPD1    H5 2749   0.233   0.948  14.444  1.8364 -0.8330 -0.1357
  180MPD1    N1 2750   0.539   0.548  14.517  1.0214 -0.1244  0.1884
  180MPD1    H6 2751   0.500   0.510  14.431  1.0830  2.0383 -0.8025
  180MPD1    H7 2752   0.580   0.473  14.572  2.8384 -0.4838 -1.6922
  181MPD1     C 2753   1.782   3.091   9.440  0.3835  0.1538 -0.3460
  181MPD1    C1 2754   1.679   3.117   9.526  0.2614  0.3235 -0.2310
  181MPD1    C2 2755   1.701   3.125   9.667  0.2825 -0.4882  0.2803
  181MPD1    C3 2756   1.833   3.109   9.716  0.7021 -0.1613 -0.7961
  181MPD1    C4 2757   1.936   3.087   9.623  0.1227 -0.6542  0.6287
  181MPD1    C5 2758   1.910   3.077   9.489  0.6056 -0.2656 -0.2549
  181MPD1     H 2759   1.616   3.140   9.732  1.5967  1.7870  1.4644
  181MPD1    H1 2760   2.041   3.083   9.652  0.2892 -3.2441 -0.3735
  181MPD1    H2 2761   1.768   3.090   9.332 -0.7748 -3.3664 -0.1492
  181MPD1    H3 2762   1.990   3.060   9.418  0.5249 -1.7275  0.0045
  181MPD1     N 2763   1.865   3.116   9.849  0.1835 -0.1877 -0.1408
  181MPD1    H5 2764   1.965   3.119   9.867 -0.4225  2.6191  2.7240
  181MPD1    N1 2765   1.549   3.117   9.478  0.4294 -0.3032 -0.3852
  181MPD1    H6 2766   1.501   3.190   9.530 -0.3679  0.2546 -1.9074
  181MPD1    H7 2767   1.558   3.149   9.382 -0.8483  2.4514  0.4016
  182MPD1     C 2768   1.723   3.566   0.961 -0.3126 -0.3094 -0.1747
  182MPD1    C1 2769   1.767   3.510   1.080  0.5699 -0.0366  0.3622
  182MPD1    C2 2770   1.788   3.373   1.081 -0.5110 -0.2022 -0.5501
  182MPD1    C3 2771   1.740   3.295   0.979  0.1338  0.0269 -0.3243
  182MPD1    C4 2772   1.673   3.351   0.869 -0.0259  0.5523 -0.1303
  182MPD1    C5 2773   1.668   3.485   0.865  0.4652 -0.3626 -0.2644
  182MPD1     H 2774   1.840   3.330   1.166  1.0452  1.1715 -0.7991
  182MPD1    H1 2775   1.618   3.295   0.794 -1.7803 -0.4366  1.8838
  182MPD1    H2 2776   1.718   3.671   0.936  2.1726 -0.3416 -0.8540
  182MPD1    H3 2777   1.627   3.538   0.780 -0.6356  1.2819  1.2693
  182MPD1     N 2778   1.722   3.156   1.001 -0.2126 -0.2430  0.6300
  182MPD1    H5 2779   1.694   3.099   0.922  0.7650 -0.3200  0.3336
  182MPD1    N1 2780   1.817   3.599   1.174  0.6855  0.3425 -0.2559
  182MPD1    H6 2781   1.773   3.691   1.171  0.6362  0.4195  2.4966
  182MPD1    H7 2782   1.810   3.558   1.267 -1.7972  0.1417 -0.5313
  183MPD1     C 2783   2.118   3.065   9.159 -0.4876  0.8254 -0.0813
  183MPD1    C1 2784   2.244   3.019   9.200  0.0925  0.2170 -0.4448
  183MPD1    C2 2785   2.316   3.091   9.287 -0.7803 -0.3632 -0.0273
  183MPD1    C3 2786   2.276   3.217   9.333 -0.3453  0.0871 -1.0401
  183MPD1    C4 2787   2.152   3.263   9.289  0.4829 -0.2737  0.3635
  183MPD1    C5 2788   2.077   3.184   9.202  0.4077 -0.2941  0.6355
  183MPD1     H 2789   2.411   3.056   9.327  0.3185  2.7411  0.0961
  183MPD1    H1 2790   2.109   3.358   9.318 -1.4721 -1.4031  1.1054
  183MPD1    H2 2791   2.064   3.018   9.077 -1.0104  1.0065  0.1627
  183MPD1    H3 2792   1.976   3.213   9.179  1.0410  0.6330 -0.9215
  183MPD1     N 2793   2.376   3.294   9.401  0.1365  0.1488 -0.1714
  183MPD1    H5 2794   2.466   3.247   9.404  1.3934  2.3176 -3.9950
  183MPD1    N1 2795   2.291   2.900   9.155 -0.4763  0.0561 -0.0556
  183MPD1    H6 2796   2.244   2.862   9.073  0.6182  2.8248 -1.9706
  183MPD1    H7 2797   2.388   2.918   9.133 -0.9392  3.7968  1.0052
  184MPD1     C 2798   1.551   0.738  10.494 -0.5448  0.3862 -0.0217
  184MPD1    C1 2799   1.522   0.683  10.371 -0.8591  0.1303  0.7174
  184MPD1    C2 2800   1.543   0.767  10.260  0.6836 -0.4877 -0.1702
  184MPD1    C3 2801   1.544   0.909  10.272  0.5769  0.3918 -0.0154
  184MPD1    C4 2802   1.547   0.960  10.403  0.2118  0.0607 -0.3004
  184MPD1    C5 2803   1.552   0.871  10.506  0.5389  0.4104  0.0590
  184MPD1     H 2804   1.560   0.726  10.161 -0.6371 -0.4718 -0.3981
  184MPD1    H1 2805   1.548   1.066  10.426  0.5442 -0.3655  1.5958
  184MPD1    H2 2806   1.550   0.678  10.584  1.5788  1.1050  0.4713
  184MPD1    H3 2807   1.569   0.913  10.604 -0.4342  0.5331  0.1751
  184MPD1     N 2808   1.569   0.995  10.159  0.3728  0.0182 -0.5087
  184MPD1    H5 2809   1.589   1.092  10.179 -1.3640  0.5906 -1.5937
  184MPD1    N1 2810   1.521   0.542  10.355  0.7101  0.6681 -0.5931
  184MPD1    H6 2811   1.482   0.517  10.264  0.9665  0.7925 -0.7384
  184MPD1    H7 2812   1.470   0.509  10.437 -1.8866  1.2611 -1.9837
  185MPD1     C 2813   0.811   1.493   9.664 -0.2693 -0.1107 -0.6214
  185MPD1    C1 2814   0.833   1.358   9.639  0.1753  0.5029  0.1695
  185MPD1    C2 2815   0.950   1.303   9.677  0.1712 -0.4015 -1.0977
  185MPD1    C3 2816   1.050   1.386   9.733 -0.0892  0.0694 -0.2819
  185MPD1    C4 2817   1.031   1.521   9.756 -0.4888 -0.2879 -0.7478
  185MPD1    C5 2818   0.904   1.570   9.729  0.0015  0.3940 -0.3423
  185MPD1     H 2819   0.963   1.196   9.668 -0.4819 -0.4787 -1.1201
  185MPD1    H1 2820   1.094   1.593   9.807 -1.6837 -0.4881  1.0160
  185MPD1    H2 2821   0.714   1.539   9.652 -0.3769  0.4593  2.4080
  185MPD1    H3 2822   0.879   1.671   9.761 -1.1723  0.1267 -0.3861
  185MPD1     N 2823   1.177   1.346   9.778 -0.2746 -0.3881  0.0671
  185MPD1    H5 2824   1.234   1.422   9.812 -1.4379  1.5705 -2.3169
  185MPD1    N1 2825   0.722   1.282   9.609  0.0023  0.3180 -0.7269
  185MPD1    H6 2826   0.664   1.334   9.544 -2.1408 -0.2791  0.7069
  185MPD1    H7 2827   0.751   1.198   9.560  0.2728  0.4230 -0.7462
  186MPD1     C 2828   0.200   0.195  15.733  0.7653 -0.2550 -0.8901
  186MPD1    C1 2829   0.306   0.174  15.820 -0.5145 -1.0097 -0.2828
  186MPD1    C2 2830   0.321   0.262  15.932 -0.4094 -0.3556 -0.7702
  186MPD1    C3 2831   0.233   0.366  15.947  0.0384 -0.2305 -0.0249
  186MPD1    C4 2832   0.135   0.387  15.861  0.5154 -0.2624 -0.4125
  186MPD1    C5 2833   0.117   0.305  15.754  0.3156 -0.1294  0.1413
  186MPD1     H 2834   0.396   0.240  16.007  0.2026 -0.2229 -1.3394
  186MPD1    H1 2835   0.067   0.470  15.875 -3.4312 -3.1248 -2.5525
  186MPD1    H2 2836   0.178   0.136  15.645 -2.0908 -2.6244  1.4150
  186MPD1    H3 2837   0.033   0.325  15.689  0.6347 -0.6617 -0.4329
  186MPD1     N 2838   0.236   0.453  16.058  0.2674  0.1904 -0.1661
  186MPD1    H5 2839   0.172   0.532  16.059 -0.2356 -0.2099 -0.6444
  186MPD1    N1 2840   0.379   0.054  15.814 -0.1140  0.2756  0.5055
  186MPD1    H6 2841   0.387   0.021  15.718  0.1337  0.2524  0.5342
  186MPD1    H7 2842   0.474   0.075  15.845  0.4503 -1.4543 -0.0600
  187MPD1     C 2843   3.509   3.909   0.763  0.4139 -0.2067 -0.1041
  187MPD1    C1 2844   3.390   3.867   0.694 -0.3132 -0.4869 -0.4411
  187MPD1    C2 2845   3.399   3.761   0.595  0.5075 -0.2649  0.3229
  187MPD1    C3 2846   3.521   3.697   0.576 -0.1149 -0.0725  0.4928
  187MPD1    C4 2847   3.628   3.743   0.648  0.3011  0.3642  0.0576
  187MPD1    C5 2848   3.625   3.847   0.735 -0.0529  1.1992  0.5405
  187MPD1     H 2849   3.307   3.735   0.544  0.9061  2.7604 -1.9368
  187MPD1    H1 2850   3.720   3.685   0.645  0.2796  0.3352 -0.0297
  187MPD1    H2 2851   3.513   3.991   0.833 -0.9272 -0.3419  0.1309
  187MPD1    H3 2852   3.718   3.875   0.783  0.4780  0.3726 -0.0037
  187MPD1     N 2853   3.543   3.588   0.482 -0.2714 -0.5081  0.3557
  187MPD1    H5 2854   3.637   3.553   0.464 -0.6409 -1.7132  0.8346
  187MPD1    N1 2855   3.270   3.925   0.734 -0.0340  0.3180  0.2748
  187MPD1    H6 2856   3.201   3.917   0.660  0.0646  0.2751  0.1885
  187MPD1    H7 2857   3.287   4.021   0.764 -2.3339  1.0833 -0.8819
  188MPD1     C 2858   0.231   2.814  10.289 -0.2559 -0.3216  0.0220
  188MPD1    C1 2859   0.091   2.821  10.274 -0.0163  0.6072  0.3244
  188MPD1    C2 2860   0.020   2.710  10.238 -0.1298 -0.6171  0.2573
  188MPD1    C3 2861   0.088   2.589  10.221 -0.0288  0.4653 -0.2319
  188MPD1    C4 2862   0.229   2.589  10.232  0.0763 -0.9309 -0.4231
  188MPD1    C5 2863   0.300   2.699  10.267  0.0977  0.2347  0.2237
  188MPD1     H 2864   4.632   2.710  10.226 -0.4538  1.0926  3.0291
  188MPD1    H1 2865   0.287   2.497  10.233  0.0788 -0.9560 -3.0140
  188MPD1    H2 2866   0.279   2.890  10.349 -1.0516 -0.6909  1.1235
  188MPD1    H3 2867   0.402   2.682  10.301  0.8880 -0.3362 -2.4890
  188MPD1     N 2868   0.034   2.456  10.207  0.2344 -0.7266 -0.3727
  188MPD1    H5 2869   0.095   2.379  10.184  1.2935  0.2618 -0.8589
  188MPD1    N1 2870   0.012   2.930  10.326  0.5330  0.1263  0.4160
  188MPD1    H6 2871   0.063   3.017  10.314  2.4552 -0.7547  2.1360
  188MPD1    H7 2872   4.655   2.927  10.259  1.7341  2.0263 -1.0278
  189MPD1     C 2873   0.962   2.804   0.578 -0.4356  0.5938 -0.1720
  189MPD1    C1 2874   0.828   2.774   0.582  0.4359  0.0136  0.0106
  189MPD1    C2 2875   0.736   2.881   0.575  0.3098 -0.2867 -0.2342
  189MPD1    C3 2876   0.773   3.017   0.549  0.3776  0.7786  0.3174
  189MPD1    C4 2877   0.907   3.038   0.538 -0.1516  0.5454  0.3772
  189MPD1    C5 2878   0.998   2.938   0.558  0.0234 -0.6708  0.1225
  189MPD1     H 2879   0.632   2.854   0.588  0.0060  1.8366  1.7306
  189MPD1    H1 2880   0.944   3.140   0.530 -1.4688  0.9722 -0.3087
  189MPD1    H2 2881   1.034   2.726   0.600 -1.6249  0.0306  1.7172
  189MPD1    H3 2882   1.103   2.961   0.551 -0.3631  1.0641  0.0453
  189MPD1     N 2883   0.670   3.106   0.525 -0.4129 -0.6813 -0.6026
  189MPD1    H5 2884   0.574   3.082   0.545  0.5295 -3.4927  0.4806
  189MPD1    N1 2885   0.789   2.641   0.616 -0.1508 -0.8780  0.2774
  189MPD1    H6 2886   0.690   2.633   0.594 -0.2543 -1.2145  0.8546
  189MPD1    H7 2887   0.841   2.569   0.567  1.6938 -0.1789  1.1916
  190MPD1     C 2888   3.970   1.617  15.364 -0.6465 -0.3707  0.0135
  190MPD1    C1 2889   3.991   1.634  15.499  0.7669  0.0989  0.0466
  190MPD1    C2 2890   4.116   1.630  15.561 -1.2699 -0.1056 -0.4712
  190MPD1    C3 2891   4.227   1.616  15.468  0.3310 -0.2167 -0.4356
  190MPD1    C4 2892   4.204   1.618  15.338  0.0229 -0.3067  0.4051
  190MPD1    C5 2893   4.078   1.616  15.282 -0.1629 -0.1957  0.1923
  190MPD1     H 2894   4.110   1.637  15.669 -2.4807 -2.7182 -0.3876
  190MPD1    H1 2895   4.283   1.617  15.264 -0.1470  0.2373  0.2136
  190MPD1    H2 2896   3.882   1.606  15.301 -0.7847  1.0578 -0.0384
  190MPD1    H3 2897   4.064   1.605  15.175 -1.8000  0.6158  0.3172
  190MPD1     N 2898   4.350   1.605  15.530 -0.2888 -0.0683  0.0052
  190MPD1    H5 2899   4.345   1.599  15.631 -2.1393  0.5495 -0.0619
  190MPD1    N1 2900   3.878   1.625  15.581 -0.2293 -0.1235 -0.8519
  190MPD1    H6 2901   3.881   1.652  15.679 -2.3880 -1.8841 -0.2859
  190MPD1    H7 2902   3.796   1.665  15.536 -0.4809  0.9730  0.5667
  191MPD1     C 2903   3.778   3.805  13.287 -0.4962  0.2452 -0.1151
  191MPD1    C1 2904   3.699   3.871  13.196 -0.1729  0.1321  0.1766
  191MPD1    C2 2905   3.759   3.913  13.082 -0.0634 -0.6150 -0.1508
  191MPD1    C3 2906   3.887   3.879  13.047 -0.4779 -0.6418 -0.4640
  191MPD1    C4 2907   3.963   3.809  13.136 -0.2375 -0.5712 -0.3451
  191MPD1    C5 2908   3.909   3.768  13.256 -0.6205 -0.0450 -0.7328
  191MPD1     H 2909   3.702   3.982  13.021  1.1128 -0.0883 -0.6426
  191MPD1    H1 2910   4.064   3.781  13.112 -0.4811 -1.9233  0.2224
  191MPD1    H2 2911   3.726   3.772  13.377 -2.5826  1.2498 -0.9460
  191MPD1    H3 2912   3.966   3.700  13.317 -0.3800 -0.3930 -1.3459
  191MPD1     N 2913   3.934   3.926  12.917 -0.9683 -0.2007  0.2242
  191MPD1    H5 2914   3.874   3.994  12.874  2.2747  2.1667 -0.5757
  191MPD1    N1 2915   3.560   3.889  13.220 -0.2808  0.1572 -0.2905
  191MPD1    H6 2916   3.512   3.842  13.297 -1.2416 -1.6958 -2.0121
  191MPD1    H7 2917   3.497   3.888  13.140 -0.6634  1.7124 -0.0008
  192MPD1     C 2918   3.351   4.058  12.368 -0.4293  0.3064  0.3328
  192MPD1    C1 2919   3.451   4.135  12.307 -0.6726 -0.2804  0.4827
  192MPD1    C2 2920   3.579   4.122  12.362 -0.6565  0.0903 -0.7420
  192MPD1    C3 2921   3.611   4.028  12.457 -0.1678  0.5085 -0.5291
  192MPD1    C4 2922   3.511   3.954  12.509  0.3449  0.1650 -0.0420
  192MPD1    C5 2923   3.377   3.969  12.469  0.4545  0.1307  0.2208
  192MPD1     H 2924   3.659   4.192  12.341  0.1572 -0.5451  0.2184
  192MPD1    H1 2925   3.530   3.883  12.588 -0.7647  0.7190  0.7235
  192MPD1    H2 2926   3.247   4.074  12.342 -0.6262  2.4174  2.3845
  192MPD1    H3 2927   3.295   3.912  12.511 -0.7900  1.9620  0.2946
  192MPD1     N 2928   3.743   4.017  12.511  0.6065 -1.1788  0.0409
  192MPD1    H5 2929   3.750   3.950  12.587  1.2110 -0.7122  0.3891
  192MPD1    N1 2930   3.413   4.239  12.225 -0.0803 -0.2975  0.2197
  192MPD1    H6 2931   3.487   4.284  12.172 -0.3884 -0.6150 -0.4790
  192MPD1    H7 2932   3.336   4.220  12.161 -1.2090 -0.5409  1.6326
  193MPD1     C 2933   4.464   3.393  17.634 -0.1774  1.0261 -0.0044
  193MPD1    C1 2934   4.366   3.381  17.536 -0.2412  1.1939  0.0385
  193MPD1    C2 2935   4.391   3.442  17.421 -0.0756  0.3971  0.8924
  193MPD1    C3 2936   4.500   3.525  17.403  0.1205  0.6944  0.5325
  193MPD1    C4 2937   4.593   3.541  17.500 -0.1957  0.0032 -0.4144
  193MPD1    C5 2938   4.571   3.470  17.616  0.1877 -0.6902 -0.7770
  193MPD1     H 2939   4.327   3.435  17.333  0.7819 -0.1156  0.3164
  193MPD1    H1 2940   4.683   3.601  17.503 -0.1814  0.0052 -0.9867
  193MPD1    H2 2941   4.439   3.347   0.049  2.4247  0.3088  0.3191
  193MPD1    H3 2942   4.655   3.466   0.004 -0.1538  0.9338 -0.2728
  193MPD1     N 2943   4.512   3.608  17.288  0.1019 -0.2624  0.0180
  193MPD1    H5 2944   4.580   3.682  17.287  1.3283 -1.3623  1.3079
  193MPD1    N1 2945   4.250   3.296  17.551 -0.4351 -0.4401 -0.3224
  193MPD1    H6 2946   4.164   3.324  17.504 -0.5915 -0.5198 -0.0842
  193MPD1    H7 2947   4.230   3.268  17.647 -0.1851 -0.1922 -0.1989
  194MPD1     C 2948   1.491   0.189  17.345  0.2515  0.9451  0.0746
  194MPD1    C1 2949   1.489   0.202  17.211  0.5694 -0.0890  0.1860
  194MPD1    C2 2950   1.461   0.081  17.148  0.1410  0.1181 -0.3461
  194MPD1    C3 2951   1.397   4.693  17.207  0.9634  0.2911  0.4588
  194MPD1    C4 2952   1.383   4.703  17.343 -0.3915  0.7134 -0.2654
  194MPD1    C5 2953   1.438   0.081  17.410  0.0307 -0.5402  0.0029
  194MPD1     H 2954   1.462   0.076  17.039  0.4183 -0.4469 -0.3153
  194MPD1    H1 2955   1.333   4.622  17.394  2.3146  0.2529  1.6709
  194MPD1    H2 2956   1.537   0.265  17.408  1.7913  0.3933 -0.3847
  194MPD1    H3 2957   1.423   0.091  17.517  1.2750 -1.5237  0.2660
  194MPD1     N 2958   1.369   4.572  17.143 -0.4567 -0.6612 -0.1746
  194MPD1    H5 2959   1.325   4.502  17.201 -0.5213  0.6473  1.3494
  194MPD1    N1 2960   1.568   0.300  17.146 -0.1557  0.1004  0.3036
  194MPD1    H6 2961   1.556   0.394  17.183 -1.5968  0.7523 -1.8341
  194MPD1    H7 2962   1.543   0.311  17.048  2.6828  1.9282 -0.1907
  195MPD1     C 2963   4.373   2.039   0.664  0.1949  0.0727 -0.5767
  195MPD1    C1 2964   4.398   2.003   0.527 -0.1429  0.1188 -1.1601
  195MPD1    C2 2965   4.364   1.869   0.485 -0.0877 -0.1116  0.5000
  195MPD1    C3 2966   4.315   1.771   0.579 -0.7928  0.8293 -0.5693
  195MPD1    C4 2967   4.310   1.813   0.712 -0.1330  0.5414  0.1958
  195MPD1    C5 2968   4.344   1.940   0.750 -0.3507  0.1919 -0.1076
  195MPD1     H 2969   4.362   1.855   0.377 -1.3683  1.9067  0.2667
  195MPD1    H1 2970   4.292   1.744   0.794 -1.8788 -0.2589 -0.8678
  195MPD1    H2 2971   4.383   2.141   0.698 -2.5211  0.3212 -0.5545
  195MPD1    H3 2972   4.339   1.969   0.855 -1.3095  0.6133 -0.2653
  195MPD1     N 2973   4.288   1.633   0.539 -0.1811  0.8402  0.2468
  195MPD1    H5 2974   4.258   1.567   0.610 -1.3812  0.3710 -0.7066
  195MPD1    N1 2975   4.434   2.107   0.431  0.0360  0.1543  0.0486
  195MPD1    H6 2976   4.501   2.177   0.464  1.4261 -2.0273  1.8601
  195MPD1    H7 2977   4.462   2.062   0.344  0.4358  2.3492 -0.9642
  196MPD1     C 2978   3.265   1.377   0.692 -0.0091 -0.0732  0.2897
  196MPD1    C1 2979   3.173   1.475   0.655  0.3251 -0.1813  0.2703
  196MPD1    C2 2980   3.188   1.606   0.709  0.2052  0.2433  0.9713
  196MPD1    C3 2981   3.281   1.625   0.812 -0.4167  0.8533  0.1817
  196MPD1    C4 2982   3.369   1.523   0.840 -0.0286  0.6355  0.2029
  196MPD1    C5 2983   3.377   1.404   0.768 -0.5277 -0.3800 -0.2386
  196MPD1     H 2984   3.123   1.682   0.668  0.3349  0.9668  2.1314
  196MPD1    H1 2985   3.456   1.541   0.903 -1.1020  2.2598  1.2253
  196MPD1    H2 2986   3.257   1.281   0.641  0.1915 -0.2367  0.5710
  196MPD1    H3 2987   3.452   1.330   0.794 -0.4228  0.3367  1.4665
  196MPD1     N 2988   3.310   1.751   0.870 -0.0112  0.0221  0.1660
  196MPD1    H5 2989   3.405   1.771   0.900  0.2350 -0.3145 -0.3807
  196MPD1    N1 2990   3.099   1.455   0.538  0.3365  0.1285  0.1964
  196MPD1    H6 2991   3.062   1.360   0.532  1.5947 -0.4653  1.6225
  196MPD1    H7 2992   3.022   1.521   0.528  3.1323  3.3685  0.3709
  197MPD1     C 2993   2.612   3.815   0.226  0.4966 -0.0952 -0.3383
  197MPD1    C1 2994   2.687   3.902   0.303 -0.3381 -0.3828 -0.2262
  197MPD1    C2 2995   2.734   4.021   0.242 -0.0488  0.3960 -0.1573
  197MPD1    C3 2996   2.684   4.058   0.112 -0.6863 -0.1112  0.0141
  197MPD1    C4 2997   2.592   3.975   0.048 -0.6456  1.1575  0.5917
  197MPD1    C5 2998   2.555   3.853   0.111 -0.0610  0.0973  0.0165
  197MPD1     H 2999   2.802   4.081   0.301  0.9917 -1.8215  0.8618
  197MPD1    H1 3000   2.571   4.009  17.628  0.2165 -2.7533 -0.8869
  197MPD1    H2 3001   2.582   3.716   0.257 -0.2844  0.1979 -0.1473
  197MPD1    H3 3002   2.500   3.778   0.055 -0.5865  0.6254 -0.1735
  197MPD1     N 3003   2.716   4.167   0.035 -0.4741  0.2107  0.1485
  197MPD1    H5 3004   2.684   4.169  17.620 -3.3546  2.4302  1.1467
  197MPD1    N1 3005   2.747   3.843   0.416  0.8526 -0.8872 -0.3374
  197MPD1    H6 3006   2.678   3.783   0.461  0.4967 -1.0886 -1.1415
  197MPD1    H7 3007   2.787   3.905   0.486  1.2125 -2.4401  0.8218
  198MPD1     C 3008   4.095   2.816  15.505  0.4687  0.2682 -0.1216
  198MPD1    C1 3009   4.115   2.789  15.645  0.1833 -0.0424 -0.1311
  198MPD1    C2 3010   4.186   2.877  15.721 -0.5367  0.3282 -0.1579
  198MPD1    C3 3011   4.241   2.991  15.661  0.2331  0.0210  0.8623
  198MPD1    C4 3012   4.220   3.015  15.526  0.3308 -0.0047 -0.3677
  198MPD1    C5 3013   4.149   2.926  15.449  0.0449 -0.9289 -0.6708
  198MPD1     H 3014   4.201   2.843  15.822  0.9373  1.3104 -0.0545
  198MPD1    H1 3015   4.256   3.110  15.489  0.6065 -0.3535 -0.9992
  198MPD1    H2 3016   4.037   2.742  15.451 -0.4960  0.9859 -0.0776
  198MPD1    H3 3017   4.129   2.949  15.345  0.3587 -2.4423 -1.0638
  198MPD1     N 3018   4.300   3.087  15.739 -0.3908  0.0416 -0.1320
  198MPD1    H5 3019   4.333   3.169  15.689 -1.1301 -0.1813 -0.9892
  198MPD1    N1 3020   4.076   2.668  15.701 -0.4255 -0.3335  0.5084
  198MPD1    H6 3021   4.058   2.672  15.801  2.4305  1.2696  0.9412
  198MPD1    H7 3022   4.007   2.626  15.639  1.1004 -0.9791 -0.7821
  199MPD1     C 3023   2.323   3.334   9.872 -0.9261 -0.0410  0.2820
  199MPD1    C1 3024   2.295   3.444   9.954 -0.1963 -0.7550  0.7966
  199MPD1    C2 3025   2.184   3.519   9.912  0.2779  0.7949 -0.5027
  199MPD1    C3 3026   2.103   3.484   9.808 -0.7366 -1.1988  0.8961
  199MPD1    C4 3027   2.130   3.370   9.737 -0.0597 -0.0811  0.3181
  199MPD1    C5 3028   2.246   3.297   9.762 -0.0369  0.0720 -0.0801
  199MPD1     H 3029   2.166   3.610   9.968 -2.3191 -0.4316  0.6568
  199MPD1    H1 3030   2.071   3.353   9.648  0.8153  0.3820 -0.3441
  199MPD1    H2 3031   2.398   3.264   9.908  0.0509  1.5688  1.3594
  199MPD1    H3 3032   2.267   3.213   9.697  0.3995  0.3795 -0.3319
  199MPD1     N 3033   1.977   3.550   9.777 -0.3321  0.6098 -0.0093
  199MPD1    H5 3034   1.934   3.520   9.690 -0.3204  0.7863 -0.0770
  199MPD1    N1 3035   2.393   3.497  10.042 -0.1268 -0.1654 -0.2311
  199MPD1    H6 3036   2.460   3.430  10.078 -0.9105 -0.0906  1.3611
  199MPD1    H7 3037   2.345   3.547  10.116 -0.4314 -0.7474 -0.0355
  200MPD1     C 3038   1.153   4.056  15.631 -0.6845 -0.3301  0.4722
  200MPD1    C1 3039   1.039   4.028  15.552  0.3281  0.4010  0.1975
  200MPD1    C2 3040   1.043   4.067  15.415 -0.3494 -0.2319  0.3042
  200MPD1    C3 3041   1.150   4.137  15.365  0.2363  0.5361 -0.5053
  200MPD1    C4 3042   1.244   4.188  15.453  0.2652  0.3921  0.0173
  200MPD1    C5 3043   1.248   4.148  15.590  0.1065 -1.0260  0.2160
  200MPD1     H 3044   0.974   4.038  15.336  1.1053 -0.8065 -0.7385
  200MPD1    H1 3045   1.333   4.242  15.424 -2.0456  3.7515 -0.7845
  200MPD1    H2 3046   1.159   4.006  15.727  0.0518 -1.0952  0.0234
  200MPD1    H3 3047   1.334   4.170  15.653 -0.8539  0.1034  1.1310
  200MPD1     N 3048   1.149   4.149  15.224 -0.0947  0.6691  0.2785
  200MPD1    H5 3049   1.069   4.113  15.173  1.1965  0.3757 -1.5189
  200MPD1    N1 3050   0.945   3.938  15.600 -0.4097 -0.2250  0.8085
  200MPD1    H6 3051   0.853   3.952  15.558 -0.8332 -0.6260  1.6155
  200MPD1    H7 3052   0.940   3.940  15.701  2.0205 -0.2197  0.9084
  201MPD1     C 3053   2.684   3.878  13.579  0.6242 -0.3121  0.3411
  201MPD1    C1 3054   2.761   3.788  13.652 -0.0547 -0.0965 -0.2640
  201MPD1    C2 3055   2.829   3.691  13.588  0.5883  0.0972  0.1103
  201MPD1    C3 3056   2.826   3.685  13.454  0.6691  0.7972  0.7231
  201MPD1    C4 3057   2.753   3.777  13.383 -0.1888  0.3323  0.0544
  201MPD1    C5 3058   2.682   3.871  13.449 -0.1734  0.2659 -0.4332
  201MPD1     H 3059   2.888   3.622  13.646  2.9150  0.1736 -2.1712
  201MPD1    H1 3060   2.750   3.772  13.275  1.6917  1.5268 -0.0544
  201MPD1    H2 3061   2.632   3.961  13.625 -0.6719 -1.8245  1.6265
  201MPD1    H3 3062   2.612   3.930  13.391  0.5651  2.8578  1.3164
  201MPD1     N 3063   2.899   3.582  13.387 -0.3426 -0.0741  0.1556
  201MPD1    H5 3064   2.938   3.512  13.449  0.5825  0.1473 -0.1717
  201MPD1    N1 3065   2.786   3.810  13.787  0.0081  0.0732 -0.0758
  201MPD1    H6 3066   2.702   3.839  13.838 -0.5313  1.2760 -1.6628
  201MPD1    H7 3067   2.830   3.734  13.839  0.8683 -1.2704 -2.7420
  202MPD1     C 3068   2.680   2.447   9.046  0.2918  0.0573 -0.2125
  202MPD1    C1 3069   2.709   2.341   9.119  0.4207 -0.4435 -1.1449
  202MPD1    C2 3070   2.814   2.359   9.208 -0.2730  0.7258 -0.5491
  202MPD1    C3 3071   2.855   2.482   9.239 -0.3664 -0.3991 -0.0988
  202MPD1    C4 3072   2.810   2.597   9.187 -0.1833 -0.4130  0.5524
  202MPD1    C5 3073   2.715   2.572   9.090 -0.0498 -0.7921  0.2921
  202MPD1     H 3074   2.844   2.267   9.258 -1.4098  0.5715 -0.1482
  202MPD1    H1 3075   2.849   2.696   9.207 -1.0336  0.5932 -2.7866
  202MPD1    H2 3076   2.614   2.447   8.960 -0.5412  1.4039  0.4132
  202MPD1    H3 3077   2.674   2.649   9.026  1.6903  0.5583  0.8075
  202MPD1     N 3078   2.940   2.509   9.340  0.5352  0.3077  0.8401
  202MPD1    H5 3079   2.954   2.609   9.355 -0.6549  0.7628 -1.0742
  202MPD1    N1 3080   2.711   2.216   9.058  0.2345 -0.2789 -0.4179
  202MPD1    H6 3081   2.701   2.148   9.133 -0.5501  0.0760 -0.1968
  202MPD1    H7 3082   2.626   2.192   9.005 -1.1711  0.1256  1.6731
  203MPD1     C 3083   2.024   3.946  12.369  0.1416  0.6737  0.2419
  203MPD1    C1 3084   2.073   3.864  12.269 -1.0204  0.0666 -0.2937
  203MPD1    C2 3085   2.144   3.753  12.304  0.0998  0.0930  0.5887
  203MPD1    C3 3086   2.170   3.727  12.439  1.0541 -0.6733  0.3562
  203MPD1    C4 3087   2.128   3.811  12.538 -0.7738 -0.5299 -0.3510
  203MPD1    C5 3088   2.052   3.918  12.505  0.2026 -0.1517  0.2885
  203MPD1     H 3089   2.185   3.693  12.224  0.6042  0.7837  0.3302
  203MPD1    H1 3090   2.158   3.812  12.642  1.4996  1.5457 -1.0185
  203MPD1    H2 3091   1.960   4.031  12.348 -2.0645 -0.7381  1.2923
  203MPD1    H3 3092   2.008   3.968  12.591  0.2217  0.8797 -0.3078
  203MPD1     N 3093   2.241   3.605  12.466 -0.5266 -0.5123 -0.0314
  203MPD1    H5 3094   2.259   3.536  12.393  2.4760  1.7542 -1.4202
  203MPD1    N1 3095   2.014   3.870  12.140 -0.1301  0.1896  0.1547
  203MPD1    H6 3096   1.981   3.964  12.117 -0.5861 -0.2236 -0.8612
  203MPD1    H7 3097   2.072   3.825  12.071 -0.8522  0.0962 -0.3890
  204MPD1     C 3098   0.754   3.039  17.395  0.2596  0.0347  0.4260
  204MPD1    C1 3099   0.835   3.145  17.383  0.8981 -0.0702 -0.5238
  204MPD1    C2 3100   0.952   3.123  17.309 -0.4049  0.1771 -1.0265
  204MPD1    C3 3101   0.983   2.997  17.260  0.4226 -1.2431 -0.0574
  204MPD1    C4 3102   0.896   2.892  17.282 -0.8758 -0.5294  0.4421
  204MPD1    C5 3103   0.786   2.910  17.358 -0.1802  0.2153 -0.7456
  204MPD1     H 3104   1.028   3.196  17.284 -0.7468  0.9791  0.2350
  204MPD1    H1 3105   0.918   2.793  17.241 -0.7433 -0.7423  1.0295
  204MPD1    H2 3106   0.662   3.043  17.451 -0.2498  1.6263 -0.5077
  204MPD1    H3 3107   0.725   2.824  17.382 -0.1283  0.0981 -1.0255
  204MPD1     N 3108   1.106   2.993  17.186  0.5361  0.6390 -0.0560
  204MPD1    H5 3109   1.150   3.083  17.168  1.2953  0.2292 -0.2688
  204MPD1    N1 3110   0.784   3.271  17.408 -0.8536  0.0888 -0.2923
  204MPD1    H6 3111   0.856   3.342  17.423 -2.6678  2.0041 -0.7178
  204MPD1    H7 3112   0.717   3.262  17.483  0.1947 -2.2373  0.3709
  205MPD1     C 3113   2.527   2.666  16.215  0.4900 -0.9628 -0.2619
  205MPD1    C1 3114   2.581   2.621  16.332  0.5422 -0.0514  0.3959
  205MPD1    C2 3115   2.499   2.558  16.422 -0.1425  0.8261  0.7499
  205MPD1    C3 3116   2.362   2.539  16.393  0.1981  0.3131  0.1515
  205MPD1    C4 3117   2.311   2.588  16.280  0.0528 -0.2707  0.6897
  205MPD1    C5 3118   2.392   2.648  16.181 -0.9159 -0.3781 -0.3500
  205MPD1     H 3119   2.540   2.518  16.514  1.1480 -0.1022 -0.2306
  205MPD1    H1 3120   2.205   2.587  16.260  0.3586  1.3770 -0.9628
  205MPD1    H2 3121   2.576   2.732  16.144 -0.7189  0.2622  0.0262
  205MPD1    H3 3122   2.353   2.678  16.085  0.0849 -2.0452 -1.2665
  205MPD1     N 3123   2.277   2.471  16.484  0.3479 -0.0341 -0.0797
  205MPD1    H5 3124   2.194   2.441  16.433  0.3211 -3.1813  1.8437
  205MPD1    N1 3125   2.715   2.651  16.363  0.7572  0.0221 -0.6912
  205MPD1    H6 3126   2.776   2.663  16.282  2.2150  0.8127  0.5277
  205MPD1    H7 3127   2.756   2.569  16.407 -1.8680 -0.5930  0.5996
  206MPD1     C 3128   2.240   1.175  16.716 -0.1464 -0.1938 -0.1646
  206MPD1    C1 3129   2.292   1.115  16.608 -0.5308 -0.5412 -0.3782
  206MPD1    C2 3130   2.207   1.046  16.525 -0.1408 -0.0425 -0.1107
  206MPD1    C3 3131   2.067   1.057  16.535 -0.1546  0.3053 -0.2120
  206MPD1    C4 3132   2.017   1.130  16.639 -0.2409 -0.0507 -0.2258
  206MPD1    C5 3133   2.105   1.186  16.733 -0.2164  0.3198 -0.6089
  206MPD1     H 3134   2.245   0.994  16.439  0.3902 -1.5281  1.0228
  206MPD1    H1 3135   1.912   1.159  16.643  0.0776  1.0350  0.0873
  206MPD1    H2 3136   2.297   1.228  16.791 -0.9839  0.4546  0.0144
  206MPD1    H3 3137   2.072   1.249  16.815 -0.6727  0.1100 -0.6356
  206MPD1     N 3138   1.974   1.007  16.437 -0.1102  0.3121  0.3219
  206MPD1    H5 3139   1.874   1.018  16.450 -0.3347  1.3823 -2.2122
  206MPD1    N1 3140   2.430   1.102  16.595  0.5247  0.1440 -0.5156
  206MPD1    H6 3141   2.468   1.025  16.650 -0.0490  0.3383  0.1675
  206MPD1    H7 3142   2.468   1.177  16.653  1.9535 -0.8657 -0.1574
  207MPD1     C 3143   3.554   3.313  10.250 -0.0724  0.2373 -0.0115
  207MPD1    C1 3144   3.596   3.294  10.379 -0.5197  0.6591  0.5876
  207MPD1    C2 3145   3.732   3.282  10.404 -0.7693 -0.3862  0.7151
  207MPD1    C3 3146   3.824   3.308  10.305 -0.5874 -0.3983 -0.0876
  207MPD1    C4 3147   3.788   3.332  10.171 -0.1371 -0.2158 -0.0089
  207MPD1    C5 3148   3.651   3.333  10.145 -0.8796 -0.1963 -0.6690
  207MPD1     H 3149   3.777   3.255  10.500  0.3989 -0.2315  0.2136
  207MPD1    H1 3150   3.859   3.345  10.090  2.2019  0.1984  2.0802
  207MPD1    H2 3151   3.448   3.314  10.224 -0.0561 -4.6569 -0.3432
  207MPD1    H3 3152   3.615   3.353  10.045  0.4942 -0.1073 -1.1378
  207MPD1     N 3153   3.965   3.294  10.327 -0.0072 -0.1525  0.7555
  207MPD1    H5 3154   4.027   3.301  10.246 -0.5733 -0.9880  0.2583
  207MPD1    N1 3155   3.502   3.270  10.478  0.1665  0.3711  0.2479
  207MPD1    H6 3156   3.533   3.290  10.573  0.3819  1.4345 -0.0464
  207MPD1    H7 3157   3.409   3.306  10.461 -0.4301 -0.6767  1.3454
  208MPD1     C 3158   2.259   3.119  17.191 -0.2305  0.4184  0.4579
  208MPD1    C1 3159   2.266   2.991  17.151  0.0690 -0.7000 -0.2107
  208MPD1    C2 3160   2.220   2.898  17.237  0.1682 -0.6307 -1.0794
  208MPD1    C3 3161   2.169   2.931  17.362 -0.5562  0.2012  0.1316
  208MPD1    C4 3162   2.165   3.064  17.395 -0.2120 -0.7313  0.0781
  208MPD1    C5 3163   2.210   3.160  17.308 -0.3202  0.0976 -0.1860
  208MPD1     H 3164   2.231   2.792  17.214  2.7593 -0.4244 -0.8217
  208MPD1    H1 3165   2.147   3.096  17.497 -0.9785 -0.9082 -0.0020
  208MPD1    H2 3166   2.304   3.192  17.126  0.8386 -0.5648  0.0897
  208MPD1    H3 3167   2.210   3.265  17.335 -0.9405  0.0452  0.0164
  208MPD1     N 3168   2.126   2.823  17.450  0.0987 -0.7221  0.7119
  208MPD1    H5 3169   2.121   2.731  17.406  0.1813  0.2018 -1.1933
  208MPD1    N1 3170   2.340   2.958  17.042 -1.1639 -0.0443 -0.1876
  208MPD1    H6 3171   2.319   2.867  17.002 -2.6269  0.3439 -0.2878
  208MPD1    H7 3172   2.331   3.031  16.972  1.8543 -0.5705 -1.1384
  209MPD1     C 3173   1.025   3.423  11.229  0.2489  0.0496 -0.1102
  209MPD1    C1 3174   0.972   3.548  11.199 -0.1609  0.1228  0.1296
  209MPD1    C2 3175   0.834   3.564  11.194  0.6850  0.0715 -0.0964
  209MPD1    C3 3176   0.740   3.464  11.221  0.1694  0.8024 -0.2322
  209MPD1    C4 3177   0.798   3.338  11.242 -0.4722  0.5006 -0.0620
  209MPD1    C5 3178   0.937   3.324  11.244 -0.6368 -0.0911 -0.2556
  209MPD1     H 3179   0.795   3.661  11.166 -0.0404 -0.7049 -1.7218
  209MPD1    H1 3180   0.737   3.250  11.256  1.4407 -0.8287  0.0259
  209MPD1    H2 3181   1.133   3.412  11.228  0.1269 -1.0393 -1.6416
  209MPD1    H3 3182   0.975   3.224  11.262 -0.5046 -0.0876 -0.5072
  209MPD1     N 3183   0.601   3.478  11.226  0.1854 -0.3613  0.1030
  209MPD1    H5 3184   0.570   3.573  11.206 -1.0543 -1.0932 -1.4098
  209MPD1    N1 3185   1.055   3.654  11.156 -0.4198  0.2967 -0.4831
  209MPD1    H6 3186   1.150   3.643  11.193 -0.6542  1.7778  0.5386
  209MPD1    H7 3187   1.020   3.739  11.199 -0.6068 -0.6995  1.3424
  210MPD1     C 3188   4.571   3.906  11.665  0.2111 -0.5200  0.5300
  210MPD1    C1 3189   4.699   3.945  11.644 -0.0877  0.3206 -0.3593
  210MPD1    C2 3190   0.047   3.891  11.534 -0.4839 -0.1983  0.4824
  210MPD1    C3 3191   4.701   3.796  11.455 -1.0120 -0.2880 -0.3558
  210MPD1    C4 3192   4.570   3.762  11.480 -0.3102  0.0783  0.2189
  210MPD1    C5 3193   4.508   3.815  11.589 -0.1928 -0.1374  0.3316
  210MPD1     H 3194   0.143   3.937  11.510 -2.1215  2.5601 -0.7926
  210MPD1    H1 3195   4.521   3.683  11.424  0.6562 -0.1479 -0.3116
  210MPD1    H2 3196   4.515   3.953  11.746 -0.6401 -0.5432 -0.0389
  210MPD1    H3 3197   4.410   3.773  11.610  0.4777 -2.1144 -0.4672
  210MPD1     N 3198   0.047   3.732  11.343  0.2466 -0.5415 -0.0915
  210MPD1    H5 3199   4.705   3.668  11.295  0.0847 -0.3925 -0.0822
  210MPD1    N1 3200   0.026   4.064  11.709 -0.4252  0.4283  0.4573
  210MPD1    H6 3201   4.702   4.088  11.797  1.5865  0.6573  1.3832
  210MPD1    H7 3202   0.128   4.074  11.712 -0.5265  1.5396  0.2579
  211MPD1     C 3203   1.784   2.522  16.138  0.2054 -0.0538  0.6331
  211MPD1    C1 3204   1.700   2.564  16.027 -0.4432  0.3067  0.8294
  211MPD1    C2 3205   1.568   2.561  16.039  0.1514 -1.0541 -0.4074
  211MPD1    C3 3206   1.509   2.525  16.158  1.0468  0.0647 -0.3000
  211MPD1    C4 3207   1.589   2.473  16.260 -0.6332 -0.2972 -0.4566
  211MPD1    C5 3208   1.728   2.465  16.242  0.8264 -0.1196  0.1881
  211MPD1     H 3209   1.512   2.597  15.954 -2.0799  1.7454  2.2266
  211MPD1    H1 3210   1.549   2.458  16.359  0.1605 -1.4448 -0.3126
  211MPD1    H2 3211   1.891   2.538  16.133  0.1600  0.4414  1.2273
  211MPD1    H3 3212   1.793   2.441  16.326  0.6276  0.4324  0.4977
  211MPD1     N 3213   1.367   2.540  16.162  0.1899  0.2284 -0.4170
  211MPD1    H5 3214   1.315   2.590  16.090  0.3348  0.9886  0.0090
  211MPD1    N1 3215   1.758   2.627  15.914 -0.2719 -0.3900 -1.3467
  211MPD1    H6 3216   1.700   2.624  15.830 -0.1976  2.6425 -1.5193
  211MPD1    H7 3217   1.852   2.589  15.903  0.2662  0.9502 -1.4602
  212MPD1     C 3218   1.379   1.300  16.594 -0.1612 -0.2366  0.0267
  212MPD1    C1 3219   1.288   1.395  16.629 -0.1106 -0.6475  0.4927
  212MPD1    C2 3220   1.155   1.367  16.663 -0.0014  0.1946 -0.0787
  212MPD1    C3 3221   1.117   1.234  16.667  0.7965  0.0118  0.2193
  212MPD1    C4 3222   1.215   1.136  16.646  0.1276 -0.0805 -0.1017
  212MPD1    C5 3223   1.345   1.171  16.608 -0.6557 -0.0504  0.2126
  212MPD1     H 3224   1.087   1.447  16.688  0.1108  0.2755 -0.0352
  212MPD1    H1 3225   1.196   1.030  16.655 -0.0439  0.1041  1.7870
  212MPD1    H2 3226   1.475   1.331  16.553  0.4258  0.6771  2.0932
  212MPD1    H3 3227   1.415   1.092  16.582 -1.6904 -0.8499 -0.1337
  212MPD1     N 3228   0.990   1.198  16.700 -0.2407 -0.3927 -0.7840
  212MPD1    H5 3229   0.965   1.100  16.692 -0.0139 -0.7332  3.0772
  212MPD1    N1 3230   1.328   1.529  16.619  0.1988 -0.1178  0.7804
  212MPD1    H6 3231   1.299   1.578  16.703 -1.8863 -0.7893  0.4610
  212MPD1    H7 3232   1.429   1.538  16.613 -0.0411  1.4926 -0.7956
  213MPD1     C 3233   4.421   1.792  15.067 -0.4830  0.3228 -0.0996
  213MPD1    C1 3234   4.400   1.779  14.921 -0.6334 -0.2827 -0.0006
  213MPD1    C2 3235   4.296   1.849  14.881  0.2055  0.3222 -0.0817
  213MPD1    C3 3236   4.220   1.930  14.964  0.3807  0.2268  0.2014
  213MPD1    C4 3237   4.250   1.951  15.095  0.0195 -0.0924  0.0518
  213MPD1    C5 3238   4.351   1.878  15.147  0.0846  0.2037 -0.1230
  213MPD1     H 3239   4.271   1.847  14.775 -2.3870  0.2522  0.5158
  213MPD1    H1 3240   4.208   2.021  15.166 -0.5751  1.4584 -1.8153
  213MPD1    H2 3241   4.493   1.722  15.108  0.6068  0.9243 -0.9565
  213MPD1    H3 3242   4.359   1.871  15.255 -0.6303 -2.7923 -0.2795
  213MPD1     N 3243   4.111   1.990  14.898  0.0955  0.1739 -0.1311
  213MPD1    H5 3244   4.095   1.955  14.804 -2.0359 -0.9487  0.6435
  213MPD1    N1 3245   4.446   1.662  14.852 -0.3159  0.0634 -0.1703
  213MPD1    H6 3246   4.529   1.617  14.890 -0.8471  0.4625  1.4930
  213MPD1    H7 3247   4.458   1.680  14.753  0.2790  0.0506 -0.0987
  214MPD1     C 3248   3.327   1.769  14.320 -0.2877  0.3370 -0.2776
  214MPD1    C1 3249   3.402   1.709  14.409 -0.3003 -0.3521  0.0772
  214MPD1    C2 3250   3.509   1.768  14.463 -0.2815  0.5625 -1.3231
  214MPD1    C3 3251   3.532   1.898  14.443  0.8798 -0.7996  0.1930
  214MPD1    C4 3252   3.448   1.964  14.359  0.0062 -0.0577  0.3872
  214MPD1    C5 3253   3.339   1.901  14.307  0.5231 -0.4403 -0.0107
  214MPD1     H 3254   3.582   1.716  14.523 -2.4209 -0.1167  0.6874
  214MPD1    H1 3255   3.470   2.067  14.333 -0.5263  0.0611  0.4068
  214MPD1    H2 3256   3.252   1.708  14.271 -0.1504 -0.0992  0.0597
  214MPD1    H3 3257   3.272   1.950  14.238 -0.0704  0.5523  1.2719
  214MPD1     N 3258   3.626   1.982  14.511 -0.5523  0.0302  0.1841
  214MPD1    H5 3259   3.625   2.080  14.485  0.0482 -0.6498 -2.4086
  214MPD1    N1 3260   3.385   1.568  14.425  0.4898 -0.8674  0.5628
  214MPD1    H6 3261   3.405   1.527  14.516 -1.3756 -2.5498  0.2194
  214MPD1    H7 3262   3.291   1.535  14.403  1.0261 -1.2979 -1.0457
  215MPD1     C 3263   4.168   2.835  10.698 -0.6034 -0.4007 -0.2887
  215MPD1    C1 3264   4.121   2.966  10.702 -0.3990 -0.2504 -0.0685
  215MPD1    C2 3265   4.168   3.048  10.809 -0.1682 -0.0821  0.2194
  215MPD1    C3 3266   4.275   3.007  10.890  0.1954 -0.1702  0.1430
  215MPD1    C4 3267   4.326   2.879  10.875 -0.5793 -0.3335 -0.1967
  215MPD1    C5 3268   4.271   2.797  10.781  0.2877  0.0805  0.4310
  215MPD1     H 3269   4.118   3.144  10.805 -0.7517 -0.5665 -3.7415
  215MPD1    H1 3270   4.414   2.841  10.926 -0.4570  0.0457 -0.1237
  215MPD1    H2 3271   4.140   2.771  10.616  1.3263 -0.1926 -1.0944
  215MPD1    H3 3272   4.318   2.701  10.760  0.2584  0.1189  0.1927
  215MPD1     N 3273   4.331   3.101  10.977 -0.1540 -0.1448 -0.4869
  215MPD1    H5 3274   4.303   3.198  10.967 -1.5382 -0.7244 -2.1762
  215MPD1    N1 3275   4.006   3.006  10.632 -0.0991  0.5838  0.1532
  215MPD1    H6 3276   3.979   2.959  10.546  0.9708 -0.9603  0.6653
  215MPD1    H7 3277   4.021   3.103  10.605  1.0231  0.2610 -0.3739
  216MPD1     C 3278   0.996   1.278  17.514 -0.0965 -0.0283 -0.3499
  216MPD1    C1 3279   0.916   1.186  17.583 -0.3287 -0.7524  0.0856
  216MPD1    C2 3280   0.943   1.055  17.556 -0.9584  0.3532 -0.1257
  216MPD1    C3 3281   1.052   1.007  17.485  0.5907 -0.1245 -0.0821
  216MPD1    C4 3282   1.132   1.107  17.425 -0.5406 -0.0795  0.5312
  216MPD1    C5 3283   1.103   1.239  17.436  0.1160  0.0529 -0.1741
  216MPD1     H 3284   0.872   0.984  17.595  0.9843  0.1068  2.9865
  216MPD1    H1 3285   1.210   1.073  17.359  1.3796  1.2511  2.1044
  216MPD1    H2 3286   0.972   1.384  17.518 -3.2196 -0.7294 -0.6128
  216MPD1    H3 3287   1.166   1.316  17.395 -0.6737  0.3878 -0.7564
  216MPD1     N 3288   1.071   0.861  17.467  0.6679  0.2682  0.0615
  216MPD1    H5 3289   1.011   0.797  17.518 -0.4862 -1.5146 -3.5282
  216MPD1    N1 3290   0.798   1.225  17.646  0.4393  0.0175 -0.7725
  216MPD1    H6 3291   0.763   1.161   0.036  1.5732 -0.6974 -0.8665
  216MPD1    H7 3292   0.812   1.319   0.003 -2.3932  1.2506 -2.7760
  217MPD1     C 3293   1.802   1.713   8.937 -0.5073 -0.1074  0.2276
  217MPD1    C1 3294   1.935   1.664   8.928  0.0148  0.5831  1.2453
  217MPD1    C2 3295   2.032   1.706   9.018  0.9612 -0.3390  1.0222
  217MPD1    C3 3296   1.993   1.791   9.125 -0.2777 -1.0911  0.0245
  217MPD1    C4 3297   1.864   1.830   9.138  0.4472  0.0678  1.0079
  217MPD1    C5 3298   1.761   1.783   9.049 -0.7994 -0.0657  0.2942
  217MPD1     H 3299   2.135   1.670   9.012  0.7637 -0.4631 -1.6622
  217MPD1    H1 3300   1.839   1.895   9.220 -1.0407  0.7075  0.0516
  217MPD1    H2 3301   1.729   1.690   8.860 -0.5352  2.0256 -0.3910
  217MPD1    H3 3302   1.660   1.820   9.060 -1.6764 -2.3056 -0.3658
  217MPD1     N 3303   2.085   1.858   9.211 -0.0441 -0.1261 -0.5699
  217MPD1    H5 3304   2.046   1.927   9.274 -2.5831 -0.7672 -1.4230
  217MPD1    N1 3305   1.972   1.571   8.825 -0.2320 -0.2026 -0.3277
  217MPD1    H6 3306   1.902   1.503   8.798 -0.9165  0.4678 -0.2299
  217MPD1    H7 3307   2.059   1.524   8.850 -1.1959 -1.8701 -0.1643
  218MPD1     C 3308   3.269   3.900  12.987  0.2001 -0.1004  0.3567
  218MPD1    C1 3309   3.284   3.765  13.027  0.2276 -0.4325 -0.2544
  218MPD1    C2 3310   3.386   3.687  12.977  0.4962 -0.8102  0.1614
  218MPD1    C3 3311   3.482   3.752  12.897  0.2014  0.4084 -0.1142
  218MPD1    C4 3312   3.478   3.885  12.867  0.4153 -0.3155  0.1583
  218MPD1    C5 3313   3.374   3.961  12.921  0.4367 -0.1611  0.2055
  218MPD1     H 3314   3.388   3.579  12.985  1.6945 -0.8531 -0.8589
  218MPD1    H1 3315   3.555   3.930  12.805  0.3922  1.5930  1.5302
  218MPD1    H2 3316   3.204   3.975  13.032 -2.3235 -2.5489  0.8238
  218MPD1    H3 3317   3.375   4.069  12.910 -1.2528 -0.3572 -2.0752
  218MPD1     N 3318   3.591   3.665  12.860  0.3021 -0.2034 -0.3082
  218MPD1    H5 3319   3.589   3.569  12.893  0.3819  0.1392  0.6805
  218MPD1    N1 3320   3.176   3.706  13.096 -0.0924 -0.1790  0.1014
  218MPD1    H6 3321   3.124   3.781  13.141 -0.5483 -1.0873  1.0924
  218MPD1    H7 3322   3.210   3.632  13.157 -2.2568 -1.5584 -0.3266
  219MPD1     C 3323   4.492   3.757  12.338  0.9393 -0.0388 -0.6118
  219MPD1    C1 3324   4.497   3.711  12.465  0.9998  0.3423 -0.5398
  219MPD1    C2 3325   4.382   3.663  12.521 -0.2401 -0.2250  0.0344
  219MPD1    C3 3326   4.259   3.663  12.454 -0.4640  0.9258  0.0927
  219MPD1    C4 3327   4.260   3.719  12.330 -0.1852  0.0346 -0.2432
  219MPD1    C5 3328   4.372   3.760  12.266 -0.2288  0.0126  0.4109
  219MPD1     H 3329   4.385   3.616  12.618  0.8838 -0.7171 -0.2445
  219MPD1    H1 3330   4.167   3.731  12.276  0.3026  2.2303 -0.6020
  219MPD1    H2 3331   4.579   3.791  12.283  0.8547  1.0493 -0.0738
  219MPD1    H3 3332   4.369   3.811  12.170  0.5575 -0.2545  0.2445
  219MPD1     N 3333   4.137   3.628  12.512 -0.2983  0.1278  0.2571
  219MPD1    H5 3334   4.053   3.620  12.456  0.0436 -1.0268 -0.1003
  219MPD1    N1 3335   4.621   3.687  12.529  0.1513 -0.6660  0.2327
  219MPD1    H6 3336   4.608   3.688  12.630  1.7918  0.8817  0.4274
  219MPD1    H7 3337   4.682   3.767  12.513  0.3370 -1.0264 -0.8924
  220MPD1     C 3338   3.842   3.431   9.649 -0.0573  0.0574 -0.9282
  220MPD1    C1 3339   3.738   3.519   9.686 -0.2696  0.1662  0.3008
  220MPD1    C2 3340   3.748   3.582   9.803  0.3192  0.0795 -0.3443
  220MPD1    C3 3341   3.860   3.588   9.883 -0.0315 -0.3684 -0.5324
  220MPD1    C4 3342   3.973   3.519   9.838  0.5855  0.4888  0.5652
  220MPD1    C5 3343   3.960   3.442   9.725 -0.1637  0.6135  0.1392
  220MPD1     H 3344   3.666   3.642   9.842 -0.0982 -0.6927 -0.0381
  220MPD1    H1 3345   4.072   3.524   9.882  1.9287  1.8153 -2.5962
  220MPD1    H2 3346   3.833   3.358   9.570  1.0448 -0.4920 -0.5507
  220MPD1    H3 3347   4.044   3.381   9.695 -1.7326 -0.9415 -1.0924
  220MPD1     N 3348   3.856   3.653  10.014 -0.7859 -0.4119  0.9355
  220MPD1    H5 3349   3.765   3.676  10.052 -0.6571  2.3286 -0.4619
  220MPD1    N1 3350   3.615   3.523   9.618  0.0988  0.1237 -0.0213
  220MPD1    H6 3351   3.567   3.611   9.632  1.6573  0.5535  2.8116
  220MPD1    H7 3352   3.620   3.522   9.517  1.1148  0.6497  0.0175
  221MPD1     C 3353   1.664   2.019  16.502 -0.2980 -0.0015 -0.0471
  221MPD1    C1 3354   1.538   1.993  16.446 -0.5483  0.6583  0.4356
  221MPD1    C2 3355   1.513   2.044  16.317 -0.1166 -0.1657 -0.0064
  221MPD1    C3 3356   1.608   2.110  16.249  0.1317  0.6173 -0.2427
  221MPD1    C4 3357   1.735   2.122  16.300  0.3868  0.1260 -0.2475
  221MPD1    C5 3358   1.761   2.076  16.424  0.4805  1.1541 -0.2453
  221MPD1     H 3359   1.408   2.045  16.289  0.5696 -0.7855 -2.6099
  221MPD1    H1 3360   1.808   2.165  16.232  1.7525  1.1481  1.8437
  221MPD1    H2 3361   1.706   1.977  16.593 -1.1183 -1.4885 -0.3660
  221MPD1    H3 3362   1.864   2.092  16.455  0.2480  1.3177  0.4426
  221MPD1     N 3363   1.582   2.161  16.116 -0.0895  0.3824  0.3822
  221MPD1    H5 3364   1.661   2.197  16.062  1.0096 -1.2244  0.9259
  221MPD1    N1 3365   1.437   1.941  16.526 -0.2887  0.3887  0.1446
  221MPD1    H6 3366   1.368   1.891  16.471  1.2293 -0.2049 -1.2361
  221MPD1    H7 3367   1.464   1.870  16.594  0.6199  0.8958  0.3160
  222MPD1     C 3368   0.913   0.807  17.001  0.1401  0.7545 -0.3864
  222MPD1    C1 3369   1.030   0.798  16.930 -0.1139 -0.4548 -0.0027
  222MPD1    C2 3370   1.114   0.909  16.931  0.4105  0.0418  0.0007
  222MPD1    C3 3371   1.100   1.018  17.020 -0.0138  0.2361 -0.6941
  222MPD1    C4 3372   0.986   1.021  17.097 -0.4008  0.0423  0.3150
  222MPD1    C5 3373   0.894   0.919  17.085  0.3996 -0.4537 -0.1852
  222MPD1     H 3374   1.202   0.908  16.869  0.0735 -0.6200 -0.4618
  222MPD1    H1 3375   0.967   1.093  17.174  0.6551 -0.4981  1.0852
  222MPD1    H2 3376   0.841   0.726  17.007 -0.4181  1.0748 -3.1384
  222MPD1    H3 3377   0.806   0.931  17.146 -1.0405  1.0421 -2.5434
  222MPD1     N 3378   1.194   1.119  17.030  0.2256  0.3601  0.3598
  222MPD1    H5 3379   1.164   1.196  17.088  0.2657  0.1901  0.6054
  222MPD1    N1 3380   1.021   0.706  16.823 -0.1193  0.3187  0.1740
  222MPD1    H6 3381   1.107   0.691  16.771 -1.8760  0.9823 -2.9240
  222MPD1    H7 3382   0.984   0.616  16.852  0.0000  0.0548 -0.4778
  223MPD1     C 3383   2.181   1.597  16.877 -0.0561 -0.0798 -0.9963
  223MPD1    C1 3384   2.134   1.632  17.002  0.2121  0.1956  0.1043
  223MPD1    C2 3385   2.000   1.594  17.024  0.5912 -0.2387 -0.4579
  223MPD1    C3 3386   1.918   1.526  16.938  0.3335 -0.6611  0.2391
  223MPD1    C4 3387   1.975   1.497  16.813  0.2038 -1.0632  0.3295
  223MPD1    C5 3388   2.105   1.521  16.788 -0.2675 -0.1579  0.5729
  223MPD1     H 3389   1.954   1.625  17.117  2.5135 -1.6027  0.9660
  223MPD1    H1 3390   1.932   1.439  16.733  0.9904  3.0853 -3.0818
  223MPD1    H2 3391   2.285   1.617  16.854  0.1199 -0.6644 -0.7254
  223MPD1    H3 3392   2.156   1.486  16.698 -1.1585 -0.6287  0.2588
  223MPD1     N 3393   1.789   1.491  16.976  0.2021 -0.3332  0.5300
  223MPD1    H5 3394   1.768   1.533  17.066 -0.5752 -1.3017  0.8069
  223MPD1    N1 3395   2.213   1.674  17.106 -0.2431  0.5462 -0.1094
  223MPD1    H6 3396   2.159   1.734  17.167 -1.4618  1.5505 -2.1769
  223MPD1    H7 3397   2.291   1.728  17.070  0.3081 -0.2591 -0.1173
  224MPD1     C 3398   2.249   2.402   9.037 -0.0635 -0.3043  0.0102
  224MPD1    C1 3399   2.295   2.290   9.107 -0.1110 -0.0574  0.0840
  224MPD1    C2 3400   2.366   2.316   9.228  0.4390  0.5984  1.1276
  224MPD1    C3 3401   2.409   2.444   9.261 -0.3562  0.4151  0.6624
  224MPD1    C4 3402   2.364   2.548   9.179 -0.0969  0.4520 -0.1149
  224MPD1    C5 3403   2.292   2.525   9.072  0.2409 -0.0002 -0.1220
  224MPD1     H 3404   2.392   2.234   9.293  1.4987 -0.5804 -0.7679
  224MPD1    H1 3405   2.399   2.649   9.194 -0.8643  0.8410 -0.9726
  224MPD1    H2 3406   2.186   2.385   8.951  0.1196 -0.4672 -0.0914
  224MPD1    H3 3407   2.257   2.607   9.010  2.3318  1.1579  0.2388
  224MPD1     N 3408   2.476   2.476   9.385 -0.0756  0.0035  1.0570
  224MPD1    H5 3409   2.491   2.574   9.405 -0.9266 -0.4032  3.6901
  224MPD1    N1 3410   2.249   2.158   9.070 -0.1631  0.2428 -0.3722
  224MPD1    H6 3411   2.209   2.148   8.977 -1.4706 -0.3961  0.2668
  224MPD1    H7 3412   2.322   2.090   9.088 -0.8733 -1.0817 -2.5518
  225MPD1     C 3413   3.796   4.598  12.641  0.2702  0.9571  0.5805
  225MPD1    C1 3414   3.719   4.714  12.618 -0.2963  0.2551  0.0327
  225MPD1    C2 3415   3.643   0.013  12.499  0.6664 -0.3811 -0.6945
  225MPD1    C3 3416   3.631   4.620  12.411  0.0509  0.0330  0.0600
  225MPD1    C4 3417   3.686   4.501  12.451 -0.3731  0.7012  0.4585
  225MPD1    C5 3418   3.764   4.488  12.566 -0.1131 -0.1959  0.0339
  225MPD1     H 3419   3.590   0.105  12.478  0.5446 -0.0818  0.9154
  225MPD1    H1 3420   3.690   4.413  12.387  3.4137  3.0446 -2.5194
  225MPD1    H2 3421   3.870   4.594  12.720  0.2684  1.1571  0.5915
  225MPD1    H3 3422   3.828   4.401  12.578 -1.3289 -0.8841  1.5892
  225MPD1     N 3423   3.554   4.613  12.289  0.1518  0.0535  0.2403
  225MPD1    H5 3424   3.549   4.521  12.247 -0.4066  0.0785  0.2508
  225MPD1    N1 3425   3.751   0.111  12.685  0.5766 -0.2914  0.4280
  225MPD1    H6 3426   3.681   0.185  12.680 -0.9299 -1.6043  1.9245
  225MPD1    H7 3427   3.768   0.099  12.785 -0.4374 -1.2768  0.4830
  226MPD1     C 3428   2.088   4.410   9.181 -1.1335  0.5629 -0.3202
  226MPD1    C1 3429   2.039   4.314   9.263  0.0297 -0.0307 -1.4161
  226MPD1    C2 3430   2.052   4.341   9.402 -0.3281 -0.3567  0.1618
  226MPD1    C3 3431   2.107   4.455   9.450 -0.3452 -0.1926 -0.9051
  226MPD1    C4 3432   2.164   4.546   9.361 -0.2736  0.4156  0.1864
  226MPD1    C5 3433   2.158   4.519   9.231 -0.1824  0.0272  0.2572
  226MPD1     H 3434   2.016   4.268   9.473 -0.2949 -0.3524  0.1830
  226MPD1    H1 3435   2.207   4.641   9.391  0.2861 -0.9443  3.7542
  226MPD1    H2 3436   2.092   4.393   9.074 -2.9338 -0.9426 -0.1528
  226MPD1    H3 3437   2.209   4.585   9.162 -0.6552  1.6624  1.4565
  226MPD1     N 3438   2.121   4.467   9.588  0.3192  0.0343 -0.2601
  226MPD1    H5 3439   2.098   4.385   9.643  2.9162  0.5375  1.5289
  226MPD1    N1 3440   1.967   4.201   9.222  0.5502  0.9044  0.2724
  226MPD1    H6 3441   1.959   4.131   9.295 -0.6618  2.6767  1.8483
  226MPD1    H7 3442   1.998   4.163   9.133 -2.0088  0.6976 -0.5256
  227MPD1     C 3443   1.581   0.195  10.235 -0.0806  0.3550 -0.1458
  227MPD1    C1 3444   1.591   0.189  10.095  1.5691  0.4659  0.1268
  227MPD1    C2 3445   1.703   0.140  10.043 -0.5134  1.0295  0.2460
  227MPD1    C3 3446   1.800   0.071  10.118  0.2950 -0.6940  0.3614
  227MPD1    C4 3447   1.776   0.049  10.254 -0.2683  0.5021 -0.1704
  227MPD1    C5 3448   1.668   0.118  10.308  0.2357 -0.3758  1.1099
  227MPD1     H 3449   1.728   0.155   9.938  0.2914 -0.6512  0.1863
  227MPD1    H1 3450   1.832   4.701  10.318  0.8477  1.1666 -0.4495
  227MPD1    H2 3451   1.501   0.246  10.287  1.0239  2.2065 -0.2444
  227MPD1    H3 3452   1.660   0.107  10.416 -0.1968  1.5860  1.2780
  227MPD1     N 3453   1.901   0.001  10.038 -0.3956  0.1490  0.0472
  227MPD1    H5 3454   1.904   0.037   9.944  0.4029  0.1353  0.0728
  227MPD1    N1 3455   1.513   0.272  10.017  0.0039  0.3610 -0.1603
  227MPD1    H6 3456   1.417   0.287  10.046 -0.3089  0.7932 -1.4022
  227MPD1    H7 3457   1.510   0.240   9.920  0.6951 -0.2135  0.0068
  228MPD1     C 3458   4.120   2.301  12.190  0.7226  0.6251 -0.3352
  228MPD1    C1 3459   4.029   2.368  12.270  0.1968 -0.0707  0.2973
  228MPD1    C2 3460   4.042   2.350  12.407  0.2656 -0.4381  0.7858
  228MPD1    C3 3461   4.152   2.295  12.467  0.2042 -0.7230  0.1783
  228MPD1    C4 3462   4.244   2.232  12.384  0.0227 -0.3163 -0.0778
  228MPD1    C5 3463   4.235   2.239  12.246  0.3362 -0.0658  0.1561
  228MPD1     H 3464   3.963   2.377  12.476  0.8346  0.2725  1.1569
  228MPD1    H1 3465   4.326   2.174  12.426  0.1160  0.3688  0.6826
  228MPD1    H2 3466   4.112   2.300  12.082  0.8351 -1.0992 -0.3154
  228MPD1    H3 3467   4.305   2.201  12.171 -0.1127  1.0372 -0.8278
  228MPD1     N 3468   4.156   2.301  12.609  0.7711 -0.6063 -0.8135
  228MPD1    H5 3469   4.073   2.346  12.647  0.3897 -0.2853 -2.0143
  228MPD1    N1 3470   3.897   2.390  12.221  0.5034 -0.4087  0.1414
  228MPD1    H6 3471   3.854   2.463  12.278  2.1079  0.7614 -0.1353
  228MPD1    H7 3472   3.890   2.404  12.120 -0.9902 -0.2037  0.2699
  229MPD1     C 3473   0.767   0.821  13.971 -0.1406 -0.1267  0.3872
  229MPD1    C1 3474   0.891   0.777  14.005 -0.2425 -0.5482 -0.6778
  229MPD1    C2 3475   0.918   0.710  14.124  0.5769  0.3183  0.3293
  229MPD1    C3 3476   0.815   0.663  14.199  0.0206 -0.1092  0.4523
  229MPD1    C4 3477   0.681   0.690  14.159  0.2052  0.3180  0.5073
  229MPD1    C5 3478   0.664   0.772  14.046 -0.0965  0.0265 -0.1587
  229MPD1     H 3479   1.024   0.698  14.144  0.7794  0.4310 -0.7150
  229MPD1    H1 3480   0.596   0.661  14.221 -0.2248 -0.7117 -0.5612
  229MPD1    H2 3481   0.743   0.883  13.886 -0.8289  0.1257  0.7650
  229MPD1    H3 3482   0.571   0.817  14.014 -0.3577 -1.4494 -1.4958
  229MPD1     N 3483   0.842   0.580  14.313 -0.0768  0.5972  0.3538
  229MPD1    H5 3484   0.773   0.553  14.383  0.2833 -0.4275  0.3182
  229MPD1    N1 3485   1.001   0.828  13.937  0.2817 -0.0445  0.2184
  229MPD1    H6 3486   0.982   0.828  13.837  0.2999  1.1117  0.2183
  229MPD1    H7 3487   1.084   0.775  13.961  1.0631  0.6675 -0.9528
  230MPD1     C 3488   0.444   0.138  15.103  0.7276  0.5876 -0.2591
  230MPD1    C1 3489   0.566   0.076  15.112 -0.0039  0.6326 -0.8177
  230MPD1    C2 3490   0.664   0.104  15.015 -0.4197  0.2822 -0.7994
  230MPD1    C3 3491   0.643   0.193  14.915  0.4342 -0.0583 -0.4476
  230MPD1    C4 3492   0.524   0.256  14.916 -0.0812  0.0468  0.2866
  230MPD1    C5 3493   0.425   0.233  15.010 -0.2611  0.1546  0.4733
  230MPD1     H 3494   0.764   0.062  15.021 -1.5974 -2.4161  0.1038
  230MPD1    H1 3495   0.501   0.326  14.837 -1.8124  0.6317  1.3084
  230MPD1    H2 3496   0.363   0.123  15.173  0.4454  0.3420 -0.6356
  230MPD1    H3 3497   0.337   0.295  15.005 -0.2556 -0.0299 -2.1983
  230MPD1     N 3498   0.743   0.213  14.823 -0.0071 -0.1581 -0.3319
  230MPD1    H5 3499   0.836   0.180  14.845  0.0592  0.6091  0.5595
  230MPD1    N1 3500   0.578   4.696  15.211 -0.4299  0.0367  0.1100
  230MPD1    H6 3501   0.511   4.704  15.288  0.1540  0.7002  0.5482
  230MPD1    H7 3502   0.676   4.685  15.239  0.8361  0.3301 -4.2874
  231MPD1     C 3503   3.742   1.865  15.262  0.4257 -0.5691  0.0538
  231MPD1    C1 3504   3.831   1.971  15.275 -0.5019 -0.0860  0.6687
  231MPD1    C2 3505   3.797   2.087  15.206 -0.7193  0.8625  0.0600
  231MPD1    C3 3506   3.696   2.088  15.112  0.3640 -0.1131  0.4979
  231MPD1    C4 3507   3.627   1.974  15.079  0.6942  1.4287  0.1954
  231MPD1    C5 3508   3.656   1.867  15.158  0.1648  0.1459  0.3061
  231MPD1     H 3509   3.855   2.177  15.220  0.0400  0.5281 -1.0012
  231MPD1    H1 3510   3.538   1.962  15.018  0.0263  1.7852  1.0955
  231MPD1    H2 3511   3.761   1.771  15.313  0.7001 -0.0222  0.9458
  231MPD1    H3 3512   3.600   1.777  15.137  1.8333 -0.6486 -0.7299
  231MPD1     N 3513   3.652   2.211  15.065 -0.4070 -0.1576 -0.1757
  231MPD1    H5 3514   3.691   2.294  15.108 -0.1327 -1.6699  2.5078
  231MPD1    N1 3515   3.928   1.966  15.377 -1.1109 -0.0888 -0.1625
  231MPD1    H6 3516   3.977   1.878  15.395 -3.0832 -1.4298 -1.3404
  231MPD1    H7 3517   3.988   2.048  15.378 -1.5321  0.2090  1.1008
  232MPD1     C 3518   0.274   4.515  17.491 -0.4466 -0.2821  0.4960
  232MPD1    C1 3519   0.269   4.482  17.620  0.0515 -0.0499 -0.9796
  232MPD1    C2 3520   0.176   4.539   0.022  0.0741 -0.1913 -0.2203
  232MPD1    C3 3521   0.072   4.616  17.657  0.5908  0.2187  0.0458
  232MPD1    C4 3522   0.077   4.643  17.524  0.1356 -0.4097  0.3218
  232MPD1    C5 3523   0.175   4.598  17.444 -0.5740 -0.4167 -0.6972
  232MPD1     H 3524   0.182   4.526   0.129  0.8775  0.5353 -0.1815
  232MPD1    H1 3525   4.714   4.693  17.474 -0.4913 -0.7924  0.9501
  232MPD1    H2 3526   0.347   4.481  17.418  0.0961  0.5401  0.6597
  232MPD1    H3 3527   0.170   4.633  17.341  0.8206  1.0808 -0.2637
  232MPD1     N 3528   4.699   4.663   0.074  0.1914 -0.3003  0.4410
  232MPD1    H5 3529   4.710   4.630   0.169 -3.2687  0.7604  1.2110
  232MPD1    N1 3530   0.377   4.412  17.676  0.1113  0.2410  0.0257
  232MPD1    H6 3531   0.341   4.364   0.078 -0.8905  1.5199  0.3273
  232MPD1    H7 3532   0.397   4.340  17.607  0.9533  1.7584 -1.3039
  233MPD1     C 3533   0.949   1.580   1.621 -0.4871  0.7872 -0.3518
  233MPD1    C1 3534   0.985   1.676   1.530 -0.2279  0.5525  0.8172
  233MPD1    C2 3535   1.090   1.757   1.555  0.2978 -0.6193 -0.1194
  233MPD1    C3 3536   1.162   1.742   1.671 -0.2001 -0.3732  0.1532
  233MPD1    C4 3537   1.127   1.643   1.764 -0.1891 -0.6135  0.3029
  233MPD1    C5 3538   1.030   1.554   1.730 -0.0128  0.1727  0.1231
  233MPD1     H 3539   1.132   1.837   1.494 -0.8116 -1.1014 -1.5069
  233MPD1    H1 3540   1.182   1.629   1.857  1.4207  1.0559 -0.3871
  233MPD1    H2 3541   0.864   1.516   1.600 -1.1543  1.3599  0.6460
  233MPD1    H3 3542   1.006   1.469   1.793 -2.6352  0.6381 -0.2435
  233MPD1     N 3543   1.270   1.827   1.708 -0.1262 -0.2005 -0.2729
  233MPD1    H5 3544   1.318   1.788   1.789 -0.0058  1.5790  0.4945
  233MPD1    N1 3545   0.904   1.698   1.421  0.1376  0.5898  0.3848
  233MPD1    H6 3546   0.943   1.749   1.342 -2.1415 -2.7146 -2.8826
  233MPD1    H7 3547   0.844   1.624   1.387  0.1345  1.4124 -1.3839
  234MPD1     C 3548   3.042   1.429  10.833 -0.4496 -0.1091 -0.2767
  234MPD1    C1 3549   2.962   1.537  10.802  0.5621 -0.6620 -0.1795
  234MPD1    C2 3550   2.961   1.572  10.671 -0.5789  0.9243 -0.0550
  234MPD1    C3 3551   3.006   1.493  10.570 -0.1543  0.0955 -0.2817
  234MPD1    C4 3552   3.069   1.372  10.607 -0.2008  0.0558 -0.6390
  234MPD1    C5 3553   3.085   1.343  10.737 -0.0453  0.2744 -0.2396
  234MPD1     H 3554   2.914   1.665  10.641  0.8347  2.0385  1.2065
  234MPD1    H1 3555   3.112   1.303  10.535 -1.5993 -0.8104 -0.6530
  234MPD1    H2 3556   3.039   1.403  10.939 -2.0876  2.6008  0.3311
  234MPD1    H3 3557   3.137   1.250  10.758 -0.0876 -0.0232 -1.4773
  234MPD1     N 3558   2.986   1.536  10.437  0.2325 -0.0807 -0.0864
  234MPD1    H5 3559   2.963   1.633  10.421 -0.2255 -0.4590 -1.7214
  234MPD1    N1 3560   2.912   1.617  10.903 -0.5647  0.3596  0.5514
  234MPD1    H6 3561   2.857   1.561  10.968 -1.3819 -1.1593 -1.4383
  234MPD1    H7 3562   2.850   1.690  10.868  2.3982  2.9418  0.6281
  235MPD1     C 3563   4.075   3.934   9.844 -0.5379 -0.1284 -0.7589
  235MPD1    C1 3564   4.203   3.943   9.886  0.5045  0.3811 -0.1865
  235MPD1    C2 3565   4.270   4.055   9.852  0.0461 -0.1203  0.6938
  235MPD1    C3 3566   4.212   4.162   9.786  0.4169  0.1455  0.1343
  235MPD1    C4 3567   4.081   4.150   9.746  0.1257 -0.0976 -0.0661
  235MPD1    C5 3568   4.011   4.039   9.783  0.0198  0.1307 -0.4450
  235MPD1     H 3569   4.377   4.050   9.872 -0.0591 -0.3642  1.1864
  235MPD1    H1 3570   4.030   4.216   9.677 -0.5091 -0.9353 -0.3990
  235MPD1    H2 3571   4.022   3.842   9.868 -0.2177 -0.7558 -2.4616
  235MPD1    H3 3572   3.919   4.024   9.727 -0.7641 -0.4485  0.9789
  235MPD1     N 3573   4.291   4.276   9.760 -0.3152 -0.5836  0.6355
  235MPD1    H5 3574   4.384   4.274   9.800 -0.9899  0.4923  2.2988
  235MPD1    N1 3575   4.261   3.825   9.945  0.5650  0.6716  0.4353
  235MPD1    H6 3576   4.326   3.840  10.022 -1.1429  0.4121  1.9264
  235MPD1    H7 3577   4.197   3.748   9.964 -0.6242  1.5331 -0.0471
  236MPD1     C 3578   4.109   0.878  10.129 -0.0561 -0.5343  0.9104
  236MPD1    C1 3579   4.012   0.801  10.070 -0.6488 -0.7218 -0.0545
  236MPD1    C2 3580   4.008   0.665  10.092 -0.3529 -0.3816  0.1688
  236MPD1    C3 3581   4.110   0.603  10.163 -0.1449 -0.3914  0.1771
  236MPD1    C4 3582   4.207   0.678  10.221  0.4044 -0.1172  0.2856
  236MPD1    C5 3583   4.203   0.815  10.206 -0.7022 -0.7635 -0.5082
  236MPD1     H 3584   3.922   0.612  10.052 -1.2589  1.5292 -0.3967
  236MPD1    H1 3585   4.282   0.629  10.283 -0.3395 -1.4720  0.1101
  236MPD1    H2 3586   4.117   0.986  10.124 -2.8340 -0.4322 -1.2275
  236MPD1    H3 3587   4.291   0.872  10.234 -0.0275 -0.8793 -2.3734
  236MPD1     N 3588   4.121   0.461  10.184  0.5802  0.0247  0.3095
  236MPD1    H5 3589   4.177   0.424  10.260  2.8731  0.7582 -1.0259
  236MPD1    N1 3590   3.904   0.864  10.002  0.6712 -0.3834  0.3180
  236MPD1    H6 3591   3.849   0.794   9.953 -1.8236  1.3010  0.7631
  236MPD1    H7 3592   3.943   0.935   9.941 -1.7033 -0.8277 -1.6738
  237MPD1     C 3593   2.791   4.426  15.602 -0.3799  0.0928 -0.5747
  237MPD1    C1 3594   2.782   4.432  15.464  0.2832  0.2882 -0.3085
  237MPD1    C2 3595   2.810   4.320  15.388  0.0883 -0.6303 -0.7051
  237MPD1    C3 3596   2.834   4.204  15.449 -0.1271  0.2713  0.1155
  237MPD1    C4 3597   2.837   4.195  15.584 -0.0121 -0.6115  0.2506
  237MPD1    C5 3598   2.818   4.308  15.664  0.0726  0.4782  0.1145
  237MPD1     H 3599   2.806   4.326  15.279 -1.5054  0.6822 -0.5843
  237MPD1    H1 3600   2.848   4.104  15.642 -1.8451 -1.4905 -0.7747
  237MPD1    H2 3601   2.791   4.515  15.662 -1.5327  0.9825 -1.8982
  237MPD1    H3 3602   2.830   4.305  15.772  2.0249  2.9716 -0.0277
  237MPD1     N 3603   2.877   4.083  15.383 -0.1514  0.9814 -0.0235
  237MPD1    H5 3604   2.885   3.998  15.438  1.0368  1.3328  0.3537
  237MPD1    N1 3605   2.761   4.546  15.398 -0.2596 -0.4360  0.1608
  237MPD1    H6 3606   2.747   4.533  15.298  0.6849  0.2194 -0.0502
  237MPD1    H7 3607   2.672   4.585  15.429  0.5386 -0.7473  2.8346
  238MPD1     C 3608   0.897   1.302  15.143 -0.4938  0.7084 -0.2007
  238MPD1    C1 3609   0.866   1.434  15.172  0.2518  0.2093  0.4637
  238MPD1    C2 3610   0.738   1.485  15.143  0.3111 -0.1096  0.2550
  238MPD1    C3 3611   0.644   1.407  15.089  1.2796  0.3597 -0.1338
  238MPD1    C4 3612   0.679   1.275  15.060  0.2453 -0.1933  0.8975
  238MPD1    C5 3613   0.805   1.226  15.082  0.3326 -0.1517  0.0740
  238MPD1     H 3614   0.707   1.574  15.196  0.0643  0.0323 -0.1331
  238MPD1    H1 3615   0.608   1.201  15.024  2.0303 -1.0701 -0.8078
  238MPD1    H2 3616   0.993   1.259  15.171 -1.8428 -1.1447  1.5483
  238MPD1    H3 3617   0.818   1.118  15.073 -0.5414 -0.2147 -0.4285
  238MPD1     N 3618   0.515   1.463  15.061  0.4484  0.3625 -0.0431
  238MPD1    H5 3619   0.434   1.401  15.061  0.6330  0.1449 -2.1083
  238MPD1    N1 3620   0.972   1.518  15.229 -0.6406 -0.3207 -1.0219
  238MPD1    H6 3621   0.940   1.603  15.276 -0.4902 -0.7633 -0.1199
  238MPD1    H7 3622   1.037   1.476  15.295 -0.9185  0.4979 -0.2202
  239MPD1     C 3623   0.507   3.228  15.272 -0.2679 -0.5993 -1.6120
  239MPD1    C1 3624   0.577   3.340  15.231 -0.2970  0.0700  0.0323
  239MPD1    C2 3625   0.535   3.398  15.110  0.0958  0.0729 -0.6107
  239MPD1    C3 3626   0.426   3.348  15.041  0.9947  0.8533  0.4396
  239MPD1    C4 3627   0.351   3.244  15.091  1.0791 -0.4282  0.4374
  239MPD1    C5 3628   0.396   3.186  15.203 -0.2387 -0.0320 -0.1832
  239MPD1     H 3629   0.590   3.486  15.077  2.4996 -1.3873 -0.5074
  239MPD1    H1 3630   0.283   3.193  15.025  1.0448 -0.9784  0.8960
  239MPD1    H2 3631   0.552   3.172  15.354 -0.5571  1.2566 -0.2014
  239MPD1    H3 3632   0.361   3.089  15.237 -2.0381  0.2866 -1.1354
  239MPD1     N 3633   0.385   3.403  14.917  0.0394 -0.0664  0.8657
  239MPD1    H5 3634   0.293   3.377  14.883  1.2595 -1.5007 -1.3728
  239MPD1    N1 3635   0.691   3.384  15.301 -0.4770 -1.0772 -0.3737
  239MPD1    H6 3636   0.688   3.383  15.403  1.4257  3.5631 -0.3154
  239MPD1    H7 3637   0.721   3.476  15.271 -1.8426  0.0915  1.8624
  240MPD1     C 3638   0.358   3.018  15.549 -0.4557  0.3725 -0.6781
  240MPD1    C1 3639   0.438   2.919  15.495  0.3082  0.1446  0.4314
  240MPD1    C2 3640   0.392   2.841  15.388  0.4126  0.5693 -0.6422
  240MPD1    C3 3641   0.266   2.860  15.337  0.9981  0.2310  0.1256
  240MPD1    C4 3642   0.193   2.968  15.386 -0.3953 -0.1102  0.2974
  240MPD1    C5 3643   0.245   3.052  15.486  0.3000  0.5443 -0.0725
  240MPD1     H 3644   0.453   2.766  15.338 -0.8273  0.6026 -2.2091
  240MPD1    H1 3645   0.101   2.999  15.338  0.8582 -0.5014 -2.3741
  240MPD1    H2 3646   0.392   3.078  15.633  1.0129 -1.9466  0.3783
  240MPD1    H3 3647   0.173   3.123  15.524  0.5813  0.4823  0.5705
  240MPD1     N 3648   0.218   2.788  15.230  0.1874  0.3633  0.1424
  240MPD1    H5 3649   0.295   2.735  15.190  1.0193  3.8183 -2.8564
  240MPD1    N1 3650   0.570   2.895  15.550  0.3408 -0.1227 -0.0193
  240MPD1    H6 3651   0.621   2.831  15.491  0.7551  0.2352 -0.0465
  240MPD1    H7 3652   0.619   2.981  15.572  1.9448 -0.3482 -2.8298
  241MPD1     C 3653   0.119   1.824  15.284 -0.5761  0.3457  0.2178
  241MPD1    C1 3654   0.229   1.905  15.259 -0.3197  0.4440  0.6312
  241MPD1    C2 3655   0.214   2.026  15.193  0.4881  0.1099 -0.1841
  241MPD1    C3 3656   0.092   2.070  15.145  0.4402  0.3900 -0.3444
  241MPD1    C4 3657   4.701   1.993  15.175 -0.3442 -0.1746 -0.0275
  241MPD1    C5 3658   4.718   1.870  15.243 -0.1122  0.0257  0.2201
  241MPD1     H 3659   0.305   2.085  15.190  0.2374  0.5059  0.0349
  241MPD1    H1 3660   4.597   2.012  15.154 -0.8072 -1.5132  1.0293
  241MPD1    H2 3661   0.127   1.728  15.334  0.3050  0.0647 -0.4749
  241MPD1    H3 3662   4.635   1.801  15.244  1.2813 -1.6164  1.4796
  241MPD1     N 3663   0.054   2.192  15.088 -0.0028 -0.3048  0.3429
  241MPD1    H5 3664   4.680   2.196  15.049  0.6039 -1.6835 -1.2744
  241MPD1    N1 3665   0.353   1.862  15.308 -0.2372  0.5327 -0.3693
  241MPD1    H6 3666   0.354   1.766  15.343 -1.7361 -0.0628 -1.9161
  241MPD1    H7 3667   0.427   1.863  15.238  0.2769 -2.0144  0.1158
  242MPD1     C 3668   3.917   0.083  15.877  0.6609 -0.1383 -0.4961
  242MPD1    C1 3669   4.036   0.137  15.920  0.1568 -0.2819 -0.2882
  242MPD1    C2 3670   4.082   0.262  15.864 -0.6245  0.5179 -0.0548
  242MPD1    C3 3671   4.018   0.321  15.755  0.1379 -0.6052 -0.1959
  242MPD1    C4 3672   3.901   0.263  15.715  0.6456 -0.7388  0.1131
  242MPD1    C5 3673   3.855   0.145  15.771  0.2908  0.0636  0.6654
  242MPD1     H 3674   4.167   0.310  15.911  0.3782 -0.4891 -0.8314
  242MPD1    H1 3675   3.842   0.292  15.628  1.2292 -1.0183 -0.3777
  242MPD1    H2 3676   3.867   0.000  15.926 -0.3643 -0.2100 -1.6641
  242MPD1    H3 3677   3.762   0.104  15.734 -0.6268  2.0486  0.7635
  242MPD1     N 3678   4.064   0.443  15.687  0.4643  0.3520 -0.4580
  242MPD1    H5 3679   4.005   0.478  15.612 -0.6204 -0.1203  0.1647
  242MPD1    N1 3680   4.095   0.075  16.034 -0.4136  0.4540 -0.2931
  242MPD1    H6 3681   4.063   4.699  16.043 -2.4383  0.9263 -2.4548
  242MPD1    H7 3682   4.197   0.071  16.038 -0.3661 -1.3806 -3.4070
  243MPD1     C 3683   0.545   3.651  17.444 -0.1171  0.6070  0.0548
  243MPD1    C1 3684   0.462   3.716  17.354  0.2196 -0.0111 -0.6765
  243MPD1    C2 3685   0.520   3.766  17.238  0.4773 -0.4064 -0.3002
  243MPD1    C3 3686   0.652   3.737  17.197  0.0669  0.0722  0.2866
  243MPD1    C4 3687   0.724   3.652  17.275  0.0652  0.2208  0.1455
  243MPD1    C5 3688   0.673   3.618  17.399 -0.0074 -0.2910  0.4161
  243MPD1     H 3689   0.461   3.814  17.162  1.8986 -1.3867 -2.0416
  243MPD1    H1 3690   0.827   3.628  17.251  0.4444  1.5196  0.5068
  243MPD1    H2 3691   0.503   3.630  17.542 -2.0257  1.4188 -0.6012
  243MPD1    H3 3692   0.740   3.577  17.474  0.4854  0.0881  0.1810
  243MPD1     N 3693   0.710   3.775  17.078 -0.0891  0.3232  0.7385
  243MPD1    H5 3694   0.789   3.721  17.045  0.2514  1.8984 -1.0018
  243MPD1    N1 3695   0.329   3.745  17.399  0.2918  0.2174 -0.0871
  243MPD1    H6 3696   0.267   3.736  17.319  0.7667  0.7755 -0.5199
  243MPD1    H7 3697   0.297   3.681  17.470  1.5048  0.9175  1.0954
  244MPD1     C 3698   1.302   3.385  16.417  0.5422 -0.4580  0.0943
  244MPD1    C1 3699   1.222   3.461  16.340  0.1407 -0.5058 -0.2432
  244MPD1    C2 3700   1.134   3.545  16.394 -0.5769 -0.0671 -0.7862
  244MPD1    C3 3701   1.107   3.548  16.528  0.2181 -0.3740 -0.0418
  244MPD1    C4 3702   1.192   3.476  16.613  0.1751  0.3083  0.3748
  244MPD1    C5 3703   1.283   3.396  16.552  0.0872 -0.0189 -0.6562
  244MPD1     H 3704   1.064   3.601  16.333 -0.3213 -0.9519 -1.8908
  244MPD1    H1 3705   1.188   3.497  16.719 -1.4384 -2.1386  0.7920
  244MPD1    H2 3706   1.376   3.318  16.375  2.2211  1.8724 -0.6430
  244MPD1    H3 3707   1.364   3.347  16.605 -0.8537 -0.8587  0.0015
  244MPD1     N 3708   1.019   3.643  16.577 -0.5976 -0.4157  0.2332
  244MPD1    H5 3709   0.986   3.701  16.501  0.7167  0.9699  0.7177
  244MPD1    N1 3710   1.238   3.444  16.204  0.2124  0.1526  0.5040
  244MPD1    H6 3711   1.275   3.354  16.176  0.7036  0.3333  0.5618
  244MPD1    H7 3712   1.153   3.461  16.149  1.4234  0.7064 -1.2167
  245MPD1     C 3713   2.806   0.752  13.004  0.4665 -0.0298 -0.9240
  245MPD1    C1 3714   2.755   0.768  13.130  0.3362  0.3421 -0.8417
  245MPD1    C2 3715   2.807   0.863  13.215  0.2167  0.3933  0.1817
  245MPD1    C3 3716   2.894   0.956  13.169 -0.7698 -0.4291  0.1011
  245MPD1    C4 3717   2.944   0.949  13.042  0.1297  0.4267 -0.0891
  245MPD1    C5 3718   2.895   0.846  12.965  0.9363  0.0595 -0.3031
  245MPD1     H 3719   2.786   0.874  13.321 -0.0982  1.4936  0.0028
  245MPD1    H1 3720   3.021   1.014  13.001 -0.5221  1.5653  0.4805
  245MPD1    H2 3721   2.767   0.683  12.929 -0.4826 -2.1043  1.4720
  245MPD1    H3 3722   2.947   0.823  12.872 -0.3221 -1.4570 -0.6326
  245MPD1     N 3723   2.953   1.048  13.268  0.0072  0.2279  0.3789
  245MPD1    H5 3724   2.914   1.039  13.361  1.7149  1.7227  1.2455
  245MPD1    N1 3725   2.656   0.672  13.176  0.2093 -0.7287  0.3220
  245MPD1    H6 3726   2.604   0.710  13.255 -2.8473  0.0092 -2.0520
  245MPD1    H7 3727   2.595   0.661  13.096 -0.5425  1.9301  0.5337
  246MPD1     C 3728   0.450   0.684   9.222 -0.0640 -1.0576  0.2908
  246MPD1    C1 3729   0.343   0.734   9.152  0.1445  0.4063  0.5637
  246MPD1    C2 3730   0.219   0.671   9.168 -0.7234 -0.0797  0.4953
  246MPD1    C3 3731   0.204   0.548   9.227  0.5228  0.3653 -0.7109
  246MPD1    C4 3732   0.317   0.499   9.291  0.0759 -0.2946  0.5402
  246MPD1    C5 3733   0.432   0.570   9.296  0.1463 -0.2596 -0.8922
  246MPD1     H 3734   0.128   0.714   9.128 -0.4501  1.2906  1.3653
  246MPD1    H1 3735   0.318   0.412   9.356  1.2261  1.0535  2.3432
  246MPD1    H2 3736   0.551   0.723   9.229  1.0172 -3.6991 -0.6669
  246MPD1    H3 3737   0.517   0.524   9.345 -0.5230  1.5529  1.9635
  246MPD1     N 3738   0.079   0.477   9.222  0.5762  0.1135  0.4787
  246MPD1    H5 3739   0.003   0.523   9.174  0.9977 -0.1061 -0.4056
  246MPD1    N1 3740   0.352   0.860   9.086 -0.2852 -0.5217  0.3237
  246MPD1    H6 3741   0.294   0.857   9.002 -1.4950 -0.0130  1.1465
  246MPD1    H7 3742   0.450   0.881   9.065 -0.2138 -1.5211 -0.3850
  247MPD1     C 3743   2.126   0.720  16.729 -0.5649  0.5768  0.3177
  247MPD1    C1 3744   2.232   0.768  16.806  0.9926  0.3414 -0.0143
  247MPD1    C2 3745   2.344   0.683  16.821  0.0033 -0.5047  0.3713
  247MPD1    C3 3746   2.353   0.563  16.757  0.3671  0.3533  0.1404
  247MPD1    C4 3747   2.252   0.517  16.675  0.2150  0.7715  0.1660
  247MPD1    C5 3748   2.147   0.602  16.660  0.6281 -0.2074 -0.0435
  247MPD1     H 3749   2.419   0.726  16.887 -0.0277 -1.0728  0.7790
  247MPD1    H1 3750   2.250   0.417  16.634 -0.0568  1.3725 -1.2913
  247MPD1    H2 3751   2.033   0.774  16.716 -1.3181 -0.8618 -0.3020
  247MPD1    H3 3752   2.056   0.566  16.612 -0.8742  2.9221  0.4806
  247MPD1     N 3753   2.459   0.475  16.770 -0.1919  0.1595  0.0402
  247MPD1    H5 3754   2.458   0.389  16.716 -0.1216 -0.4699  1.0283
  247MPD1    N1 3755   2.224   0.891  16.876 -0.3223  0.1383  0.0426
  247MPD1    H6 3756   2.145   0.941  16.836 -0.8699 -1.0926 -0.4099
  247MPD1    H7 3757   2.317   0.932  16.883 -0.0043 -0.3606 -1.3963
  248MPD1     C 3758   2.195   4.114   0.791 -0.4299 -0.1523 -0.4547
  248MPD1    C1 3759   2.172   4.245   0.750 -0.0676 -0.5256  0.7316
  248MPD1    C2 3760   2.046   4.280   0.703  0.5119 -0.5704  0.3294
  248MPD1    C3 3761   1.937   4.195   0.714 -0.2704 -0.4267 -0.0756
  248MPD1    C4 3762   1.961   4.068   0.768  0.0810 -0.1806  0.0246
  248MPD1    C5 3763   2.090   4.030   0.792  0.1865  0.2707  0.1098
  248MPD1     H 3764   2.022   4.384   0.683 -0.3545 -0.9581 -0.6406
  248MPD1    H1 3765   1.882   4.000   0.798 -0.0288  0.1953  0.5743
  248MPD1    H2 3766   2.293   4.074   0.813 -0.5886 -0.0606  0.3889
  248MPD1    H3 3767   2.107   3.932   0.833 -1.2707  0.8287  2.0257
  248MPD1     N 3768   1.811   4.238   0.673 -0.6808 -0.2823 -0.4051
  248MPD1    H5 3769   1.798   4.337   0.653  0.3324  0.3078  1.7809
  248MPD1    N1 3770   2.280   4.335   0.756  0.3206  0.0260 -0.3328
  248MPD1    H6 3771   2.252   4.432   0.744 -2.3551 -0.4510  2.1166
  248MPD1    H7 3772   2.342   4.316   0.835 -0.4850  1.1976  0.5795
  249MPD1     C 3773   1.009   4.689  10.931  0.1620  0.0404  0.3750
  249MPD1    C1 3774   1.039   0.048  10.825  0.4616  0.4704 -0.5395
  249MPD1    C2 3775   1.045   4.705  10.700 -0.3165  0.8066 -0.7396
  249MPD1    C3 3776   1.031   4.566  10.690  0.0799  0.9707  0.3438
  249MPD1    C4 3777   1.009   4.487  10.794 -0.7595  0.0057 -0.1130
  249MPD1    C5 3778   0.992   4.555  10.912 -0.2761 -0.4826 -0.2801
  249MPD1     H 3779   1.061   0.039  10.607  1.7390 -0.4599 -1.1147
  249MPD1    H1 3780   1.012   4.379  10.787 -0.1273  0.0412 -0.4121
  249MPD1    H2 3781   1.008   0.023  11.026 -1.1529  0.7182 -0.0300
  249MPD1    H3 3782   0.963   4.499  11.001  1.0126 -1.1418 -0.2761
  249MPD1     N 3783   1.048   4.520  10.564 -0.9648 -0.4037  0.4469
  249MPD1    H5 3784   1.048   4.591  10.491 -0.9916 -0.2853  0.5628
  249MPD1    N1 3785   1.088   0.176  10.860  0.3054 -0.4144 -0.6371
  249MPD1    H6 3786   1.073   0.244  10.785 -0.2171  1.3979  1.1297
  249MPD1    H7 3787   1.043   0.213  10.943 -1.5630 -2.5298 -0.6958
  250MPD2     C 3788   1.065   3.812  13.378  0.1351  0.1370  0.4905
  250MPD2    C1 3789   1.088   3.823  13.245 -0.4883 -0.5319 -0.5594
  250MPD2    C2 3790   1.018   3.742  13.156  0.2905  0.2106 -0.3109
  250MPD2    C3 3791   0.916   3.663  13.199  1.0696 -0.2899  0.2104
  250MPD2    C4 3792   0.894   3.650  13.333  0.9857  0.2483  0.7540
  250MPD2    C5 3793   0.973   3.721  13.416 -0.3449 -0.3236 -0.6608
  250MPD2     H 3794   1.023   3.753  13.048  0.4714 -0.7241 -0.3914
  250MPD2    H1 3795   0.816   3.586  13.372 -0.4275  0.4424 -1.7394
  250MPD2    H2 3796   1.119   3.864  13.456 -0.2712  0.2988  0.6638
  250MPD2    H3 3797   0.960   3.709  13.523 -0.8570  2.5156 -0.4069
  250MPD2     N 3798   0.837   3.583  13.106 -0.6227 -0.9925 -0.0932
  250MPD2    H5 3799   0.766   3.526  13.151 -1.7462  0.3241 -0.1838
  250MPD2    N1 3800   1.177   3.921  13.193 -0.0721 -0.1588 -0.1453
  250MPD2    H7 3801   1.209   3.989  13.261  0.7537  1.1549 -1.8522
  251TMC3    C1 3802   1.320   4.031  13.050  0.3294 -0.1583 -1.0725
  251TMC3    C2 3803   1.343   4.124  13.146  0.1055 -0.0182 -0.1162
  251TMC3    C3 3804   1.448   4.216  13.114 -0.8902 -0.3767  0.4300
  251TMC3    C4 3805   1.404   4.020  12.940  0.4105 -0.0384 -0.5825
  251TMC3    C5 3806   1.509   4.100  12.922  0.3236 -0.5311 -0.0375
  251TMC3    C6 3807   1.536   4.201  13.007  0.4651 -0.6796  0.1834
  251TMC3     C 3808   1.226   3.922  13.067 -0.3212 -0.1121 -0.3175
  251TMC3     O 3809   1.222   3.841  12.976  0.4181  0.4767  0.5619
  251TMC3     H 3810   1.270   4.142  13.224  0.4092 -3.2419  0.8882
  251TMC3    H1 3811   1.357   3.972  12.855  4.2188  1.7762 -3.7225
  251TMC3    H2 3812   1.618   4.270  12.988  0.3283 -1.1615 -2.1844
  251TMC3    C7 3813   1.629   4.033  12.861 -0.9180  0.5656  0.0573
  251TMC3    C8 3814   1.478   4.320  13.208 -0.2698  0.2039  0.5074
  251TMC3    O1 3815   1.735   4.046  12.923 -0.0589 -0.3840  0.1447
  251TMC3    O2 3816   1.454   4.297  13.327  0.2272 -0.0527  0.3988
  252TMC3    C1 3817   1.738   0.043   9.196  0.5123 -0.2035 -0.1557
  252TMC3    C2 3818   1.855   0.107   9.170  0.3654  0.2207  0.1631
  252TMC3    C3 3819   1.958   0.117   9.264  0.2634 -0.7465  0.5442
  252TMC3    C4 3820   1.716   4.695   9.315  0.2320 -0.1533 -0.1793
  252TMC3    C5 3821   1.824   4.698   9.404 -0.1776  0.0454  0.5276
  252TMC3    C6 3822   1.938   0.054   9.387  0.3281  0.5725 -0.4155
  252TMC3     C 3823   1.679   0.002   9.071  0.8007 -1.0319 -0.4082
  252TMC3     O 3824   1.713   0.057   8.967  0.4391  0.1630 -0.2634
  252TMC3     H 3825   1.880   0.160   9.079 -1.4312  0.6146 -0.0940
  252TMC3    H1 3826   1.622   4.646   9.337  0.7547 -1.2361 -0.3627
  252TMC3    H2 3827   2.004   0.057   9.473  0.0432 -0.3475 -0.1617
  252TMC3    C7 3828   1.802   4.644   9.544 -0.1893  0.6614  0.0346
  252TMC3    C8 3829   2.085   0.166   9.222  0.1849  0.1690 -0.4810
  252TMC3    O1 3830   1.828   0.004   9.632 -0.1841 -0.5038  0.0755
  252TMC3    O2 3831   2.098   0.183   9.101  0.1297 -0.1225  0.3121
  253MPD2     C 3832   2.939   3.618  15.867  0.0596  0.2681  0.3578
  253MPD2    C1 3833   2.810   3.589  15.859 -0.7012  0.1566  0.5852
  253MPD2    C2 3834   2.759   3.477  15.923 -0.1550 -0.2840 -0.1202
  253MPD2    C3 3835   2.838   3.391  15.993  0.1615  0.4522 -0.5027
  253MPD2    C4 3836   2.973   3.419  16.007 -0.4779  0.7968 -0.2366
  253MPD2    C5 3837   3.017   3.533  15.939 -0.0489 -0.1300  0.2177
  253MPD2     H 3838   2.654   3.456  15.908  0.1353 -1.0370 -1.1629
  253MPD2    H1 3839   3.043   3.352  16.056 -0.2508  0.1301 -1.4623
  253MPD2    H2 3840   2.983   3.707  15.824  0.6719 -0.6097 -0.8233
  253MPD2    H3 3841   3.122   3.556  15.942 -0.0061 -0.5487  2.0533
  253MPD2     N 3842   2.782   3.283  16.067  0.6114  0.7158 -0.2182
  253MPD2    H5 3843   2.842   3.225  16.124  1.5173  1.6187 -0.2501
  253MPD2    N1 3844   2.711   3.666  15.795  0.2569  0.3642 -0.3305
  253MPD2    H7 3845   2.620   3.619  15.791 -0.1136  1.1173 -0.7681
  254TMC3    C1 3846   2.625   3.114  16.131  0.0782 -0.4012  0.2159
  254TMC3    C2 3847   2.498   3.065  16.106 -0.1923  0.1361  0.7940
  254TMC3    C3 3848   2.427   2.996  16.207  0.5993  0.2354 -0.0128
  254TMC3    C4 3849   2.682   3.090  16.251 -0.7498  0.0407 -1.0683
  254TMC3    C5 3850   2.614   3.028  16.351  0.2207 -0.9403  0.3199
  254TMC3    C6 3851   2.486   2.975  16.331  0.4577 -0.6868  0.1146
  254TMC3     C 3852   2.656   3.230  16.054 -0.0715  0.5031 -0.1020
  254TMC3     O 3853   2.576   3.251  15.963  0.1953  0.4975 -0.1557
  254TMC3     H 3854   2.449   3.086  16.012  0.7895  2.4296  0.7916
  254TMC3    H1 3855   2.778   3.132  16.279 -1.6242 -0.2221  2.3517
  254TMC3    H2 3856   2.438   2.917  16.409 -0.6412  1.3201  0.9182
  254TMC3    C7 3857   2.679   3.027  16.478 -0.3287  0.1071 -0.0658
  254TMC3    C8 3858   2.296   3.044  16.242 -0.2288  0.8915 -0.6735
  254TMC3    O1 3859   2.731   3.130  16.521  0.1691 -0.5510 -0.2969
  254TMC3    O2 3860   2.289   3.088  16.357  0.0429 -0.5217  0.0092
  255MPD2     C 3861   0.589   1.857  10.534 -0.1203 -0.3789 -0.3393
  255MPD2    C1 3862   0.713   1.866  10.482 -0.2051  0.3470  0.1128
  255MPD2    C2 3863   0.801   1.760  10.479 -0.3396  0.2035 -0.6437
  255MPD2    C3 3864   0.758   1.635  10.505 -0.1219 -0.6678 -0.0810
  255MPD2    C4 3865   0.627   1.621  10.555  0.1157  0.3007 -1.1575
  255MPD2    C5 3866   0.543   1.732  10.564  0.1896 -0.0978  0.5632
  255MPD2     H 3867   0.896   1.775  10.429 -0.2755  1.3086 -0.1759
  255MPD2    H1 3868   0.578   1.526  10.575 -0.3841  0.6982 -0.4682
  255MPD2    H2 3869   0.532   1.949  10.544 -1.6575 -1.2417 -1.2244
  255MPD2    H3 3870   0.443   1.720  10.603  1.5767  0.2375  4.1583
  255MPD2     N 3871   0.845   1.527  10.471  0.7064  1.3792 -0.4859
  255MPD2    H5 3872   0.937   1.557  10.440  1.2715 -0.9514 -1.0851
  255MPD2    N1 3873   0.749   1.995  10.430  0.1820 -0.0643  0.1910
  255MPD2    H7 3874   0.676   2.065  10.433  0.8672  0.5499  2.2509
  256TMC3    C1 3875   0.823   2.123  10.253  0.0575  0.1568 -0.2610
  256TMC3    C2 3876   0.865   2.244  10.287 -0.4182  0.6348 -0.6422
  256TMC3    C3 3877   0.922   2.321  10.192 -0.3319  0.2578 -0.4983
  256TMC3    C4 3878   0.837   2.071  10.121  0.1396  0.1582  0.6240
  256TMC3    C5 3879   0.877   2.157  10.028 -0.1741  0.7463 -0.2076
  256TMC3    C6 3880   0.922   2.279  10.053 -0.4089  0.0405 -0.1716
  256TMC3     C 3881   0.852   2.020  10.345 -0.3801 -0.2528 -0.6480
  256TMC3     O 3882   0.944   1.951  10.311  0.3253  0.1840 -0.2819
  256TMC3     H 3883   0.860   2.273  10.392 -3.4931 -0.8639 -0.3728
  256TMC3    H1 3884   0.818   1.965  10.109 -1.2161  0.4311  0.3790
  256TMC3    H2 3885   0.943   2.346   9.970 -1.2692  1.0884  0.4650
  256TMC3    C7 3886   0.927   2.094   9.906 -0.0708  0.2194 -0.3113
  256TMC3    C8 3887   0.989   2.442  10.231  0.6066 -0.4642 -0.7612
  256TMC3    O1 3888   0.867   1.992   9.874 -0.0543 -0.4644 -0.6465
  256TMC3    O2 3889   0.981   2.463  10.352  0.6544  0.4445 -0.0394
  257MPD2     C 3890   0.401   4.104  13.634 -0.3808  0.3785 -0.4269
  257MPD2    C1 3891   0.354   4.016  13.538  0.2550  0.0002 -0.1292
  257MPD2    C2 3892   0.297   3.897  13.576 -0.2690  0.0496  0.0018
  257MPD2    C3 3893   0.291   3.861  13.709  0.2396 -0.0424 -0.0378
  257MPD2    C4 3894   0.355   3.945  13.804  0.6716  0.4254  0.1703
  257MPD2    C5 3895   0.406   4.070  13.763  0.3597  0.3383  0.4103
  257MPD2     H 3896   0.258   3.826  13.504 -1.7442  0.5088  0.3465
  257MPD2    H1 3897   0.348   3.927  13.910 -1.0888 -0.2227 -0.0640
  257MPD2    H2 3898   0.437   4.200  13.598  2.1114  0.2282  1.5924
  257MPD2    H3 3899   0.456   4.132  13.837 -3.0236 -0.0563  3.0899
  257MPD2     N 3900   0.234   3.739  13.749 -0.7265 -0.1722  0.5827
  257MPD2    H5 3901   0.193   3.681  13.677 -0.4880  1.0749 -0.5430
  257MPD2    N1 3902   0.363   4.063  13.407  1.4077  0.0247  0.4450
  257MPD2    H7 3903   0.408   4.153  13.394  1.0704  0.0305 -0.6669
  258TMC3    C1 3904   0.162   3.550  13.875 -0.0046 -0.0392  0.7523
  258TMC3    C2 3905   0.072   3.518  13.770  0.8709  0.2986 -0.0340
  258TMC3    C3 3906   4.684   3.428  13.797 -0.2123  0.3199  0.0567
  258TMC3    C4 3907   0.152   3.479  13.990 -0.5459  0.1677  0.2243
  258TMC3    C5 3908   0.054   3.389  14.009  0.1928 -0.1623  0.1298
  258TMC3    C6 3909   4.674   3.365  13.920 -0.6250  0.2547 -0.2948
  258TMC3     C 3910   0.234   3.680  13.875  0.2847 -0.5060 -0.7076
  258TMC3     O 3911   0.292   3.721  13.975  0.2188  0.0855 -0.1531
  258TMC3     H 3912   0.071   3.575  13.678  1.0313 -0.3394 -0.4277
  258TMC3    H1 3913   0.220   3.506  14.071 -0.8274  2.4182 -0.2823
  258TMC3    H2 3914   4.602   3.287  13.940 -0.6015  0.3521  0.1800
  258TMC3    C7 3915   0.047   3.322  14.141  0.1949  0.1959  0.3704
  258TMC3    C8 3916   4.575   3.404  13.702 -0.1686  1.1038 -0.8722
  258TMC3    O1 3917   4.658   3.289  14.190 -0.1662  0.5960  0.1406
  258TMC3    O2 3918   4.514   3.294  13.709 -0.6220  0.0634 -0.3682
  259MPD2     C 3919   2.884   0.592   1.003  0.2783  0.3371 -1.2002
  259MPD2    C1 3920   2.981   0.592   1.098 -1.0775  0.0914 -0.2538
  259MPD2    C2 3921   3.112   0.615   1.058 -0.1597  0.1234  0.2816
  259MPD2    C3 3922   3.141   0.626   0.924 -1.0097  0.0469 -0.7331
  259MPD2    C4 3923   3.044   0.626   0.826  0.5685 -0.0499  0.6378
  259MPD2    C5 3924   2.914   0.619   0.870  0.0599 -0.3027  0.4266
  259MPD2     H 3925   3.188   0.614   1.135 -0.0278 -0.8957  0.1332
  259MPD2    H1 3926   3.067   0.641   0.721 -1.8707  0.0132  0.1154
  259MPD2    H2 3927   2.782   0.578   1.039  1.5260 -1.2982  1.6589
  259MPD2    H3 3928   2.847   0.620   0.784  0.0787 -0.5550  0.4102
  259MPD2     N 3929   3.277   0.618   0.895  0.1193 -0.6292  0.2100
  259MPD2    H5 3930   3.339   0.605   0.974 -1.1564  1.8417  1.5929
  259MPD2    N1 3931   2.951   0.576   1.237  0.0358  0.1089 -0.1389
  259MPD2    H7 3932   2.853   0.559   1.258 -0.7470  2.0456 -2.2033
  260TMC3    C1 3933   3.485   0.593   0.779  0.1455  0.0657 -0.3660
  260TMC3    C2 3934   3.562   0.642   0.674 -0.2492  0.7416  0.7235
  260TMC3    C3 3935   3.681   0.583   0.656  0.6868  0.0973  0.3415
  260TMC3    C4 3936   3.516   0.485   0.853 -0.0467 -0.4555  0.7208
  260TMC3    C5 3937   3.640   0.433   0.833  0.0912  0.6649  0.0064
  260TMC3    C6 3938   3.728   0.474   0.735  0.1189  0.2498  0.0107
  260TMC3     C 3939   3.343   0.635   0.777  0.4882 -0.5895  0.3004
  260TMC3     O 3940   3.308   0.675   0.671  0.0833  0.5190 -0.0215
  260TMC3     H 3941   3.535   0.729   0.616  0.5618  1.2507  1.1136
  260TMC3    H1 3942   3.453   0.451   0.934 -0.9948 -0.0618  0.1522
  260TMC3    H2 3943   3.815   0.413   0.715  0.1551 -0.2392  1.5907
  260TMC3    C7 3944   3.683   0.327   0.921 -0.5159  0.0016  0.3179
  260TMC3    C8 3945   3.775   0.643   0.566 -0.5340 -0.2440  0.0192
  260TMC3    O1 3946   3.801   0.301   0.913 -0.1034  1.0065  0.2354
  260TMC3    O2 3947   3.731   0.737   0.507 -0.3803 -0.6232 -0.0072
  261MPD2     C 3948   0.499   3.377  12.340 -0.3437 -0.3218  0.1750
  261MPD2    C1 3949   0.564   3.482  12.408 -0.3964  0.2497  0.5139
  261MPD2    C2 3950   0.620   3.583  12.333  0.5896 -0.3652  0.0210
  261MPD2    C3 3951   0.620   3.575  12.191  0.5109 -0.0291 -0.3978
  261MPD2    C4 3952   0.567   3.461  12.135 -0.6257 -0.4479  0.6393
  261MPD2    C5 3953   0.505   3.361  12.206  0.0329 -0.6649  0.2649
  261MPD2     H 3954   0.659   3.676  12.373  0.5964 -0.2946 -0.1493
  261MPD2    H1 3955   0.579   3.439  12.030 -0.9804 -0.0313  0.5092
  261MPD2    H2 3956   0.453   3.293  12.391 -0.9107 -0.7291 -1.0057
  261MPD2    H3 3957   0.462   3.276  12.155 -0.0798  0.8206 -2.1040
  261MPD2     N 3958   0.676   3.679  12.117 -0.2775 -0.4610 -0.6350
  261MPD2    H5 3959   0.701   3.762  12.170 -0.1864 -1.7817  1.3707
  261MPD2    N1 3960   0.573   3.499  12.548 -0.6568 -0.0159 -0.3343
  261MPD2    H7 3961   0.622   3.580  12.585 -0.3317  0.3282 -1.5212
  262TMC3    C1 3962   0.782   3.800  11.936  0.4963 -0.2623  0.7156
  262TMC3    C2 3963   0.732   3.916  11.983 -0.5331  0.5669 -0.0607
  262TMC3    C3 3964   0.753   4.026  11.901  0.6785 -0.3348  0.3876
  262TMC3    C4 3965   0.866   3.795  11.823 -0.1421  0.3874 -0.1323
  262TMC3    C5 3966   0.906   3.908  11.762 -0.0227 -0.0589 -0.0211
  262TMC3    C6 3967   0.838   4.021  11.792  0.1469  0.0024 -0.2950
  262TMC3     C 3968   0.724   3.673  11.990  0.0279 -0.4106  0.2792
  262TMC3     O 3969   0.747   3.567  11.926  0.4325  0.3148 -0.3370
  262TMC3     H 3970   0.655   3.911  12.059 -0.5076 -2.2752 -0.2407
  262TMC3    H1 3971   0.914   3.700  11.804 -2.0521 -0.0934 -2.5753
  262TMC3    H2 3972   0.863   4.117  11.747  0.8826  0.3982  0.9693
  262TMC3    C7 3973   1.020   3.908  11.676  0.0951  0.1205 -0.6890
  262TMC3    C8 3974   0.722   4.155  11.947 -0.0508  0.4191 -0.6336
  262TMC3    O1 3975   1.061   3.799  11.635  0.3694 -0.3076 -0.2315
  262TMC3    O2 3976   0.707   4.240  11.862 -0.2172  0.5570  0.1811
  263MPD2     C 3977   1.898   3.210  11.611  0.6873 -0.1877  0.3926
  263MPD2    C1 3978   1.969   3.157  11.500 -0.0162 -0.2590 -0.5527
  263MPD2    C2 3979   1.947   3.223  11.381  0.0065 -0.1099  0.8699
  263MPD2    C3 3980   1.864   3.333  11.371 -0.4826  0.2149 -0.4795
  263MPD2    C4 3981   1.789   3.372  11.478 -0.3795 -0.0615 -0.0593
  263MPD2    C5 3982   1.804   3.310  11.597  0.0018  0.6027 -0.3166
  263MPD2     H 3983   2.006   3.180  11.300 -0.5735 -1.4037  1.1330
  263MPD2    H1 3984   1.718   3.452  11.493 -0.1751  0.1774 -0.3695
  263MPD2    H2 3985   1.899   3.149  11.700 -1.5172  0.6676  1.0068
  263MPD2    H3 3986   1.745   3.344  11.681  5.2528  2.9047  2.4768
  263MPD2     N 3987   1.865   3.393  11.249 -0.2902 -0.4146  0.0464
  263MPD2    H5 3988   1.919   3.352  11.175  1.5271  0.2561  0.9996
  263MPD2    N1 3989   2.048   3.047  11.528 -0.4111 -0.2371 -0.7157
  263MPD2    H7 3990   2.067   3.017  11.623  0.3690  1.5329 -0.3109
  264TMC3    C1 3991   1.824   3.563  11.081 -0.0594  0.0189  0.2541
  264TMC3    C2 3992   1.771   3.686  11.062 -0.2464  0.4689 -0.0172
  264TMC3    C3 3993   1.808   3.743  10.942  0.2265  0.2370 -0.5997
  264TMC3    C4 3994   1.919   3.504  10.995 -0.0981 -0.2903  0.4947
  264TMC3    C5 3995   1.960   3.577  10.888  0.1370 -0.0302 -0.2942
  264TMC3    C6 3996   1.898   3.693  10.857 -0.1492  0.4256 -0.3674
  264TMC3     C 3997   1.806   3.515  11.215 -1.0938 -0.3540 -0.1121
  264TMC3     O 3998   1.747   3.589  11.292 -0.2971  0.0992 -0.3153
  264TMC3     H 3999   1.699   3.731  11.129  0.9569  1.0587  0.8872
  264TMC3    H1 4000   1.973   3.411  11.015  1.3596  0.5260  0.3615
  264TMC3    H2 4001   1.921   3.753  10.769 -0.1222  1.2007  0.1744
  264TMC3    C7 4002   2.099   3.573  10.856 -0.1824 -0.6024  0.5108
  264TMC3    C8 4003   1.848   3.882  10.962 -0.3914 -0.1575  0.3705
  264TMC3    O1 4004   2.167   3.477  10.880 -0.3629  0.0292  0.1860
  264TMC3    O2 4005   1.966   3.890  10.944  0.4266 -0.3550 -0.1943
  265MPD2     C 4006   3.731   3.107  15.709  0.7253  0.4112 -0.1099
  265MPD2    C1 4007   3.769   3.240  15.681  0.3018 -0.4495  0.4777
  265MPD2    C2 4008   3.825   3.272  15.557 -0.1856  0.5051  0.0998
  265MPD2    C3 4009   3.871   3.173  15.473  0.5062 -0.3157 -0.1226
  265MPD2    C4 4010   3.844   3.043  15.508 -0.2414 -0.1215  0.4960
  265MPD2    C5 4011   3.772   3.013  15.621  0.3330  0.5935  0.4949
  265MPD2     H 4012   3.848   3.376  15.539  1.5041  0.2885  1.0891
  265MPD2    H1 4013   3.872   2.968  15.435  0.6970  1.4698 -0.7643
  265MPD2    H2 4014   3.676   3.086  15.800 -0.6878 -1.5759 -1.4265
  265MPD2    H3 4015   3.751   2.909  15.644  0.5342  0.4527  0.0453
  265MPD2     N 4016   3.944   3.184  15.348 -0.0924  0.7832 -0.5128
  265MPD2    H5 4017   3.985   3.099  15.310  2.7130  1.5340  0.8592
  265MPD2    N1 4018   3.734   3.342  15.774 -0.3631  0.3989 -0.0581
  265MPD2    H7 4019   3.738   3.437  15.739 -0.1675  0.3760 -0.0971
  266TMC3    C1 4020   3.688   3.439  15.982  0.3962  0.0606 -0.2442
  266TMC3    C2 4021   3.731   3.447  16.105  0.1330 -0.1684 -0.1382
  266TMC3    C3 4022   3.719   3.563  16.184  0.0095 -0.6034  0.1671
  266TMC3    C4 4023   3.626   3.545  15.920 -0.3998  0.2940  0.1215
  266TMC3    C5 4024   3.603   3.652  16.001  0.7806  0.4804  0.0256
  266TMC3    C6 4025   3.663   3.672  16.123  0.8346 -0.0574 -0.5735
  266TMC3     C 4026   3.731   3.321  15.911 -0.9087 -0.1320 -0.6640
  266TMC3     O 4027   3.749   3.219  15.978  0.5370 -0.3332 -0.0308
  266TMC3     H 4028   3.789   3.363  16.143 -0.5287 -0.7457 -0.4039
  266TMC3    H1 4029   3.588   3.541  15.819  0.8381  0.8307 -0.3696
  266TMC3    H2 4030   3.633   3.751  16.192  0.4172  1.0829 -2.0701
  266TMC3    C7 4031   3.528   3.765  15.945  0.0831  0.1191  0.5162
  266TMC3    C8 4032   3.779   3.562  16.325 -0.3542  0.3493  0.1474
  266TMC3    O1 4033   3.444   3.736  15.859 -0.3803 -0.5271 -0.5272
  266TMC3    O2 4034   3.830   3.457  16.367  0.5390  1.4255 -0.7114
  267MPD2     C 4035   0.826   0.311   0.354 -0.6818 -0.0462 -0.4589
  267MPD2    C1 4036   0.871   0.226   0.258 -0.2243  0.0995  1.0599
  267MPD2    C2 4037   0.951   0.280   0.164 -0.4741 -0.6625  0.2349
  267MPD2    C3 4038   0.969   0.412   0.159  0.0506  0.0320  0.1446
  267MPD2    C4 4039   0.915   0.501   0.249 -0.0876  0.8171 -0.5159
  267MPD2    C5 4040   0.839   0.447   0.346 -0.2448  0.2322  0.1220
  267MPD2     H 4041   0.964   0.220   0.075 -3.1313  0.6777 -1.0405
  267MPD2    H1 4042   0.931   0.608   0.236  0.1197  1.1006  2.1090
  267MPD2    H2 4043   0.758   0.278   0.431  0.5937 -0.0561  0.6703
  267MPD2    H3 4044   0.777   0.516   0.403 -0.1243 -0.4145  1.0308
  267MPD2     N 4045   1.040   0.470   0.051 -0.0129  0.3966 -0.0583
  267MPD2    H5 4046   1.029   0.570   0.034  0.7921  0.2735 -1.3506
  267MPD2    N1 4047   0.835   0.088   0.267  0.0513  0.1932  0.0568
  267MPD2    H7 4048   0.764   0.068   0.338 -0.5856  1.7463 -0.1509
  268TMC3    C1 4049   0.809   4.577   0.209  0.9885 -0.2286 -0.9069
  268TMC3    C2 4050   0.812   4.489   0.102 -0.0626 -0.8714 -0.1903
  268TMC3    C3 4051   0.732   4.378   0.113  0.1493 -0.4621  0.7079
  268TMC3    C4 4052   0.736   4.542   0.320  0.0926  0.0383 -0.4052
  268TMC3    C5 4053   0.652   4.445   0.320 -0.2870  0.0516 -0.2927
  268TMC3    C6 4054   0.650   4.353   0.219 -0.1463  0.0670  0.2847
  268TMC3     C 4055   0.883   4.705   0.188 -0.4129 -0.0040 -0.4202
  268TMC3     O 4056   0.959   4.702   0.096  0.2645  0.3259  0.0951
  268TMC3     H 4057   0.891   4.497   0.028  0.1994 -0.7091  0.1028
  268TMC3    H1 4058   0.749   4.602   0.410 -1.0535 -1.2281  0.6043
  268TMC3    H2 4059   0.589   4.264   0.223  0.6233 -0.5002 -0.6115
  268TMC3    C7 4060   0.648   4.377   0.450  0.1852  0.1894  0.5004
  268TMC3    C8 4061   0.738   4.276   0.014 -0.2278 -0.3512  0.2895
  268TMC3    O1 4062   0.730   4.408   0.530  0.0677  0.0125 -0.1906
  268TMC3    O2 4063   0.665   4.179   0.029 -0.1699  0.7013 -0.2573
  269MPD2     C 4064   1.856   3.798  15.826  0.0184 -0.0958  0.2730
  269MPD2    C1 4065   1.721   3.811  15.840  0.0228  0.0508  0.4365
  269MPD2    C2 4066   1.674   3.940  15.862 -0.2783 -0.3583 -0.8932
  269MPD2    C3 4067   1.747   4.052  15.875  0.4803  0.4276  0.0599
  269MPD2    C4 4068   1.877   4.028  15.854  0.2770  0.4016  0.0375
  269MPD2    C5 4069   1.933   3.910  15.840  0.4080  0.3354 -0.1179
  269MPD2     H 4070   1.570   3.959  15.885 -0.2024  1.5553 -2.1937
  269MPD2    H1 4071   1.949   4.107  15.870  1.1804 -0.2601 -0.7898
  269MPD2    H2 4072   1.894   3.697  15.811  2.4880  0.8792  0.1158
  269MPD2    H3 4073   2.038   3.901  15.815 -0.0995 -4.1966 -0.5577
  269MPD2     N 4074   1.680   4.176  15.891  0.3261 -0.6852 -0.8603
  269MPD2    H5 4075   1.586   4.172  15.927  0.1431  0.6547 -1.1951
  269MPD2    N1 4076   1.643   3.690  15.845  0.1065 -0.4525 -0.1717
  269MPD2    H7 4077   1.697   3.604  15.847 -0.6436 -0.9027  0.8900
  270TMC3    C1 4078   1.449   3.547  15.835  0.5131  0.2176 -0.6307
  270TMC3    C2 4079   1.312   3.549  15.821 -0.8127 -0.0788 -0.4966
  270TMC3    C3 4080   1.256   3.431  15.767  0.1661 -0.8244  0.4171
  270TMC3    C4 4081   1.527   3.440  15.840 -0.5286 -0.0009 -0.1309
  270TMC3    C5 4082   1.460   3.324  15.809 -0.2068 -0.2559  0.9354
  270TMC3    C6 4083   1.335   3.323  15.760 -0.1915 -0.4209  0.7107
  270TMC3     C 4084   1.507   3.681  15.833 -0.4770  0.4915 -0.3048
  270TMC3     O 4085   1.428   3.779  15.840 -0.1794 -0.4125 -0.1855
  270TMC3     H 4086   1.248   3.636  15.818  0.6791  1.0018 -1.1112
  270TMC3    H1 4087   1.630   3.448  15.872 -0.4574  0.6841 -0.5403
  270TMC3    H2 4088   1.288   3.228  15.738 -1.7303  0.6092 -0.3866
  270TMC3    C7 4089   1.545   3.235  15.732  0.8016 -0.6584  0.1088
  270TMC3    C8 4090   1.186   3.457  15.641 -0.9144 -0.2916 -0.0662
  270TMC3    O1 4091   1.666   3.243  15.755 -0.0955 -0.0412  0.0486
  270TMC3    O2 4092   1.069   3.489  15.655 -1.3071 -0.1039  0.2116
  271MPD2     C 4093   0.820   4.057  14.064  0.8675  1.2306 -0.9401
  271MPD2    C1 4094   0.776   3.951  14.150 -0.0856  0.2681  0.2504
  271MPD2    C2 4095   0.643   3.949  14.175  0.3841 -0.7833  0.0777
  271MPD2    C3 4096   0.553   4.036  14.122  0.3778  0.4613 -0.4168
  271MPD2    C4 4097   0.598   4.148  14.061 -0.5145  0.4607  0.1482
  271MPD2    C5 4098   0.733   4.158  14.037 -0.5666 -0.2334  0.1424
  271MPD2     H 4099   0.600   3.879  14.246 -0.9852  1.5406  1.5483
  271MPD2    H1 4100   0.543   4.231  14.018  1.1821  0.1118 -2.6759
  271MPD2    H2 4101   0.925   4.075  14.045  0.8587  1.4673 -0.7653
  271MPD2    H3 4102   0.777   4.253  14.009  0.3061 -0.5271  0.5194
  271MPD2     N 4103   0.418   4.042  14.158  0.1352 -0.1124 -0.6445
  271MPD2    H5 4104   0.368   4.123  14.123 -0.0610  0.0253 -0.0533
  271MPD2    N1 4105   0.861   3.862  14.212 -0.2336 -0.2566  0.1054
  271MPD2    H7 4106   0.826   3.808  14.289 -1.0582 -1.6737 -1.2629
  272TMC3    C1 4107   1.056   3.789  14.297 -0.0123  0.4691  0.2612
  272TMC3    C2 4108   1.178   3.735  14.276 -1.4710  0.9427 -0.1153
  272TMC3    C3 4109   1.228   3.642  14.367  0.0192  0.0769 -0.4130
  272TMC3    C4 4110   0.983   3.758  14.405  0.6631  0.4624  0.0660
  272TMC3    C5 4111   1.032   3.662  14.485 -0.6044 -0.1586 -0.3002
  272TMC3    C6 4112   1.155   3.604  14.472 -0.2630  0.4131  1.3051
  272TMC3     C 4113   1.000   3.873  14.199 -0.0937  0.5835  0.5018
  272TMC3     O 4114   1.073   3.910  14.105 -0.3857 -0.2971  0.3756
  272TMC3     H 4115   1.234   3.755  14.186 -0.1779  1.2939  0.7731
  272TMC3    H1 4116   0.898   3.813  14.446  1.0923 -1.0156  2.8913
  272TMC3    H2 4117   1.180   3.527  14.544  1.1862  1.4825  1.9419
  272TMC3    C7 4118   0.975   3.665  14.618  0.5471 -0.3901 -1.4598
  272TMC3    C8 4119   1.367   3.606  14.354 -0.0255  0.3986  0.2957
  272TMC3    O1 4120   0.850   3.662  14.629  0.1828  0.1063 -0.1134
  272TMC3    O2 4121   1.430   3.669  14.273 -0.1116 -0.3381  0.1557
  273MPD2     C 4122   2.414   2.267  11.886  0.8128  0.5094  0.6031
  273MPD2    C1 4123   2.547   2.301  11.853 -0.3384  0.3397 -0.0316
  273MPD2    C2 4124   2.579   2.306  11.716  0.6300 -0.2183  0.1880
  273MPD2    C3 4125   2.481   2.270  11.618  0.6121  0.0846  0.0371
  273MPD2    C4 4126   2.354   2.234  11.652  0.1904 -0.4418  0.7667
  273MPD2    C5 4127   2.324   2.231  11.784  0.6444  0.5194  0.7359
  273MPD2     H 4128   2.681   2.334  11.694  0.4216  1.1643  0.9485
  273MPD2    H1 4129   2.280   2.199  11.581  0.5591 -0.1343  0.2320
  273MPD2    H2 4130   2.381   2.267  11.989 -0.0359  1.9613  0.3306
  273MPD2    H3 4131   2.224   2.198  11.808  0.3338  0.0108 -1.2695
  273MPD2     N 4132   2.507   2.276  11.478  0.1298 -0.1822  0.8772
  273MPD2    H5 4133   2.438   2.233  11.418  0.6294 -1.1154  0.9682
  273MPD2    N1 4134   2.627   2.342  11.965  0.3886  0.4276  0.1971
  273MPD2    H7 4135   2.584   2.327  12.056  0.0341 -2.5261 -0.4822
  274TMC3    C1 4136   2.636   2.330  11.276 -0.4469 -0.3218 -0.2139
  274TMC3    C2 4137   2.522   2.306  11.209  0.1373 -0.1165  0.3478
  274TMC3    C3 4138   2.524   2.346  11.076  0.4255  0.5697 -0.5431
  274TMC3    C4 4139   2.737   2.405  11.224 -0.0581  0.0867  0.1119
  274TMC3    C5 4140   2.727   2.459  11.097  0.6044  0.4736  0.0912
  274TMC3    C6 4141   2.627   2.417  11.019  0.0557 -0.4671 -0.1616
  274TMC3     C 4142   2.617   2.340  11.423 -0.3058 -0.1640  0.2329
  274TMC3     O 4143   2.693   2.415  11.481 -0.5312  0.7208 -0.4878
  274TMC3     H 4144   2.441   2.247  11.250  0.2362 -0.1800  0.4497
  274TMC3    H1 4145   2.823   2.427  11.287  0.7758 -1.6263 -0.4372
  274TMC3    H2 4146   2.619   2.451  10.916  1.1240  0.1366 -0.0507
  274TMC3    C7 4147   2.834   2.522  11.028 -0.5413  0.3562  0.9175
  274TMC3    C8 4148   2.394   2.329  11.018 -0.5549 -0.1544 -0.6873
  274TMC3    O1 4149   2.829   2.526  10.905 -0.4314 -0.1377  0.0311
  274TMC3    O2 4150   2.294   2.303  11.086  0.2870  0.3071 -0.6125
  275MPD2     C 4151   2.509   0.130  14.699  0.2116 -0.0564 -0.4411
  275MPD2    C1 4152   2.509   4.715  14.731  0.2343 -0.5905 -0.3597
  275MPD2    C2 4153   2.385   4.651  14.753  0.7608  0.3488 -0.3283
  275MPD2    C3 4154   2.268   0.008  14.746  0.2268 -0.3413  0.4082
  275MPD2    C4 4155   2.275   0.139  14.712  0.0514  0.0671 -0.5999
  275MPD2    C5 4156   2.393   0.196  14.680 -0.2161 -0.1397 -0.1555
  275MPD2     H 4157   2.383   4.546  14.778 -1.0752  0.7418  1.1175
  275MPD2    H1 4158   2.186   0.201  14.710  0.5404  0.6805 -2.8186
  275MPD2    H2 4159   2.599   0.182  14.668  1.9229 -2.4268  0.5288
  275MPD2    H3 4160   2.395   0.301  14.655  0.1637 -0.2645 -0.6446
  275MPD2     N 4161   2.140   4.669  14.767  0.1654  0.2577  0.3600
  275MPD2    H5 4162   2.059   0.010  14.755  1.3149  1.6612 -0.2614
  275MPD2    N1 4163   2.623   4.644  14.752  0.3005 -0.0881  0.8118
  275MPD2    H7 4164   2.598   4.547  14.765  0.8125 -0.4038 -0.6352
  276TMC3    C1 4165   2.841   4.564  14.763 -0.2754 -0.1420  0.7283
  276TMC3    C2 4166   2.802   4.442  14.730  0.4074 -0.3977  0.1737
  276TMC3    C3 4167   2.846   4.324  14.792 -0.4165  0.3542  0.3656
  276TMC3    C4 4168   2.924   4.574  14.879 -0.3343  0.8654 -0.1307
  276TMC3    C5 4169   2.956   4.457  14.946  0.0283 -0.2349  0.5238
  276TMC3    C6 4170   2.927   4.332  14.903 -0.0339 -0.4704 -0.3029
  276TMC3     C 4171   2.755   4.676  14.739  0.4072  0.5423 -0.1370
  276TMC3     O 4172   2.813   0.063  14.741  0.0766  0.5064 -0.2845
  276TMC3     H 4173   2.750   4.431  14.636  1.4546 -0.8007 -0.3559
  276TMC3    H1 4174   2.980   4.664  14.901  2.3174 -1.0089  0.7274
  276TMC3    H2 4175   2.967   4.245  14.954 -0.2532 -0.3304  0.1074
  276TMC3    C7 4176   3.017   4.486  15.076 -0.3620  0.3293 -0.4090
  276TMC3    C8 4177   2.750   4.218  14.774 -0.4347 -0.2610 -0.6879
  276TMC3    O1 4178   3.031   4.604  15.108 -0.6350 -0.3912 -0.4519
  276TMC3    O2 4179   2.710   4.210  14.660 -0.4588  0.5191  0.2153
  277MPD2     C 4180   4.140   3.715  13.586  0.4304  0.1698 -0.5602
  277MPD2    C1 4181   4.022   3.785  13.617  0.0209 -0.9075 -0.1915
  277MPD2    C2 4182   3.937   3.744  13.717 -0.2061 -0.0137  0.5354
  277MPD2    C3 4183   3.977   3.633  13.797  0.4357  0.2506  0.1484
  277MPD2    C4 4184   4.099   3.569  13.766 -0.1634  0.1636  0.6068
  277MPD2    C5 4185   4.175   3.606  13.655 -0.1847 -0.4464  0.3560
  277MPD2     H 4186   3.848   3.797  13.748 -0.3218 -0.4356  0.9218
  277MPD2    H1 4187   4.123   3.479  13.823 -1.4580 -1.5339 -1.5278
  277MPD2    H2 4188   4.204   3.737  13.501  0.5551 -2.3818 -1.1141
  277MPD2    H3 4189   4.254   3.542  13.616 -0.6377 -1.1049  0.5158
  277MPD2     N 4190   3.879   3.584  13.883  0.4506 -0.2952 -0.8482
  277MPD2    H5 4191   3.793   3.638  13.884  0.6959  0.0044  4.0052
  277MPD2    N1 4192   4.008   3.894  13.545 -0.1461  0.1450  0.0609
  277MPD2    H7 4193   4.085   3.919  13.484  0.7407  0.5068  1.3500
  278TMC3    C1 4194   3.765   3.429  14.030 -0.5787  0.2451  0.9064
  278TMC3    C2 4195   3.737   3.294  14.027  0.2327  0.6151  0.4438
  278TMC3    C3 4196   3.604   3.254  14.045  0.3870  0.0110 -0.6228
  278TMC3    C4 4197   3.668   3.520  14.060 -0.0071 -0.1484  0.3438
  278TMC3    C5 4198   3.544   3.483  14.089  0.5654  1.0534 -0.3839
  278TMC3    C6 4199   3.502   3.350  14.073 -0.1207  0.0868 -0.0694
  278TMC3     C 4200   3.885   3.470  13.964 -0.6294 -0.0323 -0.8409
  278TMC3     O 4201   3.977   3.391  13.965 -0.2267 -0.1876  0.5724
  278TMC3     H 4202   3.814   3.228  13.989 -1.3945 -1.1551  0.2462
  278TMC3    H1 4203   3.702   3.623  14.053  0.8505 -0.3034  2.2079
  278TMC3    H2 4204   3.397   3.327  14.089  0.0764 -0.3194  0.6239
  278TMC3    C7 4205   3.450   3.587  14.120 -0.2409 -0.0905 -0.4915
  278TMC3    C8 4206   3.562   3.144  13.955  0.3156  0.3019 -0.1677
  278TMC3    O1 4207   3.492   3.679  14.188 -0.3852  0.0251  0.4336
  278TMC3    O2 4208   3.641   3.049  13.950  0.1428  0.5481  0.2362
  279MPD2     C 4209   3.095   4.391   0.639  0.1081 -0.1575  0.5233
  279MPD2    C1 4210   3.028   4.277   0.594  0.1784  0.0452 -0.3536
  279MPD2    C2 4211   3.094   4.179   0.524 -0.1299 -0.0787  0.1603
  279MPD2    C3 4212   3.225   4.196   0.487 -0.4195  0.5224 -0.1701
  279MPD2    C4 4213   3.288   4.309   0.518 -0.6722 -0.8131 -0.9717
  279MPD2    C5 4214   3.222   4.405   0.598 -0.4240 -0.2630 -0.2022
  279MPD2     H 4215   3.045   4.090   0.485 -2.5526  1.0315  0.7415
  279MPD2    H1 4216   3.394   4.321   0.501 -0.6101  0.3591  0.2662
  279MPD2    H2 4217   3.050   4.469   0.699 -1.1092 -0.6561  0.2508
  279MPD2    H3 4218   3.292   4.481   0.631  0.5057 -0.8735 -0.7634
  279MPD2     N 4219   3.291   4.100   0.401 -0.1613  0.0158  0.2229
  279MPD2    H5 4220   3.390   4.114   0.387 -0.6404  1.7856 -1.3118
  279MPD2    N1 4221   2.894   4.278   0.621  0.0114  0.8908  0.2933
  279MPD2    H7 4222   2.862   4.365   0.663  0.7100  2.2397 -1.9942
  280TMC3    C1 4223   2.666   4.211   0.599  0.6853  0.1458 -0.7389
  280TMC3    C2 4224   2.574   4.111   0.603 -0.1510 -0.2810  0.3517
  280TMC3    C3 4225   2.470   4.116   0.519  0.0250  0.1716 -0.4530
  280TMC3    C4 4226   2.645   4.315   0.509 -0.4957 -0.3861  0.0196
  280TMC3    C5 4227   2.544   4.316   0.426 -0.2994 -0.9822  0.1669
  280TMC3    C6 4228   2.455   4.210   0.425  0.5053  0.1824 -0.2652
  280TMC3     C 4229   2.807   4.165   0.610 -0.3225 -0.6033  0.1953
  280TMC3     O 4230   2.843   4.046   0.607 -0.1278  0.2741 -0.4965
  280TMC3     H 4231   2.578   4.042   0.687  1.3991  1.1971  1.4897
  280TMC3    H1 4232   2.722   4.391   0.499 -2.8871  1.7741 -2.0045
  280TMC3    H2 4233   2.370   4.233   0.362  0.8568  1.9299 -0.0931
  280TMC3    C7 4234   2.538   4.426   0.330  0.1240  0.8408 -0.2288
  280TMC3    C8 4235   2.391   3.996   0.498  0.1021 -0.3562  0.5456
  280TMC3    O1 4236   2.605   4.522   0.329  0.0910  0.4503 -0.1444
  280TMC3    O2 4237   2.291   4.009   0.427 -0.5129 -0.4999  0.6179
  281TMC3    C1 4238   1.963   3.497  13.156  0.5438  0.1385  0.0913
  281TMC3    C2 4239   2.009   3.528  13.030  0.0400 -0.0717 -0.5268
  281TMC3    C3 4240   2.005   3.439  12.926 -0.1631 -0.4880 -0.7033
  281TMC3    C4 4241   1.936   3.364  13.185 -0.0360 -0.1512 -0.1201
  281TMC3    C5 4242   1.931   3.275  13.077  0.9806  0.1163  0.3793
  281TMC3    C6 4243   1.965   3.311  12.951 -0.2826 -0.1326 -0.0674
  281TMC3     C 4244   1.918   3.600  13.247 -0.0317  0.5421  0.1749
  281TMC3     O 4245   1.878   3.551  13.351  0.3038  0.6960 -0.0599
  281TMC3     H 4246   2.063   3.621  13.016  0.7530 -0.1404  1.7555
  281TMC3    H1 4247   1.931   3.346  13.292 -1.6672  0.3311 -0.1202
  281TMC3    H2 4248   1.931   3.247  12.870 -0.0117 -0.2054 -0.1221
  281TMC3    C7 4249   1.901   3.136  13.115 -1.5498  0.2420  1.1379
  281TMC3    C8 4250   1.964   3.485  12.797 -0.2354  0.3406  0.2690
  281TMC3    O1 4251   1.941   3.048  13.040  0.2856  0.2280  0.9342
  281TMC3    O2 4252   1.941   3.403  12.711  0.0954  0.6919  0.2129
  282MPD2     C 4253   3.869   0.507  15.214 -0.2619 -0.7550  0.0468
  282MPD2    C1 4254   3.743   0.559  15.220  0.0479  0.1207  0.0163
  282MPD2    C2 4255   3.677   0.596  15.107 -0.1024  0.3212 -0.5579
  282MPD2    C3 4256   3.739   0.585  14.981  0.2957 -0.1272 -0.0120
  282MPD2    C4 4257   3.863   0.530  14.972  0.2157  0.5352  0.4942
  282MPD2    C5 4258   3.924   0.494  15.086 -0.8680 -0.5408 -0.2121
  282MPD2     H 4259   3.583   0.645  15.128 -0.4092 -0.7592  0.5749
  282MPD2    H1 4260   3.908   0.504  14.877  1.1833 -1.4436  1.5031
  282MPD2    H2 4261   3.935   0.479  15.295 -0.2467  1.5933  0.8430
  282MPD2    H3 4262   4.025   0.458  15.076 -0.7509 -0.4203  0.5166
  282MPD2     N 4263   3.676   0.650  14.873 -0.3776  0.0257  0.4014
  282MPD2    H5 4264   3.575   0.655  14.877 -0.3361  0.6458  0.6262
  282MPD2    N1 4265   3.670   0.570  15.344  0.0084  0.2934 -0.0956
  282MPD2    H7 4266   3.576   0.608  15.340  0.4718  1.6041  1.2882
  283TMC3    C1 4267   3.626   0.567  15.576 -0.5779 -0.3797  0.3958
  283TMC3    C2 4268   3.560   0.691  15.578 -0.1532  0.1179 -0.2828
  283TMC3    C3 4269   3.496   0.734  15.694 -0.0694 -0.3164 -0.3452
  283TMC3    C4 4270   3.618   0.485  15.687  0.2645 -0.3047  0.5710
  283TMC3    C5 4271   3.550   0.527  15.792  0.1121 -0.2297 -0.5512
  283TMC3    C6 4272   3.489   0.653  15.803  0.5543  0.0536  0.5370
  283TMC3     C 4273   3.711   0.525  15.465  0.1390  0.0300 -1.2894
  283TMC3     O 4274   3.824   0.479  15.496  0.0107 -0.4864 -0.0252
  283TMC3     H 4275   3.568   0.746  15.485 -1.6842 -0.0688 -0.5269
  283TMC3    H1 4276   3.669   0.389  15.694  2.1111  0.4558 -2.0581
  283TMC3    H2 4277   3.439   0.685  15.894  1.5151  1.5892  0.5219
  283TMC3    C7 4278   3.524   0.427  15.906 -0.3094  0.2521  0.4415
  283TMC3    C8 4279   3.482   0.870  15.716 -0.3750 -0.0957  0.1718
  283TMC3    O1 4280   3.487   0.474  16.013  0.1801  0.3627  0.0801
  283TMC3    O2 4281   3.422   0.900  15.819 -0.1491 -0.0180 -0.0023
  284MPD2     C 4282   2.295   0.217  11.996  0.0173 -0.2558  0.4754
  284MPD2    C1 4283   2.339   0.169  11.877  0.3452  0.3313  0.1525
  284MPD2    C2 4284   2.285   0.052  11.826  0.2833 -0.1276 -0.0614
  284MPD2    C3 4285   2.196   4.699  11.897 -0.1259 -0.7267 -0.6490
  284MPD2    C4 4286   2.159   0.022  12.022  0.3915 -0.3324  0.0197
  284MPD2    C5 4287   2.204   0.141  12.063 -0.8980  0.5702  0.1816
  284MPD2     H 4288   2.316   0.014  11.729  0.6758  2.3335 -0.9002
  284MPD2    H1 4289   2.089   4.693  12.088  0.0918  0.8320  0.5505
  284MPD2    H2 4290   2.325   0.313  12.035 -0.3018  0.0202  0.0375
  284MPD2    H3 4291   2.175   0.169  12.164 -2.7229 -0.4053 -0.0708
  284MPD2     N 4292   2.140   4.582  11.836  0.1271 -0.2473 -0.3585
  284MPD2    H5 4293   2.154   4.576  11.736  0.1189 -3.6815 -0.1335
  284MPD2    N1 4294   2.428   0.237  11.792  0.2830 -0.0571 -0.0688
  284MPD2    H7 4295   2.463   0.184  11.713 -2.4359 -0.9120 -0.6933
  285TMC3    C1 4296   2.577   0.403  11.703  0.2866 -0.5833 -1.9187
  285TMC3    C2 4297   2.531   0.364  11.584  0.4129  0.6702 -0.1207
  285TMC3    C3 4298   2.621   0.388  11.486 -0.0737 -0.4621 -0.4904
  285TMC3    C4 4299   2.696   0.466  11.731  0.2767 -0.9628  0.8498
  285TMC3    C5 4300   2.769   0.503  11.627  0.0188 -0.9465 -0.1068
  285TMC3    C6 4301   2.743   0.463  11.500  0.3882 -0.2230  0.4614
  285TMC3     C 4302   2.496   0.361  11.814  0.5578 -0.4863 -0.3105
  285TMC3     O 4303   2.504   0.432  11.913  0.5269  0.1613 -0.2102
  285TMC3     H 4304   2.431   0.324  11.569  1.0496 -1.4933  1.3784
  285TMC3    H1 4305   2.730   0.480  11.833  1.1207 -1.2051  0.5973
  285TMC3    H2 4306   2.820   0.484  11.427 -3.2763  2.9111 -2.5111
  285TMC3    C7 4307   2.877   0.589  11.641  0.1695  0.2017 -0.0500
  285TMC3    C8 4308   2.591   0.324  11.356 -0.1977  0.0589  0.7414
  285TMC3    O1 4309   2.977   0.569  11.572  0.3545  0.1072  0.0177
  285TMC3    O2 4310   2.500   0.239  11.365  0.3586  0.1718 -0.5836
  286MPD2     C 4311   1.972   3.433   1.540  0.0182 -0.2444  0.1301
  286MPD2    C1 4312   1.914   3.334   1.465  0.2092  0.0903  0.1964
  286MPD2    C2 4313   1.981   3.214   1.449 -0.4411 -0.4636  0.9284
  286MPD2    C3 4314   2.109   3.205   1.499 -0.3490  0.1425 -0.1483
  286MPD2    C4 4315   2.170   3.301   1.570  0.0745  0.5522  0.7261
  286MPD2    C5 4316   2.096   3.417   1.597 -1.2314 -0.5035 -0.2458
  286MPD2     H 4317   1.938   3.130   1.395 -2.1427  2.3933 -2.1948
  286MPD2    H1 4318   2.266   3.296   1.619 -0.5648 -1.0978  1.8139
  286MPD2    H2 4319   1.920   3.523   1.572 -1.2639 -2.1049  3.2971
  286MPD2    H3 4320   2.123   3.486   1.676 -1.5991  1.0910 -1.5074
  286MPD2     N 4321   2.197   3.094   1.466 -0.6970 -0.1037  0.2108
  286MPD2    H5 4322   2.293   3.115   1.494 -0.8170  1.1032 -0.2784
  286MPD2    N1 4323   1.779   3.345   1.417  0.1216  0.3535  0.8650
  286MPD2    H7 4324   1.740   3.260   1.377  2.2307  0.4826 -1.4406
  287TMC3    C1 4325   2.273   2.887   1.400 -0.2408 -0.0243 -0.2015
  287TMC3    C2 4326   2.259   2.794   1.306  0.2369  0.4344  0.1920
  287TMC3    C3 4327   2.369   2.711   1.287  0.5235 -0.3255 -0.1187
  287TMC3    C4 4328   2.380   2.893   1.480  0.8554  0.3476  0.0077
  287TMC3    C5 4329   2.481   2.807   1.460  0.3850 -0.3000  0.0087
  287TMC3    C6 4330   2.482   2.725   1.359 -0.2590 -0.1390  0.5961
  287TMC3     C 4331   2.163   2.978   1.401 -0.1829 -0.3018  0.2540
  287TMC3     O 4332   2.057   2.940   1.353 -0.3294  0.5273 -0.0603
  287TMC3     H 4333   2.159   2.768   1.274  0.5369  1.0375 -1.2531
  287TMC3    H1 4334   2.380   2.963   1.563  2.3934 -1.2164  1.3257
  287TMC3    H2 4335   2.565   2.661   1.331 -0.9317 -0.2008 -1.3145
  287TMC3    C7 4336   2.608   2.841   1.529  0.0481  0.4129 -0.5154
  287TMC3    C8 4337   2.373   2.633   1.163  0.5664  0.9765 -0.8530
  287TMC3    O1 4338   2.610   2.933   1.610 -0.3241  0.0783  0.4001
  287TMC3    O2 4339   2.451   2.538   1.154  0.9433 -0.0414 -0.1593
  288TMC3    C1 4340   3.935   3.570  14.738  0.5899  0.0499  0.4245
  288TMC3    C2 4341   3.864   3.474  14.807  0.7974  0.0152 -0.4782
  288TMC3    C3 4342   3.780   3.505  14.905 -0.2749  0.1349  0.9639
  288TMC3    C4 4343   3.912   3.706  14.763  0.7255 -0.2939  0.3987
  288TMC3    C5 4344   3.831   3.726  14.865  0.4649  0.2920  0.4378
  288TMC3    C6 4345   3.764   3.631  14.937 -0.5211  0.1561 -0.2441
  288TMC3     C 4346   4.051   3.546  14.649 -0.3201  0.1543 -0.5110
  288TMC3     O 4347   4.101   3.645  14.599 -0.2774 -0.4044 -0.6244
  288TMC3     H 4348   3.889   3.370  14.789  1.2327 -0.0125  0.3047
  288TMC3    H1 4349   3.977   3.778  14.714  1.4225 -1.4967 -0.4578
  288TMC3    H2 4350   3.696   3.665  15.014  2.6010  1.3282  1.9691
  288TMC3    C7 4351   3.858   3.836  14.942 -0.4282  0.0825  0.4295
  288TMC3    C8 4352   3.706   3.412  14.983  0.4525  0.2366  0.8322
  288TMC3    O1 4353   3.767   3.911  14.965  0.4880  0.2985 -0.2072
  288TMC3    O2 4354   3.636   3.462  15.071  0.4760  0.5758 -0.4056
  289MPD2     C 4355   4.307   2.287  14.728 -0.2417  1.2776 -0.0759
  289MPD2    C1 4356   4.346   2.416  14.752  0.2285  0.1543  0.1244
  289MPD2    C2 4357   4.292   2.515  14.672  0.4677  0.0890  1.0305
  289MPD2    C3 4358   4.210   2.479  14.567  0.6262 -0.0579  0.2889
  289MPD2    C4 4359   4.179   2.345  14.542  0.4989 -0.0461  0.6372
  289MPD2    C5 4360   4.229   2.247  14.621  0.3112 -0.0385 -0.2136
  289MPD2     H 4361   4.318   2.619  14.688 -0.1920  0.4631 -0.3201
  289MPD2    H1 4362   4.124   2.309  14.456  2.1382  2.2592 -1.3514
  289MPD2    H2 4363   4.340   2.214  14.801  0.2457  1.0050 -0.5748
  289MPD2    H3 4364   4.209   2.141  14.610  0.1692 -0.1570  1.2229
  289MPD2     N 4365   4.145   2.567  14.479 -0.0532 -0.0919 -0.4080
  289MPD2    H5 4366   4.069   2.525  14.427  0.4854 -0.1374 -1.1642
  289MPD2    N1 4367   4.438   2.437  14.857 -0.6835  0.6736 -0.1833
  289MPD2    H7 4368   4.458   2.356  14.914  0.8224  0.2942 -1.2614
  290TMC3    C1 4369   4.078   2.743  14.345 -0.6220 -0.0354 -0.0016
  290TMC3    C2 4370   4.110   2.866  14.304 -0.0100  0.1006  0.4413
  290TMC3    C3 4371   4.003   2.954  14.286  0.3478 -0.0927 -0.1793
  290TMC3    C4 4372   3.948   2.694  14.353  0.1191 -0.1472 -0.2525
  290TMC3    C5 4373   3.850   2.776  14.301 -0.4764  0.6433 -0.3045
  290TMC3    C6 4374   3.876   2.912  14.281  0.1088 -0.7658  0.0570
  290TMC3     C 4375   4.164   2.698  14.461  0.6785 -1.2489  0.1723
  290TMC3     O 4376   4.250   2.771  14.509 -0.8807 -0.8650  0.0059
  290TMC3     H 4377   4.216   2.888  14.303 -0.0099 -0.1093 -2.2170
  290TMC3    H1 4378   3.918   2.613  14.418 -2.2298  2.0820  1.4660
  290TMC3    H2 4379   3.801   2.985  14.253  0.2099 -0.8167 -0.3441
  290TMC3    C7 4380   3.729   2.720  14.261 -0.2564 -0.3507  0.4247
  290TMC3    C8 4381   4.035   3.099  14.257  0.2487  0.9901  0.1718
  290TMC3    O1 4382   3.634   2.794  14.265  0.0227  0.8064  0.0783
  290TMC3    O2 4383   4.145   3.122  14.209 -0.0850  0.1404 -0.1172
  291MPD2     C 4384   3.808   0.852   0.858  0.5627 -0.0850 -0.2073
  291MPD2    C1 4385   3.760   0.970   0.805  0.0997  0.5602  0.5125
  291MPD2    C2 4386   3.843   1.043   0.723 -0.3797 -0.0386 -0.2845
  291MPD2    C3 4387   3.974   1.005   0.694  0.3153 -0.2673  0.5042
  291MPD2    C4 4388   4.017   0.882   0.747  0.0171 -0.2191  0.8472
  291MPD2    C5 4389   3.932   0.812   0.830 -0.1870  0.1678  0.0455
  291MPD2     H 4390   3.805   1.134   0.680 -3.0037  0.3122  2.7052
  291MPD2    H1 4391   4.108   0.835   0.713 -0.1067 -0.1099  0.3590
  291MPD2    H2 4392   3.757   0.790   0.932  0.1428  0.4364 -0.0597
  291MPD2    H3 4393   3.963   0.717   0.873  1.5187  0.4527 -0.5600
  291MPD2     N 4394   4.063   1.077   0.616  0.2696 -0.6621  0.3283
  291MPD2    H5 4395   4.157   1.038   0.617  0.7609  0.5867  2.5186
  291MPD2    N1 4396   3.629   1.010   0.820  0.4118  0.3396  0.1623
  291MPD2    H7 4397   3.600   1.092   0.767 -1.6571  0.1605  0.9926
  292TMC3    C1 4398   3.414   1.028   0.882  0.6478  0.2789  0.2378
  292TMC3    C2 4399   3.338   1.036   0.996  0.4711 -0.1587 -0.3231
  292TMC3    C3 4400   3.206   1.012   0.984 -0.2978 -0.2476  0.0142
  292TMC3    C4 4401   3.369   0.999   0.753 -0.4834 -0.0869  0.0763
  292TMC3    C5 4402   3.226   0.975   0.753 -0.2180  0.2670  0.4723
  292TMC3    C6 4403   3.147   0.979   0.865 -0.0452 -0.9602 -0.0802
  292TMC3     C 4404   3.540   0.966   0.909  0.5229 -0.3085 -0.5959
  292TMC3     O 4405   3.544   0.889   1.006 -0.6270 -0.1720  1.0832
  292TMC3     H 4406   3.383   1.069   1.089 -0.8874 -0.4623  0.4286
  292TMC3    H1 4407   3.423   0.995   0.660  0.2193  1.3067  0.4233
  292TMC3    H2 4408   3.044   0.946   0.865 -0.4308  0.2636  0.4738
  292TMC3    C7 4409   3.163   0.944   0.620  0.0910  0.2461  0.2905
  292TMC3    C8 4410   3.133   0.983   1.107  0.3112 -0.1970  0.0452
  292TMC3    O1 4411   3.237   0.950   0.526  0.6791 -0.5306  0.0740
  292TMC3    O2 4412   3.193   0.941   1.204 -0.5166 -0.5502 -0.9515
  293MPD2     C 4413   0.632   3.891  12.796  0.1216  0.3075 -0.8578
  293MPD2    C1 4414   0.530   3.832  12.866 -0.3483  0.8619  0.0455
  293MPD2    C2 4415   0.530   3.822  13.006 -0.6832 -0.5245  0.4225
  293MPD2    C3 4416   0.641   3.875  13.078 -1.3273  0.7869 -0.4118
  293MPD2    C4 4417   0.739   3.941  13.009  0.0768  0.3086 -0.6703
  293MPD2    C5 4418   0.728   3.942  12.875  0.0610 -0.0658 -0.6783
  293MPD2     H 4419   0.445   3.778  13.057  1.4779 -0.3746  4.1658
  293MPD2    H1 4420   0.826   3.986  13.056 -0.6531  0.8844  0.1266
  293MPD2    H2 4421   0.642   3.900  12.689 -1.2759  0.4989 -0.9685
  293MPD2    H3 4422   0.809   3.984  12.817 -1.5036  3.5889 -0.2174
  293MPD2     N 4423   0.640   3.876  13.218 -0.2111  0.1395  0.0026
  293MPD2    H5 4424   0.568   3.820  13.262 -0.9566  0.7224 -0.4813
  293MPD2    N1 4425   0.423   3.785  12.789  0.1322 -0.3602 -0.2434
  293MPD2    H7 4426   0.425   3.802  12.688  1.4980  0.8313 -0.0250
  294TMC3    C1 4427   0.248   3.654  12.731  0.0995  0.3338  0.3853
  294TMC3    C2 4428   0.195   3.527  12.754  0.5434  0.0769 -0.4980
  294TMC3    C3 4429   0.157   3.458  12.640  0.1782  0.5381  0.4296
  294TMC3    C4 4430   0.272   3.701  12.602 -0.4482 -0.0937 -0.1944
  294TMC3    C5 4431   0.250   3.620  12.495 -0.4424  0.0031  0.5015
  294TMC3    C6 4432   0.188   3.496  12.511 -0.2416  0.1309  0.7695
  294TMC3     C 4433   0.326   3.702  12.834 -0.1340  0.3802 -0.6547
  294TMC3     O 4434   0.325   3.638  12.936 -0.0248 -0.0351 -0.1327
  294TMC3     H 4435   0.175   3.486  12.852 -1.3201  1.6617 -0.2089
  294TMC3    H1 4436   0.304   3.802  12.580 -1.5162  0.5130  1.0732
  294TMC3    H2 4437   0.155   3.437  12.426 -0.3698 -3.2993  3.1900
  294TMC3    C7 4438   0.214   3.680  12.368 -0.3749 -0.3941 -0.0992
  294TMC3    C8 4439   0.021   3.390  12.662 -0.4211  0.3586 -0.3125
  294TMC3    O1 4440   0.174   3.793  12.385  0.2304 -0.4724  0.3965
  294TMC3    O2 4441   4.706   3.370  12.779 -0.0366 -0.2660 -0.4232
  295MPD2     C 4442   0.363   1.908   0.055  0.5403  0.5162 -0.8648
  295MPD2    C1 4443   0.469   1.940   0.132  0.4124  0.3533  0.5056
  295MPD2    C2 4444   0.453   1.960   0.265  0.0661 -0.7759  0.4760
  295MPD2    C3 4445   0.329   1.940   0.327  0.1072 -0.2953 -1.2599
  295MPD2    C4 4446   0.231   1.893   0.246  0.3747 -0.8719  0.2904
  295MPD2    C5 4447   0.242   1.889   0.112  0.2307  0.7723 -0.7218
  295MPD2     H 4448   0.540   1.998   0.317 -0.8850 -1.4590  2.5615
  295MPD2    H1 4449   0.132   1.875   0.285 -1.0687  1.4401 -2.3541
  295MPD2    H2 4450   0.370   1.883  17.630 -1.4592 -0.6436 -0.7267
  295MPD2    H3 4451   0.167   1.849   0.044  0.0391 -2.2269  1.2293
  295MPD2     N 4452   0.299   1.942   0.473 -0.1837  0.1542 -0.6178
  295MPD2    H5 4453   0.207   1.910   0.503  0.4084 -0.5593  0.4579
  295MPD2    N1 4454   0.593   1.979   0.079 -0.4677 -0.1510 -0.1540
  295MPD2    H7 4455   0.664   1.980   0.152  0.4565 -0.3131 -1.0548
  296TMC3    C1 4456   0.364   1.967   0.705 -0.4475 -0.2554  0.2636
  296TMC3    C2 4457   0.423   2.063   0.772 -0.0405  1.2427 -0.1798
  296TMC3    C3 4458   0.381   2.081   0.900 -0.3069 -0.3205  0.8836
  296TMC3    C4 4459   0.261   1.895   0.747 -0.4429  0.1703 -0.2768
  296TMC3    C5 4460   0.210   1.931   0.868 -0.2760 -0.1700 -0.3705
  296TMC3    C6 4461   0.274   2.018   0.950 -0.8920  0.0972 -0.1594
  296TMC3     C 4462   0.401   1.971   0.564 -0.0603  0.3176 -0.2099
  296TMC3     O 4463   0.518   1.973   0.540 -0.1257 -0.2701 -0.0214
  296TMC3     H 4464   0.495   2.124   0.719  1.2406 -0.8138 -0.8180
  296TMC3    H1 4465   0.232   1.808   0.689 -0.8159 -0.5962  1.0848
  296TMC3    H2 4466   0.228   2.063   1.038  0.3854  0.0026  0.5551
  296TMC3    C7 4467   0.075   1.890   0.912  0.6686 -0.1018  0.1643
  296TMC3    C8 4468   0.442   2.183   0.977  0.3132 -0.0937  0.2307
  296TMC3    O1 4469   4.718   1.854   0.827  0.1630 -0.0058 -0.6044
  296TMC3    O2 4470   0.501   2.271   0.922  0.2961  0.0955 -0.3148
  297MPD2     C 4471   3.166   3.983  16.858  1.0637  0.8754 -0.2923
  297MPD2    C1 4472   3.155   4.002  16.717  1.0380 -0.4024  0.5654
  297MPD2    C2 4473   3.219   4.109  16.656  0.0790 -0.2413 -0.2433
  297MPD2    C3 4474   3.291   4.202  16.737 -1.4602 -0.0332 -0.1944
  297MPD2    C4 4475   3.287   4.176  16.872 -0.1407  0.7299 -0.1853
  297MPD2    C5 4476   3.232   4.074  16.934 -0.3020 -0.4898  0.3095
  297MPD2     H 4477   3.192   4.128  16.553 -1.1017  2.0264  0.4824
  297MPD2    H1 4478   3.337   4.250  16.932  0.2848  1.1204 -1.0161
  297MPD2    H2 4479   3.124   3.896  16.908 -1.4400  1.7765 -0.8697
  297MPD2    H3 4480   3.243   4.072  17.042 -0.1719 -2.8090  0.2609
  297MPD2     N 4481   3.368   4.310  16.688 -0.4707  0.3209  0.9500
  297MPD2    H5 4482   3.399   4.381  16.753  1.9668  1.8410 -1.9093
  297MPD2    N1 4483   3.094   3.908  16.630  0.9653  0.0989  0.0842
  297MPD2    H7 4484   3.072   3.935  16.535 -0.3787  1.7443  0.8614
  298TMC3    C1 4485   3.010   3.703  16.553 -0.1875  0.0377  0.8024
  298TMC3    C2 4486   3.065   3.572  16.538 -0.7516  0.6156 -0.5566
  298TMC3    C3 4487   3.009   3.495  16.438  0.3967 -0.5624 -0.2450
  298TMC3    C4 4488   2.911   3.755  16.472 -0.5829  0.7638  0.5579
  298TMC3    C5 4489   2.860   3.668  16.369  0.0133  0.0257  1.5084
  298TMC3    C6 4490   2.905   3.540  16.356  0.6323 -0.0674  0.0453
  298TMC3     C 4491   3.063   3.784  16.671  0.7995  0.2895  0.0783
  298TMC3     O 4492   3.096   3.714  16.768 -0.0885 -0.3722  0.6046
  298TMC3     H 4493   3.141   3.535  16.605 -1.4027  1.2194  0.5128
  298TMC3    H1 4494   2.870   3.855  16.472  0.7081  1.2600 -2.8748
  298TMC3    H2 4495   2.877   3.486  16.266 -0.7523  1.9643 -0.7306
  298TMC3    C7 4496   2.742   3.710  16.294  0.2113 -0.3768  0.2065
  298TMC3    C8 4497   3.044   3.363  16.403  0.7669 -0.1786  0.0920
  298TMC3    O1 4498   2.710   3.826  16.296 -0.1025 -0.4386 -0.5305
  298TMC3    O2 4499   2.971   3.297  16.331 -0.4320  0.1508  0.0932
  299MPD2     C 4500   3.630   4.514   9.722 -0.1180  0.2569  0.3722
  299MPD2    C1 4501   3.592   4.400   9.797  0.6566 -0.1051  0.5382
  299MPD2    C2 4502   3.455   4.358   9.794  0.2940 -0.3900  0.1182
  299MPD2    C3 4503   3.354   4.431   9.727 -0.5254  0.3040 -0.0020
  299MPD2    C4 4504   3.396   4.546   9.657  0.2904  0.2735  0.0753
  299MPD2    C5 4505   3.532   4.574   9.646 -0.7460 -0.2023 -1.1649
  299MPD2     H 4506   3.422   4.282   9.864  1.0042 -0.2920  0.5670
  299MPD2    H1 4507   3.328   4.616   9.612  0.7275 -0.1462 -1.2346
  299MPD2    H2 4508   3.734   4.545   9.711  0.0120  0.1867  1.4225
  299MPD2    H3 4509   3.555   4.657   9.581  0.7610 -0.8569 -1.4734
  299MPD2     N 4510   3.215   4.410   9.736  0.0246  0.5759  0.2435
  299MPD2    H5 4511   3.154   4.475   9.688 -0.0208 -0.9272 -1.7464
  299MPD2    N1 4512   3.690   4.327   9.858  0.2068 -0.1509  0.0606
  299MPD2    H7 4513   3.773   4.381   9.882  0.1524  0.0860 -0.2727
  300TMC3    C1 4514   3.008   4.321   9.806  0.7196  0.3644  0.6533
  300TMC3    C2 4515   2.950   4.441   9.807 -0.2591  0.3267  0.4194
  300TMC3    C3 4516   2.822   4.456   9.851  0.2091 -0.2344 -0.0439
  300TMC3    C4 4517   2.946   4.216   9.870 -0.2871  0.2701 -0.9921
  300TMC3    C5 4518   2.826   4.227   9.931 -0.1305 -0.1446  0.1668
  300TMC3    C6 4519   2.763   4.354   9.922 -0.1749  0.0772  0.7176
  300TMC3     C 4520   3.151   4.304   9.797 -0.0274 -0.4366 -0.5136
  300TMC3     O 4521   3.201   4.199   9.834 -0.0786 -0.2351 -1.0204
  300TMC3     H 4522   2.994   4.526   9.757 -2.6963  0.9075 -0.7376
  300TMC3    H1 4523   3.006   4.126   9.876  0.1319  0.6155 -0.0212
  300TMC3    H2 4524   2.660   4.366   9.954 -0.5259 -0.0226 -0.3744
  300TMC3    C7 4525   2.798   4.132  10.043 -0.5629  0.2110 -0.0958
  300TMC3    C8 4526   2.814   4.572   9.922  0.2424  1.0979 -0.2020
  300TMC3    O1 4527   2.851   4.023  10.049 -0.2560  0.1909  0.3033
  300TMC3    O2 4528   2.914   4.642   9.931  0.0960 -0.4936  0.6258
  301MPD2     C 4529   0.819   0.337   1.913 -0.5465 -0.4615 -0.3284
  301MPD2    C1 4530   0.752   0.304   1.794  0.7119  0.3026 -0.1082
  301MPD2    C2 4531   0.752   0.168   1.748  0.1444 -0.5956 -0.6715
  301MPD2    C3 4532   0.814   0.066   1.824  0.5034 -0.6995 -0.0548
  301MPD2    C4 4533   0.877   0.104   1.939  0.7359 -0.2700 -0.1957
  301MPD2    C5 4534   0.876   0.234   1.982  0.5216  0.1400 -0.0711
  301MPD2     H 4535   0.704   0.138   1.656  1.1680 -0.6312 -1.1924
  301MPD2    H1 4536   0.931   0.029   1.994  1.5395  0.1951 -0.3557
  301MPD2    H2 4537   0.820   0.437   1.954  1.6962 -0.4878 -0.3311
  301MPD2    H3 4538   0.927   0.260   2.074 -0.0013 -0.6960  0.4489
  301MPD2     N 4539   0.833   4.654   1.781  0.0785 -0.5362  0.0683
  301MPD2    H5 4540   0.901   4.595   1.828 -0.3023 -1.4175 -0.4847
  301MPD2    N1 4541   0.684   0.399   1.709  0.1611  0.2537 -0.0656
  301MPD2    H7 4542   0.633   0.352   1.635  0.6981  4.5975 -3.1252
  302TMC3    C1 4543   0.774   4.451   1.683  0.1692 -0.1846  0.0368
  302TMC3    C2 4544   0.875   4.390   1.752  0.2561 -0.2154 -0.2515
  302TMC3    C3 4545   0.901   4.262   1.721 -0.1370  0.3413  0.5931
  302TMC3    C4 4546   0.695   4.385   1.591  0.1129 -0.1084 -0.5834
  302TMC3    C5 4547   0.731   4.255   1.565 -0.5714 -0.8577  0.7715
  302TMC3    C6 4548   0.833   4.193   1.620  0.3865 -0.2792  0.8582
  302TMC3     C 4549   0.754   4.592   1.691 -0.5599  0.4309 -0.1505
  302TMC3     O 4550   0.661   4.633   1.626 -0.2609  0.2562 -0.3759
  302TMC3     H 4551   0.940   4.438   1.824 -0.4355  1.6555 -0.8576
  302TMC3    H1 4552   0.608   4.436   1.551  0.3414 -0.1533 -1.1381
  302TMC3    H2 4553   0.854   4.095   1.579  0.5392  0.1087  0.0202
  302TMC3    C7 4554   0.645   4.186   1.468 -0.2314 -0.4679  0.3134
  302TMC3    C8 4555   1.030   4.193   1.752  0.4059 -0.0564 -0.4628
  302TMC3    O1 4556   0.666   4.065   1.457 -0.0818 -0.4585  0.5468
  302TMC3    O2 4557   1.025   4.071   1.746 -0.5705 -0.1911 -0.4706
  303MPD2     C 4558   1.264   3.240  10.594 -0.6813  0.3202 -0.0211
  303MPD2    C1 4559   1.143   3.182  10.600  0.4782  0.0744  0.2848
  303MPD2    C2 4560   1.081   3.145  10.482  0.5094  0.2308 -0.8032
  303MPD2    C3 4561   1.139   3.173  10.362 -0.0646 -0.3886 -0.6089
  303MPD2    C4 4562   1.265   3.233  10.364  0.1118  0.4386 -0.5882
  303MPD2    C5 4563   1.324   3.274  10.477 -0.1705 -0.4534 -0.3333
  303MPD2     H 4564   0.976   3.119  10.479  0.9087 -1.6059  0.7095
  303MPD2    H1 4565   1.319   3.256  10.273  1.4198  2.2335  0.6386
  303MPD2    H2 4566   1.311   3.282  10.682 -0.4744  0.6359 -0.2838
  303MPD2    H3 4567   1.415   3.334  10.477  0.0919 -0.8668  2.3727
  303MPD2     N 4568   1.088   3.122  10.238  0.1464  0.9052 -0.1141
  303MPD2    H5 4569   1.139   3.139  10.151  1.3156 -3.2111 -0.2441
  303MPD2    N1 4570   1.083   3.163  10.729  0.6619  0.3937  0.2933
  303MPD2    H7 4571   1.140   3.179  10.812 -1.1092  2.3250  1.1391
  304TMC3    C1 4572   0.918   3.149  10.893 -0.6753 -0.1322  0.3245
  304TMC3    C2 4573   0.784   3.171  10.928 -0.7834 -0.0979  0.6314
  304TMC3    C3 4574   0.721   3.097  11.028 -0.4270 -0.0117  0.2654
  304TMC3    C4 4575   0.986   3.063  10.974  0.9576 -0.5992  0.2962
  304TMC3    C5 4576   0.931   3.005  11.086  0.0510 -0.0090 -0.0186
  304TMC3    C6 4577   0.798   3.023  11.112 -0.1836 -0.4539  0.2156
  304TMC3     C 4578   0.950   3.138  10.756  0.3252 -0.1796 -0.1614
  304TMC3     O 4579   0.849   3.110  10.686 -0.1222 -0.1636  0.1504
  304TMC3     H 4580   0.717   3.223  10.860  1.2956 -2.0847 -2.9656
  304TMC3    H1 4581   1.086   3.036  10.941  1.0978  1.0477 -0.6486
  304TMC3    H2 4582   0.761   2.969  11.198  1.5778 -0.3833  1.0184
  304TMC3    C7 4583   0.965   2.864  11.078 -0.5444 -0.0165  0.2451
  304TMC3    C8 4584   0.598   3.023  10.987  0.0910 -0.1362  0.9200
  304TMC3    O1 4585   1.079   2.826  11.069 -0.2194  0.0618 -0.7541
  304TMC3    O2 4586   0.600   2.905  11.024  0.4189  0.0463 -0.1911
  305MPD2     C 4587   3.636   0.964  14.128  1.5448 -0.5663  0.1476
  305MPD2    C1 4588   3.750   0.887  14.151  0.0901  0.5624 -0.0218
  305MPD2    C2 4589   3.783   0.780  14.060  0.0749  0.3234  0.6856
  305MPD2    C3 4590   3.705   0.761  13.950 -0.2228 -0.6811  0.1867
  305MPD2    C4 4591   3.593   0.841  13.928  0.1682  0.1571 -0.5847
  305MPD2    C5 4592   3.558   0.936  14.021  0.4357  0.4483 -0.4318
  305MPD2     H 4593   3.872   0.719  14.070 -0.8320 -1.2464 -0.8918
  305MPD2    H1 4594   3.521   0.830  13.848  0.6592 -2.1061 -0.7001
  305MPD2    H2 4595   3.594   1.037  14.197  0.8391 -0.7681 -0.0661
  305MPD2    H3 4596   3.473   1.003  14.008  0.3502  0.3831 -0.2025
  305MPD2     N 4597   3.736   0.661  13.853  0.7633 -0.1477 -0.1183
  305MPD2    H5 4598   3.670   0.650  13.776  1.2406 -1.5225 -0.3274
  305MPD2    N1 4599   3.822   0.907  14.273 -0.9724 -0.0372 -0.3808
  305MPD2    H7 4600   3.780   0.977  14.334 -2.8190 -0.3827 -1.2748
  306TMC3    C1 4601   3.990   0.898  14.439 -0.1674  0.6650  0.5022
  306TMC3    C2 4602   4.123   0.883  14.466  0.2314 -0.6424  0.5815
  306TMC3    C3 4603   4.171   0.918  14.595 -0.2496  1.1218 -0.3038
  306TMC3    C4 4604   3.907   0.970  14.526 -0.3260  0.0137 -0.0889
  306TMC3    C5 4605   3.959   1.007  14.649 -0.5272  0.7879  0.2410
  306TMC3    C6 4606   4.092   0.986  14.686 -0.6669  0.2164  0.0458
  306TMC3     C 4607   3.944   0.856  14.303 -0.4776 -0.6762 -0.2892
  306TMC3     O 4608   4.010   0.775  14.241  0.1762  0.1124  0.2424
  306TMC3     H 4609   4.194   0.835  14.398 -0.7589 -1.7436  0.3095
  306TMC3    H1 4610   3.805   0.995  14.499 -0.6461  0.8861  1.9417
  306TMC3    H2 4611   4.129   0.997  14.788 -0.7921 -0.0882  0.1228
  306TMC3    C7 4612   3.864   1.023  14.760  0.4504  0.1920  0.3689
  306TMC3    C8 4613   4.296   0.853  14.640  0.4737 -0.2224 -0.7183
  306TMC3    O1 4614   3.746   1.054  14.730 -0.2989 -0.3229  0.7507
  306TMC3    O2 4615   4.323   0.742  14.598 -0.2014 -0.4968  0.1754
  307MPD2     C 4616   1.547   2.458   0.648 -0.2151 -0.0299  0.1260
  307MPD2    C1 4617   1.508   2.555   0.568 -0.3059 -0.1762 -0.3233
  307MPD2    C2 4618   1.431   2.658   0.618  0.4903  0.6269  1.0267
  307MPD2    C3 4619   1.391   2.664   0.743 -0.1327 -0.8418 -0.2314
  307MPD2    C4 4620   1.423   2.559   0.828 -0.1374 -0.0505 -0.5113
  307MPD2    C5 4621   1.505   2.460   0.781 -0.2895 -0.0988  0.2068
  307MPD2     H 4622   1.400   2.736   0.550  1.9911  3.3317  3.4918
  307MPD2    H1 4623   1.401   2.551   0.934  2.8251 -0.9928  0.0415
  307MPD2    H2 4624   1.612   2.380   0.612 -0.9324 -1.5683  2.1141
  307MPD2    H3 4625   1.537   2.392   0.859  3.2615 -1.0000 -2.0579
  307MPD2     N 4626   1.311   2.771   0.787 -0.4149  0.0583 -0.6069
  307MPD2    H5 4627   1.294   2.837   0.712  1.6643  1.1488 -0.1221
  307MPD2    N1 4628   1.532   2.550   0.426 -0.7887 -0.7003  0.9599
  307MPD2    H7 4629   1.518   2.633   0.369 -3.5268 -1.3558  0.7059
  308TMC3    C1 4630   0.956   3.026   0.936  1.0276 -0.5990 -0.4129
  308TMC3    C2 4631   1.019   3.143   0.910 -0.2126  0.6738  0.3287
  308TMC3    C3 4632   1.148   3.141   0.868 -0.5521 -0.1796  0.5796
  308TMC3    C4 4633   1.029   2.905   0.946 -0.4111  0.3212  0.7269
  308TMC3    C5 4634   1.169   2.907   0.909 -0.7526  1.0798  1.1787
  308TMC3    C6 4635   1.224   3.024   0.859  0.1435  0.7904  0.4066
  308TMC3     C 4636   0.812   3.012   0.935 -0.0482 -0.3463 -0.6394
  308TMC3     O 4637   0.757   2.903   0.951 -0.0840 -0.0391  0.0245
  308TMC3     H 4638   0.976   3.240   0.931  0.1229  0.7382  0.7227
  308TMC3    H1 4639   0.979   2.812   0.968 -0.9151  0.7495  1.3836
  308TMC3    H2 4640   1.327   3.030   0.825  0.8268  1.8040  2.6836
  308TMC3    C7 4641   1.250   2.783   0.906  1.2695 -0.0055 -0.1141
  308TMC3    C8 4642   1.220   3.264   0.862 -0.0860  0.0504 -0.8322
  308TMC3    O1 4643   1.236   2.706   0.999 -0.2047  0.1371 -0.0283
  308TMC3    O2 4644   1.181   3.352   0.936 -0.0054 -1.0298 -0.7709
  309MPD2     C 4645   0.264   3.537  16.976 -0.4798  0.2004 -0.0087
  309MPD2    C1 4646   0.299   3.660  16.923 -1.1747  0.2467 -0.2891
  309MPD2    C2 4647   0.241   3.766  16.983 -0.3993 -0.7995 -0.3325
  309MPD2    C3 4648   0.163   3.752  17.096 -0.4479  0.3570 -1.0392
  309MPD2    C4 4649   0.124   3.631  17.142 -0.3284 -0.8688 -0.4157
  309MPD2    C5 4650   0.170   3.523  17.074 -0.0380 -0.7969  0.3161
  309MPD2     H 4651   0.266   3.868  16.957  1.6855 -1.2005  0.1103
  309MPD2    H1 4652   0.053   3.619  17.223 -0.3432  1.4181 -0.0711
  309MPD2    H2 4653   0.304   3.444  16.939 -2.4120 -0.8470  0.5985
  309MPD2    H3 4654   0.151   3.419  17.098 -0.0857 -0.7896  0.3092
  309MPD2     N 4655   0.128   3.870  17.166  0.3287 -0.0720 -0.0914
  309MPD2    H5 4656   0.167   3.955  17.127 -2.8914  0.7742 -1.4616
  309MPD2    N1 4657   0.389   3.679  16.810  0.4543 -0.3852  0.0333
  309MPD2    H7 4658   0.388   3.770  16.766  0.4021 -0.6186 -0.4514
  310TMC3    C1 4659   0.543   3.605  16.650  0.2075  0.7432  0.6387
  310TMC3    C2 4660   0.525   3.723  16.578 -0.2650  0.0124 -1.0606
  310TMC3    C3 4661   0.601   3.740  16.474 -0.0125 -0.0613 -0.3888
  310TMC3    C4 4662   0.641   3.516  16.616 -0.2839  0.3197  0.0611
  310TMC3    C5 4663   0.708   3.538  16.501 -0.3594  0.2606 -0.0760
  310TMC3    C6 4664   0.693   3.648  16.430  0.0546 -0.2640  0.1388
  310TMC3     C 4665   0.474   3.579  16.771  0.6788 -0.2436 -0.2961
  310TMC3     O 4666   0.489   3.467  16.824  0.0715  0.7309 -0.0429
  310TMC3     H 4667   0.443   3.790  16.600  2.0310  3.2434 -2.4115
  310TMC3    H1 4668   0.648   3.421  16.667 -1.5371 -0.9310 -2.1138
  310TMC3    H2 4669   0.758   3.673  16.347  0.0601 -2.0215 -0.3652
  310TMC3    C7 4670   0.766   3.421  16.440  0.5526 -0.8904 -0.6879
  310TMC3    C8 4671   0.568   3.848  16.388  0.0394  0.2746 -0.0680
  310TMC3    O1 4672   0.770   3.316  16.509 -0.1759  0.1438  0.0901
  310TMC3    O2 4673   0.451   3.872  16.365 -0.0181  0.7786 -0.2042
  311MPD2     C 4674   3.030   0.992  12.590  0.2191 -0.4606  0.0017
  311MPD2    C1 4675   3.018   1.111  12.659 -0.3340  1.0701  0.1463
  311MPD2    C2 4676   2.892   1.138  12.713 -0.1313  0.1402  0.3255
  311MPD2    C3 4677   2.782   1.060  12.698  0.5217  0.2863  0.2153
  311MPD2    C4 4678   2.791   0.940  12.625  0.1399 -1.0961 -0.7092
  311MPD2    C5 4679   2.919   0.904  12.580 -0.4172 -0.4489  0.9309
  311MPD2     H 4680   2.887   1.237  12.757  2.2218  0.4967 -0.1860
  311MPD2    H1 4681   2.708   0.875  12.601 -1.8893  1.2115  0.0978
  311MPD2    H2 4682   3.121   0.948  12.551  0.8483 -0.4109  1.4383
  311MPD2    H3 4683   2.941   0.813  12.525 -1.1160  0.6616 -1.1744
  311MPD2     N 4684   2.660   1.096  12.764 -0.0963 -0.3164 -0.2507
  311MPD2    H5 4685   2.664   1.172  12.831  0.6406  0.5327 -1.2481
  311MPD2    N1 4686   3.124   1.194  12.696 -0.3430  0.4253  0.0884
  311MPD2    H7 4687   3.095   1.275  12.750  0.0619  0.9358 -0.4555
  312TMC3    C1 4688   2.445   1.046  12.853  0.3448  0.2293  0.0784
  312TMC3    C2 4689   2.318   0.994  12.839 -0.1802 -0.4248 -0.5699
  312TMC3    C3 4690   2.238   0.976  12.946 -0.4682 -0.2106 -1.0487
  312TMC3    C4 4691   2.489   1.068  12.982 -0.5238  0.4775 -0.0731
  312TMC3    C5 4692   2.404   1.052  13.085  0.9056 -0.6845  0.3924
  312TMC3    C6 4693   2.282   1.000  13.070  0.1642  0.5233 -0.1222
  312TMC3     C 4694   2.545   1.021  12.752  1.1469 -0.0425 -0.4225
  312TMC3     O 4695   2.511   0.950  12.658 -0.0672 -0.3643  0.1696
  312TMC3     H 4696   2.282   0.966  12.741  2.0488  1.5236 -1.9410
  312TMC3    H1 4697   2.589   1.110  12.991 -0.4262 -0.2585  2.2177
  312TMC3    H2 4698   2.225   0.975  13.159 -0.6520  0.9796 -0.5159
  312TMC3    C7 4699   2.446   1.084  13.216  0.0314  0.0507 -0.6128
  312TMC3    C8 4700   2.108   0.940  12.904  0.2363 -0.3130 -0.2493
  312TMC3    O1 4701   2.383   1.040  13.313 -0.6163  0.3586 -0.2639
  312TMC3    O2 4702   2.068   0.950  12.789 -0.0626  0.0007  0.0903
  313MPD2     C 4703   1.917   0.131  10.943  0.3587 -0.2059  0.2481
  313MPD2    C1 4704   2.033   0.134  10.865 -0.0458 -0.0307  0.1473
  313MPD2    C2 4705   2.054   0.039  10.767 -0.5966  0.0969 -0.1466
  313MPD2    C3 4706   1.948   4.672  10.736 -0.5424 -0.3673  0.0188
  313MPD2    C4 4707   1.836   4.669  10.818 -0.0098  0.1125 -0.3886
  313MPD2    C5 4708   1.816   0.047  10.910  0.1030 -1.2007 -0.3680
  313MPD2     H 4709   2.145   0.025  10.710  0.2080 -1.3898  1.5148
  313MPD2    H1 4710   1.759   4.593  10.804 -0.5209  0.8213 -1.4170
  313MPD2    H2 4711   1.908   0.196  11.029 -0.5594  0.9840 -0.7567
  313MPD2    H3 4712   1.734   0.033  10.979 -0.3597  2.5069 -0.1478
  313MPD2     N 4713   1.972   4.579  10.632 -0.1910 -0.1763  0.3744
  313MPD2    H5 4714   2.064   4.592  10.590 -0.0418 -1.3594  0.3404
  313MPD2    N1 4715   2.140   0.221  10.895 -0.2659  0.4625  0.5924
  313MPD2    H7 4716   2.218   0.225  10.830 -0.0143 -5.2984  0.5633
  314TMC3    C1 4717   2.251   0.408  10.988  0.8186  0.4232  0.1186
  314TMC3    C2 4718   2.281   0.480  11.108  0.0873  0.4129 -0.7630
  314TMC3    C3 4719   2.388   0.569  11.098  0.2098 -0.4237 -0.1648
  314TMC3    C4 4720   2.319   0.427  10.875 -0.3466  0.8299  0.0986
  314TMC3    C5 4721   2.434   0.499  10.878 -0.8910  0.4067  0.2607
  314TMC3    C6 4722   2.472   0.568  10.991 -0.2966  0.6812  0.2101
  314TMC3     C 4723   2.142   0.317  10.994  0.5979 -0.1339 -0.7820
  314TMC3     O 4724   2.073   0.323  11.094  0.0853 -0.1445 -0.2975
  314TMC3     H 4725   2.211   0.485  11.191  1.1771 -0.9432  0.2396
  314TMC3    H1 4726   2.267   0.402  10.783  0.1299 -0.4471  0.1778
  314TMC3    H2 4727   2.556   0.636  10.991  2.3806 -2.5924  0.0338
  314TMC3    C7 4728   2.477   0.571  10.754  0.7055 -0.0385 -0.5572
  314TMC3    C8 4729   2.396   0.679  11.191  0.3564  0.3005 -0.0847
  314TMC3    O1 4730   2.523   0.686  10.766 -0.2576 -0.1346  0.2658
  314TMC3    O2 4731   2.455   0.775  11.145 -0.2620  0.0206 -0.9483
  315MPD2     C 4732   1.885   3.786  17.138  0.0510 -0.4869  0.1326
  315MPD2    C1 4733   1.978   3.760  17.231  0.0596 -0.1205  0.3154
  315MPD2    C2 4734   2.102   3.818  17.220 -0.3867 -0.0236 -0.2902
  315MPD2    C3 4735   2.125   3.922  17.123  0.3006 -0.4219  0.0371
  315MPD2    C4 4736   2.018   3.957  17.041  0.1167 -0.5673  0.3984
  315MPD2    C5 4737   1.901   3.883  17.046 -0.9428 -0.5309  0.0904
  315MPD2     H 4738   2.163   3.789  17.305 -0.5956  0.5495  0.0544
  315MPD2    H1 4739   2.023   4.033  16.964  1.0758  1.4136  2.4240
  315MPD2    H2 4740   1.791   3.732  17.138 -0.1326 -0.1772  1.1327
  315MPD2    H3 4741   1.831   3.884  16.963  0.1734 -0.1049 -0.8472
  315MPD2     N 4742   2.248   3.997  17.115 -0.5507 -0.3720  0.5605
  315MPD2    H5 4743   2.313   3.978  17.191  0.0517  1.1238  0.4163
  315MPD2    N1 4744   1.954   3.666  17.328  0.3489  0.0300 -0.5516
  315MPD2    H7 4745   2.034   3.635  17.383  0.7327  0.5574 -0.8160
  316TMC3    C1 4746   2.396   4.170  17.050  0.3691 -0.2490 -0.2352
  316TMC3    C2 4747   2.428   4.219  17.172  0.0022  0.2949  0.5675
  316TMC3    C3 4748   2.498   4.337  17.181 -0.3721 -0.3523  0.2436
  316TMC3    C4 4749   2.451   4.225  16.944  0.0956  0.3676 -0.0330
  316TMC3    C5 4750   2.517   4.347  16.949  0.5031  0.5861  0.4384
  316TMC3    C6 4751   2.536   4.407  17.071 -0.2744 -0.1074  0.3398
  316TMC3     C 4752   2.274   4.097  17.024  0.2755 -0.6069 -0.3207
  316TMC3     O 4753   2.217   4.140  16.923 -0.2682 -0.4711 -0.7792
  316TMC3     H 4754   2.357   4.198  17.251  2.6461 -3.2788  1.9603
  316TMC3    H1 4755   2.432   4.158  16.860  1.2570 -1.8561  1.4903
  316TMC3    H2 4756   2.578   4.507  17.067 -0.8490  0.2026  2.4441
  316TMC3    C7 4757   2.491   4.441  16.848  0.1211  0.9968 -0.3008
  316TMC3    C8 4758   2.447   4.433  17.274 -0.2522 -0.3474  0.3734
  316TMC3    O1 4759   2.520   4.556  16.857  0.0519  0.4105  0.1287
  316TMC3    O2 4760   2.424   4.545  17.236 -0.1292 -0.2606 -0.1514
  317MPD2     C 4761   3.955   3.041  13.780  0.6941  0.0067 -0.0098
  317MPD2    C1 4762   3.887   2.972  13.677  0.7639 -0.1659 -0.1636
  317MPD2    C2 4763   3.917   2.839  13.657  0.5453  0.5460 -0.1816
  317MPD2    C3 4764   4.003   2.769  13.734 -0.2510 -0.1559  0.4508
  317MPD2    C4 4765   4.064   2.843  13.831 -0.2951  0.0697 -0.3943
  317MPD2    C5 4766   4.042   2.970  13.854  0.0173 -0.2423 -0.3233
  317MPD2     H 4767   3.861   2.786  13.581 -2.1978  0.8719  1.5916
  317MPD2    H1 4768   4.136   2.792  13.893  0.4933  0.4516 -0.9973
  317MPD2    H2 4769   3.926   3.144  13.797  0.5684  0.0598 -0.5224
  317MPD2    H3 4770   4.099   3.027  13.927 -0.5217 -0.3317  0.1702
  317MPD2     N 4771   4.039   2.637  13.686 -0.0972  0.1555 -0.5573
  317MPD2    H5 4772   3.991   2.616  13.599 -1.9796  1.5993  0.1109
  317MPD2    N1 4773   3.799   3.031  13.586  0.5656  0.0806  0.0317
  317MPD2    H7 4774   3.765   2.968  13.515 -0.2455  0.7221 -0.1553
  318TMC3    C1 4775   4.135   2.426  13.671 -0.1914  0.2713 -0.5762
  318TMC3    C2 4776   4.038   2.399  13.581  0.6871  0.4986 -0.1100
  318TMC3    C3 4777   4.038   2.277  13.514  0.3683  0.0802  0.0742
  318TMC3    C4 4778   4.245   2.344  13.693  0.6504  0.5307  0.7730
  318TMC3    C5 4779   4.240   2.221  13.625 -0.1304  0.0445  0.1673
  318TMC3    C6 4780   4.134   2.177  13.537 -0.2747 -0.1626  0.3421
  318TMC3     C 4781   4.131   2.558  13.741 -0.3537  0.4910  0.4515
  318TMC3     O 4782   4.219   2.587  13.821 -0.3106 -0.6389 -0.6397
  318TMC3     H 4783   3.954   2.461  13.554 -1.1699 -1.8356  0.2844
  318TMC3    H1 4784   4.328   2.381  13.753  0.4656  2.4892 -0.1575
  318TMC3    H2 4785   4.140   2.080  13.490 -2.3553  1.1365 -2.5829
  318TMC3    C7 4786   4.324   2.118  13.679  0.0824 -0.1536  0.2706
  318TMC3    C8 4787   3.963   2.284  13.387  0.0510  0.0300  0.0761
  318TMC3    O1 4788   4.277   2.007  13.661 -0.0591  0.0687 -0.2184
  318TMC3    O2 4789   3.850   2.328  13.397  0.1913  0.4083 -0.2617
  319MPD2     C 4790   4.611   2.675  17.052  0.4796  0.0085 -0.0932
  319MPD2    C1 4791   4.513   2.776  17.045  0.1003  0.6059  0.3925
  319MPD2    C2 4792   4.453   2.806  16.923  0.1734  0.3257  0.0956
  319MPD2    C3 4793   4.496   2.741  16.809 -0.2776 -0.5329  0.5121
  319MPD2    C4 4794   4.602   2.649  16.818  0.0551 -0.3789 -0.4309
  319MPD2    C5 4795   4.659   2.619  16.941 -0.0090  0.2975 -0.3888
  319MPD2     H 4796   4.372   2.879  16.922  2.1166  2.4707 -0.5589
  319MPD2    H1 4797   4.625   2.585  16.733  2.2455  0.8792 -0.7819
  319MPD2    H2 4798   4.669   2.654  17.141 -0.5167  1.0588  0.8153
  319MPD2    H3 4799   0.021   2.548  16.948  0.7659  1.4120  1.8028
  319MPD2     N 4800   4.441   2.769  16.682  0.2376  0.3373 -0.4608
  319MPD2    H5 4801   4.488   2.735  16.599 -0.1013  0.8300 -0.8543
  319MPD2    N1 4802   4.468   2.837  17.161  0.1978  0.7459  0.6044
  319MPD2    H7 4803   4.430   2.930  17.151 -0.0101  0.9276  2.9790
  320TMC3    C1 4804   4.303   2.849  16.508  0.0883 -0.3130  0.5098
  320TMC3    C2 4805   4.223   2.952  16.470  0.5851  0.0871 -0.3145
  320TMC3    C3 4806   4.169   2.941  16.343  0.1476 -0.0866  0.6383
  320TMC3    C4 4807   4.330   2.742  16.433  0.3152  0.0183 -0.2700
  320TMC3    C5 4808   4.278   2.731  16.307 -0.4981  0.9084  0.3530
  320TMC3    C6 4809   4.205   2.840  16.262 -0.0913  0.2792 -0.0659
  320TMC3     C 4810   4.352   2.870  16.645  0.6459  0.0465  0.3501
  320TMC3     O 4811   4.290   2.951  16.714  0.3434 -0.5703  0.3313
  320TMC3     H 4812   4.206   3.037  16.535  0.4722 -0.4987  0.4145
  320TMC3    H1 4813   4.378   2.653  16.474  2.0449  1.2030  0.2988
  320TMC3    H2 4814   4.133   2.825  16.183  1.2900 -0.0810 -1.2529
  320TMC3    C7 4815   4.256   2.603  16.243 -0.4065  0.0916  0.7321
  320TMC3    C8 4816   4.104   3.060  16.303 -0.1383 -0.1779 -0.3890
  320TMC3    O1 4817   4.191   2.603  16.139  0.6877  0.0308 -0.1283
  320TMC3    O2 4818   4.060   3.134  16.387 -0.1224  0.4133  0.3108
  321TMC3    C1 4819   4.462   2.869  17.393 -0.2209 -0.0607  0.2468
  321TMC3    C2 4820   4.400   2.810  17.498 -0.5309 -0.2403  0.6362
  321TMC3    C3 4821   4.398   2.877  17.614 -0.2432 -0.6855 -0.2721
  321TMC3    C4 4822   4.514   2.997  17.386 -0.1148  0.0381  0.5107
  321TMC3    C5 4823   4.514   3.060  17.509 -1.4729 -0.4919  0.1128
  321TMC3    C6 4824   4.448   3.005  17.623 -0.5527  0.2413 -0.2226
  321TMC3     C 4825   4.482   2.781  17.281  0.1495  0.4969  0.5469
  321TMC3     O 4826   4.488   2.662  17.307  0.5671  0.0445  0.1342
  321TMC3     H 4827   4.366   2.707  17.503  0.5492 -0.5302  1.9618
  321TMC3    H1 4828   4.567   3.040  17.302  0.9416  1.0337  1.6718
  321TMC3    H2 4829   4.433   3.063   0.032  1.3246  0.8891 -0.3210
  321TMC3    C7 4830   4.644   3.103  17.550  0.4955  0.0899 -0.7280
  321TMC3    C8 4831   4.452   2.790   0.034  0.0538  0.0799 -0.8985
  321TMC3    O1 4832   4.690   3.059  17.655 -0.4012 -0.1985 -0.4915
  321TMC3    O2 4833   4.400   2.681   0.037 -0.1940 -0.4481 -0.1856
  322MPD2     C 4834   3.623   0.247  13.912 -0.1040  0.4098  0.6513
  322MPD2    C1 4835   3.665   0.210  14.038  0.0598 -0.4377  0.4985
  322MPD2    C2 4836   3.648   0.079  14.077  0.6777 -0.3705  0.5771
  322MPD2    C3 4837   3.605   4.698  13.988 -0.2262 -0.0427 -0.7119
  322MPD2    C4 4838   3.573   0.019  13.861  0.3337  0.0691  0.2150
  322MPD2    C5 4839   3.577   0.152  13.831 -0.2625  0.6873  0.1526
  322MPD2     H 4840   3.669   0.045  14.178 -1.4141  0.8823  1.4232
  322MPD2    H1 4841   3.539   4.671  13.784  1.6952 -1.4571  0.9591
  322MPD2    H2 4842   3.645   0.344  13.869 -1.8311  0.7351  0.5092
  322MPD2    H3 4843   3.559   0.185  13.729  0.6927 -0.4259 -0.3830
  322MPD2     N 4844   3.615   4.566  14.033  0.0396  1.0946 -0.5701
  322MPD2    H5 4845   3.656   4.551  14.125  0.3801  1.3307 -0.6811
  322MPD2    N1 4846   3.742   0.310  14.101  0.9584  0.8480 -0.1693
  322MPD2    H7 4847   3.774   0.388  14.045 -1.8177  2.1090 -0.0121
  323TMC3    C1 4848   3.877   0.398  14.284  0.6314 -0.1869  0.0935
  323TMC3    C2 4849   3.984   0.440  14.202 -0.3887  0.2697 -0.3486
  323TMC3    C3 4850   4.090   0.488  14.273  0.1356 -0.1672  0.3633
  323TMC3    C4 4851   3.884   0.411  14.419  0.5561  0.3072  0.6232
  323TMC3    C5 4852   3.990   0.467  14.481 -0.2867  0.0065 -0.2520
  323TMC3    C6 4853   4.099   0.510  14.410  0.1771 -0.1825 -0.1083
  323TMC3     C 4854   3.782   0.300  14.235 -0.1753 -0.3536 -0.1544
  323TMC3     O 4855   3.751   0.210  14.313  0.2911  0.3800 -0.1246
  323TMC3     H 4856   3.984   0.400  14.102 -1.9346  1.2511 -0.7495
  323TMC3    H1 4857   3.804   0.362  14.475 -1.3876  1.6163 -1.0223
  323TMC3    H2 4858   4.191   0.544  14.455  1.0171 -2.0860 -0.3760
  323TMC3    C7 4859   4.021   0.414  14.615 -0.5145 -0.3962  0.0356
  323TMC3    C8 4860   4.210   0.474  14.196  0.4555  0.4740  0.7861
  323TMC3    O1 4861   3.947   0.323  14.658 -0.0491 -0.2031 -0.0809
  323TMC3    O2 4862   4.310   0.444  14.256  0.0280  0.0787 -1.0770
  324MPD2     C 4863   1.540   1.714  14.206  0.0328 -0.3829 -0.5916
  324MPD2    C1 4864   1.426   1.713  14.284 -0.4676  0.2089  0.0371
  324MPD2    C2 4865   1.304   1.689  14.223 -0.5165 -0.2706 -0.1543
  324MPD2    C3 4866   1.300   1.673  14.084 -0.0909  0.1204 -0.0747
  324MPD2    C4 4867   1.418   1.683  14.007  0.1504 -0.1273  0.1952
  324MPD2    C5 4868   1.536   1.699  14.071  1.0379 -0.1245 -0.3359
  324MPD2     H 4869   1.215   1.708  14.282 -0.1134 -0.2355  0.4431
  324MPD2    H1 4870   1.416   1.693  13.899  0.8411 -2.0414  0.0101
  324MPD2    H2 4871   1.638   1.720  14.252 -0.1645 -0.5214 -0.1482
  324MPD2    H3 4872   1.623   1.714  14.008  2.6492 -0.3502  1.8607
  324MPD2     N 4873   1.179   1.670  14.006  0.4657 -0.4970  0.1776
  324MPD2    H5 4874   1.194   1.668  13.906 -1.6529  1.3884 -0.1860
  324MPD2    N1 4875   1.435   1.716  14.424  0.0749 -0.4627 -0.6114
  324MPD2    H7 4876   1.345   1.720  14.471 -0.7317 -0.2633 -2.1483
  325TMC3    C1 4877   0.949   1.659  13.949  0.8995  0.5608 -0.2143
  325TMC3    C2 4878   0.937   1.540  13.899  0.0696 -1.5600 -0.7897
  325TMC3    C3 4879   0.819   1.483  13.867  0.3305  0.7170 -0.5292
  325TMC3    C4 4880   0.835   1.727  13.970 -0.1663 -0.2311 -0.1545
  325TMC3    C5 4881   0.716   1.672  13.944  0.1051 -0.1194 -0.5927
  325TMC3    C6 4882   0.700   1.547  13.898 -0.6144 -0.1718  0.1799
  325TMC3     C 4883   1.049   1.678  14.050 -0.3695  0.4600 -0.0826
  325TMC3     O 4884   1.000   1.686  14.164 -0.0481  0.2719 -0.1724
  325TMC3     H 4885   1.029   1.483  13.887  0.4820 -1.3556  1.5304
  325TMC3    H1 4886   0.850   1.816  14.030 -0.3888 -0.5850  0.4167
  325TMC3    H2 4887   0.604   1.507  13.866  0.5526 -1.8514 -1.2340
  325TMC3    C7 4888   0.598   1.730  13.999 -0.2499 -0.7562 -0.1464
  325TMC3    C8 4889   0.809   1.343  13.830 -0.1006  0.1126  0.3004
  325TMC3    O1 4890   0.581   1.848  13.993 -0.2092 -0.0526  0.5160
  325TMC3    O2 4891   0.891   1.277  13.768  0.0515  0.2694 -0.1872
  326MPD2     C 4892   1.713   2.556  11.254  0.0167 -0.7501  0.2532
  326MPD2    C1 4893   1.764   2.514  11.135 -0.0945 -0.0206 -0.7530
  326MPD2    C2 4894   1.887   2.562  11.091 -0.5916  0.2115  0.0403
  326MPD2    C3 4895   1.946   2.665  11.155  0.3538 -0.3786  0.6051
  326MPD2    C4 4896   1.881   2.716  11.268  0.0554 -0.4449  0.3598
  326MPD2    C5 4897   1.769   2.663  11.321  0.1313 -0.3758 -0.3054
  326MPD2     H 4898   1.932   2.507  11.009 -1.9428 -2.2531  0.9362
  326MPD2    H1 4899   1.925   2.799  11.323  1.4203 -0.4737 -0.6823
  326MPD2    H2 4900   1.616   2.528  11.295 -1.9467  2.7367 -2.0075
  326MPD2    H3 4901   1.730   2.710  11.410 -0.8746  1.5092 -1.7502
  326MPD2     N 4902   2.066   2.730  11.106 -0.0666  0.6098 -0.6665
  326MPD2    H5 4903   2.116   2.791  11.170  1.1659 -1.4229  0.3118
  326MPD2    N1 4904   1.720   2.398  11.068 -0.2196  0.6517 -0.2884
  326MPD2    H7 4905   1.769   2.379  10.982  1.9987 -2.0770  1.5767
  327TMC3    C1 4906   1.590   2.226  10.999  0.1086  0.4632  0.0039
  327TMC3    C2 4907   1.472   2.248  10.931  0.2209  0.0413 -0.0559
  327TMC3    C3 4908   1.474   2.238  10.795  0.2301  0.2276  0.3710
  327TMC3    C4 4909   1.707   2.198  10.932 -0.6247 -0.8853  0.4834
  327TMC3    C5 4910   1.705   2.185  10.798 -0.9971  0.0620 -0.4418
  327TMC3    C6 4911   1.588   2.193  10.732 -0.4316 -0.7021  0.5460
  327TMC3     C 4912   1.614   2.321  11.100 -0.3474  0.0565  0.2128
  327TMC3     O 4913   1.525   2.348  11.180 -0.1753  0.1394  0.5659
  327TMC3     H 4914   1.388   2.280  10.993  0.6876 -0.6212  0.9214
  327TMC3    H1 4915   1.801   2.195  10.986 -1.2763  0.7340  1.6917
  327TMC3    H2 4916   1.585   2.182  10.624  0.5442  2.1612  0.2256
  327TMC3    C7 4917   1.818   2.195  10.707  0.2402 -0.0892 -0.3033
  327TMC3    C8 4918   1.423   2.353  10.722 -0.1719  0.3281 -0.2711
  327TMC3    O1 4919   1.803   2.241  10.597 -0.0567  0.2967 -0.0202
  327TMC3    O2 4920   1.490   2.394  10.631 -0.4429  0.6651 -0.4518
  328MPD2     C 4921   4.206   1.940  17.413  0.5444  0.3948 -0.5331
  328MPD2    C1 4922   4.123   1.935  17.296 -0.5271 -0.8448  0.4823
  328MPD2    C2 4923   4.027   2.029  17.278 -0.1267  0.0247 -0.2875
  328MPD2    C3 4924   4.011   2.135  17.364 -0.6341 -0.4027 -0.5017
  328MPD2    C4 4925   4.091   2.132  17.474 -0.3218  0.5297  0.0490
  328MPD2    C5 4926   4.186   2.040  17.498 -0.0408  0.4989 -0.1397
  328MPD2     H 4927   3.965   2.018  17.190  1.2956 -2.2929 -1.0044
  328MPD2    H1 4928   4.097   2.223  17.532  2.7399  0.3525  0.0029
  328MPD2    H2 4929   4.285   1.868  17.431  0.4099  0.2719 -0.4393
  328MPD2    H3 4930   4.248   2.049  17.586 -1.3571 -1.2929  0.9789
  328MPD2     N 4931   3.925   2.243  17.337  0.2689  0.3822  1.0799
  328MPD2    H5 4932   3.906   2.309  17.411 -0.2910  0.9649  0.4095
  328MPD2    N1 4933   4.124   1.819  17.219  0.0228  0.7754 -0.4250
  328MPD2    H7 4934   4.191   1.750  17.252  2.0503  2.7467 -0.4068
  329TMC3    C1 4935   4.074   1.657  17.050  0.2961 -0.2897  0.0561
  329TMC3    C2 4936   4.116   1.552  17.129 -0.3240  0.7198 -0.2473
  329TMC3    C3 4937   4.162   1.439  17.066 -0.2612  0.3272 -0.1317
  329TMC3    C4 4938   4.071   1.644  16.917 -0.2090 -0.3610 -0.6422
  329TMC3    C5 4939   4.126   1.531  16.860 -0.1145 -0.2616  0.2818
  329TMC3    C6 4940   4.172   1.426  16.933 -0.0057  0.0637  0.5238
  329TMC3     C 4941   4.052   1.792  17.104 -0.6976  0.1629 -0.1454
  329TMC3     O 4942   3.977   1.859  17.035 -0.0880 -0.1117 -0.0985
  329TMC3     H 4943   4.101   1.565  17.236 -4.1810 -1.7642 -0.4914
  329TMC3    H1 4944   4.030   1.721  16.851  0.0845  0.7490  0.4763
  329TMC3    H2 4945   4.193   1.332  16.883 -0.4511 -0.1263  0.6843
  329TMC3    C7 4946   4.079   1.520  16.722  0.2538  0.0160 -0.2684
  329TMC3    C8 4947   4.194   1.323  17.144  0.1177  0.4927  0.1105
  329TMC3    O1 4948   3.966   1.556  16.700 -0.5293 -0.1339 -0.0129
  329TMC3    O2 4949   4.206   1.224  17.078 -0.3119  0.0561 -0.4103
  330TMC3    C1 4950   2.113   1.940   9.745 -0.0661 -0.0898 -0.0808
  330TMC3    C2 4951   2.034   1.865   9.659 -0.0360  0.1628 -0.0201
  330TMC3    C3 4952   2.078   1.738   9.630 -0.2959  0.4404 -0.3147
  330TMC3    C4 4953   2.233   1.891   9.788 -0.5492 -0.1830  0.3839
  330TMC3    C5 4954   2.278   1.763   9.748  0.1078 -0.7967  0.1047
  330TMC3    C6 4955   2.206   1.687   9.663 -0.0440 -0.0579  0.6043
  330TMC3     C 4956   2.053   2.048   9.821 -0.0616 -0.1527  1.0326
  330TMC3     O 4957   2.108   2.075   9.932 -0.1336  0.4263 -0.0852
  330TMC3     H 4958   1.934   1.897   9.632 -0.7876 -0.1173  2.3731
  330TMC3    H1 4959   2.293   1.950   9.857 -0.3760  1.1065 -0.8894
  330TMC3    H2 4960   2.239   1.591   9.624  2.8691  1.9793 -1.9361
  330TMC3    C7 4961   2.394   1.713   9.808  0.6362 -0.4370  0.0607
  330TMC3    C8 4962   1.994   1.662   9.538 -0.2508  0.2199  0.0360
  330TMC3    O1 4963   2.428   1.784   9.905 -0.2397  0.1661 -0.8016
  330TMC3    O2 4964   1.916   1.729   9.464  0.8266 -0.1265  0.0081
  331MPD2     C 4965   4.641   0.752  12.809  1.4821  0.4128  0.2352
  331MPD2    C1 4966   0.046   0.798  12.774 -0.8795  0.0139  0.0595
  331MPD2    C2 4967   0.150   0.709  12.747  0.7287  0.4415  0.0230
  331MPD2    C3 4968   0.136   0.577  12.782 -0.0356  0.3231  0.4651
  331MPD2    C4 4969   0.015   0.529  12.820 -0.1890  0.2138  0.2654
  331MPD2    C5 4970   4.625   0.616  12.835  0.4105 -0.7890 -0.6301
  331MPD2     H 4971   0.238   0.747  12.697  1.0017 -0.4481 -0.1572
  331MPD2    H1 4972   4.712   0.425  12.838  0.5663 -0.0900 -0.5247
  331MPD2    H2 4973   4.563   0.828  12.819  0.5891 -0.5645  0.6679
  331MPD2    H3 4974   4.525   0.578  12.855  0.4664 -0.2560  0.6635
  331MPD2     N 4975   0.246   0.498  12.754 -0.0487  0.3869  0.4375
  331MPD2    H5 4976   0.334   0.542  12.729 -0.2827  0.8348  0.4059
  331MPD2    N1 4977   0.049   0.938  12.752  0.2000  0.7010  0.0880
  331MPD2    H7 4978   4.681   0.985  12.774 -1.3658 -1.8718 -0.5675
  332TMC3    C1 4979   0.361   0.301  12.684 -0.7439  0.1907 -0.7332
  332TMC3    C2 4980   0.396   0.371  12.571  0.7428 -0.0484  0.4806
  332TMC3    C3 4981   0.501   0.331  12.501  0.6787 -0.4549 -0.6980
  332TMC3    C4 4982   0.434   0.203  12.741  1.2418 -0.4480  0.2121
  332TMC3    C5 4983   0.551   0.180  12.679  0.4925 -0.2508 -0.0998
  332TMC3    C6 4984   0.583   0.245  12.561  0.6195  0.3640  0.4129
  332TMC3     C 4985   0.251   0.363  12.763 -0.3928 -0.1254  0.0028
  332TMC3     O 4986   0.177   0.286  12.823  0.2491 -0.9489  0.2403
  332TMC3     H 4987   0.322   0.437  12.529  0.3397 -1.2475 -0.6933
  332TMC3    H1 4988   0.415   0.168  12.842 -1.9052  0.4179 -0.0939
  332TMC3    H2 4989   0.666   0.216  12.498 -1.0930 -1.2014 -1.1116
  332TMC3    C7 4990   0.659   0.135  12.767 -0.1711 -0.6625  0.6070
  332TMC3    C8 4991   0.569   0.425  12.413 -0.2157  0.4188 -0.6624
  332TMC3    O1 4992   0.639   0.067  12.865  0.3653  0.3495 -0.0014
  332TMC3    O2 4993   0.688   0.429  12.428 -0.2902  0.3111 -0.3870
  333MPD2     C 4994   0.603   0.878  11.244 -0.1965 -0.4890  0.1252
  333MPD2    C1 4995   0.634   0.764  11.183  0.1641  0.0944 -0.7932
  333MPD2    C2 4996   0.589   0.645  11.243  0.0591 -0.3833 -0.1804
  333MPD2    C3 4997   0.517   0.644  11.357 -0.2567 -0.9036 -0.0190
  333MPD2    C4 4998   0.480   0.758  11.416  0.1760 -0.0975 -0.0579
  333MPD2    C5 4999   0.529   0.873  11.357  0.7006 -0.0638 -0.7429
  333MPD2     H 5000   0.612   0.555  11.186  0.1684  0.5290 -1.5623
  333MPD2    H1 5001   0.426   0.763  11.510 -0.7324  0.9376 -0.6332
  333MPD2    H2 5002   0.646   0.975  11.219  1.8165 -1.1604  0.9596
  333MPD2    H3 5003   0.524   0.965  11.414  0.2135 -0.0265 -0.8451
  333MPD2     N 5004   0.487   0.517  11.411 -0.2244  0.0261 -0.1364
  333MPD2    H5 5005   0.530   0.440  11.361  0.9672  1.9496 -2.0800
  333MPD2    N1 5006   0.720   0.774  11.069 -0.0870  0.4507  0.5770
  333MPD2    H7 5007   0.739   0.864  11.026  1.3869 -0.3580 -0.4634
  334TMC3    C1 5008   0.868   0.710  10.897 -0.1915  0.3191 -0.3892
  334TMC3    C2 5009   0.950   0.610  10.845  0.1383 -0.5568 -0.2622
  334TMC3    C3 5010   1.062   0.649  10.777 -0.7724  0.3770  1.0033
  334TMC3    C4 5011   0.899   0.844  10.876 -0.6604  0.6186  0.2216
  334TMC3    C5 5012   1.017   0.869  10.814 -0.1250  0.5587 -0.6850
  334TMC3    C6 5013   1.102   0.780  10.755  0.0581 -0.3408 -0.4981
  334TMC3     C 5014   0.770   0.669  10.996 -0.3976 -0.3235 -0.2703
  334TMC3     O 5015   0.759   0.552  11.014 -0.0419 -0.3266 -0.1373
  334TMC3     H 5016   0.927   0.504  10.845  1.6760 -0.8654  2.8576
  334TMC3    H1 5017   0.850   0.921  10.935  2.0256  0.0158  3.2506
  334TMC3    H2 5018   1.204   0.796  10.720  0.2621 -1.5769 -0.5050
  334TMC3    C7 5019   1.068   1.008  10.813  0.7638  0.5442  0.2547
  334TMC3    C8 5020   1.154   0.538  10.755 -0.0179 -1.1378 -0.1551
  334TMC3    O1 5021   1.183   1.025  10.773 -0.9306 -0.1796  0.0691
  334TMC3    O2 5022   1.108   0.441  10.699 -0.2061  0.1836  0.4321
  335TMC3    C1 5023   0.117   2.201   0.014  0.1216  0.7993  0.0555
  335TMC3    C2 5024   0.031   2.133  17.614 -0.3421 -0.1365 -0.4318
  335TMC3    C3 5025   0.046   2.131  17.481  0.1198  0.1577  0.5976
  335TMC3    C4 5026   0.236   2.252  17.655  0.6856 -0.4898  0.6988
  335TMC3    C5 5027   0.255   2.235  17.518 -0.7609 -0.1497  0.5790
  335TMC3    C6 5028   0.164   2.178  17.434 -1.0432 -0.0182 -0.1215
  335TMC3     C 5029   0.086   2.193   0.152 -0.1531  0.6697 -0.6216
  335TMC3     O 5030   4.703   2.130   0.179  0.0907 -0.1715 -0.1202
  335TMC3     H 5031   4.661   2.087  17.656 -0.5575  2.3036  1.7654
  335TMC3    H1 5032   0.323   2.261   0.038  0.0194  0.3732  1.4882
  335TMC3    H2 5033   0.191   2.161  17.331  0.1068 -4.9559  0.9770
  335TMC3    C7 5034   0.394   2.235  17.467  0.2240  0.1133 -0.2302
  335TMC3    C8 5035   0.010   2.011  17.406  0.2744 -0.2090  0.4911
  335TMC3    O1 5036   0.415   2.185  17.356  0.1917 -0.4554 -0.1869
  335TMC3    O2 5037   0.104   1.934  17.376 -0.2004 -0.0617  0.3988
  336MPD2     C 5038   4.348   4.061  16.005  0.8646 -0.1792  0.4369
  336MPD2    C1 5039   4.470   4.119  15.976  0.0659  0.6104 -0.3538
  336MPD2    C2 5040   4.585   4.045  15.978  0.2007 -0.7960  0.7058
  336MPD2    C3 5041   4.585   3.918  16.027  0.1866 -0.0178 -0.2408
  336MPD2    C4 5042   4.467   3.867  16.066 -0.1789 -0.2626  0.0654
  336MPD2    C5 5043   4.351   3.932  16.053  0.0045  0.7467 -0.2181
  336MPD2     H 5044   4.678   4.079  15.933  0.5169  0.6244  2.4463
  336MPD2    H1 5045   4.473   3.775  16.123 -0.3149  0.4995  1.2933
  336MPD2    H2 5046   4.258   4.120  16.011  0.4609 -0.8193  0.7186
  336MPD2    H3 5047   4.259   3.890  16.092  0.6864 -0.1624  0.4211
  336MPD2     N 5048   4.698   3.831  16.032 -0.2714 -0.2635  0.4271
  336MPD2    H5 5049   4.695   3.741  16.080  3.1897 -0.1843  0.7530
  336MPD2    N1 5050   4.485   4.254  15.928 -0.0687  0.6273 -0.4405
  336MPD2    H7 5051   4.580   4.290  15.926 -0.5297  1.8361 -0.8743
  337TMC3    C1 5052   4.441   4.456  15.818 -0.7860 -0.0568  0.1601
  337TMC3    C2 5053   4.352   4.542  15.767 -0.7058 -0.4941  0.1642
  337TMC3    C3 5054   4.388   4.609  15.659 -0.2429 -0.1561 -0.1966
  337TMC3    C4 5055   4.572   4.454  15.779 -0.2184 -0.1344  0.5562
  337TMC3    C5 5056   4.609   4.545  15.686  0.1190 -0.0965 -0.4037
  337TMC3    C6 5057   4.518   4.614  15.613 -0.2679 -0.6998  0.0245
  337TMC3     C 5058   4.385   4.345  15.903  0.1671  0.2781  0.2210
  337TMC3     O 5059   4.265   4.324  15.919 -0.6002 -0.3855  0.0181
  337TMC3     H 5060   4.253   4.539  15.809 -1.2068  3.7765 -0.7307
  337TMC3    H1 5061   4.644   4.389  15.828 -1.1364 -1.2116  0.4691
  337TMC3    H2 5062   4.541   4.659  15.517  2.3535  0.5807  1.2319
  337TMC3    C7 5063   0.022   4.532  15.634 -0.2844 -0.5003 -0.3775
  337TMC3    C8 5064   4.299   4.701  15.600  0.1513  0.9470 -0.7528
  337TMC3    O1 5065   0.044   4.568  15.521  0.3423 -0.3222  0.4385
  337TMC3    O2 5066   4.346   0.071  15.536  0.1405 -0.3653  0.0686
  338MPD2     C 5067   4.665   3.780   1.230 -0.1303  0.1420 -0.0006
  338MPD2    C1 5068   4.672   3.865   1.117 -0.9395 -0.6134  0.1227
  338MPD2    C2 5069   4.626   3.993   1.140 -0.1323  0.2981  0.4057
  338MPD2    C3 5070   4.571   4.029   1.264 -0.4229 -0.2327 -0.1647
  338MPD2    C4 5071   4.569   3.941   1.367 -0.1922 -0.6931 -0.1552
  338MPD2    C5 5072   4.611   3.818   1.350  0.5697 -0.4388 -0.8003
  338MPD2     H 5073   4.603   4.069   1.067  0.3282  1.3902  1.3909
  338MPD2    H1 5074   4.525   3.957   1.465 -1.4868  0.6317 -0.9368
  338MPD2    H2 5075   4.700   3.677   1.232  1.1454  0.5266 -1.6717
  338MPD2    H3 5076   4.613   3.744   1.429 -1.1216  0.5802  0.2063
  338MPD2     N 5077   4.510   4.158   1.274  0.1517 -0.4317  0.4303
  338MPD2    H5 5078   4.525   4.212   1.190  2.2972 -0.4131  0.8180
  338MPD2    N1 5079   0.004   3.831   0.991  0.7915  0.3425 -0.3346
  338MPD2    H7 5080   0.014   3.902   0.919  0.2276 -0.0600 -0.8137
  339TMC3    C1 5081   4.400   4.344   1.367 -0.6207 -0.2362  0.5531
  339TMC3    C2 5082   4.335   4.397   1.474 -0.2899 -0.2927  0.1212
  339TMC3    C3 5083   4.278   4.515   1.451 -0.3494 -0.7504 -0.5150
  339TMC3    C4 5084   4.421   4.412   1.252  0.4168  0.0455 -0.3738
  339TMC3    C5 5085   4.377   4.539   1.241  0.2385 -0.4707  0.2557
  339TMC3    C6 5086   4.301   4.591   1.337  0.6582  0.0464 -0.0222
  339TMC3     C 5087   4.424   4.197   1.366  0.0737  0.3274 -0.6168
  339TMC3     O 5088   4.383   4.140   1.469  0.1380  0.1698  0.4933
  339TMC3     H 5089   4.327   4.350   1.571 -0.1030  2.2116  1.3595
  339TMC3    H1 5090   4.459   4.363   1.163 -0.1457  0.3494 -0.7780
  339TMC3    H2 5091   4.256   4.688   1.319  3.6385  1.2083 -1.2450
  339TMC3    C7 5092   4.390   4.603   1.109  0.2207  1.0644 -0.3999
  339TMC3    C8 5093   4.195   4.581   1.557 -1.0206  0.4984 -0.0100
  339TMC3    O1 5094   4.291   4.658   1.064  0.2556 -0.7958  0.0172
  339TMC3    O2 5095   4.185   4.702   1.553 -0.6847 -0.2756  0.1956
  340MPD2     C 5096   1.361   1.941   9.671  0.3143  0.1092 -0.2297
  340MPD2    C1 5097   1.236   1.892   9.652  0.6039  0.4945 -0.0456
  340MPD2    C2 5098   1.130   1.952   9.725  0.4800  0.0950  0.2755
  340MPD2    C3 5099   1.154   2.058   9.810  0.4715  0.6671 -0.7265
  340MPD2    C4 5100   1.280   2.113   9.817 -1.0508  0.0100  0.0908
  340MPD2    C5 5101   1.381   2.042   9.762  0.4727 -0.0592 -0.2502
  340MPD2     H 5102   1.027   1.920   9.720  0.6919 -0.2736 -1.6800
  340MPD2    H1 5103   1.310   2.202   9.872  0.6735 -0.5344  0.0457
  340MPD2    H2 5104   1.444   1.900   9.615 -0.4900 -2.0626  0.1564
  340MPD2    H3 5105   1.478   2.088   9.777  0.2570  0.2084  0.3118
  340MPD2     N 5106   1.057   2.131   9.884  0.2123  0.0178  0.7743
  340MPD2    H5 5107   1.090   2.202   9.949  4.2079  1.0588 -2.4250
  340MPD2    N1 5108   1.212   1.784   9.559  0.2400 -0.4686 -0.1179
  340MPD2    H7 5109   1.299   1.751   9.518  0.3677  0.6436 -0.7563
  341TMC3    C1 5110   1.099   1.618   9.425 -0.6512  0.4995 -0.6210
  341TMC3    C2 5111   0.974   1.577   9.380 -0.3055 -0.1200  0.1065
  341TMC3    C3 5112   0.974   1.463   9.305  0.1176  0.4030  0.1809
  341TMC3    C4 5113   1.216   1.542   9.416 -0.3102 -0.4736  0.1450
  341TMC3    C5 5114   1.200   1.423   9.361 -0.1702  0.4702  0.2492
  341TMC3    C6 5115   1.087   1.381   9.293  0.3782 -0.5304  0.0208
  341TMC3     C 5116   1.091   1.743   9.500  0.1725  0.2856  0.5186
  341TMC3     O 5117   0.979   1.796   9.526 -0.2606 -0.3840  0.0673
  341TMC3     H 5118   0.883   1.621   9.418 -0.2214  0.4846 -0.3824
  341TMC3    H1 5119   1.309   1.567   9.465  0.7250  0.5679 -2.3065
  341TMC3    H2 5120   1.084   1.286   9.239  1.3914  0.6926 -2.1943
  341TMC3    C7 5121   1.301   1.318   9.380  0.0317  0.4483  0.3288
  341TMC3    C8 5122   0.852   1.377   9.304  0.6658  0.6760 -0.5354
  341TMC3    O1 5123   1.304   1.224   9.300  0.3503  0.4472 -0.5345
  341TMC3    O2 5124   0.866   1.258   9.313  0.3822  0.1134  0.3493
  342MPD2     C 5125   3.565   0.099  17.133 -0.5892 -0.5245 -0.0797
  342MPD2    C1 5126   3.518   0.079  17.260  0.0462  0.0665 -0.1000
  342MPD2    C2 5127   3.436   0.172  17.315 -0.1026 -0.4191  0.2194
  342MPD2    C3 5128   3.402   0.285  17.244 -0.5120 -0.1893  0.3140
  342MPD2    C4 5129   3.445   0.310  17.110 -0.0969 -0.5674 -0.2630
  342MPD2    C5 5130   3.523   0.209  17.063 -0.7870  0.9383 -0.3278
  342MPD2     H 5131   3.406   0.159  17.418  2.4467 -2.7097  0.6688
  342MPD2    H1 5132   3.416   0.393  17.047 -2.6544 -1.5075 -0.3103
  342MPD2    H2 5133   3.626   0.030  17.077 -1.4089 -0.2365 -1.3073
  342MPD2    H3 5134   3.555   0.215  16.959 -1.0593 -1.1708 -0.5349
  342MPD2     N 5135   3.311   0.383  17.301 -0.5594  0.5900  0.3070
  342MPD2    H5 5136   3.293   0.466  17.245  1.2515 -0.3461 -1.6695
  342MPD2    N1 5137   3.560   4.692  17.341  0.0969  0.7191  0.0450
  342MPD2    H7 5138   3.531   4.678  17.437  1.2653  0.1644  0.3161
  343TMC3    C1 5139   3.685   4.499  17.400  0.2411  0.1466  0.0916
  343TMC3    C2 5140   3.811   4.459  17.385 -0.2396  0.2541  0.8064
  343TMC3    C3 5141   3.840   4.327  17.412  0.2411  0.1465 -0.0693
  343TMC3    C4 5142   3.585   4.421  17.460  0.0416 -0.0161 -0.0336
  343TMC3    C5 5143   3.617   4.294  17.493 -0.2453  0.1603 -0.0674
  343TMC3    C6 5144   3.738   4.239  17.459  0.5284  0.0311  0.1850
  343TMC3     C 5145   3.647   4.595  17.297 -0.4981  0.3745  0.2490
  343TMC3     O 5146   3.723   4.582  17.200  0.1021 -0.0646 -0.2061
  343TMC3     H 5147   3.886   4.524  17.341 -0.2887 -0.0123  0.3301
  343TMC3    H1 5148   3.482   4.454  17.456 -0.7319 -2.4437 -0.2297
  343TMC3    H2 5149   3.749   4.133  17.479 -1.6655  0.2745  2.8138
  343TMC3    C7 5150   3.512   4.209  17.520 -0.5621 -0.1420 -0.1075
  343TMC3    C8 5151   3.962   4.265  17.374 -0.1487 -0.5077 -0.6195
  343TMC3    O1 5152   3.510   4.103  17.457  0.2552 -0.3299  0.0677
  343TMC3    O2 5153   3.955   4.144  17.349  0.2409  0.0704 -0.3667
  344MPD2     C 5154   4.357   4.360  10.126 -0.1924 -0.3541  0.4287
  344MPD2    C1 5155   4.237   4.419  10.087  0.5596  0.7943  0.7860
  344MPD2    C2 5156   4.250   4.548  10.028  0.7877 -0.9883 -0.4789
  344MPD2    C3 5157   4.373   4.615  10.019 -0.3645  0.5564 -0.1733
  344MPD2    C4 5158   4.491   4.552  10.063  0.4041 -0.4709 -0.2944
  344MPD2    C5 5159   4.476   4.427  10.120 -0.1598 -0.0011 -0.2527
  344MPD2     H 5160   4.161   4.588   9.980 -0.7744 -0.6535  2.6907
  344MPD2    H1 5161   4.585   4.604  10.072  0.4569 -0.6176 -0.0046
  344MPD2    H2 5162   4.352   4.261  10.170 -1.5243 -0.4928 -0.0511
  344MPD2    H3 5163   4.570   4.381  10.150 -0.5070  0.7044  1.9068
  344MPD2     N 5164   4.393   0.027   9.980  0.6243  0.5560  0.3288
  344MPD2    H5 5165   4.486   0.054  10.010  0.4367  1.2401  0.2972
  344MPD2    N1 5166   4.117   4.349  10.077  0.1562 -0.3032 -0.0605
  344MPD2    H7 5167   4.046   4.400  10.027 -0.3081  1.4981  2.4405
  345TMC3    C1 5168   4.333   0.255   9.948 -0.0772 -0.1736  0.2211
  345TMC3    C2 5169   4.422   0.285  10.044 -0.0907 -0.1712 -0.6606
  345TMC3    C3 5170   4.454   0.420  10.057 -0.0154 -0.2351 -0.2210
  345TMC3    C4 5171   4.263   0.349   9.874 -0.4872 -0.0648  0.1027
  345TMC3    C5 5172   4.296   0.484   9.886 -1.2198 -0.7941  0.3172
  345TMC3    C6 5173   4.394   0.514   9.984 -0.5617 -0.6465  0.4753
  345TMC3     C 5174   4.294   0.119   9.936 -1.2098 -0.0255  0.5399
  345TMC3     O 5175   4.180   0.099   9.899  0.3285 -0.1563  0.4641
  345TMC3     H 5176   4.481   0.216  10.105 -1.7221  0.1141  1.2503
  345TMC3    H1 5177   4.175   0.324   9.816 -1.4176 -0.9537  1.9356
  345TMC3    H2 5178   4.418   0.620   9.996  1.4769 -1.0612  0.0771
  345TMC3    C7 5179   4.229   0.596   9.824 -0.0481 -0.0162  0.1265
  345TMC3    C8 5180   4.500   0.461  10.190 -0.0998 -0.4474 -0.0554
  345TMC3    O1 5181   4.293   0.703   9.839 -0.2473 -0.4545 -0.0425
  345TMC3    O2 5182   4.455   0.382  10.274  0.2417 -0.3702 -0.3099
  346MPD2     C 5183   3.999   1.298  14.122  0.2149  0.3803 -0.2982
  346MPD2    C1 5184   4.100   1.373  14.069  0.5009 -0.3346 -0.2898
  346MPD2    C2 5185   4.224   1.353  14.117 -0.2613  0.0305 -0.1759
  346MPD2    C3 5186   4.248   1.284  14.239 -0.1123 -0.3878 -0.2865
  346MPD2    C4 5187   4.144   1.213  14.293 -0.4209  0.0594 -0.4718
  346MPD2    C5 5188   4.017   1.218  14.235  0.4185 -0.0138 -0.4617
  346MPD2     H 5189   4.311   1.403  14.077  1.2365 -1.5475  1.0928
  346MPD2    H1 5190   4.156   1.161  14.387 -1.1192  0.7459 -0.0006
  346MPD2    H2 5191   3.894   1.307  14.099  0.3765  0.3500 -1.0612
  346MPD2    H3 5192   3.937   1.166  14.286  2.4538  0.3258  3.0803
  346MPD2     N 5193   4.384   1.275  14.282  0.2252  0.7886  0.4257
  346MPD2    H5 5194   4.456   1.321  14.226 -1.4690 -0.8527 -3.0495
  346MPD2    N1 5195   4.088   1.456  13.958 -0.3438 -0.7409  0.0130
  346MPD2    H7 5196   4.173   1.504  13.932 -0.9457 -1.4152 -3.1165
  347TMC3    C1 5197   4.570   1.209  14.419 -0.4363  0.1144  0.5614
  347TMC3    C2 5198   4.653   1.297  14.353 -0.1136  0.3296  0.7033
  347TMC3    C3 5199   0.069   1.268  14.374  0.2794 -0.0083 -0.6706
  347TMC3    C4 5200   4.616   1.106  14.502 -0.6010  0.7873  0.4946
  347TMC3    C5 5201   0.029   1.074  14.503  0.3687  0.1399  0.0979
  347TMC3    C6 5202   0.119   1.154  14.440 -0.6566 -0.4624 -0.0452
  347TMC3     C 5203   4.429   1.206  14.395  0.8141  0.1186  0.8674
  347TMC3     O 5204   4.356   1.148  14.478  0.4701 -0.4675 -0.0076
  347TMC3     H 5205   4.623   1.382  14.293 -0.1424 -0.6244 -0.6318
  347TMC3    H1 5206   4.542   1.038  14.543 -1.6474  0.6808 -1.5708
  347TMC3    H2 5207   0.223   1.146  14.468 -0.9930  1.3256  1.6586
  347TMC3    C7 5208   0.067   0.943  14.556 -0.1534  0.5276  0.1603
  347TMC3    C8 5209   0.161   1.334  14.288  0.3687  0.5848 -0.3611
  347TMC3    O1 5210   4.702   0.897  14.632 -0.1154  0.2108  0.1842
  347TMC3    O2 5211   0.270   1.282  14.256 -0.1278 -0.4350  0.0043
  348MPD2     C 5212   2.885   1.825  12.256 -0.0967  0.1524 -0.2156
  348MPD2    C1 5213   2.971   1.837  12.151 -0.2718  0.4528 -0.0062
  348MPD2    C2 5214   2.923   1.842  12.026 -0.7826 -0.6922 -0.3636
  348MPD2    C3 5215   2.786   1.872  12.003  0.5323  0.2880 -0.4666
  348MPD2    C4 5216   2.700   1.865  12.108 -0.0759 -0.1339  0.8062
  348MPD2    C5 5217   2.749   1.851  12.238 -0.5739  1.0560 -0.3769
  348MPD2     H 5218   2.992   1.847  11.943 -0.5504 -0.3823 -0.1519
  348MPD2    H1 5219   2.591   1.863  12.103 -0.0535  0.1847  0.2593
  348MPD2    H2 5220   2.914   1.797  12.357 -1.8043 -0.1294  0.2075
  348MPD2    H3 5221   2.675   1.848  12.317  0.4303 -0.4759  0.5066
  348MPD2     N 5222   2.750   1.899  11.867  0.3088 -0.7506 -0.4054
  348MPD2    H5 5223   2.828   1.909  11.803  1.4580 -2.8103  0.6687
  348MPD2    N1 5224   3.109   1.800  12.155 -0.3815  0.0414  0.3657
  348MPD2    H7 5225   3.157   1.790  12.067 -0.2081  1.1757  0.3333
  349TMC3    C1 5226   3.313   1.718  12.244 -0.5160 -0.5327 -0.4233
  349TMC3    C2 5227   3.363   1.611  12.314 -0.2655  1.0002  0.0831
  349TMC3    C3 5228   3.455   1.526  12.254  0.0718  0.0817  0.6102
  349TMC3    C4 5229   3.367   1.760  12.122 -0.5332  0.5047  0.3897
  349TMC3    C5 5230   3.447   1.665  12.062  0.4712 -0.4671 -0.2819
  349TMC3    C6 5231   3.499   1.556  12.125  0.5812  1.2691 -0.2748
  349TMC3     C 5232   3.178   1.758  12.275  0.0360  0.2810  0.3529
  349TMC3     O 5233   3.141   1.755  12.392 -0.7698 -0.1277 -0.2104
  349TMC3     H 5234   3.324   1.602  12.415 -2.1947 -0.5101 -0.8029
  349TMC3    H1 5235   3.326   1.842  12.064 -1.8189 -0.3659  0.0480
  349TMC3    H2 5236   3.559   1.488  12.066 -1.5411 -1.1038  0.2893
  349TMC3    C7 5237   3.402   1.633  11.928  0.2398  0.0180  0.7277
  349TMC3    C8 5238   3.465   1.397  12.313 -0.3843  0.2662 -0.5536
  349TMC3    O1 5239   3.372   1.515  11.919  0.3854  0.5433 -0.0038
  349TMC3    O2 5240   3.373   1.356  12.384 -0.2923  0.3341  0.7104
  350MPD2     C 5241   1.602   3.732  10.058  0.2536 -0.1823  0.3933
  350MPD2    C1 5242   1.718   3.721  10.125  0.0286  0.1225 -0.3904
  350MPD2    C2 5243   1.775   3.832  10.178  0.6266 -0.3619 -0.2080
  350MPD2    C3 5244   1.718   3.959  10.177 -0.2355 -0.4929 -0.8718
  350MPD2    C4 5245   1.602   3.974  10.107 -0.0240  0.3868 -0.1616
  350MPD2    C5 5246   1.546   3.862  10.057 -0.1081 -0.0918 -0.1570
  350MPD2     H 5247   1.882   3.832  10.200  0.5432  2.0094  0.1737
  350MPD2    H1 5248   1.555   4.071  10.090  0.6709  0.7802  0.1641
  350MPD2    H2 5249   1.546   3.651  10.013  1.1913 -0.4658 -0.2638
  350MPD2    H3 5250   1.454   3.871  10.000 -0.3880 -0.0693  0.2958
  350MPD2     N 5251   1.800   4.068  10.219  0.5132 -0.2800  0.1649
  350MPD2    H5 5252   1.892   4.047  10.257  0.4080  1.2501  1.2326
  350MPD2    N1 5253   1.774   3.590  10.114  0.4254 -0.1448 -0.3631
  350MPD2    H7 5254   1.714   3.524  10.066 -0.8331  0.4310  0.4199
  351TMC3    C1 5255   1.923   3.406  10.153 -0.2499  0.2735  0.1966
  351TMC3    C2 5256   2.050   3.360  10.174 -0.7846 -0.0545  0.8090
  351TMC3    C3 5257   2.087   3.244  10.110  0.3554  0.0374  0.2612
  351TMC3    C4 5258   1.822   3.332  10.089  0.1334 -0.1147  0.8103
  351TMC3    C5 5259   1.856   3.202  10.059  0.7691 -0.8650 -0.5850
  351TMC3    C6 5260   1.987   3.161  10.063 -0.0751  0.2061  0.0622
  351TMC3     C 5261   1.887   3.548  10.179 -0.4097 -0.2500  1.0219
  351TMC3     O 5262   1.948   3.611  10.264 -0.5317  0.1840 -0.0891
  351TMC3     H 5263   2.124   3.409  10.236 -0.3142 -0.0497  0.2478
  351TMC3    H1 5264   1.720   3.367  10.076  0.5580  1.7249  2.3373
  351TMC3    H2 5265   2.008   3.060  10.029 -1.2997  0.4807 -1.5121
  351TMC3    C7 5266   1.779   3.155   9.954  0.3800  0.2779  0.5216
  351TMC3    C8 5267   2.203   3.180  10.175 -0.0873  0.3319 -0.1028
  351TMC3    O1 5268   1.662   3.189   9.942  0.5087 -0.4681  0.5644
  351TMC3    O2 5269   2.238   3.203  10.290 -0.4823 -0.1378  0.4053
  352MPD2     C 5270   4.719   1.134   1.677 -0.7449 -0.1396 -0.8402
  352MPD2    C1 5271   0.076   1.159   1.561 -0.1566 -0.4747 -0.2626
  352MPD2    C2 5272   0.189   1.089   1.534 -0.1692 -0.4153  0.0146
  352MPD2    C3 5273   0.236   0.996   1.624  0.0753 -0.0984  0.4701
  352MPD2    C4 5274   0.168   0.975   1.743 -0.0007 -0.2381 -0.5646
  352MPD2    C5 5275   0.047   1.040   1.771 -1.1560  0.4610 -0.5399
  352MPD2     H 5276   0.245   1.104   1.442 -1.2016 -0.3341 -0.6027
  352MPD2    H1 5277   0.201   0.888   1.799 -2.0038 -0.5109  0.2069
  352MPD2    H2 5278   4.632   1.194   1.703  1.6210  1.6852  2.9988
  352MPD2    H3 5279   4.718   1.017   1.865  1.1220  1.8998  1.0052
  352MPD2     N 5280   0.347   0.904   1.602  0.4532 -0.5309  0.2617
  352MPD2    H5 5281   0.348   0.819   1.658  0.2293 -1.1093 -0.5942
  352MPD2    N1 5282   0.035   1.242   1.457 -0.4905 -0.2393  0.1240
  352MPD2    H7 5283   0.086   1.253   1.370  2.4425 -0.1666  1.8677
  353TMC3    C1 5284   0.515   0.786   1.493 -0.1041  0.5117  0.7034
  353TMC3    C2 5285   0.548   0.729   1.615 -0.3234 -0.0467  0.1058
  353TMC3    C3 5286   0.602   0.599   1.614 -0.0224 -0.6742 -0.5188
  353TMC3    C4 5287   0.539   0.734   1.371  0.5472 -0.3801  0.0154
  353TMC3    C5 5288   0.600   0.608   1.378  0.2788  0.2435 -0.5650
  353TMC3    C6 5289   0.622   0.540   1.491  0.0664 -0.0379 -0.1476
  353TMC3     C 5290   0.429   0.905   1.495  0.1727 -0.3097 -0.2000
  353TMC3     O 5291   0.444   0.986   1.406  0.2959 -0.0001  0.2504
  353TMC3     H 5292   0.540   0.780   1.710  1.1046  2.3077 -1.0499
  353TMC3    H1 5293   0.498   0.773   1.279 -3.2087 -0.5430  1.6198
  353TMC3    H2 5294   0.655   0.437   1.481  0.3549 -0.0881  1.3950
  353TMC3    C7 5295   0.607   0.533   1.257  0.4055  0.5386  0.3284
  353TMC3    C8 5296   0.672   0.534   1.727 -0.4239  0.1164  0.2386
  353TMC3    O1 5297   0.582   0.415   1.264  0.4177  0.1453 -0.1494
  353TMC3    O2 5298   0.702   0.604   1.825 -0.4870  0.0693 -0.0170
  354TMC3    C1 5299   2.115   2.457  13.265 -0.0983  0.5989 -0.2499
  354TMC3    C2 5300   2.116   2.591  13.247  0.2821 -0.2798 -0.8705
  354TMC3    C3 5301   2.128   2.632  13.116 -0.1868 -0.0876  0.9109
  354TMC3    C4 5302   2.107   2.366  13.160  0.3842  0.6616 -0.5720
  354TMC3    C5 5303   2.113   2.414  13.032 -0.0383 -0.6275 -0.8578
  354TMC3    C6 5304   2.125   2.543  13.010 -0.0041 -0.4763  0.6775
  354TMC3     C 5305   2.095   2.407  13.399  0.3320  0.6923 -0.4570
  354TMC3     O 5306   2.022   2.475  13.473  0.4805 -0.7389 -0.4618
  354TMC3     H 5307   2.105   2.657  13.333 -2.4930  1.1500 -2.3443
  354TMC3    H1 5308   2.103   2.258  13.175 -0.2948  0.9508  1.2652
  354TMC3    H2 5309   2.105   2.584  12.912  3.8329 -0.8665 -0.2584
  354TMC3    C7 5310   2.197   2.334  12.941  0.2935  0.0607  0.0668
  354TMC3    C8 5311   2.187   2.764  13.084  0.2363 -0.2641  1.0015
  354TMC3    O1 5312   2.195   2.211  12.941  0.0931  0.2032  0.5999
  354TMC3    O2 5313   2.220   2.776  12.965  0.1258  0.3155 -0.4801
  355MPD2     C 5314   2.263   3.357  11.399  0.3110 -0.0322  0.1148
  355MPD2    C1 5315   2.239   3.486  11.435  0.3450  0.6931 -0.4122
  355MPD2    C2 5316   2.326   3.549  11.526  0.4884  0.0424 -0.3745
  355MPD2    C3 5317   2.446   3.487  11.573  0.1071  0.5011  0.1636
  355MPD2    C4 5318   2.468   3.354  11.536  0.2460 -0.5169  0.3579
  355MPD2    C5 5319   2.377   3.293  11.454 -0.2560  0.5621  0.6411
  355MPD2     H 5320   2.299   3.643  11.573 -2.5971 -0.8011 -0.4597
  355MPD2    H1 5321   2.553   3.298  11.571 -1.1091 -1.8582  1.5214
  355MPD2    H2 5322   2.200   3.295  11.337  0.6643  0.3455 -0.6147
  355MPD2    H3 5323   2.388   3.187  11.435 -0.0631  0.5059  1.0842
  355MPD2     N 5324   2.536   3.569  11.641  0.4687  0.0048  0.1159
  355MPD2    H5 5325   2.512   3.667  11.650  0.1422 -0.1410  0.8060
  355MPD2    N1 5326   2.120   3.550  11.386 -0.0745  0.2140  0.3259
  355MPD2    H7 5327   2.037   3.493  11.395  1.0381 -1.5276 -0.3747
  356TMC3    C1 5328   2.743   3.665  11.676  0.1096  0.1881 -0.6757
  356TMC3    C2 5329   2.771   3.736  11.563  0.1465 -0.8071 -0.2460
  356TMC3    C3 5330   2.830   3.853  11.581  1.0680 -0.2908  0.4963
  356TMC3    C4 5331   2.766   3.706  11.801  0.1543 -0.6238  0.5939
  356TMC3    C5 5332   2.822   3.827  11.814  0.1322  0.1431 -0.1125
  356TMC3    C6 5333   2.869   3.902  11.705 -0.1558 -0.1698 -0.1470
  356TMC3     C 5334   2.670   3.540  11.652 -0.0460 -0.0845 -0.7222
  356TMC3     O 5335   2.738   3.449  11.605 -0.4540  0.0607  0.0994
  356TMC3     H 5336   2.750   3.694  11.465 -0.0170 -0.5245 -0.3317
  356TMC3    H1 5337   2.722   3.640  11.875 -1.3094  1.6814  1.7917
  356TMC3    H2 5338   2.904   4.004  11.714 -1.7625  0.3669  0.0084
  356TMC3    C7 5339   2.849   3.868  11.949 -0.0166  0.0489  0.2201
  356TMC3    C8 5340   2.880   3.914  11.455  0.1510 -0.0799 -0.2972
  356TMC3    O1 5341   2.817   3.784  12.037  0.3525  0.0775 -0.3230
  356TMC3    O2 5342   2.830   3.871  11.348 -0.1228  0.7010  0.4805
  357MPD2     C 5343   1.936   2.703   1.585 -0.3837 -0.3928  0.3025
  357MPD2    C1 5344   1.848   2.639   1.501 -0.9508  0.4173 -0.3461
  357MPD2    C2 5345   1.789   2.521   1.537  0.1304 -0.2271 -0.3071
  357MPD2    C3 5346   1.817   2.464   1.665  0.1101  0.8309  0.3183
  357MPD2    C4 5347   1.912   2.523   1.742 -0.1287 -0.2618  0.1920
  357MPD2    C5 5348   1.972   2.642   1.706 -1.0536  0.0403  0.1025
  357MPD2     H 5349   1.713   2.482   1.471  1.1818  1.0366 -2.2825
  357MPD2    H1 5350   1.944   2.477   1.835 -1.7939  0.3902  1.0919
  357MPD2    H2 5351   1.978   2.801   1.565 -0.0379 -0.4122  0.9120
  357MPD2    H3 5352   2.049   2.682   1.772 -2.5724  1.3243  1.0793
  357MPD2     N 5353   1.736   2.359   1.712  0.6945  0.0130  0.4958
  357MPD2    H5 5354   1.766   2.318   1.800  0.7494  0.5309  0.7158
  357MPD2    N1 5355   1.821   2.699   1.375 -0.0247  0.4961 -0.1133
  357MPD2    H7 5356   1.863   2.790   1.360 -0.3783  0.7460  0.4393
  358TMC3    C1 5357   1.713   2.723   1.159  0.2949  0.6447 -0.0037
  358TMC3    C2 5358   1.718   2.671   1.029  1.1791  0.1930  0.5660
  358TMC3    C3 5359   1.727   2.763   0.927  0.3066  0.1582 -0.6907
  358TMC3    C4 5360   1.718   2.857   1.185  0.1147  0.0928 -0.0395
  358TMC3    C5 5361   1.731   2.947   1.086  0.1266 -0.5561  0.3543
  358TMC3    C6 5362   1.738   2.897   0.953 -0.1840 -0.3952  0.1829
  358TMC3     C 5363   1.749   2.634   1.272 -0.1205  0.0747 -0.2848
  358TMC3     O 5364   1.741   2.516   1.252  0.5707 -0.1441 -0.0621
  358TMC3     H 5365   1.726   2.563   1.026 -1.1503  0.0479 -0.7146
  358TMC3    H1 5366   1.684   2.889   1.282 -1.8131 -1.3026 -0.2591
  358TMC3    H2 5367   1.783   2.963   0.880  0.8366 -0.1888  0.9865
  358TMC3    C7 5368   1.742   3.083   1.116  0.0220 -0.5828 -0.2030
  358TMC3    C8 5369   1.767   2.719   0.792  0.8158 -0.4546 -0.1299
  358TMC3    O1 5370   1.759   3.114   1.232 -0.0843 -0.9808  0.3553
  358TMC3    O2 5371   1.758   2.788   0.688  0.1259 -0.5984 -0.6139
  359MPD2     C 5372   2.427   2.755  12.499  0.0784  0.2821  0.0151
  359MPD2    C1 5373   2.429   2.646  12.421 -0.1625 -0.0212  0.2558
  359MPD2    C2 5374   2.332   2.551  12.432  0.3435 -0.0697 -0.5008
  359MPD2    C3 5375   2.232   2.568  12.522 -0.2466  0.3662 -0.0167
  359MPD2    C4 5376   2.236   2.669  12.612  0.1939 -0.0129 -0.2045
  359MPD2    C5 5377   2.332   2.763  12.601  0.0494  0.1714 -0.0442
  359MPD2     H 5378   2.343   2.470  12.360 -0.4777 -0.4752 -0.1721
  359MPD2    H1 5379   2.154   2.678  12.681  0.5558 -1.1017  0.3700
  359MPD2    H2 5380   2.510   2.825  12.504  0.3124  0.0261 -0.2591
  359MPD2    H3 5381   2.337   2.843  12.673 -1.0302 -0.3552  0.6194
  359MPD2     N 5382   2.138   2.463  12.543  0.2760  0.2464 -0.2094
  359MPD2    H5 5383   2.082   2.473  12.627 -0.7812  1.8849 -1.1144
  359MPD2    N1 5384   2.535   2.621  12.332  0.0130 -0.1844 -0.2767
  359MPD2    H7 5385   2.540   2.528  12.293  0.9579 -1.4406  2.8114
  360TMC3    C1 5386   2.738   2.642  12.209 -0.4061  0.0866 -0.3390
  360TMC3    C2 5387   2.876   2.666  12.240 -0.5980 -0.1559 -0.7476
  360TMC3    C3 5388   2.969   2.582  12.179 -0.2368 -0.0226  0.2470
  360TMC3    C4 5389   2.698   2.527  12.143 -0.7443 -0.0465  0.3263
  360TMC3    C5 5390   2.796   2.454  12.082  0.5855  0.5161  0.0731
  360TMC3    C6 5391   2.928   2.481  12.094 -0.3354  0.2428 -0.7841
  360TMC3     C 5392   2.645   2.703  12.296 -0.6416 -0.2319 -0.1247
  360TMC3     O 5393   2.670   2.814  12.345  0.1166 -0.1173  0.3486
  360TMC3     H 5394   2.907   2.756  12.291  2.3926 -1.5400 -0.1412
  360TMC3    H1 5395   2.592   2.509  12.130 -0.2589 -3.4392  1.0603
  360TMC3    H2 5396   2.998   2.409  12.052 -2.2683 -1.7419 -0.5958
  360TMC3    C7 5397   2.758   2.378  11.960 -0.1737 -0.3733  0.7112
  360TMC3    C8 5398   3.096   2.640  12.147 -0.0455 -0.2970  0.0172
  360TMC3    O1 5399   2.841   2.371  11.871  0.0663  0.5319  0.3139
  360TMC3    O2 5400   3.133   2.732  12.224  0.7559 -0.1230  0.0286
  361MPD2     C 5401   4.131   0.974  16.697 -0.2647 -0.0973 -0.0737
  361MPD2    C1 5402   4.151   1.009  16.833 -0.8965  0.3904 -0.4956
  361MPD2    C2 5403   4.248   0.941  16.913  0.2386 -0.1535 -0.2394
  361MPD2    C3 5404   4.318   0.838  16.857  0.4266 -0.0016  0.0377
  361MPD2    C4 5405   4.300   0.802  16.729  0.2772 -0.0905 -0.1962
  361MPD2    C5 5406   4.206   0.868  16.651 -0.1783 -1.4038  0.0018
  361MPD2     H 5407   4.263   0.970  17.017  0.4614 -1.0811 -0.0095
  361MPD2    H1 5408   4.364   0.731  16.679 -0.2123 -0.9206  0.3694
  361MPD2    H2 5409   4.051   1.017  16.638 -0.2101  0.4804  0.2735
  361MPD2    H3 5410   4.190   0.834  16.549 -0.2207  0.4708 -0.6199
  361MPD2     N 5411   4.429   0.766  16.919 -0.2346  0.8931  0.4732
  361MPD2    H5 5412   4.486   0.704  16.863  0.6798  1.1611  1.0998
  361MPD2    N1 5413   4.057   1.092  16.897 -0.3531  0.5051 -0.2079
  361MPD2    H7 5414   4.086   1.119  16.991 -0.1462 -0.9189  0.1356
  362TMC3    C1 5415   3.876   1.241  16.929 -0.1071  0.1811 -0.5398
  362TMC3    C2 5416   3.880   1.237  17.062 -0.3783 -0.3900  0.4383
  362TMC3    C3 5417   3.814   1.336  17.125  0.0028 -0.5126  0.3122
  362TMC3    C4 5418   3.789   1.327  16.859  0.5418  0.0464 -0.1386
  362TMC3    C5 5419   3.729   1.423  16.936 -0.4019 -0.1355 -0.1631
  362TMC3    C6 5420   3.753   1.440  17.065  0.6901 -0.1284  0.0442
  362TMC3     C 5421   3.933   1.137  16.849  1.0574 -0.3076 -0.0785
  362TMC3     O 5422   3.885   1.121  16.736 -0.3260  0.1089 -0.2156
  362TMC3     H 5423   3.918   1.156  17.122 -1.0542  0.2585  1.7285
  362TMC3    H1 5424   3.790   1.319  16.751 -0.2087 -1.5416 -0.0276
  362TMC3    H2 5425   3.709   1.526  17.115  1.5703  0.2317  0.1889
  362TMC3    C7 5426   3.608   1.485  16.889 -0.2126 -0.3152  0.4505
  362TMC3    C8 5427   3.782   1.309  17.264  0.1413  0.5417  0.4979
  362TMC3    O1 5428   3.572   1.596  16.933  0.4293  0.0885  0.4532
  362TMC3    O2 5429   3.872   1.275  17.340  0.5217 -1.0691  0.7479
  363TMC3    C1 5430   2.478   3.479   9.507  0.2778 -0.7577  0.0018
  363TMC3    C2 5431   2.550   3.393   9.584 -0.1817 -0.3876 -0.2481
  363TMC3    C3 5432   2.617   3.442   9.695 -0.2658 -0.6632 -0.2665
  363TMC3    C4 5433   2.458   3.609   9.546  0.1007 -0.0108 -0.5054
  363TMC3    C5 5434   2.525   3.659   9.655  0.8423  0.6528 -1.1902
  363TMC3    C6 5435   2.605   3.579   9.732  0.4048 -0.5903 -0.1460
  363TMC3     C 5436   2.368   3.426   9.427  0.3529  0.2876  0.1588
  363TMC3     O 5437   2.284   3.509   9.397 -0.3273 -0.4411  0.3043
  363TMC3     H 5438   2.563   3.292   9.545  1.1639 -0.4408  0.3206
  363TMC3    H1 5439   2.391   3.677   9.495  0.7198 -0.8177 -2.4067
  363TMC3    H2 5440   2.655   3.618   9.820  0.9809 -0.5370 -0.4969
  363TMC3    C7 5441   2.468   3.776   9.715 -0.5299 -0.0325 -0.1065
  363TMC3    C8 5442   2.653   3.340   9.788 -0.1671 -0.0655 -0.1463
  363TMC3    O1 5443   2.412   3.851   9.637  0.4517 -0.3320 -0.0612
  363TMC3    O2 5444   2.665   3.377   9.907  0.3244 -0.4345 -0.0614
  364MPD2     C 5445   1.176   2.800  10.700  0.2814  0.3141  0.5158
  364MPD2    C1 5446   1.297   2.764  10.647  0.0865  0.2780 -0.5494
  364MPD2    C2 5447   1.343   2.631  10.684  0.1355 -0.6016  0.3731
  364MPD2    C3 5448   1.266   2.535  10.742 -0.3072 -0.5024 -0.8604
  364MPD2    C4 5449   1.139   2.570  10.774 -0.6776  1.1639 -0.0618
  364MPD2    C5 5450   1.094   2.703  10.758  1.0089 -0.0171  0.6210
  364MPD2     H 5451   1.446   2.609  10.656  0.4285  0.6726  0.4591
  364MPD2    H1 5452   1.068   2.505  10.824 -0.6019  0.9258 -0.2619
  364MPD2    H2 5453   1.128   2.894  10.676  0.3551 -0.4150 -2.4250
  364MPD2    H3 5454   0.993   2.731  10.785  1.3036  1.8843 -0.2487
  364MPD2     N 5455   1.310   2.409  10.777  0.0547 -0.0739 -0.3964
  364MPD2    H5 5456   1.265   2.354  10.850  0.5282 -0.9502 -0.7691
  364MPD2    N1 5457   1.378   2.861  10.585 -0.0583 -0.1220 -0.0401
  364MPD2    H7 5458   1.368   2.957  10.618  0.1648 -0.3666  0.7415
  365TMC3    C1 5459   1.582   2.930  10.463  0.1235 -0.5941 -0.6334
  365TMC3    C2 5460   1.673   2.899  10.364 -0.0183 -0.4681 -0.1050
  365TMC3    C3 5461   1.778   2.979  10.338  0.3610  0.0398  0.6035
  365TMC3    C4 5462   1.595   3.042  10.540  0.4647 -0.2539  0.0579
  365TMC3    C5 5463   1.701   3.124  10.508  0.5350 -0.2649  0.2644
  365TMC3    C6 5464   1.791   3.104  10.405 -0.1943  0.4825 -0.4161
  365TMC3     C 5465   1.486   2.827  10.505  0.1606 -1.0837  0.1780
  365TMC3     O 5466   1.507   2.712  10.467 -0.6983 -0.3874 -0.4343
  365TMC3     H 5467   1.644   2.823  10.292  3.4964  1.5920 -3.6722
  365TMC3    H1 5468   1.541   3.054  10.633 -2.1004  0.6103 -1.5278
  365TMC3    H2 5469   1.879   3.163  10.382  1.4980 -0.9711  2.4037
  365TMC3    C7 5470   1.690   3.261  10.556  0.4536  0.4762 -0.4213
  365TMC3    C8 5471   1.904   2.920  10.306 -0.0062 -0.1070  0.4015
  365TMC3    O1 5472   1.709   3.356  10.479 -0.2763 -0.1303 -0.0154
  365TMC3    O2 5473   2.005   2.988  10.300 -0.5070  0.7607 -1.1874
  366MPD2     C 5474   4.478   3.319  15.327 -0.1413  0.0595  0.0181
  366MPD2    C1 5475   4.432   3.443  15.320 -0.5494 -0.1311  0.2052
  366MPD2    C2 5476   4.492   3.538  15.231  0.2939  0.4490  0.2975
  366MPD2    C3 5477   4.592   3.496  15.139  0.0687  0.1127 -0.0878
  366MPD2    C4 5478   4.619   3.364  15.139  0.0845 -0.0771 -0.0913
  366MPD2    C5 5479   4.579   3.278  15.241 -0.4129  0.3902 -0.4321
  366MPD2     H 5480   4.468   3.644  15.231 -0.9548  0.1726 -2.2386
  366MPD2    H1 5481   4.699   3.319  15.082  1.1992  0.8324  0.7575
  366MPD2    H2 5482   4.431   3.248  15.393 -1.7436 -0.7041 -1.9533
  366MPD2    H3 5483   4.604   3.173  15.246  1.3538  0.7128 -2.4324
  366MPD2     N 5484   4.661   3.595  15.073 -0.7061  0.0307  0.4812
  366MPD2    H5 5485   4.634   3.693  15.077 -0.3817  0.0844  1.3879
  366MPD2    N1 5486   4.338   3.498  15.411 -0.1182 -0.1523  0.2127
  366MPD2    H7 5487   4.315   3.596  15.402  0.2606 -0.0106  0.8068
  367TMC3    C1 5488   4.195   3.533  15.598 -0.4829  1.1728  0.9951
  367TMC3    C2 5489   4.250   3.586  15.715  0.1757  0.0076  0.2462
  367TMC3    C3 5490   4.222   3.716  15.746 -0.2346  0.1003 -0.3686
  367TMC3    C4 5491   4.107   3.596  15.522 -0.4624 -0.2305  0.3511
  367TMC3    C5 5492   4.068   3.719  15.571  0.0895 -0.5094  0.7585
  367TMC3    C6 5493   4.122   3.779  15.684 -0.4678  0.1681 -0.0497
  367TMC3     C 5494   4.287   3.442  15.522 -0.7073  0.0208  0.9800
  367TMC3     O 5495   4.298   3.332  15.574 -0.4595  0.3216 -0.1834
  367TMC3     H 5496   4.324   3.529  15.770  0.8399  0.5166 -0.1089
  367TMC3    H1 5497   4.094   3.564  15.419 -0.3103 -0.2003  0.3224
  367TMC3    H2 5498   4.073   3.864  15.731 -1.6456  0.7198 -2.3038
  367TMC3    C7 5499   3.970   3.797  15.499 -0.2115  0.0724 -0.6523
  367TMC3    C8 5500   4.340   3.798  15.736 -0.3029 -0.6799 -0.1211
  367TMC3    O1 5501   3.954   3.911  15.537  0.2945  0.5638 -0.0167
  367TMC3    O2 5502   4.448   3.742  15.728 -0.3376  0.3223  0.0940
  368MPD2     C 5503   0.548   1.618  13.157  0.0256 -0.1730  0.2225
  368MPD2    C1 5504   0.600   1.738  13.191 -0.4648  0.1665  0.4489
  368MPD2    C2 5505   0.741   1.748  13.182  0.2599 -0.1059  0.8025
  368MPD2    C3 5506   0.818   1.642  13.130  0.5559 -0.0807  0.0300
  368MPD2    C4 5507   0.754   1.527  13.097 -0.2614  0.1665  0.1574
  368MPD2    C5 5508   0.620   1.516  13.114 -0.1778  0.0617  0.0054
  368MPD2     H 5509   0.785   1.834  13.230 -2.1980  1.3701  0.4075
  368MPD2    H1 5510   0.805   1.438  13.063  1.1911  0.1816  2.3092
  368MPD2    H2 5511   0.439   1.615  13.156  0.0014  0.8698 -0.1031
  368MPD2    H3 5512   0.572   1.424  13.083  2.3490 -0.8861 -1.0769
  368MPD2     N 5513   0.957   1.652  13.105  0.1917 -0.0588  0.2203
  368MPD2    H5 5514   1.005   1.577  13.056 -1.5601 -0.8859 -0.2168
  368MPD2    N1 5515   0.516   1.838  13.237 -0.3493  0.6367 -0.0938
  368MPD2    H7 5516   0.417   1.820  13.253  0.2007 -1.0887  1.3006
  369TMC3    C1 5517   0.421   2.042  13.225  0.5290  0.6975  0.0128
  369TMC3    C2 5518   0.417   2.100  13.112  1.0097  0.0129 -0.0547
  369TMC3    C3 5519   0.314   2.068  13.027 -0.1628 -0.0430 -0.1213
  369TMC3    C4 5520   0.320   1.964  13.273 -0.7161 -0.4080  0.0901
  369TMC3    C5 5521   0.215   1.940  13.186 -0.2169  0.4045  0.1663
  369TMC3    C6 5522   0.211   1.986  13.058  0.2918 -0.8756 -0.7570
  369TMC3     C 5523   0.545   1.970  13.237  0.4485 -0.9306  0.1360
  369TMC3     O 5524   0.647   2.027  13.194 -0.5689 -0.2306  0.2731
  369TMC3     H 5525   0.502   2.158  13.079  1.3695  0.2018  1.1821
  369TMC3    H1 5526   0.318   1.931  13.376  0.1449 -3.5967 -0.9198
  369TMC3    H2 5527   0.125   1.976  12.993 -0.3609  1.5905 -0.2633
  369TMC3    C7 5528   0.172   1.811  13.207 -0.9340 -0.3972 -0.5543
  369TMC3    C8 5529   0.336   2.080  12.883  0.3932  0.0776  0.5384
  369TMC3    O1 5530   0.228   1.758  13.302 -0.8523 -0.0829  0.2065
  369TMC3    O2 5531   0.243   2.050  12.807 -0.5843  0.2405  0.1555
  370TMC3    C1 5532   0.558   1.559  16.326  0.5540 -0.1364 -0.5516
  370TMC3    C2 5533   0.477   1.496  16.416  0.3500 -0.3749 -0.4770
  370TMC3    C3 5534   0.397   1.394  16.369  0.5934  0.0062 -0.4833
  370TMC3    C4 5535   0.576   1.517  16.198  0.1984  0.3888  0.0725
  370TMC3    C5 5536   0.502   1.409  16.156 -0.8584 -0.6335  0.4212
  370TMC3    C6 5537   0.408   1.348  16.238  0.0422 -0.7903  0.2462
  370TMC3     C 5538   0.624   1.667  16.386  0.2316 -1.0332  0.0178
  370TMC3     O 5539   0.651   1.651  16.507  0.3115  0.4846 -0.2005
  370TMC3     H 5540   0.464   1.558  16.504 -1.1573 -1.6077  0.1515
  370TMC3    H1 5541   0.646   1.563  16.130 -1.1561 -0.0419 -1.6415
  370TMC3    H2 5542   0.345   1.264  16.209 -0.6685 -0.8484  1.9470
  370TMC3    C7 5543   0.558   1.332  16.046  0.2709 -0.6613 -0.3029
  370TMC3    C8 5544   0.314   1.312  16.462 -0.5107  0.9567 -0.2558
  370TMC3    O1 5545   0.621   1.390  15.952  0.0926 -0.1318 -0.3299
  370TMC3    O2 5546   0.276   1.199  16.432 -0.0052  0.4162  0.5324
  371TMC3    C1 5547   1.637   4.412  15.897  0.0416 -0.7623 -0.1866
  371TMC3    C2 5548   1.501   4.389  15.879 -0.6922  0.4448 -0.5535
  371TMC3    C3 5549   1.439   4.504  15.839 -0.0874 -0.3609  0.2582
  371TMC3    C4 5550   1.698   4.536  15.902  0.6648  0.2677 -0.3171
  371TMC3    C5 5551   1.627   4.643  15.865  0.2619 -0.1237 -0.4296
  371TMC3    C6 5552   1.492   4.632  15.841  0.7422 -0.5909  0.4755
  371TMC3     C 5553   1.733   4.301  15.863  0.1310 -0.3375  0.2763
  371TMC3     O 5554   1.839   4.335  15.812 -0.1986  0.3769  0.3468
  371TMC3     H 5555   1.450   4.294  15.869  0.3517  0.0126 -1.7324
  371TMC3    H1 5556   1.804   4.546  15.923  0.3992  1.8996  0.2197
  371TMC3    H2 5557   1.436   4.714  15.798  1.3935 -0.6580 -0.5267
  371TMC3    C7 5558   1.703   4.714  15.762  0.7665  0.1512 -0.1933
  371TMC3    C8 5559   1.298   4.497  15.825  0.1044  0.1098 -0.4788
  371TMC3    O1 5560   1.805   4.662  15.721  0.5400 -0.4120 -0.3541
  371TMC3    O2 5561   1.258   4.389  15.792  0.7051  0.5237  0.4440
  372MPD2     C 5562   1.424   1.099  13.213 -0.3935  0.3013 -0.1559
  372MPD2    C1 5563   1.519   1.118  13.311  0.7707 -0.9270  0.2929
  372MPD2    C2 5564   1.538   1.014  13.403 -0.1223  0.4683 -0.2858
  372MPD2    C3 5565   1.451   0.899  13.399 -0.6059 -0.8065  0.0225
  372MPD2    C4 5566   1.356   0.891  13.297  0.4088  0.6697 -0.0178
  372MPD2    C5 5567   1.340   0.991  13.205 -0.1382 -0.3548  0.0887
  372MPD2     H 5568   1.611   1.015  13.484 -0.1994 -1.3580 -0.1819
  372MPD2    H1 5569   1.294   0.803  13.287  0.5348  0.6022 -0.1973
  372MPD2    H2 5570   1.411   1.163  13.127 -0.5469 -0.4915 -0.7295
  372MPD2    H3 5571   1.268   0.975  13.126  1.3599 -1.0598 -1.1365
  372MPD2     N 5572   1.468   0.789  13.489  0.3147 -0.0861 -0.5611
  372MPD2    H5 5573   1.560   0.787  13.533 -0.5890  0.0882  1.3294
  372MPD2    N1 5574   1.596   1.238  13.321 -0.3682  0.2504 -0.1619
  372MPD2    H7 5575   1.671   1.229  13.389  0.5869  1.1359 -1.1113
  373TMC3    C1 5576   1.418   0.620  13.634 -0.7044 -0.0628  0.1509
  373TMC3    C2 5577   1.368   0.626  13.761  0.5703 -0.2576  0.1913
  373TMC3    C3 5578   1.410   0.534  13.849  0.6698  0.4225  0.5290
  373TMC3    C4 5579   1.505   0.525  13.592  0.2319  0.2017  0.1059
  373TMC3    C5 5580   1.550   0.438  13.689 -0.2027 -0.0207  0.7075
  373TMC3    C6 5581   1.500   0.444  13.817  0.1757 -0.3408  0.5231
  373TMC3     C 5582   1.366   0.721  13.544 -0.5665  0.2831 -0.7043
  373TMC3     O 5583   1.245   0.743  13.550 -0.1317  0.0892  0.2779
  373TMC3     H 5584   1.290   0.694  13.793  0.2687 -0.1686 -0.7123
  373TMC3    H1 5585   1.538   0.519  13.489 -0.3803 -3.1720  0.1270
  373TMC3    H2 5586   1.517   0.362  13.885 -0.3309 -0.7631  0.1463
  373TMC3    C7 5587   1.645   0.342  13.648  0.7604 -0.3025  0.1366
  373TMC3    C8 5588   1.387   0.559  13.986 -0.8666  0.2017  0.3506
  373TMC3    O1 5589   1.675   0.344  13.527  0.3059 -0.4495  0.3698
  373TMC3    O2 5590   1.388   0.456  14.055 -0.0485 -0.0842  0.8581
  374TMC3    C1 5591   1.507   1.077   9.945  0.2163 -0.2501 -0.0149
  374TMC3    C2 5592   1.586   1.186   9.972 -0.2053  0.6032 -0.1196
  374TMC3    C3 5593   1.541   1.306   9.934  0.3188  0.2737  0.0917
  374TMC3    C4 5594   1.389   1.090   9.873 -0.4658  0.2305  0.0456
  374TMC3    C5 5595   1.350   1.211   9.838  0.9283 -0.1347  0.2653
  374TMC3    C6 5596   1.421   1.324   9.870 -0.6394  0.1687  0.6930
  374TMC3     C 5597   1.516   0.966  10.037 -0.1373 -0.1174  0.6409
  374TMC3     O 5598   1.445   0.873  10.010  0.5407 -0.4879 -0.6611
  374TMC3     H 5599   1.686   1.176  10.013  0.5657  0.1376 -2.1402
  374TMC3    H1 5600   1.331   1.002   9.848  0.2899 -0.4806  0.7897
  374TMC3    H2 5601   1.399   1.426   9.840 -3.3980 -0.2317  1.3061
  374TMC3    C7 5602   1.215   1.215   9.777 -0.8302 -0.1263 -0.3653
  374TMC3    C8 5603   1.627   1.425   9.925 -0.6751 -0.0640 -0.0768
  374TMC3    O1 5604   1.157   1.112   9.748 -0.0948  0.3674  0.1984
  374TMC3    O2 5605   1.618   1.507   9.835  0.1636 -0.4816 -0.0584
  375MPD2     C 5606   1.674   1.924  17.083  0.0965 -0.1312  0.2073
  375MPD2    C1 5607   1.575   1.887  16.997  0.1887 -0.0664 -0.6223
  375MPD2    C2 5608   1.597   1.818  16.877 -0.0397 -0.4348  0.0634
  375MPD2    C3 5609   1.724   1.799  16.830  0.5036  0.0126  0.4981
  375MPD2    C4 5610   1.825   1.842  16.906 -0.1097 -0.0852 -0.4013
  375MPD2    C5 5611   1.801   1.907  17.028  1.2122 -0.1972  0.6100
  375MPD2     H 5612   1.509   1.784  16.824 -1.4376  0.5049  1.7774
  375MPD2    H1 5613   1.927   1.827  16.871  0.3593  0.7897  0.5663
  375MPD2    H2 5614   1.659   1.976  17.177  1.3839  1.8911 -0.7038
  375MPD2    H3 5615   1.879   1.949  17.091 -0.2401 -0.0586  2.3212
  375MPD2     N 5616   1.758   1.737  16.709 -0.0016  0.5535 -0.8739
  375MPD2    H5 5617   1.855   1.743  16.680  0.9049 -0.0370  1.9880
  375MPD2    N1 5618   1.440   1.918  17.029 -0.1599 -0.4827  0.3252
  375MPD2    H7 5619   1.374   1.885  16.960 -0.5158  1.3792 -0.2382
  376TMC3    C1 5620   1.735   1.652  16.488 -0.3902  0.5405  0.1318
  376TMC3    C2 5621   1.867   1.656  16.464 -0.4139  0.8401 -0.5175
  376TMC3    C3 5622   1.911   1.642  16.338  0.4888  0.0300 -0.5733
  376TMC3    C4 5623   1.649   1.624  16.382  0.8191 -0.7452  0.3538
  376TMC3    C5 5624   1.701   1.615  16.252 -0.2379  0.3516  0.1104
  376TMC3    C6 5625   1.833   1.616  16.227 -0.8101 -0.2249 -0.4655
  376TMC3     C 5626   1.671   1.684  16.616  0.8397 -0.3020  0.1852
  376TMC3     O 5627   1.547   1.688  16.628 -0.1413  0.1084  0.3317
  376TMC3     H 5628   1.936   1.658  16.547  0.8043 -3.2186 -1.4321
  376TMC3    H1 5629   1.544   1.601  16.396  0.9071 -0.9634  0.6596
  376TMC3    H2 5630   1.873   1.606  16.127 -0.3143 -2.1225 -0.0742
  376TMC3    C7 5631   1.618   1.658  16.141 -0.0907  0.6036 -0.0794
  376TMC3    C8 5632   2.044   1.666  16.304  0.0089 -0.3156  0.5780
  376TMC3    O1 5633   1.677   1.646  16.036  0.1681  0.8487 -0.5272
  376TMC3    O2 5634   2.060   1.748  16.218 -0.7902  0.8639 -0.1024
  377MPD2     C 5635   4.416   1.789  12.675 -0.1569  0.7003  0.0418
  377MPD2    C1 5636   4.452   1.657  12.672 -0.6750  0.2959  0.1893
  377MPD2    C2 5637   4.432   1.574  12.783  0.9651 -0.1129  0.3083
  377MPD2    C3 5638   4.339   1.622  12.881  0.0021  0.3740 -0.1542
  377MPD2    C4 5639   4.294   1.745  12.878  0.0219  0.3291  0.1750
  377MPD2    C5 5640   4.333   1.828  12.780 -0.1086  0.5867 -0.5156
  377MPD2     H 5641   4.475   1.475  12.789  0.0531 -0.4926  0.5405
  377MPD2    H1 5642   4.239   1.790  12.960 -0.8745 -1.1034  0.3766
  377MPD2    H2 5643   4.450   1.867  12.607  1.1754  0.8521  0.9063
  377MPD2    H3 5644   4.295   1.930  12.775  0.3757  0.7630 -0.6137
  377MPD2     N 5645   4.294   1.534  12.977  0.3679  0.4914  0.2605
  377MPD2    H5 5646   4.233   1.580  13.044  2.2376  0.0493  2.2670
  377MPD2    N1 5647   4.538   1.623  12.573  0.5047  0.2348  0.5497
  377MPD2    H7 5648   4.573   1.695  12.511  2.2526 -1.1920 -0.1301
  378TMC3    C1 5649   0.119   1.588  12.299 -0.0184  0.0909 -0.2905
  378TMC3    C2 5650   0.003   1.538  12.355 -0.6931  1.0853  0.2079
  378TMC3    C3 5651   0.001   1.523  12.483  0.1714 -0.4739 -0.2697
  378TMC3    C4 5652   0.231   1.621  12.374 -0.2846 -0.4823 -0.5565
  378TMC3    C5 5653   0.210   1.623  12.506 -0.6662  0.1246  1.0231
  378TMC3    C6 5654   0.099   1.572  12.565  0.3940  0.0048  0.0155
  378TMC3     C 5655   0.126   1.613  12.155 -0.1603  0.2077  0.3191
  378TMC3     O 5656   0.031   1.656  12.091 -0.3267 -0.3021 -0.0344
  378TMC3     H 5657   4.641   1.506  12.290  0.7638 -0.7690 -0.6947
  378TMC3    H1 5658   0.311   1.671  12.320 -0.6354  0.1601 -0.4843
  378TMC3    H2 5659   0.090   1.555  12.671  0.8943 -2.6561 -0.3528
  378TMC3    C7 5660   0.319   1.640  12.597 -0.0238 -0.5198 -0.4253
  378TMC3    C8 5661   4.595   1.499  12.547 -0.7525 -0.2172  0.3894
  378TMC3    O1 5662   0.293   1.665  12.713  0.2773  0.3665  0.4111
  378TMC3    O2 5663   4.582   1.396  12.617 -0.1578 -0.1410 -0.8201
  379MPD2     C 5664   0.753   4.214  16.077 -0.7397 -0.2607  0.4150
  379MPD2    C1 5665   0.657   4.126  16.049 -0.1702 -0.2382 -0.1472
  379MPD2    C2 5666   0.614   4.036  16.149  0.2845  0.0113  0.2087
  379MPD2    C3 5667   0.692   4.026  16.262  0.3071  0.3984 -0.6222
  379MPD2    C4 5668   0.804   4.101  16.275  0.1061  0.3294 -0.1034
  379MPD2    C5 5669   0.827   4.206  16.192  0.3431 -0.6377 -0.3609
  379MPD2     H 5670   0.537   3.965  16.122  0.8029 -0.3711 -0.2737
  379MPD2    H1 5671   0.876   4.090  16.356 -1.4358 -0.9215  1.0876
  379MPD2    H2 5672   0.777   4.284  15.998  0.4745 -2.1382 -0.8802
  379MPD2    H3 5673   0.907   4.279  16.204 -0.5080  0.2012  0.2396
  379MPD2     N 5674   0.677   3.929  16.363  0.7084  0.5265  0.7383
  379MPD2    H5 5675   0.765   3.918  16.412 -0.4077 -1.7116  2.2381
  379MPD2    N1 5676   0.610   4.120  15.920  0.3226 -0.7400  0.6768
  379MPD2    H7 5677   0.674   4.166  15.856 -0.3847 -0.6745  0.0099
  380TMC3    C1 5678   0.444   4.060  15.746 -0.7142 -0.2353  0.5174
  380TMC3    C2 5679   0.540   4.043  15.654  0.5404  0.0131 -0.1057
  380TMC3    C3 5680   0.504   4.061  15.519  0.1592 -0.5543 -0.0377
  380TMC3    C4 5681   0.310   4.075  15.711  0.9711 -0.5672 -1.1655
  380TMC3    C5 5682   0.277   4.078  15.576 -0.3273 -0.0443  0.0652
  380TMC3    C6 5683   0.371   4.076  15.477  0.3624  0.2117  0.2207
  380TMC3     C 5684   0.485   4.059  15.889  0.2882  0.0164  0.9377
  380TMC3     O 5685   0.392   4.036  15.959 -0.5642 -0.0345 -0.2767
  380TMC3     H 5686   0.640   4.007  15.674  0.4508 -0.4238 -0.4392
  380TMC3    H1 5687   0.238   4.104  15.786  0.5634 -0.4276 -1.6085
  380TMC3    H2 5688   0.353   4.071  15.370  0.1491  0.6136  0.2403
  380TMC3    C7 5689   0.142   4.123  15.534  0.0936  0.6303  0.5740
  380TMC3    C8 5690   0.615   4.114  15.442  0.5689  0.3802  0.2292
  380TMC3    O1 5691   0.128   4.194  15.437  0.5870  0.1656 -0.1354
  380TMC3    O2 5692   0.725   4.111  15.497  0.4122 -0.2671  0.2271
  381TMC3    C1 5693   0.300   0.547  16.261  0.6472  0.0333  0.3459
  381TMC3    C2 5694   0.409   0.600  16.326  0.0393  0.0011 -0.9534
  381TMC3    C3 5695   0.400   0.721  16.390  0.7636 -0.0312  0.7533
  381TMC3    C4 5696   0.178   0.612  16.264  0.9502  0.7532  0.3214
  381TMC3    C5 5697   0.169   0.728  16.328 -0.1175  0.2332  0.1974
  381TMC3    C6 5698   0.275   0.790  16.381 -0.5206  0.3207  0.0518
  381TMC3     C 5699   0.324   0.437  16.167 -0.4929 -0.0588  0.6793
  381TMC3     O 5700   0.421   0.367  16.180  0.6881  0.3788  0.1071
  381TMC3     H 5701   0.504   0.550  16.314  0.3141 -0.3766  2.5724
  381TMC3    H1 5702   0.088   0.567  16.225  0.6451  2.8253 -1.3751
  381TMC3    H2 5703   0.264   0.892  16.416  0.2216  0.2154  0.5973
  381TMC3    C7 5704   0.039   0.785  16.343  0.4847  0.1956 -0.1936
  381TMC3    C8 5705   0.515   0.799  16.375 -0.5330  0.0040 -0.2918
  381TMC3    O1 5706   4.670   0.769  16.262 -0.5790  0.0924 -0.2297
  381TMC3    O2 5707   0.591   0.766  16.284 -0.3427 -0.4776  0.1160
  382MPD2     C 5708   4.066   3.636  17.369 -0.1437 -0.1595  0.4065
  382MPD2    C1 5709   4.084   3.646  17.505 -0.1769 -0.3720  1.2109
  382MPD2    C2 5710   3.998   3.589  17.592  0.9450 -0.2633 -0.0856
  382MPD2    C3 5711   3.887   3.526  17.541  0.7620  0.3850 -0.3736
  382MPD2    C4 5712   3.872   3.512  17.404 -0.0944 -0.6858  0.1513
  382MPD2    C5 5713   3.956   3.570  17.316 -0.1491  0.0411 -0.4212
  382MPD2     H 5714   4.020   3.599   0.017  1.3711 -0.2734 -0.1730
  382MPD2    H1 5715   3.780   3.470  17.365  0.0224  0.7966 -1.7284
  382MPD2    H2 5716   4.142   3.675  17.302 -1.8420 -0.8384 -1.9340
  382MPD2    H3 5717   3.936   3.552  17.211 -1.1161 -0.5808 -0.1358
  382MPD2     N 5718   3.783   3.478  17.622  0.0852  0.3709 -0.5919
  382MPD2    H5 5719   3.697   3.446  17.578 -1.2365 -1.0456  2.9583
  382MPD2    N1 5720   4.187   3.724  17.558  0.3635 -0.2103  0.4641
  382MPD2    H7 5721   4.188   3.721  17.660  1.4241  0.7220  0.4764
  383TMC3    C1 5722   3.657   3.423   0.124  0.5563 -0.4533 -0.1066
  383TMC3    C2 5723   3.574   3.347   0.058  0.7296 -0.1529 -0.7973
  383TMC3    C3 5724   3.450   3.337   0.107  0.0487 -0.3527 -0.4290
  383TMC3    C4 5725   3.620   3.482   0.243  0.1867 -0.2190  0.1795
  383TMC3    C5 5726   3.496   3.460   0.297 -0.4858  0.1928  0.1396
  383TMC3    C6 5727   3.402   3.379   0.229 -0.8505 -0.2067 -0.1197
  383TMC3     C 5728   3.788   3.457   0.074  0.3971  0.6622 -0.5641
  383TMC3     O 5729   3.880   3.473   0.156 -0.0442  0.1643 -0.0453
  383TMC3     H 5730   3.601   3.294  17.648 -0.1793 -1.0616 -0.5266
  383TMC3    H1 5731   3.684   3.559   0.285 -4.0828  3.4846  0.0069
  383TMC3    H2 5732   3.303   3.353   0.265 -0.8523  0.1940  0.1716
  383TMC3    C7 5733   3.445   3.553   0.393  0.0881 -0.3324 -0.3883
  383TMC3    C8 5734   3.359   3.256   0.032 -0.7421 -0.5020  1.0192
  383TMC3    O1 5735   3.321   3.567   0.387  0.4105  0.1987 -0.0673
  383TMC3    O2 5736   3.379   3.263  17.591 -0.5024 -0.5019  0.2333
  384MPD2     C 5737   1.672   4.331  12.666 -0.2466  0.1813  0.0045
  384MPD2    C1 5738   1.588   4.408  12.585  0.0068  0.2871  0.2820
  384MPD2    C2 5739   1.585   4.392  12.449 -0.3757  0.3911 -0.5078
  384MPD2    C3 5740   1.650   4.294  12.380 -0.2499 -0.3876  0.0745
  384MPD2    C4 5741   1.734   4.217  12.462 -0.0149  0.7428 -0.1518
  384MPD2    C5 5742   1.745   4.234  12.595  1.0164 -0.7494  0.4771
  384MPD2     H 5743   1.522   4.462  12.395 -0.8661  0.6136  0.3450
  384MPD2    H1 5744   1.793   4.132  12.427 -4.5485 -1.8380 -1.5723
  384MPD2    H2 5745   1.688   4.352  12.771 -1.6470  0.2956  0.1937
  384MPD2    H3 5746   1.808   4.165  12.648 -0.6389 -1.3564  1.6597
  384MPD2     N 5747   1.638   4.291  12.236  0.4582 -0.5193 -0.4026
  384MPD2    H5 5748   1.583   4.364  12.193  1.5162 -0.2927 -1.3935
  384MPD2    N1 5749   1.511   4.515  12.633 -0.5071  0.2451  0.1111
  384MPD2    H7 5750   1.449   4.560  12.566  0.8417  2.0416  0.0694
  385TMC3    C1 5751   1.660   4.225  12.023  1.0353 -0.1707  0.6904
  385TMC3    C2 5752   1.575   4.120  11.983 -0.7240 -0.0386  0.1135
  385TMC3    C3 5753   1.460   4.159  11.918 -0.0012 -0.4702 -0.3982
  385TMC3    C4 5754   1.630   4.354  11.994 -0.0179 -0.1617 -0.7278
  385TMC3    C5 5755   1.505   4.385  11.937 -0.2386  1.0013 -0.6215
  385TMC3    C6 5756   1.415   4.284  11.901  0.2615 -0.4420  0.1016
  385TMC3     C 5757   1.710   4.205  12.161 -0.4065  0.1454 -0.4863
  385TMC3     O 5758   1.766   4.102  12.195 -0.1748 -0.3618 -0.0549
  385TMC3     H 5759   1.581   4.023  12.030  0.3370 -1.1338 -2.2543
  385TMC3    H1 5760   1.694   4.436  12.026 -0.6936 -0.2379  0.8137
  385TMC3    H2 5761   1.320   4.287  11.850  1.5518 -0.4277 -2.2835
  385TMC3    C7 5762   1.442   4.488  12.018 -0.2569  0.1721  0.0757
  385TMC3    C8 5763   1.355   4.068  11.916  0.1248 -0.8765 -0.6652
  385TMC3    O1 5764   1.485   4.502  12.134 -0.4609  0.5280 -0.3572
  385TMC3    O2 5765   1.259   4.098  11.985  0.2444  0.2234  0.4924
  386TMC3    C1 5766   1.286   1.788  11.714 -1.0485  0.0858  0.4811
  386TMC3    C2 5767   1.329   1.760  11.588 -0.1984 -0.4711 -0.6103
  386TMC3    C3 5768   1.247   1.785  11.482  0.4094  0.8300  0.2267
  386TMC3    C4 5769   1.163   1.841  11.730  0.2813  0.9494  0.1541
  386TMC3    C5 5770   1.079   1.874  11.628 -0.6691  0.2913  0.1704
  386TMC3    C6 5771   1.117   1.837  11.499 -0.3694 -0.2087  0.1355
  386TMC3     C 5772   1.362   1.783  11.840 -0.3559 -0.0896 -0.1687
  386TMC3     O 5773   1.311   1.838  11.939  0.3907 -0.0146  0.3987
  386TMC3     H 5774   1.428   1.729  11.555  1.3479  1.9839  1.7197
  386TMC3    H1 5775   1.129   1.865  11.831 -1.7942  0.8144 -0.5066
  386TMC3    H2 5776   1.055   1.867  11.415  1.2831  2.7337 -0.0263
  386TMC3    C7 5777   0.936   1.892  11.657 -0.8188  0.3838 -0.8517
  386TMC3    C8 5778   1.307   1.778  11.343 -0.1972  0.0715  0.1649
  386TMC3    O1 5779   0.909   1.951  11.760  0.2530 -0.3651 -0.2326
  386TMC3    O2 5780   1.227   1.783  11.247 -0.0329  0.2210  0.4791
  387MPD2     C 5781   4.013   2.100   9.918 -0.2083 -0.3672  0.3804
  387MPD2    C1 5782   4.097   2.015   9.986 -0.0347 -0.6480 -0.1339
  387MPD2    C2 5783   4.082   1.878   9.986 -0.2762  0.3672 -0.1760
  387MPD2    C3 5784   3.991   1.816   9.903 -0.0552 -0.4699  0.1815
  387MPD2    C4 5785   3.909   1.901   9.830  0.2647  0.2731  0.0519
  387MPD2    C5 5786   3.918   2.036   9.838  0.1098  0.1468  0.2600
  387MPD2     H 5787   4.154   1.830  10.052 -2.0461  1.0877  2.3060
  387MPD2    H1 5788   3.834   1.860   9.763 -2.7169 -1.2741  4.3381
  387MPD2    H2 5789   4.026   2.207   9.918  1.0313 -0.5052  2.9290
  387MPD2    H3 5790   3.840   2.092   9.787 -0.1930 -1.8084 -1.4422
  387MPD2     N 5791   3.991   1.682   9.895 -0.1946  0.6142 -0.1991
  387MPD2    H5 5792   4.059   1.631   9.951 -0.4225  2.1024  1.4007
  387MPD2    N1 5793   4.203   2.066  10.061 -1.0233  0.0703  0.3119
  387MPD2    H7 5794   4.266   1.997  10.101  0.0956 -0.8081 -2.9894
  388TMC3    C1 5795   4.394   2.196  10.098  0.7131 -0.0214  0.0723
  388TMC3    C2 5796   4.444   2.299  10.158 -0.5313  0.3137  0.3291
  388TMC3    C3 5797   4.576   2.309  10.185 -0.1178  0.6848 -0.3421
  388TMC3    C4 5798   4.473   2.084  10.065 -0.6661  0.2448  0.3050
  388TMC3    C5 5799   4.601   2.087  10.103 -0.3948 -0.2338 -0.1160
  388TMC3    C6 5800   4.659   2.202  10.158 -0.4950 -0.8685 -0.1469
  388TMC3     C 5801   4.257   2.194  10.057  0.3599  0.5200 -0.1678
  388TMC3     O 5802   4.203   2.305  10.039 -0.1500 -1.1274  0.4825
  388TMC3     H 5803   4.379   2.385  10.146 -1.5054 -0.6717 -1.4423
  388TMC3    H1 5804   4.434   2.014   9.991  0.0459  0.1957 -0.0180
  388TMC3    H2 5805   0.046   2.205  10.177 -0.7126  0.0406  0.8937
  388TMC3    C7 5806   4.673   1.965  10.085 -0.1229  0.4840 -0.1395
  388TMC3    C8 5807   4.621   2.440  10.224  0.7216 -0.6519  0.0810
  388TMC3    O1 5808   0.066   1.973  10.036  0.4675 -0.2149  0.1823
  388TMC3    O2 5809   4.536   2.524  10.259  0.4570 -0.4316  0.1547
  389MPD2     C 5810   3.412   0.314  11.083 -0.6390  0.3441  0.3198
  389MPD2    C1 5811   3.300   0.234  11.058 -0.2279  0.4031 -1.0597
  389MPD2    C2 5812   3.240   0.164  11.162  0.0450 -0.4326 -0.3521
  389MPD2    C3 5813   3.287   0.183  11.293 -0.0640  0.0956 -0.8575
  389MPD2    C4 5814   3.392   0.277  11.311  0.4220 -0.6233 -0.1458
  389MPD2    C5 5815   3.465   0.331  11.204 -0.2847  0.0172 -0.9061
  389MPD2     H 5816   3.154   0.103  11.137  0.4470 -1.0012 -0.3385
  389MPD2    H1 5817   3.428   0.296  11.411  0.1298 -0.7414 -0.0184
  389MPD2    H2 5818   3.469   0.355  11.001  0.2828  0.4444  1.0071
  389MPD2    H3 5819   3.555   0.391  11.208  1.3983 -2.5420 -0.1959
  389MPD2     N 5820   3.234   0.126  11.410  0.1987  0.1210  0.2372
  389MPD2    H5 5821   3.266   0.165  11.498 -0.8957  2.9866 -0.6106
  389MPD2    N1 5822   3.258   0.211  10.921 -0.6651 -0.3502  0.0639
  389MPD2    H7 5823   3.320   0.251  10.852 -1.8777 -0.7827 -1.2647
  390TMC3    C1 5824   3.089   4.704  11.536 -0.1995 -0.0275 -0.2122
  390TMC3    C2 5825   3.075   4.569  11.560 -0.8241  0.0371  0.3761
  390TMC3    C3 5826   2.994   4.534  11.665  0.4755  0.6292 -0.1232
  390TMC3    C4 5827   3.035   0.084  11.617  0.1218 -0.6072  0.2312
  390TMC3    C5 5828   2.931   0.053  11.692 -0.4861 -0.5244 -0.0014
  390TMC3    C6 5829   2.926   4.636  11.734  0.6729  0.1246 -0.0742
  390TMC3     C 5830   3.154   0.013  11.410  0.8772 -0.6852  0.1890
  390TMC3     O 5831   3.134   4.651  11.324 -0.4096 -0.2941 -0.3149
  390TMC3     H 5832   3.110   4.497  11.488 -1.9043  0.4081 -0.5238
  390TMC3    H1 5833   3.047   0.190  11.595  0.4687 -0.5952  0.4746
  390TMC3    H2 5834   2.852   4.611  11.809  1.5954 -1.0114  0.4594
  390TMC3    C7 5835   2.816   0.094  11.614 -0.4698 -0.1467  0.3852
  390TMC3    C8 5836   2.904   4.422  11.628 -0.5165 -0.5851  0.7775
  390TMC3    O1 5837   2.846   0.131  11.503  0.2751 -0.3430 -0.0549
  390TMC3    O2 5838   2.885   4.400  11.513 -0.4612  0.1339  0.2617
  391MPD2     C 5839   2.245   1.451  11.411  0.4332  0.3151  0.8142
  391MPD2    C1 5840   2.300   1.561  11.352  0.3866  0.2001 -0.1904
  391MPD2    C2 5841   2.304   1.561  11.216 -0.2326 -0.4426 -0.3307
  391MPD2    C3 5842   2.252   1.462  11.137  0.2747  0.5425  0.1930
  391MPD2    C4 5843   2.186   1.361  11.200 -0.3179  0.1063  0.1501
  391MPD2    C5 5844   2.180   1.354  11.340 -0.1448 -0.6388 -0.4605
  391MPD2     H 5845   2.351   1.643  11.162  1.8131 -0.5543  1.2944
  391MPD2    H1 5846   2.141   1.283  11.140 -1.1589  0.3207  0.5005
  391MPD2    H2 5847   2.240   1.440  11.519 -0.6737 -0.7324  0.6638
  391MPD2    H3 5848   2.143   1.272  11.402  0.5531 -1.3765 -1.0109
  391MPD2     N 5849   2.267   1.474  10.997 -0.2982 -0.6998 -0.2278
  391MPD2    H5 5850   2.334   1.546  10.973 -1.7399  1.1201  1.2145
  391MPD2    N1 5851   2.363   1.663  11.432 -0.6715 -0.0082 -0.1865
  391MPD2    H7 5852   2.370   1.640  11.530  3.0490  1.9670 -0.0185
  392TMC3    C1 5853   2.222   1.466  10.765 -0.6821 -0.2711 -0.1519
  392TMC3    C2 5854   2.122   1.472  10.668 -0.0887  1.1712  0.6011
  392TMC3    C3 5855   2.151   1.521  10.543 -0.6932  0.1756  0.2553
  392TMC3    C4 5856   2.349   1.507  10.730 -0.4318 -0.2254 -0.1558
  392TMC3    C5 5857   2.375   1.554  10.606  0.7280  0.4502 -0.2484
  392TMC3    C6 5858   2.279   1.560  10.508 -0.1994 -0.2498  0.0260
  392TMC3     C 5859   2.192   1.404  10.898  0.2588 -0.1725 -0.3155
  392TMC3     O 5860   2.094   1.333  10.908 -0.5022 -0.0131  0.6965
  392TMC3     H 5861   2.027   1.432  10.702  0.5770 -0.6320  0.3617
  392TMC3    H1 5862   2.430   1.498  10.801 -0.8939  1.3458  0.5918
  392TMC3    H2 5863   2.293   1.611  10.413  0.4904  0.8893  0.7282
  392TMC3    C7 5864   2.505   1.612  10.587  0.3633 -0.6394  0.7280
  392TMC3    C8 5865   2.039   1.509  10.442  0.2023 -1.0657  0.4567
  392TMC3    O1 5866   2.579   1.614  10.685  0.1720 -0.4999  0.2240
  392TMC3    O2 5867   1.942   1.441  10.470  0.8595 -0.0439  0.1034
  393TMC3    C1 5868   1.466   4.404  10.710 -0.3395 -0.3611  0.7487
  393TMC3    C2 5869   1.376   4.417  10.821 -0.1503 -0.1498 -0.1919
  393TMC3    C3 5870   1.361   4.298  10.889 -0.0656 -0.4053  0.0846
  393TMC3    C4 5871   1.533   4.292  10.676  0.1360  0.0037  0.2084
  393TMC3    C5 5872   1.513   4.180  10.745 -0.7079  0.2532 -0.0942
  393TMC3    C6 5873   1.432   4.182  10.859  0.7060  0.2637  0.4129
  393TMC3     C 5874   1.429   4.469  10.583 -0.6063  0.3433 -0.7965
  393TMC3     O 5875   1.423   4.385  10.499  0.3092 -0.0927  0.6677
  393TMC3     H 5876   1.313   4.504  10.836  0.8171  0.3915  0.7399
  393TMC3    H1 5877   1.607   4.290  10.597  0.3174 -2.2722  0.4410
  393TMC3    H2 5878   1.426   4.095  10.924  1.0172 -0.7644 -0.9249
  393TMC3    C7 5879   1.585   4.062  10.697  0.3958 -0.1376  0.1290
  393TMC3    C8 5880   1.281   4.285  11.002 -0.0034 -0.0588  0.5206
  393TMC3    O1 5881   1.526   3.954  10.692 -0.2519  0.1497 -0.0229
  393TMC3    O2 5882   1.261   4.171  11.042 -0.1705  0.1571  0.0687
  394TMC3    C1 5883   3.112   0.174  10.734 -0.8551 -0.6085  0.2781
  394TMC3    C2 5884   2.988   0.177  10.681 -0.1683 -0.5736 -0.2192
  394TMC3    C3 5885   2.987   0.157  10.544 -0.2316 -0.0457 -0.0082
  394TMC3    C4 5886   3.226   0.173  10.661 -0.4231 -0.6034  0.1035
  394TMC3    C5 5887   3.218   0.158  10.531 -0.0498 -0.6267  0.0152
  394TMC3    C6 5888   3.098   0.139  10.477  0.4903 -0.0355 -0.1711
  394TMC3     C 5889   3.128   0.174  10.883  0.2583 -0.5734  0.4081
  394TMC3     O 5890   3.029   0.135  10.946 -0.0966 -0.8516  0.4413
  394TMC3     H 5891   2.892   0.206  10.721 -0.2465 -0.7316 -0.2880
  394TMC3    H1 5892   3.327   0.166  10.701 -0.5143 -0.6165  0.3264
  394TMC3    H2 5893   3.094   0.130  10.369  1.6452 -1.3788 -0.1105
  394TMC3    C7 5894   3.330   0.111  10.454 -0.0978  1.0212  0.5615
  394TMC3    C8 5895   2.859   0.170  10.476  0.0933  0.2372  0.3377
  394TMC3    O1 5896   3.439   0.142  10.498 -0.4519 -0.0061  0.0839
  394TMC3    O2 5897   2.771   0.244  10.519  0.1488 -0.7048  0.2282
  395TMC3    C1 5898   2.783   1.902  14.228 -0.4111 -0.5068 -0.0065
  395TMC3    C2 5899   2.658   1.949  14.245  0.8178  0.5152 -0.3777
  395TMC3    C3 5900   2.637   2.087  14.269  0.1706  0.3686  0.1754
  395TMC3    C4 5901   2.895   1.984  14.221 -0.2435  0.0666 -0.1470
  395TMC3    C5 5902   2.873   2.118  14.251  0.2683 -0.0338  0.0153
  395TMC3    C6 5903   2.749   2.171  14.274 -0.3324  0.3683  0.3393
  395TMC3     C 5904   2.805   1.793  14.318  0.5359  0.7296  0.4634
  395TMC3     O 5905   2.869   1.834  14.412  0.2094  0.8095 -0.1376
  395TMC3     H 5906   2.575   1.880  14.235  0.3307  1.3027 -1.6639
  395TMC3    H1 5907   2.995   1.948  14.244 -1.4214 -1.9821  1.7484
  395TMC3    H2 5908   2.735   2.274  14.303 -3.3710 -0.1361  0.7161
  395TMC3    C7 5909   2.992   2.205  14.284  0.4161  0.3370  0.2456
  395TMC3    C8 5910   2.574   2.096  14.404 -0.2749 -0.5376  0.1437
  395TMC3    O1 5911   3.098   2.142  14.297  0.2984 -0.0128 -0.1374
  395TMC3    O2 5912   2.615   2.184  14.478 -0.2016  0.1022  0.2882
  396MPD2     C 5913   2.458   2.627  17.579 -0.1050 -0.1934 -0.3873
  396MPD2    C1 5914   2.469   2.637  17.438 -0.8719  0.4707  0.4574
  396MPD2    C2 5915   2.482   2.761  17.385 -0.6353 -0.4031 -0.2106
  396MPD2    C3 5916   2.490   2.879  17.456 -0.4022 -0.6503  0.6508
  396MPD2    C4 5917   2.478   2.865  17.593  0.3181  0.6224 -0.3753
  396MPD2    C5 5918   2.456   2.742  17.654  0.0689  0.0748 -0.6825
  396MPD2     H 5919   2.483   2.771  17.277  1.1063  1.8073  0.0162
  396MPD2    H1 5920   2.470   2.952  17.657  0.0068  1.4602 -1.5548
  396MPD2    H2 5921   2.466   2.535  17.635  3.0866  0.6100  0.4586
  396MPD2    H3 5922   2.437   2.737   0.080  1.5223 -0.9459 -0.4769
  396MPD2     N 5923   2.515   3.003  17.385  0.2649 -0.6630  0.2138
  396MPD2    H5 5924   2.489   2.995  17.287 -2.6371  0.9608  0.8506
  396MPD2    N1 5925   2.474   2.507  17.376 -0.0624 -0.4203 -0.2627
  396MPD2    H7 5926   2.480   2.426  17.436 -0.5479 -0.7245 -0.6216
  397TMC3    C1 5927   2.480   2.350  17.200 -0.5451 -0.0901  0.0622
  397TMC3    C2 5928   2.549   2.338  17.083  0.4896  0.2985  0.5788
  397TMC3    C3 5929   2.587   2.212  17.038  0.3018 -0.1235  0.6142
  397TMC3    C4 5930   2.500   2.246  17.294 -0.1996 -0.2594 -0.0805
  397TMC3    C5 5931   2.557   2.129  17.256 -0.8060 -0.0087 -0.2047
  397TMC3    C6 5932   2.583   2.106  17.125 -0.2996 -0.7267  0.1250
  397TMC3     C 5933   2.472   2.486  17.242  0.4679 -0.0588 -1.0077
  397TMC3     O 5934   2.460   2.575  17.159 -0.2041 -0.3415  0.4642
  397TMC3     H 5935   2.541   2.419  17.012  1.0485 -0.1795 -0.0272
  397TMC3    H1 5936   2.445   2.257  17.387 -0.6547 -2.6462 -0.0533
  397TMC3    H2 5937   2.619   2.009  17.095  0.4788 -0.2569 -0.4594
  397TMC3    C7 5938   2.570   2.009  17.341  0.2131 -0.8677  0.3056
  397TMC3    C8 5939   2.581   2.185  16.898 -0.4759 -0.2957  0.1868
  397TMC3    O1 5940   2.580   1.898  17.296  0.2980 -0.2915  0.2550
  397TMC3    O2 5941   2.612   2.276  16.824 -0.0929  0.0227 -0.2144
  398MPD2     C 5942   0.678   3.763   0.046 -0.8082 -0.0572 -0.0364
  398MPD2    C1 5943   0.742   3.683   0.145  0.4314 -0.5713 -0.4979
  398MPD2    C2 5944   0.874   3.667   0.150  0.0893  0.2028 -0.1682
  398MPD2    C3 5945   0.964   3.718   0.052  0.0324  0.6828  0.1632
  398MPD2    C4 5946   0.902   3.803  17.641 -0.1736 -0.5076 -0.4265
  398MPD2    C5 5947   0.763   3.821  17.635  0.0848 -0.1444 -0.0103
  398MPD2     H 5948   0.915   3.618   0.237  0.6968 -0.6896 -0.9518
  398MPD2    H1 5949   0.964   3.846  17.563 -0.4718 -1.0499 -0.9690
  398MPD2    H2 5950   0.571   3.775   0.038 -0.6564  1.9368  0.7274
  398MPD2    H3 5951   0.715   3.873  17.553 -1.0936 -3.3299 -1.3362
  398MPD2     N 5952   1.099   3.695   0.060 -0.3255 -0.0817 -0.2000
  398MPD2    H5 5953   1.126   3.641   0.142  0.7704 -0.3997 -0.7867
  398MPD2    N1 5954   0.664   3.616   0.248  0.6218  0.3800  0.5501
  398MPD2    H7 5955   0.721   3.573   0.320 -1.8619 -2.7609  0.6179
  399TMC3    C1 5956   0.490   3.491   0.337  0.5451  0.2982 -0.0713
  399TMC3    C2 5957   0.584   3.427   0.415  0.1855 -0.4244  0.0745
  399TMC3    C3 5958   0.565   3.297   0.458 -0.3008  0.0452 -1.0414
  399TMC3    C4 5959   0.380   3.429   0.299  0.9336 -0.4453 -0.1807
  399TMC3    C5 5960   0.354   3.307   0.347 -0.8546 -0.2439 -0.4145
  399TMC3    C6 5961   0.450   3.232   0.412 -0.6630  0.1070 -0.0502
  399TMC3     C 5962   0.538   3.587   0.236 -0.1830 -0.3734  0.5988
  399TMC3     O 5963   0.457   3.615   0.147 -0.3591 -0.8708 -0.1635
  399TMC3     H 5964   0.674   3.478   0.448 -0.1627  0.2253  0.0187
  399TMC3    H1 5965   0.308   3.482   0.238 -0.5511  0.3168  2.2651
  399TMC3    H2 5966   0.429   3.128   0.436  0.4876 -0.0667  0.2477
  399TMC3    C7 5967   0.244   3.224   0.296  0.4175  0.2606 -0.5467
  399TMC3    C8 5968   0.692   3.230   0.475 -0.2934 -0.1835  0.2385
  399TMC3    O1 5969   0.265   3.101   0.276 -0.2993  0.3032 -0.2523
  399TMC3    O2 5970   0.795   3.292   0.455  0.1164  0.6028 -0.5637
  400TMC3    C1 5971   3.819   2.417  17.219  1.1034  0.8029 -0.3887
  400TMC3    C2 5972   3.747   2.420  17.104  0.7332  0.2246 -0.6274
  400TMC3    C3 5973   3.759   2.527  17.026 -1.4779 -0.1956  0.2861
  400TMC3    C4 5974   3.904   2.518  17.249 -0.4101 -0.3343  0.3055
  400TMC3    C5 5975   3.917   2.621  17.167  0.0556  0.1164  0.5755
  400TMC3    C6 5976   3.833   2.637  17.057 -0.1475 -0.7301 -0.4656
  400TMC3     C 5977   3.891   2.291  17.216 -0.3962  0.0821  0.5514
  400TMC3     O 5978   3.902   2.234  17.105  0.5732  0.5342  0.7216
  400TMC3     H 5979   3.698   2.333  17.063  0.0247 -0.0149  0.7251
  400TMC3    H1 5980   3.966   2.520  17.338 -1.7686  0.2592  1.2414
  400TMC3    H2 5981   3.845   2.713  16.981 -0.8345  2.8928  3.0512
  400TMC3    C7 5982   3.967   2.742  17.230  0.2062 -0.7424  0.8672
  400TMC3    C8 5983   3.734   2.509  16.885 -0.1227  0.5713  0.1525
  400TMC3    O1 5984   4.051   2.739  17.318  0.0549  0.1668 -0.6133
  400TMC3    O2 5985   3.821   2.546  16.810 -0.3540  0.8810 -0.9798
  401MPD2     C 5986   1.920   1.242   0.715  0.3795  0.3665  0.2891
  401MPD2    C1 5987   1.914   1.169   0.836  0.0352 -0.1765  0.5673
  401MPD2    C2 5988   1.823   1.070   0.849  0.5398 -0.1643 -0.3591
  401MPD2    C3 5989   1.747   1.034   0.737  0.0341  0.5651 -0.2602
  401MPD2    C4 5990   1.768   1.097   0.613  0.0480 -0.5319 -0.0999
  401MPD2    C5 5991   1.851   1.208   0.602  0.3538 -0.6601  0.8986
  401MPD2     H 5992   1.815   1.017   0.944  1.5901  1.0062  0.3786
  401MPD2    H1 5993   1.719   1.051   0.528 -1.8555 -1.2297  1.3801
  401MPD2    H2 5994   2.005   1.306   0.695  0.5969 -0.1602 -0.4744
  401MPD2    H3 5995   1.880   1.252   0.507  1.4863  0.7045  1.8580
  401MPD2     N 5996   1.667   0.917   0.752  0.2496 -0.9746 -0.7299
  401MPD2    H5 5997   1.658   0.877   0.845  0.7080 -1.4462 -0.8875
  401MPD2    N1 5998   1.998   1.194   0.946  0.0261  1.0438  0.8298
  401MPD2    H7 5999   1.997   1.123   1.019  0.4507 -0.9980 -1.1362
  402TMC3    C1 6000   1.545   0.726   0.687  0.2547 -0.4498 -0.3026
  402TMC3    C2 6001   1.517   0.703   0.817 -0.2638  0.3460  0.4262
  402TMC3    C3 6002   1.450   0.583   0.852  0.4403  0.0742 -1.2035
  402TMC3    C4 6003   1.502   0.642   0.588 -0.1237  0.5156 -0.4986
  402TMC3    C5 6004   1.442   0.525   0.625 -0.4726 -0.2857 -0.2135
  402TMC3    C6 6005   1.417   0.490   0.757 -0.0143 -0.8155 -0.2631
  402TMC3     C 6006   1.610   0.845   0.646 -0.5554 -0.1502  0.6823
  402TMC3     O 6007   1.625   0.855   0.522  0.1171 -0.1677 -0.4175
  402TMC3     H 6008   1.541   0.771   0.898 -1.4145 -1.3812  2.2364
  402TMC3    H1 6009   1.535   0.656   0.485  0.5626 -2.9358 -0.7472
  402TMC3    H2 6010   1.354   0.405   0.785  0.6297 -1.3472 -0.4256
  402TMC3    C7 6011   1.395   0.447   0.510 -0.7435 -0.3686  0.4954
  402TMC3    C8 6012   1.512   0.523   0.971  0.2962  0.8113  0.0810
  402TMC3    O1 6013   1.368   0.513   0.414  0.3102  0.4602 -0.0529
  402TMC3    O2 6014   1.553   0.405   0.960  0.4188  0.1595 -0.0282
  403MPD2     C 6015   0.956   4.449  13.648  0.3622  0.2282 -0.6288
  403MPD2    C1 6016   0.971   4.316  13.670  0.2094  0.0839 -0.3417
  403MPD2    C2 6017   1.099   4.268  13.693  0.7952 -0.3357  0.1901
  403MPD2    C3 6018   1.209   4.354  13.675  0.4655  0.0727 -0.2688
  403MPD2    C4 6019   1.191   4.491  13.653 -0.2512  0.0461 -0.0322
  403MPD2    C5 6020   1.063   4.534  13.634 -0.7042 -0.1331 -0.3190
  403MPD2     H 6021   1.122   4.164  13.711  1.3632  0.4352  3.8875
  403MPD2    H1 6022   1.272   4.560  13.632 -0.7868  0.3672 -1.0138
  403MPD2    H2 6023   0.861   4.488  13.614  0.7382  1.1459 -0.6314
  403MPD2    H3 6024   1.043   4.626  13.582 -0.5651 -0.4458 -0.9290
  403MPD2     N 6025   1.342   4.302  13.687 -0.3334 -0.0319  0.3376
  403MPD2    H5 6026   1.349   4.205  13.716  3.5522 -0.0975 -0.8311
  403MPD2    N1 6027   0.860   4.233  13.667 -0.3087 -0.8813 -0.0114
  403MPD2    H7 6028   0.772   4.269  13.632  0.2038  0.2634 -0.1367
  404TMC3    C1 6029   0.736   4.036  13.642 -0.4955 -0.3059  0.3307
  404TMC3    C2 6030   0.703   3.920  13.699  0.4416  0.6551 -0.1053
  404TMC3    C3 6031   0.661   3.817  13.619 -0.5885 -0.5962 -0.2455
  404TMC3    C4 6032   0.717   4.058  13.508  0.1354 -0.7004  0.1072
  404TMC3    C5 6033   0.674   3.952  13.433 -0.9320 -0.2562 -0.4579
  404TMC3    C6 6034   0.641   3.828  13.483  0.0583  0.0541  0.2861
  404TMC3     C 6035   0.856   4.098  13.698  0.5710  0.0868  0.2440
  404TMC3     O 6036   0.948   4.020  13.724 -0.6208 -0.1694 -0.2924
  404TMC3     H 6037   0.734   3.901  13.802  1.9754  1.1344 -0.4704
  404TMC3    H1 6038   0.749   4.152  13.465  2.4476 -1.2730  0.6130
  404TMC3    H2 6039   0.596   3.748  13.425  3.6582 -2.8778  1.5047
  404TMC3    C7 6040   0.716   3.958  13.301 -0.7053 -0.2442  0.3552
  404TMC3    C8 6041   0.656   3.687  13.679  0.4117  0.4402  0.9704
  404TMC3    O1 6042   0.786   4.052  13.263  0.3456 -0.6565 -0.1409
  404TMC3    O2 6043   0.689   3.599  13.606  0.5198 -0.1089 -0.3004
  405MPD2     C 6044   1.423   4.696  14.704 -0.0157  0.5729  0.5659
  405MPD2    C1 6045   1.348   4.580  14.683 -0.3668  0.2109  0.4432
  405MPD2    C2 6046   1.239   4.591  14.596  0.4763  0.2119 -0.0203
  405MPD2    C3 6047   1.228   4.700  14.518  0.0488 -0.1447  0.2245
  405MPD2    C4 6048   1.319   0.083  14.535 -0.3605 -0.4035  0.0961
  405MPD2    C5 6049   1.415   0.086  14.627 -0.3576  0.5063  0.2590
  405MPD2     H 6050   1.177   4.507  14.569 -0.0831  0.6122  0.0204
  405MPD2    H1 6051   1.318   0.167  14.466 -0.0149  0.5021  1.2083
  405MPD2    H2 6052   1.500   4.704  14.780  1.2372 -0.0657 -0.6431
  405MPD2    H3 6053   1.487   0.166  14.644  0.2751 -0.3761  1.7102
  405MPD2     N 6054   1.137   4.700  14.413 -0.0929  0.3192  0.3314
  405MPD2    H5 6055   1.077   4.618  14.414  0.6522 -0.2207  0.2075
  405MPD2    N1 6056   1.386   4.453  14.742  0.0321  0.1791  0.2585
  405MPD2    H7 6057   1.453   4.439  14.817  1.6382 -0.6438 -1.3356
  406TMC3    C1 6058   0.766   0.124  14.247 -0.9504 -0.3228 -0.3178
  406TMC3    C2 6059   0.715   4.714  14.252  0.0901 -0.2056  0.6359
  406TMC3    C3 6060   0.816   4.614  14.246 -0.5018 -0.0649  0.4761
  406TMC3    C4 6061   0.898   0.157  14.250  0.2490  0.3030 -0.1926
  406TMC3    C5 6062   0.993   0.056  14.249 -0.8226  0.3795 -0.0391
  406TMC3    C6 6063   0.949   4.646  14.252 -0.2402 -0.3824  0.3340
  406TMC3     C 6064   0.667   0.231  14.241  0.0932 -0.3608 -0.1224
  406TMC3     O 6065   0.692   0.330  14.173 -0.1839  0.4564 -0.2952
  406TMC3     H 6066   0.610   4.689  14.250  0.2725 -0.9216  0.1635
  406TMC3    H1 6067   0.929   0.260  14.263  0.7669  0.0384  0.6403
  406TMC3    H2 6068   1.026   4.569  14.243  0.1204 -0.1822  1.7035
  406TMC3    C7 6069   1.115   0.086  14.321  0.5369 -0.6167  0.3675
  406TMC3    C8 6070   0.776   4.479  14.274  0.3549  0.3218 -0.2709
  406TMC3    O1 6071   1.158   0.200  14.327  0.5517 -0.0874  0.1023
  406TMC3    O2 6072   0.657   4.454  14.265 -0.1108 -0.5774 -0.0325
  407MPD2     C 6073   3.354   1.287   9.443  0.0224 -0.1358 -0.1885
  407MPD2    C1 6074   3.475   1.266   9.508  0.4674 -0.0586 -0.1233
  407MPD2    C2 6075   3.500   1.328   9.632  0.3574 -0.4221 -0.6357
  407MPD2    C3 6076   3.411   1.414   9.688  1.4502  1.0613 -0.4381
  407MPD2    C4 6077   3.300   1.438   9.619 -0.1371 -0.4792  0.6990
  407MPD2    C5 6078   3.265   1.374   9.501 -0.4595 -0.2914 -0.8133
  407MPD2     H 6079   3.590   1.301   9.687  0.0600  2.2447  1.1594
  407MPD2    H1 6080   3.230   1.516   9.648  2.3256  1.1520  2.2206
  407MPD2    H2 6081   3.330   1.244   9.346 -0.8888 -0.9524  0.3981
  407MPD2    H3 6082   3.180   1.408   9.443  0.5756  1.3414 -1.3605
  407MPD2     N 6083   3.433   1.490   9.804 -0.2961  0.0668  0.4444
  407MPD2    H5 6084   3.374   1.568   9.833 -1.4801  1.1876 -4.8055
  407MPD2    N1 6085   3.582   1.200   9.449 -0.9365 -0.3701 -0.0570
  407MPD2    H7 6086   3.668   1.197   9.502 -0.4041 -2.3274 -1.0162
  408TMC3    C1 6087   3.731   1.118   9.293 -0.4044 -0.6234  0.4556
  408TMC3    C2 6088   3.807   1.234   9.306  0.5117 -0.1643 -0.2496
  408TMC3    C3 6089   3.940   1.219   9.318  0.3637  0.1286 -0.3246
  408TMC3    C4 6090   3.783   0.999   9.271  0.0042  0.7678  0.3472
  408TMC3    C5 6091   3.919   0.986   9.277 -0.3990  0.1907  0.8865
  408TMC3    C6 6092   3.995   1.093   9.302  0.3263 -0.2823 -0.6437
  408TMC3     C 6093   3.591   1.141   9.326 -0.2117  0.1879 -0.9224
  408TMC3     O 6094   3.507   1.088   9.252 -0.3519 -0.3903  0.0533
  408TMC3     H 6095   3.759   1.332   9.305  0.2778 -0.2378  3.9051
  408TMC3    H1 6096   3.719   0.912   9.267  1.0678  0.0091 -0.4817
  408TMC3    H2 6097   4.102   1.084   9.312 -0.0876 -0.1411  3.8808
  408TMC3    C7 6098   3.994   0.858   9.277 -0.4406 -0.0426  0.6821
  408TMC3    C8 6099   4.009   1.338   9.368 -0.1004 -0.5655  0.1781
  408TMC3    O1 6100   4.117   0.866   9.272  0.0876 -0.0549 -0.1049
  408TMC3    O2 6101   3.947   1.443   9.377 -0.1460  0.2938 -0.4649
  409MPD2     C 6102   2.895   2.080  16.945 -0.0193 -0.2746 -0.0887
  409MPD2    C1 6103   2.947   2.106  17.067 -0.0610  0.0979  0.3028
  409MPD2    C2 6104   3.005   2.228  17.095  0.0122 -0.4690  0.2296
  409MPD2    C3 6105   3.021   2.319  16.991 -0.3177  0.1200 -0.3362
  409MPD2    C4 6106   2.978   2.297  16.866  0.1213 -0.0650 -0.4167
  409MPD2    C5 6107   2.918   2.174  16.845 -0.2745  0.2725 -0.3759
  409MPD2     H 6108   3.036   2.254  17.195  1.9887  0.8486 -0.7122
  409MPD2    H1 6109   2.991   2.363  16.781 -0.7341 -1.0866 -1.3403
  409MPD2    H2 6110   2.828   1.996  16.931 -1.3692  0.7110  0.3213
  409MPD2    H3 6111   2.875   2.163  16.746 -1.4432  0.7643  0.0700
  409MPD2     N 6112   3.094   2.433  17.007 -0.1476 -0.5489 -0.1810
  409MPD2    H5 6113   3.090   2.496  16.928  3.0109 -0.7078 -0.4838
  409MPD2    N1 6114   2.949   2.019  17.181  0.5924 -0.5577 -0.2018
  409MPD2    H7 6115   2.981   2.052  17.271 -2.4384 -0.0261  0.6861
  410TMC3    C1 6116   3.206   2.620  17.112 -0.0728  0.0402  0.2340
  410TMC3    C2 6117   3.199   2.695  17.231  0.2367  0.4071  0.3152
  410TMC3    C3 6118   3.269   2.809  17.226  0.5432 -0.1590  0.5026
  410TMC3    C4 6119   3.292   2.648  17.009 -0.3027 -0.0878 -0.1840
  410TMC3    C5 6120   3.365   2.764  17.010  0.1783 -0.9233  0.8056
  410TMC3    C6 6121   3.351   2.843  17.124 -0.0491 -0.0607 -0.2372
  410TMC3     C 6122   3.158   2.482  17.121 -0.4907  0.0178 -0.7021
  410TMC3     O 6123   3.141   2.445  17.236  0.6680  0.2042 -0.4798
  410TMC3     H 6124   3.126   2.663  17.305 -0.3072 -0.0275 -0.3952
  410TMC3    H1 6125   3.293   2.578  16.926 -0.2686  0.9704 -1.0785
  410TMC3    H2 6126   3.410   2.933  17.124  0.9157 -0.7102 -2.8479
  410TMC3    C7 6127   3.480   2.792  16.921  0.2606  0.1783  0.4673
  410TMC3    C8 6128   3.282   2.888  17.336  0.1923  0.2836  1.0360
  410TMC3    O1 6129   3.570   2.860  16.971 -0.0991  0.2957  0.2173
  410TMC3    O2 6130   3.343   2.993  17.328 -0.2743  0.1051  0.1165
  411MPD2     C 6131   3.383   3.091  14.615 -0.1196  0.5053 -0.1951
  411MPD2    C1 6132   3.325   3.169  14.518 -0.6175  0.0152 -0.5106
  411MPD2    C2 6133   3.304   3.123  14.390  0.1746 -0.3066 -0.1695
  411MPD2    C3 6134   3.347   2.995  14.357  0.4352 -0.0105  0.2978
  411MPD2    C4 6135   3.425   2.924  14.447  0.1155  0.0758  0.9290
  411MPD2    C5 6136   3.440   2.975  14.573 -0.2719  0.2057 -0.8278
  411MPD2     H 6137   3.249   3.183  14.318  0.1676 -2.2111 -1.7403
  411MPD2    H1 6138   3.455   2.822  14.428  0.4807  0.4336 -0.4260
  411MPD2    H2 6139   3.400   3.116  14.719  1.0778  1.4032 -0.6057
  411MPD2    H3 6140   3.493   2.911  14.643  0.0440 -0.1210 -1.3733
  411MPD2     N 6141   3.323   2.936  14.229 -0.1556 -0.1303  0.5376
  411MPD2    H5 6142   3.354   2.841  14.214 -1.4096 -0.2615 -1.1674
  411MPD2    N1 6143   3.278   3.295  14.553  0.1277  0.5626 -0.4333
  411MPD2    H7 6144   3.276   3.312  14.653 -2.1146 -0.1957 -0.3509
  412TMC3    C1 6145   3.233   2.907  14.007  0.2534  0.1747 -0.7642
  412TMC3    C2 6146   3.258   2.772  14.013 -0.6035 -0.0088 -0.1183
  412TMC3    C3 6147   3.247   2.696  13.901  0.2465  0.1756  0.4422
  412TMC3    C4 6148   3.186   2.957  13.889 -0.5010  0.5765 -0.0370
  412TMC3    C5 6149   3.184   2.877  13.776  0.4704 -0.0628  0.2165
  412TMC3    C6 6150   3.223   2.751  13.776 -0.2418  0.1421 -0.4055
  412TMC3     C 6151   3.267   2.994  14.115  0.4375 -0.7260  0.1225
  412TMC3     O 6152   3.251   3.117  14.098  0.0964  0.2630  0.3255
  412TMC3     H 6153   3.294   2.719  14.100 -2.2251 -0.8921  0.0114
  412TMC3    H1 6154   3.167   3.064  13.888 -0.0467  0.6592  0.4133
  412TMC3    H2 6155   3.221   2.679  13.695 -0.7322  1.2449 -1.3774
  412TMC3    C7 6156   3.063   2.897  13.688  0.3346  0.1747  0.5054
  412TMC3    C8 6157   3.158   2.587  13.932 -0.4052 -0.0109  0.2938
  412TMC3    O1 6158   3.056   2.827  13.590 -0.5022 -0.0928  0.9915
  412TMC3    O2 6159   3.054   2.613  13.992  0.1809 -0.0283  0.0636
  413MPD2     C 6160   4.718   0.855  15.835  0.0384 -0.1494  0.1749
  413MPD2    C1 6161   4.696   0.793  15.718  0.2624 -0.4120 -0.2964
  413MPD2    C2 6162   0.086   0.718  15.658  0.0081  0.3856  0.5768
  413MPD2    C3 6163   0.211   0.722  15.719 -0.7148  0.9045  0.5725
  413MPD2    C4 6164   0.222   0.784  15.834 -0.5781 -0.2581  0.3542
  413MPD2    C5 6165   0.119   0.848  15.897  0.3598  0.1291  0.0885
  413MPD2     H 6166   0.060   0.652  15.576  1.4247  1.4492 -0.7532
  413MPD2    H1 6167   0.316   0.774  15.886  0.1666  0.0770 -0.9271
  413MPD2    H2 6168   4.642   0.907  15.892 -1.4016 -1.4235 -0.6045
  413MPD2    H3 6169   0.136   0.899  15.991  1.3855 -0.3647  0.1692
  413MPD2     N 6170   0.319   0.647  15.677  0.0751 -0.1973  0.6065
  413MPD2    H5 6171   0.401   0.637  15.736  1.9662 -1.5068 -2.1993
  413MPD2    N1 6172   4.566   0.794  15.670 -0.4590 -0.2335 -0.2611
  413MPD2    H7 6173   4.503   0.837  15.737  0.5525  1.3761 -0.3686
  414TMC3    C1 6174   0.424   0.507  15.514 -0.2264  0.2568  0.3813
  414TMC3    C2 6175   0.466   0.408  15.596 -0.0938 -0.7492  0.3598
  414TMC3    C3 6176   0.522   0.293  15.543 -0.3313  0.2366 -0.6894
  414TMC3    C4 6177   0.447   0.506  15.382 -0.2461 -0.3087  0.2830
  414TMC3    C5 6178   0.522   0.404  15.336 -0.0559  0.1838  0.3173
  414TMC3    C6 6179   0.542   0.291  15.406  0.2941  0.9790  0.3799
  414TMC3     C 6180   0.325   0.607  15.543  0.9370 -0.5156  0.0777
  414TMC3     O 6181   0.254   0.642  15.449  0.2535  0.5966 -0.1897
  414TMC3     H 6182   0.446   0.409  15.703 -2.1546  1.6296 -0.0524
  414TMC3    H1 6183   0.429   0.600  15.330  0.1796 -0.9313 -0.9851
  414TMC3    H2 6184   0.615   0.224  15.362 -0.0959  1.7881 -1.5215
  414TMC3    C7 6185   0.638   0.444  15.262  0.4741  0.1420 -0.2333
  414TMC3    C8 6186   0.635   0.230  15.612 -0.4129  0.6750  0.3402
  414TMC3    O1 6187   0.741   0.401  15.309 -0.7571  0.4759  0.7160
  414TMC3    O2 6188   0.647   0.112  15.593 -0.6767  0.6362  0.0318
  415TMC3    C1 6189   0.923   3.051  10.082 -0.6829 -0.2784  0.7631
  415TMC3    C2 6190   1.025   3.070   9.992 -0.3739  0.6358 -0.7753
  415TMC3    C3 6191   1.014   2.998   9.875 -0.5643 -0.0800  0.3976
  415TMC3    C4 6192   0.825   2.953  10.062 -0.2299  0.7475 -0.2217
  415TMC3    C5 6193   0.841   2.871   9.957 -0.1542  0.4280 -0.5775
  415TMC3    C6 6194   0.945   2.880   9.871 -0.5415 -0.2840  0.0235
  415TMC3     C 6195   0.964   3.066  10.222  0.4728 -0.3672 -0.6598
  415TMC3     O 6196   0.904   2.997  10.307 -0.3580  0.4221 -0.7277
  415TMC3     H 6197   1.079   3.164   9.990 -1.4660  1.2332 -1.9372
  415TMC3    H1 6198   0.746   2.957  10.136  0.5357 -1.6100  0.7415
  415TMC3    H2 6199   0.955   2.813   9.787  0.9544 -0.5869  0.4550
  415TMC3    C7 6200   0.776   2.738   9.957  0.1231  0.1591 -0.0619
  415TMC3    C8 6201   1.102   3.029   9.755 -0.2017 -0.2665  0.9031
  415TMC3    O1 6202   0.779   2.674   9.853 -0.0154 -0.1837 -0.3770
  415TMC3    O2 6203   1.069   2.959   9.663 -0.4234  0.5395  0.6488
  416MPD2     C 6204   2.953   2.843  11.412  0.2138 -0.6029 -0.5018
  416MPD2    C1 6205   2.836   2.805  11.361 -0.2848 -0.3146  0.4808
  416MPD2    C2 6206   2.835   2.709  11.256 -0.4615 -0.9919 -0.5551
  416MPD2    C3 6207   2.947   2.652  11.213  0.1867 -0.0559  0.0679
  416MPD2    C4 6208   3.064   2.689  11.278  0.0166 -0.6005  0.9568
  416MPD2    C5 6209   3.072   2.788  11.374 -0.9689  0.5937 -0.1972
  416MPD2     H 6210   2.742   2.689  11.204 -1.0928  0.3518  0.0639
  416MPD2    H1 6211   3.155   2.641  11.243  0.1707 -0.6186  1.3824
  416MPD2    H2 6212   2.955   2.922  11.485  1.6786 -1.4544  0.3793
  416MPD2    H3 6213   3.169   2.820  11.412 -0.9617 -0.6094  0.7955
  416MPD2     N 6214   2.942   2.568  11.102 -0.7958 -0.0943  0.0352
  416MPD2    H5 6215   3.028   2.537  11.059  0.7067  0.3525  2.6903
  416MPD2    N1 6216   2.718   2.865  11.412 -0.2935  0.0244  0.3893
  416MPD2    H7 6217   2.722   2.950  11.467 -0.5044 -0.0444  0.5119
  417TMC3    C1 6218   2.496   2.889  11.475  0.0545 -0.2676  0.6265
  417TMC3    C2 6219   2.527   2.914  11.610  0.4789  0.0815  0.1239
  417TMC3    C3 6220   2.420   2.938  11.692  0.0343 -0.0690 -0.9353
  417TMC3    C4 6221   2.365   2.886  11.426  0.5195  0.7052  0.7314
  417TMC3    C5 6222   2.263   2.931  11.513 -0.0655 -0.3144  0.1697
  417TMC3    C6 6223   2.293   2.948  11.645 -0.1926 -0.3582 -0.4761
  417TMC3     C 6224   2.590   2.812  11.404 -0.9023 -0.1717  0.0375
  417TMC3     O 6225   2.538   2.730  11.334  0.3933  0.4292  0.2749
  417TMC3     H 6226   2.624   2.891  11.652  1.0603 -0.9948 -1.8192
  417TMC3    H1 6227   2.355   2.877  11.318  0.5091  1.1607  0.6957
  417TMC3    H2 6228   2.218   2.957  11.722 -0.3250  3.4033 -1.0648
  417TMC3    C7 6229   2.143   2.991  11.443  0.0698  0.3480 -0.3350
  417TMC3    C8 6230   2.447   3.009  11.822  0.0816 -0.1075  0.5726
  417TMC3    O1 6231   2.149   3.018  11.323  0.5145 -0.0586  0.3090
  417TMC3    O2 6232   2.352   3.033  11.896 -0.2861  0.4935 -0.1697
  418TMC3    C1 6233   1.415   3.438  17.588  0.1203 -0.3313 -0.3525
  418TMC3    C2 6234   1.348   3.552  17.549 -0.3741 -0.6411 -0.1428
  418TMC3    C3 6235   1.308   3.628  17.654 -0.5733  0.6047 -1.0442
  418TMC3    C4 6236   1.453   3.405   0.038 -0.5893 -0.0508 -0.1531
  418TMC3    C5 6237   1.415   3.499   0.137 -0.2309 -0.2546  0.3230
  418TMC3    C6 6238   1.349   3.613   0.106 -0.7938 -0.0996 -0.3198
  418TMC3     C 6239   1.484   3.363  17.485  0.5544 -0.1286  0.8531
  418TMC3     O 6240   1.474   3.388  17.368 -0.2659  0.3309  0.2553
  418TMC3     H 6241   1.337   3.577  17.444 -2.4889 -0.6424  0.0763
  418TMC3    H1 6242   1.524   3.327   0.062 -0.7920 -0.2195 -0.1045
  418TMC3    H2 6243   1.312   3.684   0.180 -0.9764  0.4765 -0.9632
  418TMC3    C7 6244   1.405   3.441   0.270 -0.3021  0.1659 -0.1349
  418TMC3    C8 6245   1.185   3.703  17.628 -0.1437  0.0048  0.4554
  418TMC3    O1 6246   1.376   3.320   0.269  0.0304 -0.0799 -0.1122
  418TMC3    O2 6247   1.159   3.728  17.511  0.3712 -0.5040 -0.4380
  419MPD2     C 6248   4.651   2.390  12.819 -0.9592 -0.1086 -0.5661
  419MPD2    C1 6249   4.557   2.488  12.789  0.3163  0.3763 -0.1746
  419MPD2    C2 6250   4.522   2.574  12.884 -0.0542  0.2205  0.8085
  419MPD2    C3 6251   4.554   2.557  13.017 -0.2711  0.4951  0.0913
  419MPD2    C4 6252   4.639   2.456  13.048  0.2415  0.1952  0.2407
  419MPD2    C5 6253   4.688   2.370  12.952  0.0051 -0.2410 -0.5400
  419MPD2     H 6254   4.454   2.653  12.854 -2.5781 -3.0173 -1.9830
  419MPD2    H1 6255   4.675   2.445  13.149 -0.6005  0.8758  0.6152
  419MPD2    H2 6256   4.691   2.319  12.747  0.3893  2.1168 -2.0194
  419MPD2    H3 6257   0.043   2.300  12.989  0.2555  0.3861  0.1355
  419MPD2     N 6258   4.497   2.646  13.111 -0.6808 -0.3151 -0.0508
  419MPD2    H5 6259   4.468   2.737  13.077 -0.5288 -0.8433 -1.5911
  419MPD2    N1 6260   4.490   2.501  12.666  0.4414  0.1653 -0.1732
  419MPD2    H7 6261   4.427   2.581  12.658 -0.1867 -0.2406  0.7599
  420TMC3    C1 6262   4.413   2.728  13.326  0.6200 -0.8664  0.5507
  420TMC3    C2 6263   4.314   2.803  13.279 -0.0991  0.1193  0.2026
  420TMC3    C3 6264   4.248   2.882  13.373 -0.0602 -0.3809  0.1890
  420TMC3    C4 6265   4.445   2.713  13.455  0.8144 -0.0176 -0.4990
  420TMC3    C5 6266   4.389   2.802  13.538 -0.0013  0.2981 -0.2161
  420TMC3    C6 6267   4.294   2.891  13.503  0.0032 -0.1664 -0.1831
  420TMC3     C 6268   4.476   2.623  13.245 -0.1763 -0.1401 -0.2317
  420TMC3     O 6269   4.529   2.530  13.309  0.4602  0.2681 -0.0274
  420TMC3     H 6270   4.282   2.798  13.176  0.8637 -1.2168 -0.0292
  420TMC3    H1 6271   4.511   2.634  13.489  1.5082 -0.8941 -3.8973
  420TMC3    H2 6272   4.236   2.949  13.574  0.0837  0.4044 -0.5799
  420TMC3    C7 6273   4.429   2.787  13.675  0.2599  0.6803  0.7687
  420TMC3    C8 6274   4.163   2.987  13.315 -0.0355  0.1507 -0.4647
  420TMC3    O1 6275   4.448   2.674  13.711 -0.4391 -0.2031 -0.4892
  420TMC3    O2 6276   4.130   2.965  13.198  0.6862 -0.1927 -0.1740
  421TMC3    C1 6277   1.581   4.317  13.738 -1.3633  0.2198 -0.1694
  421TMC3    C2 6278   1.572   4.282  13.870  0.2059  0.3443 -0.2375
  421TMC3    C3 6279   1.686   4.224  13.922 -0.6740  0.1864  1.5826
  421TMC3    C4 6280   1.702   4.323  13.675 -0.5274  0.6676  0.0673
  421TMC3    C5 6281   1.811   4.261  13.734 -0.0758 -0.1148  0.7645
  421TMC3    C6 6282   1.798   4.191  13.846 -0.2548  0.0866 -0.5530
  421TMC3     C 6283   1.463   4.375  13.676 -0.0655 -0.1518  0.3070
  421TMC3     O 6284   1.484   4.490  13.640 -0.1200  0.4759  0.1170
  421TMC3     H 6285   1.483   4.295  13.930  0.9420  1.6453  0.5645
  421TMC3    H1 6286   1.702   4.364  13.575 -0.6122  0.5560  0.0218
  421TMC3    H2 6287   1.887   4.153  13.895 -0.2204 -1.3317 -1.7305
  421TMC3    C7 6288   1.914   4.224  13.635  0.2755  0.3196  0.2488
  421TMC3    C8 6289   1.727   4.270  14.053 -0.4107 -0.3377  0.1228
  421TMC3    O1 6290   1.923   4.310  13.542 -0.2053 -0.4427 -0.0884
  421TMC3    O2 6291   1.843   4.246  14.092  0.5282 -0.1066 -0.5431
  422TMC3    C1 6292   3.576   1.344  12.673 -1.1506 -0.3849  0.8107
  422TMC3    C2 6293   3.533   1.476  12.678 -0.0980  0.3238 -0.2948
  422TMC3    C3 6294   3.398   1.501  12.699  0.0850 -0.3627  0.0658
  422TMC3    C4 6295   3.485   1.242  12.690  0.0868  0.2524 -0.4803
  422TMC3    C5 6296   3.352   1.274  12.710  0.8866 -0.0288 -0.0740
  422TMC3    C6 6297   3.304   1.405  12.712 -0.0348 -0.4836 -0.0674
  422TMC3     C 6298   3.709   1.320  12.624 -0.6285 -0.7570  0.1096
  422TMC3     O 6299   3.765   1.415  12.568 -0.9993  0.1025 -0.3381
  422TMC3     H 6300   3.611   1.552  12.683 -0.2292  0.4016  0.7130
  422TMC3    H1 6301   3.512   1.139  12.673  0.0936  0.5425 -2.1763
  422TMC3    H2 6302   3.200   1.426  12.735 -0.2709 -2.5809  0.8099
  422TMC3    C7 6303   3.259   1.176  12.663  1.0834 -0.4450  0.4264
  422TMC3    C8 6304   3.374   1.647  12.698 -0.2322 -0.5585  0.8347
  422TMC3    O1 6305   3.309   1.083  12.604 -0.1641  0.2491  0.0726
  422TMC3    O2 6306   3.465   1.720  12.663  0.1148  0.0995  0.9075
  423MPD2     C 6307   0.366   1.622   0.908  0.4976 -0.5511 -0.0628
  423MPD2    C1 6308   0.250   1.552   0.876 -0.2980 -0.4981 -0.3124
  423MPD2    C2 6309   0.225   1.496   0.756  0.0834 -0.0189  0.0652
  423MPD2    C3 6310   0.326   1.512   0.661  0.0689 -0.4028  0.2054
  423MPD2    C4 6311   0.440   1.583   0.685 -0.2633 -0.6834  0.2632
  423MPD2    C5 6312   0.461   1.639   0.812 -0.4823 -0.4792  0.1650
  423MPD2     H 6313   0.133   1.440   0.743  1.3537 -2.5528  2.0930
  423MPD2    H1 6314   0.525   1.587   0.618  1.6991 -1.2464  2.7336
  423MPD2    H2 6315   0.385   1.659   1.008  0.2469 -1.2002  0.2297
  423MPD2    H3 6316   0.546   1.704   0.830 -0.6802 -0.6608  1.7163
  423MPD2     N 6317   0.324   1.455   0.532  0.3788  0.2141 -0.5606
  423MPD2    H5 6318   0.400   1.490   0.474 -0.3741 -0.8558 -2.1759
  423MPD2    N1 6319   0.151   1.529   0.969  0.8153  0.0554 -0.6855
  423MPD2    H7 6320   0.075   1.470   0.937  1.1986 -1.6020  1.4740
  424TMC3    C1 6321   0.030   1.519   1.171 -0.3968  1.0131 -0.0669
  424TMC3    C2 6322   0.035   1.440   1.287 -0.5081  0.2923 -0.3421
  424TMC3    C3 6323   4.640   1.387   1.327 -0.3250 -0.4977 -0.2929
  424TMC3    C4 6324   4.631   1.533   1.099 -0.1180  0.1987  0.4524
  424TMC3    C5 6325   4.518   1.485   1.156  0.3085  0.0604 -0.5054
  424TMC3    C6 6326   4.517   1.411   1.273  0.4677  0.2608 -0.0187
  424TMC3     C 6327   0.159   1.548   1.108 -0.2831  0.6538  0.9120
  424TMC3     O 6328   0.254   1.580   1.179  0.0210  0.4333 -0.1438
  424TMC3     H 6329   0.131   1.446   1.337 -0.3364  3.1045 -1.0223
  424TMC3    H1 6330   4.625   1.608   1.020 -0.9173 -2.8027 -2.3605
  424TMC3    H2 6331   4.429   1.367   1.319 -1.0189  1.8708 -1.3192
  424TMC3    C7 6332   4.401   1.501   1.083  1.1253 -0.2253  0.1121
  424TMC3    C8 6333   4.634   1.307   1.445 -0.5072 -0.2724 -0.1696
  424TMC3    O1 6334   4.406   1.553   0.970 -0.7024  0.4050  0.2941
  424TMC3    O2 6335   4.533   1.295   1.514 -0.0533  0.2659 -0.2173
  425MPD2     C 6336   3.772   0.908  17.468  0.5915  0.0108 -0.3048
  425MPD2    C1 6337   3.741   0.779  17.436  0.1538  0.3599 -0.7151
  425MPD2    C2 6338   3.614   0.744  17.393  0.1174  0.1180 -0.1866
  425MPD2    C3 6339   3.513   0.836  17.406 -0.3933 -0.1907  0.6263
  425MPD2    C4 6340   3.545   0.968  17.425  0.7169  0.7081  0.3763
  425MPD2    C5 6341   3.674   0.999  17.458  0.3569 -0.2312 -0.4146
  425MPD2     H 6342   3.591   0.640  17.373  0.7997 -0.1157  0.2421
  425MPD2    H1 6343   3.472   1.049  17.422  1.9430  1.7703 -0.7234
  425MPD2    H2 6344   3.876   0.930  17.491  0.9244 -0.1012 -1.6769
  425MPD2    H3 6345   3.702   1.103  17.470  0.5825 -0.5597  1.7860
  425MPD2     N 6346   3.384   0.782  17.421  0.1971  0.0667 -0.1841
  425MPD2    H5 6347   3.386   0.682  17.437  1.0355  0.3847  1.8453
  425MPD2    N1 6348   3.839   0.673  17.439  0.5176  0.1111 -0.0556
  425MPD2    H7 6349   3.813   0.579  17.411  0.9030  0.2125 -0.7480
  426TMC3    C1 6350   4.024   0.557  17.506  0.0163  0.0129 -0.2134
  426TMC3    C2 6351   3.990   0.474  17.396 -0.4163  0.0679 -0.2713
  426TMC3    C3 6352   4.009   0.339  17.410 -0.2799  0.3048  0.1264
  426TMC3    C4 6353   4.065   0.500  17.626  0.4926 -0.9781  0.4445
  426TMC3    C5 6354   4.066   0.366  17.631 -0.5226 -0.6870  0.3259
  426TMC3    C6 6355   4.044   0.283  17.528 -0.1132 -0.0067 -0.0264
  426TMC3     C 6356   3.953   0.683  17.519  0.6671 -1.0267 -0.3893
  426TMC3     O 6357   3.988   0.770  17.592  0.6399  0.1157  0.7026
  426TMC3     H 6358   3.975   0.528  17.304  0.7773  0.0992 -0.4550
  426TMC3    H1 6359   4.083   0.556   0.036  1.3623 -0.4437 -0.0593
  426TMC3    H2 6360   4.036   0.177  17.550  0.0013  0.2775  1.3799
  426TMC3    C7 6361   4.070   0.309   0.079  0.3406 -0.1403  0.3842
  426TMC3    C8 6362   3.976   0.244  17.301 -1.0783  0.0506 -0.5158
  426TMC3    O1 6363   4.127   0.202   0.095  0.1791  0.2796  0.1417
  426TMC3    O2 6364   3.991   0.126  17.328  0.0967 -0.4996  0.3341
  427MPD2     C 6365   2.474   3.023  14.807  0.0728  0.1136  0.6670
  427MPD2    C1 6366   2.430   2.893  14.816  0.3852 -0.3517  0.0078
  427MPD2    C2 6367   2.295   2.877  14.834  0.1623  0.5696 -0.3176
  427MPD2    C3 6368   2.210   2.982  14.853  0.4287 -0.4735 -0.1739
  427MPD2    C4 6369   2.264   3.110  14.856  0.3767  0.7687 -0.4779
  427MPD2    C5 6370   2.392   3.134  14.825 -0.4561 -0.4708  0.3574
  427MPD2     H 6371   2.249   2.781  14.853 -0.4607  1.0959  0.8635
  427MPD2    H1 6372   2.203   3.198  14.875  1.2599  1.2363  0.1967
  427MPD2    H2 6373   2.580   3.042  14.818  0.0214  0.5513  0.4020
  427MPD2    H3 6374   2.433   3.235  14.827  0.1569 -0.6994 -0.4876
  427MPD2     N 6375   2.066   2.977  14.870 -0.0714 -0.2620 -0.2649
  427MPD2    H5 6376   2.017   3.059  14.904  3.9306  1.7025  0.7360
  427MPD2    N1 6377   2.526   2.794  14.797  0.1004  0.6901  0.1615
  427MPD2    H7 6378   2.622   2.826  14.789  0.9997 -1.4404  2.5337
  428TMC3    C1 6379   2.612   2.573  14.816 -0.5853  0.0293  0.1968
  428TMC3    C2 6380   2.582   2.443  14.817 -0.2151 -0.1104  0.9733
  428TMC3    C3 6381   2.696   2.359  14.814  0.3509  1.7837 -0.5317
  428TMC3    C4 6382   2.739   2.621  14.798 -0.2445  0.1731  0.3335
  428TMC3    C5 6383   2.844   2.535  14.769 -0.1292 -0.0710 -0.0028
  428TMC3    C6 6384   2.829   2.395  14.782 -0.2568  0.0713  0.0948
  428TMC3     C 6385   2.495   2.660  14.825  0.3469 -0.8871  0.0617
  428TMC3     O 6386   2.390   2.605  14.862  0.4083 -0.3787 -0.0561
  428TMC3     H 6387   2.482   2.410  14.841 -0.4591  0.2146  0.4151
  428TMC3    H1 6388   2.755   2.729  14.803  1.1426  0.0271 -1.1172
  428TMC3    H2 6389   2.910   2.324  14.792  0.9167  1.3861 -0.0845
  428TMC3    C7 6390   2.976   2.581  14.806  0.8168  0.2660  1.2986
  428TMC3    C8 6391   2.693   2.231  14.887  0.4494  0.0485  0.0421
  428TMC3    O1 6392   3.048   2.494  14.850 -0.1854  0.2668 -0.5717
  428TMC3    O2 6393   2.757   2.137  14.841 -0.2247 -0.1088  0.1663
  429MPD2     C 6394   2.981   2.973  17.105  0.2799 -0.4077 -1.3019
  429MPD2    C1 6395   3.018   3.044  17.214 -0.3090  0.7826  0.3198
  429MPD2    C2 6396   3.103   3.149  17.198 -0.8969  0.1016 -0.5723
  429MPD2    C3 6397   3.142   3.190  17.070  0.0792  0.1685 -0.5611
  429MPD2    C4 6398   3.115   3.111  16.960  0.1195 -0.1021  0.3438
  429MPD2    C5 6399   3.027   3.008  16.983 -0.7647 -0.3391  0.3575
  429MPD2     H 6400   3.138   3.211  17.280 -0.9182  0.3535 -0.7534
  429MPD2    H1 6401   3.164   3.126  16.865  1.4998  3.0005  1.5549
  429MPD2    H2 6402   2.917   2.885  17.107 -0.3544  0.1173  0.9224
  429MPD2    H3 6403   3.014   2.939  16.900  1.1682 -0.8254  0.4469
  429MPD2     N 6404   3.235   3.286  17.063  0.1771 -0.2669 -0.1344
  429MPD2    H5 6405   3.281   3.310  17.150  0.3208 -1.1393  0.0298
  429MPD2    N1 6406   2.974   3.011  17.342  0.5864  0.1444 -0.5319
  429MPD2    H7 6407   3.013   3.069  17.417  0.4720 -2.2550  1.3803
  430TMC3    C1 6408   3.383   3.447  16.957 -0.1536  0.3401 -0.3671
  430TMC3    C2 6409   3.385   3.533  16.855  0.2818 -0.0564 -0.0844
  430TMC3    C3 6410   3.507   3.577  16.815 -0.2031  0.3886 -0.4103
  430TMC3    C4 6411   3.497   3.400  17.016 -0.0348 -0.1259  0.2988
  430TMC3    C5 6412   3.619   3.441  16.972  0.1275  0.7455  0.4175
  430TMC3    C6 6413   3.629   3.534  16.876 -0.5118  0.3722  0.1946
  430TMC3     C 6414   3.272   3.354  16.946  0.0073  0.1567  0.6329
  430TMC3     O 6415   3.215   3.356  16.839 -0.9200  0.0704  0.2119
  430TMC3     H 6416   3.297   3.554  16.794  0.2911 -1.1797 -0.5010
  430TMC3    H1 6417   3.496   3.327  17.097  2.7056  1.1318  1.4793
  430TMC3    H2 6418   3.724   3.551  16.827  1.7327  0.0571  4.4995
  430TMC3    C7 6419   3.746   3.394  17.031  0.2852 -0.9180  0.1606
  430TMC3    C8 6420   3.521   3.569  16.669 -0.4434  0.2964 -0.4815
  430TMC3    O1 6421   3.839   3.477  17.019  0.6763  0.5358  0.5302
  430TMC3    O2 6422   3.592   3.481  16.618 -0.5425 -0.1792  0.3569
  431MPD2     C 6423   4.468   3.297  12.633 -0.3419 -0.0439 -0.0446
  431MPD2    C1 6424   4.569   3.250  12.553  0.7218  0.0848  0.1708
  431MPD2    C2 6425   4.544   3.139  12.465 -0.3654 -0.1622 -0.6730
  431MPD2    C3 6426   4.429   3.059  12.483  0.2850 -0.7555  0.1867
  431MPD2    C4 6427   4.340   3.097  12.580 -0.4117 -0.5510 -0.3897
  431MPD2    C5 6428   4.361   3.215  12.651 -0.8569  0.1396  0.0696
  431MPD2     H 6429   4.625   3.128  12.394  2.5150 -1.4169  2.7763
  431MPD2    H1 6430   4.265   3.024  12.608 -0.0873  0.1671  2.4003
  431MPD2    H2 6431   4.477   3.385  12.696  0.0171 -0.6288  0.7140
  431MPD2    H3 6432   4.284   3.251  12.718  0.2264  0.3439  1.2256
  431MPD2     N 6433   4.420   2.927  12.433  0.3184 -0.8564  0.7308
  431MPD2    H5 6434   4.346   2.868  12.472 -0.5623  1.0904  2.0061
  431MPD2    N1 6435   4.695   3.309  12.558  0.0687 -0.2998  0.7397
  431MPD2    H7 6436   0.045   3.296  12.485 -1.4878 -0.8823 -0.6237
  432TMC3    C1 6437   4.482   2.727  12.320 -0.5485  0.7143  0.0787
  432TMC3    C2 6438   4.495   2.669  12.198  0.6885 -0.6972  0.1616
  432TMC3    C3 6439   4.509   2.530  12.198 -0.4186  0.0807  0.5768
  432TMC3    C4 6440   4.489   2.661  12.437  0.3835 -0.6368  0.1357
  432TMC3    C5 6441   4.504   2.522  12.426 -0.0861 -0.0110  0.1053
  432TMC3    C6 6442   4.501   2.452  12.314  0.5329  0.6499 -0.4341
  432TMC3     C 6443   4.506   2.875  12.332  0.6374 -0.8560 -0.6904
  432TMC3     O 6444   4.575   2.945  12.254  0.1653  0.0121 -0.1670
  432TMC3     H 6445   4.509   2.736  12.114  0.2396 -0.8860 -0.0669
  432TMC3    H1 6446   4.501   2.715  12.530 -0.1132  0.3917 -0.4010
  432TMC3    H2 6447   4.529   2.348  12.314  1.2243  0.8504  1.2709
  432TMC3    C7 6448   4.535   2.445  12.549 -0.5681 -0.4343 -0.1140
  432TMC3    C8 6449   4.581   2.476  12.090 -0.2530  0.0052  0.1062
  432TMC3    O1 6450   4.595   2.341  12.536  0.2129 -0.3978  0.6250
  432TMC3    O2 6451   4.554   2.513  11.977  0.6154  0.3290 -0.2801
  433MPD2     C 6452   3.545   2.081  10.747 -0.0981 -0.4974  0.6628
  433MPD2    C1 6453   3.455   2.032  10.834 -0.8120 -0.2243 -1.0356
  433MPD2    C2 6454   3.454   2.071  10.966 -0.0225  0.0531  0.2308
  433MPD2    C3 6455   3.555   2.157  11.008  0.5273  0.4628  0.8053
  433MPD2    C4 6456   3.651   2.204  10.926  0.2450 -0.4916  0.4427
  433MPD2    C5 6457   3.632   2.172  10.793  0.0641  0.7801  0.2982
  433MPD2     H 6458   3.388   2.030  11.041 -0.7691 -0.7589 -0.8707
  433MPD2    H1 6459   3.719   2.287  10.943  0.7925 -0.5841 -1.2861
  433MPD2    H2 6460   3.542   2.050  10.643  0.4322  0.7730  0.2746
  433MPD2    H3 6461   3.689   2.231  10.722  0.3992  1.3412  1.0282
  433MPD2     N 6462   3.556   2.186  11.151 -0.9077  0.3363 -0.3818
  433MPD2    H5 6463   3.486   2.145  11.213  2.1991 -1.9966  1.6002
  433MPD2    N1 6464   3.381   1.923  10.779 -0.8042 -0.2762 -0.2072
  433MPD2    H7 6465   3.412   1.892  10.687  0.5266  1.7643 -0.4724
  434TMC3    C1 6466   3.295   1.706  10.811 -0.0007 -0.3110 -0.6750
  434TMC3    C2 6467   3.334   1.615  10.908  0.3070  0.2321  0.0885
  434TMC3    C3 6468   3.406   1.506  10.877 -0.1288  0.1802 -0.0557
  434TMC3    C4 6469   3.338   1.683  10.684  0.2842  0.3206 -0.4036
  434TMC3    C5 6470   3.392   1.561  10.653  0.0326  0.0455  0.2915
  434TMC3    C6 6471   3.429   1.470  10.750 -0.8099  0.0886 -0.9830
  434TMC3     C 6472   3.306   1.844  10.859  0.5524  0.3729  0.2283
  434TMC3     O 6473   3.249   1.864  10.966 -0.4388 -0.1514  0.7792
  434TMC3     H 6474   3.337   1.648  11.011  0.8844 -0.5759  0.3308
  434TMC3    H1 6475   3.312   1.752  10.604  1.7463  0.5493 -0.6842
  434TMC3    H2 6476   3.470   1.372  10.728 -0.1212  0.2943 -0.6019
  434TMC3    C7 6477   3.398   1.522  10.512 -0.2439 -0.0124 -1.1167
  434TMC3    C8 6478   3.489   1.448  10.988  0.0569  0.0055 -0.1022
  434TMC3    O1 6479   3.366   1.611  10.432 -0.4877 -0.3141 -0.2497
  434TMC3    O2 6480   3.457   1.471  11.103  0.2553  0.5854 -0.1780
  435MPD2     C 6481   0.488   1.344  15.438  0.0211  0.2915  0.7375
  435MPD2    C1 6482   0.470   1.400  15.557  0.4961  0.1119 -0.1990
  435MPD2    C2 6483   0.587   1.409  15.641  0.6161  0.6418  0.4483
  435MPD2    C3 6484   0.703   1.337  15.613 -0.0663 -0.4002 -0.3244
  435MPD2    C4 6485   0.711   1.272  15.490  0.0179 -0.9280  0.3998
  435MPD2    C5 6486   0.605   1.286  15.401 -0.0390  0.1843  0.6051
  435MPD2     H 6487   0.592   1.475  15.726  2.7313  1.9100 -0.6705
  435MPD2    H1 6488   0.795   1.216  15.451  2.3297  0.4037  3.4530
  435MPD2    H2 6489   0.406   1.334  15.366  1.8947 -0.1089 -1.3420
  435MPD2    H3 6490   0.607   1.243  15.302 -0.3348 -0.2318  0.7788
  435MPD2     N 6491   0.815   1.337  15.705  0.3639  0.0713  0.6486
  435MPD2    H5 6492   0.797   1.383  15.793  0.4803  2.0822 -0.3833
  435MPD2    N1 6493   0.346   1.461  15.593 -0.1660  0.0843 -0.2968
  435MPD2    H7 6494   0.335   1.491  15.690  2.7692 -0.9068  0.3530
  436TMC3    C1 6495   4.681   1.536  15.766  1.1360  0.0238 -0.6307
  436TMC3    C2 6496   0.082   1.500  15.714  0.2430 -0.6700 -0.1869
  436TMC3    C3 6497   0.091   1.513  15.584  0.2002  0.1576  1.0123
  436TMC3    C4 6498   4.577   1.579  15.688  0.2504  0.9249  0.3848
  436TMC3    C5 6499   4.589   1.585  15.557 -0.2387  0.1790 -0.3167
  436TMC3    C6 6500   4.709   1.549  15.502  0.0018  0.1338 -0.7010
  436TMC3     C 6501   4.689   1.573  15.912  0.3203 -0.0495 -0.2659
  436TMC3     O 6502   0.073   1.538  15.969 -0.6164  0.4950 -0.4238
  436TMC3     H 6503   0.170   1.475  15.771 -0.2344  1.2284  1.3798
  436TMC3    H1 6504   4.495   1.638  15.728  1.7134  2.0080  1.8000
  436TMC3    H2 6505   0.004   1.548  15.394 -0.6078  0.7241 -0.7842
  436TMC3    C7 6506   4.473   1.601  15.465  0.5669  0.6872  0.2899
  436TMC3    C8 6507   0.230   1.479  15.512 -0.8837  0.4320  0.0637
  436TMC3    O1 6508   4.501   1.616  15.344  0.0763 -0.0103 -0.5416
  436TMC3    O2 6509   0.226   1.482  15.388  0.0242 -0.2845 -0.1570
  437TMC3    C1 6510   4.065   3.951  12.733  0.5928  0.0819 -0.1174
  437TMC3    C2 6511   3.956   4.000  12.665 -0.0866  0.6142  0.4388
  437TMC3    C3 6512   3.971   4.036  12.539  0.3373  0.3025  0.3261
  437TMC3    C4 6513   4.197   3.965  12.679 -0.2161  0.6843  0.2849
  437TMC3    C5 6514   4.207   4.010  12.546 -0.0014  0.3227 -0.0678
  437TMC3    C6 6515   4.091   4.042  12.478 -0.2472 -0.6729 -0.8352
  437TMC3     C 6516   4.058   3.894  12.868 -0.2098  0.6193  0.5214
  437TMC3     O 6517   4.148   3.817  12.896  0.4420  0.1406  0.4128
  437TMC3     H 6518   3.858   3.987  12.709 -0.0020  0.7435  0.6675
  437TMC3    H1 6519   4.273   3.913  12.736  0.2124 -0.8666 -1.6744
  437TMC3    H2 6520   4.090   4.061  12.372 -1.1576 -0.5530 -0.8008
  437TMC3    C7 6521   4.340   4.039  12.483  0.4343 -0.2074 -0.9346
  437TMC3    C8 6522   3.859   4.061  12.455  0.1315  0.1210 -0.3901
  437TMC3    O1 6523   4.337   4.085  12.366 -0.3585 -0.0960  0.1144
  437TMC3    O2 6524   3.884   4.093  12.342 -0.1645  0.2170 -0.0436
  438MPD2     C 6525   1.479   3.645  16.854 -0.0762  0.0564 -0.2924
  438MPD2    C1 6526   1.555   3.556  16.783  0.1593 -0.8251  0.6282
  438MPD2    C2 6527   1.521   3.419  16.801 -0.0481 -0.1792 -0.3721
  438MPD2    C3 6528   1.418   3.379  16.886  0.0139 -0.3253 -0.0338
  438MPD2    C4 6529   1.352   3.475  16.965 -0.1503  0.3177  0.2687
  438MPD2    C5 6530   1.393   3.611  16.952 -0.1646 -0.3715  0.2575
  438MPD2     H 6531   1.585   3.342  16.758 -1.7382 -0.0907 -2.9997
  438MPD2    H1 6532   1.273   3.445  17.034 -1.4835 -1.2645 -1.9564
  438MPD2    H2 6533   1.498   3.751  16.839 -1.0681  0.3044  0.2377
  438MPD2    H3 6534   1.329   3.686  16.999 -0.8116 -1.2532  0.7950
  438MPD2     N 6535   1.386   3.244  16.905  0.3269  0.1715 -0.0172
  438MPD2    H5 6536   1.325   3.222  16.984 -0.7254 -1.0001 -1.1509
  438MPD2    N1 6537   1.651   3.593  16.687 -0.1817  0.5994  0.5126
  438MPD2    H7 6538   1.698   3.517  16.639 -0.4949 -0.7046  2.2635
  439TMC3    C1 6539   1.842   3.714  16.608 -0.4748 -0.1008  0.1806
  439TMC3    C2 6540   1.857   3.623  16.508 -0.4270 -0.5471  0.0747
  439TMC3    C3 6541   1.981   3.608  16.454 -0.1036 -0.5391  0.2798
  439TMC3    C4 6542   1.947   3.790  16.657 -0.2787  0.0008  0.9025
  439TMC3    C5 6543   2.068   3.771  16.599 -0.4543 -0.3400  0.0832
  439TMC3    C6 6544   2.083   3.692  16.491 -0.0553  0.7393  0.6010
  439TMC3     C 6545   1.725   3.716  16.691  0.0900 -0.5235  0.1598
  439TMC3     O 6546   1.709   3.825  16.748  0.1094 -0.2176 -0.6202
  439TMC3     H 6547   1.773   3.573  16.460 -0.1448 -0.4197 -0.5496
  439TMC3    H1 6548   1.926   3.851  16.745 -2.3283  0.1695  0.2927
  439TMC3    H2 6549   2.181   3.673  16.449 -0.5558 -0.1824 -0.1585
  439TMC3    C7 6550   2.181   3.821  16.672 -0.3674  0.2201 -0.2313
  439TMC3    C8 6551   2.021   3.477  16.404  0.4681 -0.0263 -0.4394
  439TMC3    O1 6552   2.174   3.816  16.796  0.0900 -0.1474 -0.2733
  439TMC3    O2 6553   2.125   3.435  16.439 -0.5423 -0.1342  0.3758
  440MPD2     C 6554   1.472   0.342  14.867 -0.3182  0.4966  0.7381
  440MPD2    C1 6555   1.359   0.264  14.877  0.2261  0.1158  0.3879
  440MPD2    C2 6556   1.361   0.157  14.966 -0.7441  0.6096  0.0489
  440MPD2    C3 6557   1.458   0.134  15.062  0.4159  0.4808 -0.2725
  440MPD2    C4 6558   1.559   0.230  15.060  0.0042  0.6229 -0.7915
  440MPD2    C5 6559   1.570   0.326  14.962  0.2801  0.6524  0.4554
  440MPD2     H 6560   1.273   0.095  14.970 -2.1036  2.6364  1.2777
  440MPD2    H1 6561   1.648   0.221  15.122 -0.0726  1.1838 -0.5958
  440MPD2    H2 6562   1.486   0.427  14.802  1.1848 -0.1791  0.1793
  440MPD2    H3 6563   1.651   0.397  14.945  0.5893  0.3132  0.5212
  440MPD2     N 6564   1.448   0.052  15.176 -0.5354  0.6081  0.1818
  440MPD2    H5 6565   1.490   0.087  15.262 -1.0454  0.3418  0.5349
  440MPD2    N1 6566   1.241   0.279  14.801 -0.1947 -0.5713 -0.8594
  440MPD2    H7 6567   1.176   0.204  14.822  0.2817 -0.3722  1.3562
  441TMC3    C1 6568   1.336   4.592  15.285 -0.6571 -0.4105 -0.8101
  441TMC3    C2 6569   1.377   4.648  15.405 -0.4904  1.0410  0.3754
  441TMC3    C3 6570   1.282   4.632  15.500 -0.2542 -0.0283 -0.2957
  441TMC3    C4 6571   1.229   4.512  15.267  0.4851 -0.1123  0.1786
  441TMC3    C5 6572   1.146   4.492  15.374  0.4918 -0.3632 -0.0018
  441TMC3    C6 6573   1.174   4.555  15.490 -0.1093 -0.3910  0.3520
  441TMC3     C 6574   1.385   4.653  15.159  0.3149 -0.3219 -0.1473
  441TMC3     O 6575   1.362   4.598  15.053 -0.2686  0.1014  0.4178
  441TMC3     H 6576   1.464   4.713  15.413 -0.5206  1.1412 -0.1653
  441TMC3    H1 6577   1.209   4.467  15.171 -0.5922  1.6312 -0.4064
  441TMC3    H2 6578   1.115   4.545  15.581 -1.9450  0.2385 -0.7634
  441TMC3    C7 6579   1.010   4.448  15.362 -0.2706 -0.8142 -0.4427
  441TMC3    C8 6580   1.265   0.041  15.570  0.3050 -0.5540  0.0341
  441TMC3    O1 6581   0.939   4.443  15.462  0.0071  0.6856  0.0144
  441TMC3    O2 6582   1.368   0.105  15.590  0.6730  0.1263 -0.2073
  442MPD2     C 6583   3.450   0.585  16.619 -0.0761 -0.0499  0.2859
  442MPD2    C1 6584   3.393   0.494  16.707  0.2612 -0.0257 -0.7982
  442MPD2    C2 6585   3.434   0.363  16.693 -0.3641  0.3663  0.0086
  442MPD2    C3 6586   3.536   0.321  16.604  0.2887  0.2059  0.2410
  442MPD2    C4 6587   3.581   0.413  16.515 -0.1002 -0.6460  0.0138
  442MPD2    C5 6588   3.534   0.534  16.528 -0.1400  0.2776  0.7579
  442MPD2     H 6589   3.390   0.293  16.763 -0.2349  0.7456  0.4676
  442MPD2    H1 6590   3.659   0.397  16.442  0.4903  0.6510  0.3604
  442MPD2    H2 6591   3.428   0.691  16.610  1.4555  0.1706 -0.7789
  442MPD2    H3 6592   3.572   0.604  16.454 -1.2070  1.5532  1.4132
  442MPD2     N 6593   3.586   0.190  16.591 -0.1076 -0.2116  0.3828
  442MPD2    H5 6594   3.660   0.177  16.523  1.2404 -1.1630  2.0257
  442MPD2    N1 6595   3.288   0.529  16.800  0.1575 -0.1482 -0.0810
  442MPD2    H7 6596   3.250   0.461  16.866  2.0435 -0.3395  0.7998
  443TMC3    C1 6597   3.119   0.673  16.893  0.0794  1.1613 -0.2804
  443TMC3    C2 6598   3.024   0.768  16.859  0.4614  0.2931  0.9295
  443TMC3    C3 6599   2.915   0.775  16.944 -0.1946  0.2607 -0.6958
  443TMC3    C4 6600   3.106   0.589  17.000  0.2581  0.5809 -0.0778
  443TMC3    C5 6601   2.991   0.592  17.076  0.4109  0.1560 -0.0741
  443TMC3    C6 6602   2.900   0.692  17.053  0.0098  0.1773 -0.6506
  443TMC3     C 6603   3.224   0.656  16.795 -0.5138  0.9190 -0.0463
  443TMC3     O 6604   3.234   0.743  16.709 -0.1120 -0.2009 -0.4980
  443TMC3     H 6605   3.037   0.836  16.776  0.0253  0.5592  1.0804
  443TMC3    H1 6606   3.190   0.524  17.021 -0.6040  0.3008  2.5888
  443TMC3    H2 6607   2.808   0.691  17.109  0.5796 -1.1961  0.2566
  443TMC3    C7 6608   2.974   0.496  17.183  0.5388  0.4361  0.4355
  443TMC3    C8 6609   2.798   0.842  16.888 -0.2553 -0.2722  0.7688
  443TMC3    O1 6610   3.046   0.398  17.180  0.1868 -1.5119 -0.4055
  443TMC3    O2 6611   2.742   0.910  16.972 -0.2829  0.4831  0.1226
  444MPD2     C 6612   4.260   4.435  17.250 -0.0759  0.0293  0.2315
  444MPD2    C1 6613   4.186   4.328  17.288 -0.2154  0.0610 -0.9128
  444MPD2    C2 6614   4.246   4.202  17.261 -0.3605  0.0871  0.2871
  444MPD2    C3 6615   4.365   4.193  17.188 -0.3172 -0.3821  0.5868
  444MPD2    C4 6616   4.434   4.309  17.157  0.7338  0.5794 -0.5770
  444MPD2    C5 6617   4.383   4.430  17.192 -0.3123  0.5118  0.5146
  444MPD2     H 6618   4.198   4.110  17.291 -0.0530  0.4924  2.0438
  444MPD2    H1 6619   4.534   4.305  17.116 -0.2283 -0.1154 -2.8640
  444MPD2    H2 6620   4.229   4.526  17.300 -0.9684 -1.1532  1.8553
  444MPD2    H3 6621   4.434   4.525  17.181  1.5988 -0.2631  2.7941
  444MPD2     N 6622   4.405   4.066  17.138  0.1058 -0.0960 -0.1433
  444MPD2    H5 6623   4.352   3.986  17.171  1.7518 -0.4087  1.7627
  444MPD2    N1 6624   4.059   4.356  17.351  0.0502  0.3601  0.0856
  444MPD2    H7 6625   4.045   4.450  17.387  1.4105  0.8884 -0.8093
  445TMC3    C1 6626   4.510   3.908  17.015  0.6101  0.0438 -0.3118
  445TMC3    C2 6627   4.479   3.812  17.114  0.4753 -0.0806  0.0188
  445TMC3    C3 6628   4.493   3.676  17.075 -0.2461  0.2569 -0.0638
  445TMC3    C4 6629   4.571   3.870  16.897  0.4089  0.1881  0.3258
  445TMC3    C5 6630   4.587   3.742  16.870  0.9308  0.3254 -0.1208
  445TMC3    C6 6631   4.533   3.647  16.949  0.2804 -0.0142 -0.4936
  445TMC3     C 6632   4.500   4.044  17.047 -0.0427  0.9349 -0.6671
  445TMC3     O 6633   4.570   4.124  16.988 -0.1410  0.0619 -0.7345
  445TMC3     H 6634   4.454   3.836  17.217 -0.9737 -1.2158 -0.0641
  445TMC3    H1 6635   4.609   3.952  16.838  0.4720  0.8412  1.2780
  445TMC3    H2 6636   4.512   3.548  16.911 -0.6535  0.2718 -0.7287
  445TMC3    C7 6637   4.650   3.711  16.742  0.1059 -0.4108  0.1928
  445TMC3    C8 6638   4.470   3.564  17.166 -0.2416  0.4354 -0.2547
  445TMC3    O1 6639   4.653   3.790  16.649 -0.3449  0.0598 -0.2448
  445TMC3    O2 6640   4.451   3.451  17.128 -0.4997 -0.3103 -0.1012
  446MPD2     C 6641   3.232   1.346  11.582 -0.3130  0.3821  0.0414
  446MPD2    C1 6642   3.188   1.413  11.463 -0.1191  0.3912 -0.0664
  446MPD2    C2 6643   3.269   1.504  11.398 -0.1024 -1.0041 -0.8369
  446MPD2    C3 6644   3.393   1.533  11.452  0.2544  0.2364 -1.0010
  446MPD2    C4 6645   3.422   1.486  11.579 -0.2972 -0.6069  0.0730
  446MPD2    C5 6646   3.349   1.388  11.637  0.7109  0.1533  0.1204
  446MPD2     H 6647   3.231   1.544  11.305  1.0339  0.1382 -0.7990
  446MPD2    H1 6648   3.515   1.509  11.628 -1.1746  0.8908  1.0507
  446MPD2    H2 6649   3.173   1.271  11.634 -0.3705  2.1134  2.4977
  446MPD2    H3 6650   3.380   1.331  11.724  2.0900  0.5399 -0.1200
  446MPD2     N 6651   3.477   1.627  11.382  0.1269  0.3319 -0.1319
  446MPD2    H5 6652   3.435   1.680  11.306  0.3295 -0.9893 -1.1590
  446MPD2    N1 6653   3.068   1.379  11.409  0.8178 -0.7665  0.0594
  446MPD2    H7 6654   3.044   1.437  11.329  0.2065  0.2289  0.9655
  447TMC3    C1 6655   3.692   1.701  11.297  0.8841  0.5478 -0.4306
  447TMC3    C2 6656   3.636   1.726  11.176 -0.8779  0.5215 -0.2561
  447TMC3    C3 6657   3.732   1.773  11.085 -0.3076  0.0687  0.1387
  447TMC3    C4 6658   3.824   1.724  11.331 -0.3341 -0.3702 -0.5267
  447TMC3    C5 6659   3.915   1.764  11.244 -0.0052  0.1059  0.3561
  447TMC3    C6 6660   3.861   1.795  11.118 -0.1063 -0.0612 -0.6238
  447TMC3     C 6661   3.613   1.643  11.409 -0.1465  0.0775 -0.3873
  447TMC3     O 6662   3.680   1.578  11.492 -0.2779  0.1655 -0.1548
  447TMC3     H 6663   3.530   1.711  11.156 -0.6652 -1.1707 -0.0559
  447TMC3    H1 6664   3.855   1.720  11.435  0.0540  1.4385 -0.5809
  447TMC3    H2 6665   3.931   1.845  11.051 -0.6842 -0.1564 -1.3008
  447TMC3    C7 6666   4.005   1.655  11.218 -0.0439 -0.1145 -0.2835
  447TMC3    C8 6667   3.708   1.726  10.953 -0.2487  0.4446 -0.2430
  447TMC3    O1 6668   4.037   1.637  11.103  0.3062  0.3377 -0.2706
  447TMC3    O2 6669   3.601   1.739  10.898 -0.2054  0.1409  0.2407
  448TMC3    C1 6670   1.340   4.415  16.969  0.2047 -0.4332  0.0129
  448TMC3    C2 6671   1.399   4.360  16.860 -0.8650 -0.0683 -0.1656
  448TMC3    C3 6672   1.351   4.240  16.826  0.1175 -0.2473 -0.1150
  448TMC3    C4 6673   1.231   4.367  17.030 -0.1580  0.4290  0.8892
  448TMC3    C5 6674   1.186   4.247  16.989  0.7625 -0.2552 -0.7700
  448TMC3    C6 6675   1.246   4.184  16.887 -0.4172 -0.5730  0.1116
  448TMC3     C 6676   1.405   4.541  17.013  0.1662 -0.6185  0.5631
  448TMC3     O 6677   1.485   4.593  16.941  0.5901 -0.1223  0.2340
  448TMC3     H 6678   1.493   4.398  16.823 -1.1982 -0.9046 -1.8742
  448TMC3    H1 6679   1.166   4.431  17.088 -0.0937  1.7834 -0.5206
  448TMC3    H2 6680   1.198   4.102  16.834 -0.8723 -0.9865  1.1778
  448TMC3    C7 6681   1.073   4.172  17.053 -0.5795  0.2910 -0.0995
  448TMC3    C8 6682   1.417   4.171  16.714  0.1343 -0.0622 -0.0417
  448TMC3    O1 6683   1.007   4.091  16.989  0.1326  0.3672  0.1970
  448TMC3    O2 6684   1.504   4.234  16.665  0.4427  0.3991  0.2304
  449MPD2     C 6685   3.198   4.396  14.103  0.0388 -0.1652  0.0833
  449MPD2    C1 6686   3.113   4.397  13.996 -0.6798  0.1210  0.9034
  449MPD2    C2 6687   3.091   4.280  13.937 -0.2620  0.1248  0.7004
  449MPD2    C3 6688   3.156   4.164  13.978 -0.7036  0.1451 -0.6255
  449MPD2    C4 6689   3.242   4.168  14.084 -0.2688 -0.3359 -0.6164
  449MPD2    C5 6690   3.264   4.284  14.149 -0.2344  0.1158  0.7656
  449MPD2     H 6691   3.028   4.273  13.849 -1.8176 -0.7888  1.8799
  449MPD2    H1 6692   3.292   4.080  14.123  1.5190  1.8983  2.1295
  449MPD2    H2 6693   3.221   4.487  14.157  0.4357  1.0119 -2.0852
  449MPD2    H3 6694   3.328   4.285  14.236 -0.1644  0.8759  0.7079
  449MPD2     N 6695   3.132   4.056  13.899  0.6449  0.1355 -0.5148
  449MPD2    H5 6696   3.059   4.067  13.829  1.0595 -1.0599 -1.1475
  449MPD2    N1 6697   3.054   4.511  13.941 -0.6279 -0.1511  0.4707
  449MPD2    H7 6698   2.987   4.510  13.864 -0.4350  0.9438  0.2949
  450TMC3    C1 6699   3.017   0.011  13.872 -0.2329 -0.3440 -0.7805
  450TMC3    C2 6700   3.120   0.087  13.816  0.5385  0.8554  0.7222
  450TMC3    C3 6701   3.146   0.077  13.682  0.2371 -0.0532  0.0534
  450TMC3    C4 6702   2.923   4.670  13.792 -0.4434  0.1714  0.3765
  450TMC3    C5 6703   2.940   4.675  13.659 -0.7262 -0.4799 -0.3182
  450TMC3    C6 6704   3.050   0.017  13.602 -0.7047 -0.1348 -0.1555
  450TMC3     C 6705   3.071   4.645  13.978 -0.2401  0.2365 -0.8055
  450TMC3     O 6706   3.164   4.691  14.045  0.3359 -0.2534 -0.1498
  450TMC3     H 6707   3.202   0.123  13.877 -0.4261  1.6180  1.5672
  450TMC3    H1 6708   2.836   4.626  13.838 -1.5205  0.1492 -1.6639
  450TMC3    H2 6709   3.062   0.025  13.495 -0.0514 -0.2979 -0.0975
  450TMC3    C7 6710   2.897   4.555  13.591 -1.1835 -0.2095  0.2337
  450TMC3    C8 6711   3.273   0.112  13.637  0.0196  0.6823  0.4463
  450TMC3    O1 6712   2.848   4.479  13.674  0.1682 -0.0928 -0.3531
  450TMC3    O2 6713   3.303   0.232  13.633  0.2066 -0.5707  0.0208
  451MPD2     C 6714   3.619   2.609   1.445 -0.1718  0.0291  0.4666
  451MPD2    C1 6715   3.733   2.650   1.508  0.1414  0.3585 -0.5667
  451MPD2    C2 6716   3.841   2.561   1.510 -0.4722  0.6961 -0.7352
  451MPD2    C3 6717   3.832   2.440   1.444 -0.6508  0.1580 -0.4515
  451MPD2    C4 6718   3.723   2.398   1.378 -0.4723 -0.2871 -0.4828
  451MPD2    C5 6719   3.621   2.489   1.375  0.0605 -0.5272  0.0974
  451MPD2     H 6720   3.924   2.586   1.575 -0.3223 -0.6434 -0.4294
  451MPD2    H1 6721   3.716   2.302   1.329 -0.3879 -0.6485  0.2098
  451MPD2    H2 6722   3.531   2.672   1.450  1.2337  2.1319 -1.3517
  451MPD2    H3 6723   3.527   2.460   1.328 -0.6355 -1.4704  2.0757
  451MPD2     N 6724   3.936   2.347   1.447 -0.2674 -0.0970  0.9972
  451MPD2    H5 6725   3.936   2.283   1.368  1.5980 -0.1036  0.9881
  451MPD2    N1 6726   3.731   2.786   1.556  0.2951  0.1367  0.0516
  451MPD2    H7 6727   3.644   2.836   1.542 -0.5200 -1.7752 -1.8635
  452TMC3    C1 6728   4.113   2.224   1.530 -0.3390  0.5549  0.4260
  452TMC3    C2 6729   4.162   2.162   1.641 -0.1452 -0.1684 -0.2032
  452TMC3    C3 6730   4.284   2.101   1.630  0.4661 -0.6086 -1.2607
  452TMC3    C4 6731   4.182   2.227   1.411  1.3707  0.1325  0.2700
  452TMC3    C5 6732   4.307   2.173   1.413  0.1140  0.8344  0.3575
  452TMC3    C6 6733   4.356   2.100   1.515 -0.1090 -0.0547 -0.1291
  452TMC3     C 6734   4.018   2.332   1.551  0.0706  0.0215  0.3131
  452TMC3     O 6735   4.005   2.371   1.662 -0.8351  0.3164  0.2654
  452TMC3     H 6736   4.098   2.156   1.728  1.2709  0.6417  0.8920
  452TMC3    H1 6737   4.138   2.266   1.320 -0.0634  0.0124  0.9110
  452TMC3    H2 6738   4.451   2.048   1.504 -0.6277 -1.2906  1.2699
  452TMC3    C7 6739   4.389   2.182   1.293 -0.1832  0.6221 -0.6141
  452TMC3    C8 6740   4.324   2.029   1.743  0.6220 -0.0388 -0.3544
  452TMC3    O1 6741   4.328   2.209   1.190  0.1503  0.4931 -0.1314
  452TMC3    O2 6742   4.240   2.010   1.833  0.4666  0.3045 -0.7981
  453TMC3    C1 6743   0.792   0.355  12.086  0.3839  0.0978  0.0381
  453TMC3    C2 6744   0.754   0.249  12.155 -0.2623 -0.0941 -0.2514
  453TMC3    C3 6745   0.678   0.150  12.098 -0.6894  0.4719 -1.0561
  453TMC3    C4 6746   0.750   0.380  11.960  0.4545 -0.3093  0.2124
  453TMC3    C5 6747   0.672   0.282  11.906 -0.4101 -0.2856  0.1215
  453TMC3    C6 6748   0.642   0.161  11.968  0.3388  0.4421 -0.0896
  453TMC3     C 6749   0.894   0.446  12.134  0.0497  0.1344  0.5266
  453TMC3     O 6750   0.962   0.500  12.045  0.5828  0.3947 -0.7337
  453TMC3     H 6751   0.789   0.234  12.256  2.0665  2.2047 -0.7222
  453TMC3    H1 6752   0.784   0.464  11.901  0.5287 -2.8633 -3.3283
  453TMC3    H2 6753   0.563   0.104  11.921  0.6481  2.1579 -2.6943
  453TMC3    C7 6754   0.670   0.289  11.763  0.0806  0.3558 -0.8932
  453TMC3    C8 6755   0.631   0.032  12.177 -0.5891  0.1363  0.5102
  453TMC3    O1 6756   0.667   0.406  11.720 -0.3030  0.7637  0.1005
  453TMC3    O2 6757   0.629   0.042  12.299 -0.3199 -0.0176  0.2613
  454MPD2     C 6758   4.237   3.771  16.882 -0.0351 -0.0568  0.1891
  454MPD2    C1 6759   4.210   3.885  16.811  0.3976  0.6541  0.0423
  454MPD2    C2 6760   4.161   3.993  16.887 -0.0227 -0.5205 -0.6567
  454MPD2    C3 6761   4.107   3.982  17.009 -0.8978 -0.0691  0.0104
  454MPD2    C4 6762   4.117   3.863  17.072 -1.0423 -0.3932 -0.0577
  454MPD2    C5 6763   4.179   3.756  17.006  0.0867  0.6635 -1.0096
  454MPD2     H 6764   4.158   4.091  16.840 -1.2912 -0.4924 -0.5119
  454MPD2    H1 6765   4.077   3.843  17.171 -0.4839 -1.2056 -0.0035
  454MPD2    H2 6766   4.279   3.681  16.838  2.5449 -0.0014  2.6019
  454MPD2    H3 6767   4.196   3.656  17.043 -1.1629  1.1095  0.7880
  454MPD2     N 6768   4.024   4.074  17.066 -0.0542 -0.4766  0.1517
  454MPD2    H5 6769   3.974   4.045  17.149  1.7226  0.6648  1.6104
  454MPD2    N1 6770   4.235   3.910  16.675  0.5484  0.2923  0.0831
  454MPD2    H7 6771   4.214   4.005  16.648  1.6622  0.6804  0.5895
  455TMC3    C1 6772   3.867   4.241  17.041 -0.1764  1.0955  0.1555
  455TMC3    C2 6773   3.855   4.371  17.002 -0.0026 -0.5657  0.1462
  455TMC3    C3 6774   3.773   4.402  16.893  0.0138  0.2041 -0.0371
  455TMC3    C4 6775   3.791   4.143  16.985 -0.8967 -0.0523  0.3872
  455TMC3    C5 6776   3.719   4.173  16.872  0.1455  0.4118  0.1047
  455TMC3    C6 6777   3.705   4.302  16.824 -0.3120  0.0487 -0.2050
  455TMC3     C 6778   4.003   4.203  17.022 -1.1353 -0.1521  0.3857
  455TMC3     O 6779   4.059   4.266  16.935 -0.0551  0.4264 -0.5862
  455TMC3     H 6780   3.930   4.434  17.049  0.4449 -1.0235  0.0467
  455TMC3    H1 6781   3.781   4.047  17.034 -0.5990  0.6878  1.8978
  455TMC3    H2 6782   3.656   4.323  16.729  0.4420  1.1592 -0.3503
  455TMC3    C7 6783   3.728   4.084  16.762  0.1882  0.2128  0.6666
  455TMC3    C8 6784   3.798   4.535  16.833 -1.2059 -0.6170 -0.0216
  455TMC3    O1 6785   3.701   4.118  16.652 -0.2389  0.2149 -0.2197
  455TMC3    O2 6786   3.799   4.541  16.710 -0.1152 -0.3252  0.3921
  456MPD2     C 6787   2.484   3.472  16.201 -0.5341 -0.5138 -0.5487
  456MPD2    C1 6788   2.535   3.593  16.210 -0.9285 -0.5859 -0.2125
  456MPD2    C2 6789   2.464   3.703  16.176 -0.1535 -0.1109 -0.7127
  456MPD2    C3 6790   2.334   3.691  16.137 -0.3238 -0.4366  0.0461
  456MPD2    C4 6791   2.281   3.564  16.122 -0.4551 -0.4289 -0.1563
  456MPD2    C5 6792   2.360   3.457  16.147  0.5269  0.2623 -0.8290
  456MPD2     H 6793   2.515   3.798  16.185 -0.5393  0.0513 -0.2395
  456MPD2    H1 6794   2.186   3.534  16.080 -1.4283  0.1855  1.6347
  456MPD2    H2 6795   2.534   3.382  16.234 -0.0285 -0.0479 -0.0601
  456MPD2    H3 6796   2.319   3.357  16.133 -0.2435  0.3393  0.9910
  456MPD2     N 6797   2.254   3.808  16.118 -0.2180 -0.2673  0.0063
  456MPD2    H5 6798   2.299   3.898  16.129 -0.9316  0.2003 -0.9033
  456MPD2    N1 6799   2.662   3.600  16.271 -0.4848 -0.5740  0.4041
  456MPD2    H7 6800   2.700   3.513  16.306  0.4372 -1.4480 -2.7677
  457TMC3    C1 6801   2.058   3.928  16.173 -0.1365  0.0567 -0.1751
  457TMC3    C2 6802   1.927   3.921  16.203 -0.1689 -0.4786 -0.0409
  457TMC3    C3 6803   1.873   4.032  16.263  0.1062 -0.3061 -0.3810
  457TMC3    C4 6804   2.127   4.047  16.191  0.3716  0.3874  0.4898
  457TMC3    C5 6805   2.067   4.156  16.245  0.0433 -0.1393  0.1307
  457TMC3    C6 6806   1.937   4.152  16.276  0.1736 -1.2280 -1.3154
  457TMC3     C 6807   2.118   3.804  16.125 -0.5217  0.2054 -0.8723
  457TMC3     O 6808   2.049   3.709  16.144 -0.7220  0.0073  0.1925
  457TMC3     H 6809   1.870   3.831  16.182 -0.1552 -0.7660  1.1583
  457TMC3    H1 6810   2.231   4.065  16.169  0.3938 -1.5848 -0.9808
  457TMC3    H2 6811   1.896   4.237  16.329  1.5897 -1.3697  0.0146
  457TMC3    C7 6812   2.153   4.217  16.344  0.5354 -0.4318  0.0507
  457TMC3    C8 6813   1.742   4.033  16.306  0.3041 -0.7629 -1.1076
  457TMC3    O1 6814   2.232   4.137  16.397 -0.2003 -0.0110  0.2543
  457TMC3    O2 6815   1.700   4.146  16.334  0.4659  0.2224 -0.2442
  458MPD2     C 6816   0.121   4.131  12.509 -0.1370 -0.1245 -0.4374
  458MPD2    C1 6817   0.075   4.095  12.635  0.2067 -0.2488  0.3352
  458MPD2    C2 6818   4.659   4.076  12.653  0.3952 -0.6400  0.0584
  458MPD2    C3 6819   4.570   4.069  12.547 -0.3054  0.1056 -0.6260
  458MPD2    C4 6820   4.624   4.085  12.423  0.6333  0.3592  0.2307
  458MPD2    C5 6821   0.032   4.134  12.405  0.2317  0.2312  0.1692
  458MPD2     H 6822   4.623   4.066  12.754 -0.7996 -1.5626 -0.4650
  458MPD2    H1 6823   4.570   4.076  12.329  0.1414 -2.7362  0.8172
  458MPD2    H2 6824   0.227   4.147  12.494 -0.0715 -0.5707 -0.4586
  458MPD2    H3 6825   0.064   4.141  12.302  0.8349 -0.4201  0.3093
  458MPD2     N 6826   4.435   4.046  12.577  0.0865 -0.0451  0.1211
  458MPD2    H5 6827   4.411   4.016  12.671 -0.7708  1.7742  0.4753
  458MPD2    N1 6828   0.174   4.085  12.732 -0.6624  0.5139 -0.0763
  458MPD2    H7 6829   0.270   4.093  12.703 -0.0806 -1.2385  1.3863
  459TMC3    C1 6830   0.257   4.072  12.952 -0.2819 -0.2795 -0.0502
  459TMC3    C2 6831   0.360   4.160  12.926 -0.6680 -0.2415 -0.0769
  459TMC3    C3 6832   0.447   4.199  13.031  0.2487 -0.4295 -0.1941
  459TMC3    C4 6833   0.236   4.028  13.077 -1.0821  0.1844 -0.1191
  459TMC3    C5 6834   0.319   4.061  13.179  0.5439 -0.0628  0.0787
  459TMC3    C6 6835   0.428   4.145  13.157  0.0278 -0.6662  0.0463
  459TMC3     C 6836   0.148   4.056  12.863 -0.7484  0.0766  0.1174
  459TMC3     O 6837   0.055   4.004  12.910  0.2793 -0.2012  0.5163
  459TMC3     H 6838   0.372   4.209  12.830  0.6965 -0.5610 -0.0721
  459TMC3    H1 6839   0.152   3.968  13.109 -0.7532  0.1328  0.6466
  459TMC3    H2 6840   0.501   4.148  13.238 -1.7124 -0.8353  1.6118
  459TMC3    C7 6841   0.304   3.996  13.304  0.1613  0.1471 -0.4590
  459TMC3    C8 6842   0.547   4.301  13.001 -0.6373  0.2113 -0.1156
  459TMC3    O1 6843   0.229   3.903  13.299  0.8065  0.3903 -0.1310
  459TMC3    O2 6844   0.592   4.303  12.886  0.3113 -0.9694 -0.2636
  460MPD2     C 6845   3.959   1.568  10.757 -0.7232 -0.2078 -0.0230
  460MPD2    C1 6846   3.842   1.635  10.771  0.2608  0.5250 -0.3428
  460MPD2    C2 6847   3.769   1.671  10.662 -0.3792  0.1217  0.0755
  460MPD2    C3 6848   3.801   1.619  10.535 -0.2247  0.2598  0.4351
  460MPD2    C4 6849   3.913   1.534  10.529 -0.0986  0.8112 -0.2459
  460MPD2    C5 6850   3.987   1.512  10.636  0.2472 -0.2462  0.4227
  460MPD2     H 6851   3.684   1.738  10.671  0.6071  1.2778  0.8528
  460MPD2    H1 6852   3.949   1.499  10.433  2.1100 -0.1083  0.9369
  460MPD2    H2 6853   4.033   1.549  10.834 -1.6376 -0.2607  0.8479
  460MPD2    H3 6854   4.085   1.467  10.622  0.5003  0.5105 -0.2010
  460MPD2     N 6855   3.726   1.652  10.423  0.2053  0.3695  0.4487
  460MPD2    H5 6856   3.650   1.717  10.430  0.3989  0.8159 -1.4436
  460MPD2    N1 6857   3.816   1.667  10.909  0.4810  0.0185 -0.8014
  460MPD2    H7 6858   3.888   1.634  10.973 -1.1906 -2.1144 -0.0129
  461TMC3    C1 6859   3.654   1.629  10.197  0.4889 -0.0627  0.5081
  461TMC3    C2 6860   3.622   1.535  10.102 -0.0252  0.0873  0.4360
  461TMC3    C3 6861   3.545   1.577   9.996  0.2819 -0.2306 -0.0485
  461TMC3    C4 6862   3.619   1.757  10.172 -0.5228  0.2572 -0.1054
  461TMC3    C5 6863   3.541   1.790  10.060  0.1743 -0.4257  0.3644
  461TMC3    C6 6864   3.504   1.697   9.971 -0.0932 -0.1785  0.0933
  461TMC3     C 6865   3.745   1.587  10.303 -0.2580 -0.2121  0.9113
  461TMC3     O 6866   3.791   1.477  10.283 -0.9942 -0.5224  0.7255
  461TMC3     H 6867   3.631   1.430  10.129 -0.7065 -0.4319 -1.3623
  461TMC3    H1 6868   3.666   1.831  10.236  1.6765 -0.5764 -0.7681
  461TMC3    H2 6869   3.442   1.727   9.887  1.2033  2.0508 -0.0397
  461TMC3    C7 6870   3.521   1.933  10.025  0.1092  0.6665 -0.7807
  461TMC3    C8 6871   3.543   1.480   9.888 -0.0438 -0.6759 -0.1049
  461TMC3    O1 6872   3.441   1.950   9.932 -0.5177  0.2082 -0.2046
  461TMC3    O2 6873   3.630   1.395   9.886  0.3551 -0.1759  0.2583
  462TMC3    C1 6874   4.259   1.439   0.411  0.4833  0.3659 -0.0031
  462TMC3    C2 6875   4.320   1.365   0.316 -0.0335  0.1230  0.0523
  462TMC3    C3 6876   4.278   1.236   0.301 -0.8787 -0.3716 -0.3769
  462TMC3    C4 6877   4.169   1.390   0.498  0.2978 -0.4019 -0.3450
  462TMC3    C5 6878   4.151   1.254   0.497  0.4595 -0.3411  0.0327
  462TMC3    C6 6879   4.206   1.173   0.400  0.2070 -0.1788 -0.0068
  462TMC3     C 6880   4.290   1.581   0.414  0.6240  0.9422 -0.3081
  462TMC3     O 6881   4.344   1.623   0.310  0.1814 -0.2864  0.1152
  462TMC3     H 6882   4.379   1.415   0.240 -2.6564 -0.3511 -2.2865
  462TMC3    H1 6883   4.110   1.453   0.563 -0.5662 -0.2945 -1.2356
  462TMC3    H2 6884   4.156   1.078   0.383 -1.2579  0.6693 -0.4075
  462TMC3    C7 6885   4.040   1.200   0.569 -0.0499 -0.1910 -0.2112
  462TMC3    C8 6886   4.299   1.165   0.177 -0.1388 -0.4021 -0.3959
  462TMC3    O1 6887   3.953   1.281   0.607 -0.4947 -0.0137 -0.9274
  462TMC3    O2 6888   4.280   1.044   0.188  0.1671 -0.6206  0.2494
  463MPD2     C 6889   4.255   1.095   2.298 -0.3654  0.0566  0.3764
  463MPD2    C1 6890   4.186   1.150   2.194  1.3093 -0.1289 -0.2589
  463MPD2    C2 6891   4.263   1.229   2.111 -0.6274  0.2953  0.5708
  463MPD2    C3 6892   4.392   1.262   2.124  0.2429 -0.2875  0.6663
  463MPD2    C4 6893   4.461   1.207   2.227 -0.0364  0.6687 -0.0882
  463MPD2    C5 6894   4.385   1.134   2.318 -0.7779 -0.6268 -0.5490
  463MPD2     H 6895   4.206   1.267   2.027 -3.5461 -1.2424  1.8416
  463MPD2    H1 6896   4.568   1.193   2.240  0.1178  2.2272  0.3287
  463MPD2    H2 6897   4.213   1.024   2.369 -0.6683  1.2460  1.4058
  463MPD2    H3 6898   4.446   1.094   2.397  0.0102 -0.0028 -0.8497
  463MPD2     N 6899   4.456   1.348   2.031 -0.4329 -0.0115  0.0017
  463MPD2    H5 6900   4.551   1.376   2.052  0.1687 -1.2941 -1.0451
  463MPD2    N1 6901   4.054   1.121   2.157  0.4629 -0.1064  0.1686
  463MPD2    H7 6902   4.028   1.151   2.064 -1.7947 -2.5194  0.0082
  464TMC3    C1 6903   3.848   1.009   2.156  0.4064  0.2447  0.4037
  464TMC3    C2 6904   3.826   1.062   2.029  0.3101 -0.3643 -0.1397
  464TMC3    C3 6905   3.725   1.006   1.957 -0.0028 -0.9971  0.6227
  464TMC3    C4 6906   3.756   0.924   2.209  0.5865 -0.4103  0.2476
  464TMC3    C5 6907   3.658   0.869   2.131  0.1248  0.5877  0.9275
  464TMC3    C6 6908   3.648   0.901   1.998  0.0318 -0.2398  0.6160
  464TMC3     C 6909   3.971   1.040   2.233 -0.3812  0.2481  0.0562
  464TMC3     O 6910   3.968   1.003   2.346  0.0986  0.5775 -0.4802
  464TMC3     H 6911   3.888   1.130   1.972 -0.2562  1.3122  1.2392
  464TMC3    H1 6912   3.758   0.890   2.312  0.6430 -0.9634  0.0646
  464TMC3    H2 6913   3.565   0.866   1.937  1.6830 -1.4944 -0.9085
  464TMC3    C7 6914   3.539   0.832   2.198  0.0377 -0.2956 -0.1496
  464TMC3    C8 6915   3.725   1.047   1.816 -0.1336 -0.7644  0.1013
  464TMC3    O1 6916   3.526   0.874   2.314  0.3738  0.0448  0.0728
  464TMC3    O2 6917   3.826   1.091   1.767  0.0261 -0.2979 -0.4538
  465MPD2     C 6918   0.970   4.379  16.548  0.8641 -0.0326 -0.6388
  465MPD2    C1 6919   0.847   4.320  16.564  0.1635 -1.2446 -0.3017
  465MPD2    C2 6920   0.738   4.377  16.501  0.2733  0.5176  0.6375
  465MPD2    C3 6921   0.755   4.480  16.418  0.1993  0.4866  0.1166
  465MPD2    C4 6922   0.875   4.539  16.399 -0.1558 -0.2028  0.2548
  465MPD2    C5 6923   0.982   4.488  16.471 -0.5548  0.2368  0.3098
  465MPD2     H 6924   0.639   4.337  16.520  0.7909 -2.1042 -2.1590
  465MPD2    H1 6925   0.895   4.630  16.345  1.8867 -0.5461  0.4037
  465MPD2    H2 6926   1.053   4.357  16.614  0.6769  1.5946  0.1394
  465MPD2    H3 6927   1.078   4.539  16.470  0.7530 -2.2392  0.1545
  465MPD2     N 6928   0.636   4.505  16.339  0.3264  0.2059  0.2882
  465MPD2    H5 6929   0.550   4.455  16.354  0.7392 -0.2538  1.0876
  465MPD2    N1 6930   0.820   4.204  16.640  0.1569  0.1868 -0.8901
  465MPD2    H7 6931   0.725   4.169  16.652 -0.1765  0.9186 -1.4375
  466TMC3    C1 6932   0.340   4.389  16.213  0.0684 -0.2324 -0.1653
  466TMC3    C2 6933   0.251   4.490  16.200  0.5471  0.1924  0.3564
  466TMC3    C3 6934   0.285   4.611  16.163  0.0495 -0.0107 -0.1502
  466TMC3    C4 6935   0.473   4.414  16.194 -0.3011  0.3979  0.0258
  466TMC3    C5 6936   0.502   4.542  16.168  0.2712 -0.1902 -0.4094
  466TMC3    C6 6937   0.416   4.644  16.151  0.0710  0.4432 -0.1242
  466TMC3     C 6938   0.325   4.307  16.335 -0.4067 -0.5762 -0.2657
  466TMC3     O 6939   0.427   4.295  16.399 -0.0783 -0.4492 -0.1224
  466TMC3     H 6940   0.145   4.476  16.219 -0.2475  2.9238 -2.0840
  466TMC3    H1 6941   0.549   4.337  16.202 -1.0785 -0.4795 -1.0547
  466TMC3    H2 6942   0.444   0.025  16.120  1.3560 -0.2502 -1.2095
  466TMC3    C7 6943   0.625   4.586  16.233  0.7606  0.4459  0.4422
  466TMC3    C8 6944   0.182   4.708  16.150  0.1296 -0.1081  0.6327
  466TMC3    O1 6945   0.678   4.689  16.208 -0.5813  0.3401  0.2650
  466TMC3    O2 6946   0.072   4.675  16.114  0.8757  0.8540  0.4300
  467TMC3    C1 6947   1.627   3.122  14.065 -0.7388  0.5193 -0.2094
  467TMC3    C2 6948   1.633   3.040  13.956  0.0603 -0.2175  0.4402
  467TMC3    C3 6949   1.546   3.067  13.848  0.7936 -0.3668 -0.1470
  467TMC3    C4 6950   1.529   3.219  14.072 -0.1899 -0.1506 -0.1805
  467TMC3    C5 6951   1.438   3.232  13.972 -0.0912  0.4904  0.1882
  467TMC3    C6 6952   1.447   3.159  13.857  0.6123  0.1571 -0.0688
  467TMC3     C 6953   1.760   3.168  14.105 -0.4937 -0.5979 -0.4288
  467TMC3     O 6954   1.796   3.279  14.069  0.2225 -0.6214  0.0225
  467TMC3     H 6955   1.719   2.976  13.934  0.1995  0.6079 -1.4519
  467TMC3    H1 6956   1.512   3.278  14.162  0.7134  0.5207 -0.4530
  467TMC3    H2 6957   1.381   3.183  13.775 -0.3951 -0.7740  0.4651
  467TMC3    C7 6958   1.316   3.308  13.990 -0.2699  0.1911  0.0155
  467TMC3    C8 6959   1.594   3.064  13.712 -0.4240 -0.1402  0.2347
  467TMC3    O1 6960   1.258   3.353  13.888 -0.3265 -0.6212 -0.2645
  467TMC3    O2 6961   1.557   3.154  13.633  0.4880  0.3834 -0.4234
  468MPD2     C 6962   0.995   1.514  10.762  0.0095 -0.6095 -0.0183
  468MPD2    C1 6963   1.118   1.442  10.747 -0.7975 -0.1829 -0.1416
  468MPD2    C2 6964   1.117   1.311  10.799  0.1197 -0.2073 -0.0554
  468MPD2    C3 6965   0.996   1.254  10.825  1.1198  0.2456  0.9679
  468MPD2    C4 6966   0.880   1.326  10.838 -0.7096  0.2985 -0.2918
  468MPD2    C5 6967   0.880   1.461  10.806  0.2401 -0.8349  1.0144
  468MPD2     H 6968   1.204   1.247  10.789 -0.3530 -0.9648  0.6552
  468MPD2    H1 6969   0.784   1.286  10.869  0.6299 -1.1307  2.0401
  468MPD2    H2 6970   0.989   1.621  10.746  1.2058 -0.7203 -1.1815
  468MPD2    H3 6971   0.787   1.516  10.809 -0.4443 -1.9580  0.4000
  468MPD2     N 6972   0.979   1.109  10.837 -0.0911  0.2476  0.2765
  468MPD2    H5 6973   0.892   1.066  10.865 -0.5788  1.6293  0.8785
  468MPD2    N1 6974   1.230   1.496  10.685 -0.0245  0.0806  0.1372
  468MPD2    H7 6975   1.312   1.435  10.679  0.5325  0.9410 -1.1444
  469TMC3    C1 6976   1.345   1.669  10.556 -0.1068  0.2838 -0.2006
  469TMC3    C2 6977   1.435   1.687  10.654  0.3272  0.3575  0.4368
  469TMC3    C3 6978   1.513   1.805  10.665 -0.2190  0.2720  0.3472
  469TMC3    C4 6979   1.329   1.773  10.465 -0.3129  0.1738  0.1112
  469TMC3    C5 6980   1.414   1.882  10.461  0.1232  0.3128 -0.4645
  469TMC3    C6 6981   1.509   1.898  10.564 -0.3570 -0.0972 -0.6435
  469TMC3     C 6982   1.217   1.605  10.604  0.3551  0.2889  0.2172
  469TMC3     O 6983   1.119   1.659  10.560  0.2036  0.5336  0.1315
  469TMC3     H 6984   1.428   1.621  10.740  0.4978  0.0199  0.1949
  469TMC3    H1 6985   1.240   1.772  10.403 -1.0305 -4.3710  1.1500
  469TMC3    H2 6986   1.578   1.981  10.565 -0.1189 -0.2986 -0.4139
  469TMC3    C7 6987   1.328   2.002  10.461 -0.6677  0.3664  0.1609
  469TMC3    C8 6988   1.596   1.836  10.774 -0.4923 -0.3812 -0.1912
  469TMC3    O1 6989   1.383   2.113  10.443  0.8215  0.0077  0.2650
  469TMC3    O2 6990   1.708   1.870  10.751  0.0079  0.5202  0.1088
  470TMC3    C1 6991   3.272   1.969   0.936  0.5427  0.2777  0.2276
  470TMC3    C2 6992   3.224   2.094   0.886 -0.3669 -0.5363  0.9342
  470TMC3    C3 6993   3.259   2.204   0.965  0.5591  0.8013 -0.4198
  470TMC3    C4 6994   3.355   1.955   1.043  0.1020  0.4005  0.7429
  470TMC3    C5 6995   3.374   2.071   1.114  0.2932 -0.8346 -0.4001
  470TMC3    C6 6996   3.328   2.192   1.075 -0.1897 -0.2673  0.3979
  470TMC3     C 6997   3.225   1.860   0.858 -0.5781  0.3685  0.2047
  470TMC3     O 6998   3.113   1.865   0.813 -0.1355  0.8529 -0.0177
  470TMC3     H 6999   3.169   2.096   0.792  1.7420  0.5358 -0.2897
  470TMC3    H1 7000   3.394   1.860   1.078 -0.3300  0.0367  0.2459
  470TMC3    H2 7001   3.356   2.279   1.134 -1.1118  1.9992 -2.5394
  470TMC3    C7 7002   3.477   2.067   1.210 -0.0898  0.0687  0.6112
  470TMC3    C8 7003   3.188   2.331   0.952  0.3959  0.0581 -1.1982
  470TMC3    O1 7004   3.549   2.169   1.209 -0.1789 -0.0016 -0.1864
  470TMC3    O2 7005   3.204   2.420   1.036 -0.0327 -0.0412 -0.4288
  471MPD2     C 7006   3.323   3.609  16.200  0.1331  0.2141  0.8577
  471MPD2    C1 7007   3.374   3.506  16.274  0.3957 -0.2605  0.0426
  471MPD2    C2 7008   3.401   3.520  16.410  0.1530  0.5923  0.7977
  471MPD2    C3 7009   3.393   3.640  16.473 -0.3851 -0.6648  0.2033
  471MPD2    C4 7010   3.337   3.744  16.400 -0.2865  0.6551  0.0835
  471MPD2    C5 7011   3.300   3.728  16.268  0.2918 -0.4249 -0.8792
  471MPD2     H 7012   3.452   3.437  16.458  0.0327  0.3065  0.4302
  471MPD2    H1 7013   3.329   3.843  16.444  0.7632  1.7427 -2.2183
  471MPD2    H2 7014   3.296   3.604  16.095 -0.8628 -1.1220  1.1759
  471MPD2    H3 7015   3.253   3.816  16.227  0.0662  0.6584  1.6610
  471MPD2     N 7016   3.444   3.661  16.608  0.5812  0.0439 -0.5425
  471MPD2    H5 7017   3.433   3.752  16.651  0.3804  0.0783 -0.6657
  471MPD2    N1 7018   3.400   3.370  16.227 -0.1676  0.5531 -0.2284
  471MPD2    H7 7019   3.445   3.305  16.292 -1.2655  2.0004  1.9710
  472TMC3    C1 7020   3.404   3.186  16.079 -0.1389  0.0694 -0.6909
  472TMC3    C2 7021   3.336   3.133  15.970  0.6147 -0.7450 -0.0341
  472TMC3    C3 7022   3.294   3.003  15.982 -0.2838 -0.5866 -0.4208
  472TMC3    C4 7023   3.435   3.106  16.189 -0.1633  0.1972 -1.0975
  472TMC3    C5 7024   3.398   2.974  16.185  0.2956  0.3075 -0.0992
  472TMC3    C6 7025   3.319   2.923  16.088  1.2991 -0.1993 -0.6871
  472TMC3     C 7026   3.375   3.331  16.101 -0.0088 -0.7838 -0.2197
  472TMC3     O 7027   3.314   3.390  16.016 -0.0064 -0.4906 -0.2972
  472TMC3     H 7028   3.310   3.185  15.879 -0.6877 -1.1686  0.0944
  472TMC3    H1 7029   3.479   3.143  16.281 -0.5006 -0.1169 -0.8104
  472TMC3    H2 7030   3.288   2.819  16.094  0.4858  0.0898  0.0813
  472TMC3    C7 7031   3.434   2.896  16.301  0.1442  0.2894 -0.3577
  472TMC3    C8 7032   3.222   2.942  15.874 -0.1761  0.3209  0.0733
  472TMC3    O1 7033   3.371   2.790  16.314 -0.3047 -0.6146  0.6760
  472TMC3    O2 7034   3.243   2.979  15.758  0.4444  0.1702 -0.0732
  473MPD2     C 7035   3.269   1.228  13.980 -0.2400  0.1664  0.9230
  473MPD2    C1 7036   3.293   1.332  13.892  0.1041  0.2345  0.0769
  473MPD2    C2 7037   3.377   1.432  13.934  0.6450 -0.8014 -0.0708
  473MPD2    C3 7038   3.431   1.437  14.063  0.6954  0.3440  0.5653
  473MPD2    C4 7039   3.403   1.335  14.149 -0.5085  0.2761 -0.6539
  473MPD2    C5 7040   3.324   1.235  14.101  0.8445  0.3407  0.1829
  473MPD2     H 7041   3.390   1.513  13.862 -1.3157 -0.6159 -0.2084
  473MPD2    H1 7042   3.426   1.332  14.255 -0.4746 -1.7206 -0.7209
  473MPD2    H2 7043   3.191   1.154  13.965 -0.9875  1.3460 -1.0093
  473MPD2    H3 7044   3.293   1.165  14.178  1.7296  0.5102  0.6954
  473MPD2     N 7045   3.515   1.544  14.109  0.1820  0.3994  0.0400
  473MPD2    H5 7046   3.561   1.533  14.199 -1.7008 -0.0629  0.9481
  473MPD2    N1 7047   3.254   1.336  13.758  0.0187  0.0004 -0.2561
  473MPD2    H7 7048   3.291   1.417  13.709  0.0319 -0.2154 -0.5957
  474TMC3    C1 7049   3.628   1.753  14.107 -0.6952 -0.3941  0.0217
  474TMC3    C2 7050   3.626   1.885  14.064  0.4024 -0.3099  0.2089
  474TMC3    C3 7051   3.731   1.958  14.111  0.2511  0.9032 -0.6577
  474TMC3    C4 7052   3.731   1.693  14.175  0.4442  0.1932  0.6943
  474TMC3    C5 7053   3.845   1.767  14.190  0.4995 -0.4954  0.7398
  474TMC3    C6 7054   3.852   1.900  14.164 -0.0354  0.7084  0.0180
  474TMC3     C 7055   3.527   1.665  14.056 -0.1549 -0.3441  0.5508
  474TMC3     O 7056   3.484   1.705  13.949 -0.0616  0.3424  0.2064
  474TMC3     H 7057   3.525   1.914  14.038  0.6203  2.1564  2.1034
  474TMC3    H1 7058   3.738   1.586  14.188  1.9067  0.3776  1.4493
  474TMC3    H2 7059   3.941   1.960  14.181  0.2068  0.5948 -0.8185
  474TMC3    C7 7060   3.956   1.712  14.262 -0.0217  0.6430  0.4047
  474TMC3    C8 7061   3.715   2.093  14.147 -0.3051 -0.0656 -0.2994
  474TMC3    O1 7062   4.064   1.770  14.253  0.0202 -0.2643  0.2312
  474TMC3    O2 7063   3.777   2.134  14.244  0.3704  0.2746 -0.1106
  475MPD2     C 7064   1.989   3.847  10.466  0.4311 -0.0425 -0.5227
  475MPD2    C1 7065   2.023   3.978  10.498  0.3830 -0.2086  0.0714
  475MPD2    C2 7066   1.935   4.049  10.577  0.1746 -0.2753  0.1686
  475MPD2    C3 7067   1.807   4.000  10.608 -0.2746  0.4032  0.4811
  475MPD2    C4 7068   1.776   3.870  10.576 -0.3656  0.4975 -0.4758
  475MPD2    C5 7069   1.866   3.801  10.508 -1.0044  0.6145  0.1866
  475MPD2     H 7070   1.967   4.141  10.623  3.0020 -0.3861 -1.5948
  475MPD2    H1 7071   1.681   3.820  10.591  0.7258 -2.3095 -2.8705
  475MPD2    H2 7072   2.047   3.797  10.390  0.8291  1.5749 -1.2894
  475MPD2    H3 7073   1.831   3.708  10.465 -2.1147  1.6035 -1.0903
  475MPD2     N 7074   1.718   4.088  10.677  0.5579  0.2980  0.5986
  475MPD2    H5 7075   1.752   4.180  10.701  0.5903  0.7241 -1.0890
  475MPD2    N1 7076   2.151   4.028  10.455  0.7342 -0.3065 -0.1027
  475MPD2    H7 7077   2.221   3.957  10.436  0.5695 -0.8385  1.3206
  476TMC3    C1 7078   2.071   4.242  10.402 -0.2317  0.3078  0.0460
  476TMC3    C2 7079   1.986   4.209  10.301  1.3081 -0.0334  0.5818
  476TMC3    C3 7080   1.868   4.278  10.285 -0.2082  0.7472  0.0195
  476TMC3    C4 7081   2.045   4.353  10.483  0.5374  0.0420 -0.2378
  476TMC3    C5 7082   1.926   4.410  10.468 -0.3984 -0.2671  0.4399
  476TMC3    C6 7083   1.833   4.374  10.375 -0.6682 -0.3265  0.3834
  476TMC3     C 7084   2.182   4.162  10.445  0.2193 -0.3279 -0.1656
  476TMC3     O 7085   2.292   4.215  10.422  0.2593 -0.3599 -0.2017
  476TMC3     H 7086   2.030   4.148  10.223  1.3840  0.1593  0.4724
  476TMC3    H1 7087   2.111   4.378  10.565  1.7445 -0.0008 -1.2054
  476TMC3    H2 7088   1.752   4.442  10.351 -0.6263  0.6331  2.9255
  476TMC3    C7 7089   1.886   4.482  10.587 -0.5389  0.3275 -0.3734
  476TMC3    C8 7090   1.760   4.199  10.225  0.1402  0.0159 -0.1437
  476TMC3    O1 7091   1.771   4.459  10.614 -0.4458  0.3011 -0.4934
  476TMC3    O2 7092   1.651   4.256  10.223 -0.0529  0.5630  0.2192
  477MPD2     C 7093   4.370   1.069  11.702 -0.4804  0.2596 -0.1596
  477MPD2    C1 7094   4.280   1.040  11.801 -0.3601 -0.0508  0.3005
  477MPD2    C2 7095   4.314   0.993  11.926  0.0964  0.7222  0.6434
  477MPD2    C3 7096   4.452   0.977  11.948  0.3482  0.3583 -0.1005
  477MPD2    C4 7097   4.541   1.010  11.852 -0.3174  0.1145  0.2419
  477MPD2    C5 7098   4.502   1.052  11.727  0.2593  0.3229 -0.0982
  477MPD2     H 7099   4.243   0.963  12.002  0.3617  0.2304  0.7020
  477MPD2    H1 7100   4.649   1.004  11.863 -0.2992  1.2615  0.6488
  477MPD2    H2 7101   4.337   1.102  11.604 -0.9583 -0.4327 -0.2293
  477MPD2    H3 7102   4.579   1.071  11.654 -0.5408 -1.3418 -1.3903
  477MPD2     N 7103   4.493   0.937  12.080  0.5470 -0.4799 -0.2679
  477MPD2    H5 7104   4.420   0.928  12.150 -2.1199  1.1897 -2.8580
  477MPD2    N1 7105   4.142   1.061  11.779 -0.4819 -0.1848 -0.2926
  477MPD2    H7 7106   4.112   1.115  11.698 -0.6289 -1.0580 -0.8157
  478TMC3    C1 7107   3.919   1.102  11.806 -0.7582  0.3980  0.4717
  478TMC3    C2 7108   3.848   1.195  11.869  0.0388 -0.5587 -0.2455
  478TMC3    C3 7109   3.784   1.298  11.802  1.0648  0.0986  0.1042
  478TMC3    C4 7110   3.919   1.101  11.670  0.3951 -0.2202  0.5788
  478TMC3    C5 7111   3.837   1.188  11.599 -0.3107 -0.6714  0.5115
  478TMC3    C6 7112   3.773   1.297  11.662  0.3728 -0.5305  0.0186
  478TMC3     C 7113   4.037   1.063  11.870 -0.2423 -0.3779  0.7580
  478TMC3     O 7114   4.033   1.045  11.988 -0.0941  0.2782  0.2151
  478TMC3     H 7115   3.849   1.196  11.978 -0.9457 -2.2429 -0.2193
  478TMC3    H1 7116   3.952   1.011  11.619 -3.6277 -2.5974  2.1214
  478TMC3    H2 7117   3.706   1.366  11.612  0.8797  0.6301  0.9414
  478TMC3    C7 7118   3.882   1.202  11.460  0.0569  0.1262 -0.0657
  478TMC3    C8 7119   3.760   1.423  11.877  0.2173 -0.6315  0.4573
  478TMC3    O1 7120   3.980   1.141  11.425 -0.7155  0.4016 -0.4793
  478TMC3    O2 7121   3.786   1.420  11.994  0.2724 -0.2992 -0.0027
  479MPD2     C 7122   3.123   2.919  14.824  0.1425 -0.3473 -0.5776
  479MPD2    C1 7123   3.105   2.780  14.852 -0.5549  0.4529  0.0158
  479MPD2    C2 7124   3.175   2.727  14.958 -0.2338  0.1099 -0.6676
  479MPD2    C3 7125   3.253   2.808  15.032 -0.5971  0.0462 -0.4114
  479MPD2    C4 7126   3.280   2.938  14.993  0.2677 -0.1993  0.0747
  479MPD2    C5 7127   3.223   2.993  14.886  0.1122 -0.4088  0.2676
  479MPD2     H 7128   3.155   2.624  14.981  1.3722 -0.4384 -1.7620
  479MPD2    H1 7129   3.346   3.000  15.053  0.8788  1.2122 -2.0651
  479MPD2    H2 7130   3.061   2.964  14.748 -1.2891  0.5099  1.0809
  479MPD2    H3 7131   3.243   3.095  14.856  2.3522 -0.2337  2.3499
  479MPD2     N 7132   3.300   2.764  15.160 -0.4427  0.0560 -0.3110
  479MPD2    H5 7133   3.376   2.823  15.192 -1.9136  0.5676  2.2341
  479MPD2    N1 7134   2.997   2.713  14.793 -0.1353  0.3138  0.5252
  479MPD2    H7 7135   2.930   2.765  14.738 -0.0826  1.8596  1.9287
  480TMC3    C1 7136   2.921   2.503  15.263  0.0733  0.5144 -0.3703
  480TMC3    C2 7137   2.844   2.602  15.197  0.1438 -0.2032  0.0945
  480TMC3    C3 7138   2.896   2.721  15.165 -0.6563  0.0593 -0.0800
  480TMC3    C4 7139   3.055   2.517  15.270  0.4515 -0.5884  0.0474
  480TMC3    C5 7140   3.103   2.642  15.244  0.0450 -0.1172  0.2472
  480TMC3    C6 7141   3.022   2.749  15.204 -0.7724  0.1711  0.2959
  480TMC3     C 7142   2.859   2.401  15.335 -0.4863  0.3556 -0.1363
  480TMC3     O 7143   2.925   2.306  15.361  0.0521 -0.2311 -0.3217
  480TMC3     H 7144   2.738   2.589  15.181  0.1912  0.2955 -0.6294
  480TMC3    H1 7145   3.119   2.437  15.307  0.0536 -1.7367 -1.7430
  480TMC3    H2 7146   3.066   2.848  15.203  0.2751 -0.3116 -1.0080
  480TMC3    C7 7147   3.248   2.660  15.239 -0.1940  0.5200 -0.2156
  480TMC3    C8 7148   2.806   2.828  15.136 -0.8071 -0.1428  0.4318
  480TMC3    O1 7149   3.304   2.615  15.340  0.6068  0.1522  0.3081
  480TMC3    O2 7150   2.686   2.809  15.145 -0.0208 -0.1949 -0.3594
  481MPD2     C 7151   0.230   2.342  14.660  0.1596 -0.6980  0.5284
  481MPD2    C1 7152   0.121   2.260  14.633 -0.2267  0.0319 -0.1149
  481MPD2    C2 7153   0.123   2.133  14.692 -0.4168 -0.3521 -0.2149
  481MPD2    C3 7154   0.231   2.096  14.779 -0.4831 -0.2840  0.6371
  481MPD2    C4 7155   0.334   2.186  14.800 -0.3134 -0.3281  0.1257
  481MPD2    C5 7156   0.336   2.302  14.733  0.1753 -0.0679  1.1204
  481MPD2     H 7157   0.051   2.058  14.662  0.2972 -1.8637  1.8731
  481MPD2    H1 7158   0.413   2.169  14.873 -0.6433 -3.4667 -0.2226
  481MPD2    H2 7159   0.231   2.444  14.624 -0.3047 -0.7440  0.3859
  481MPD2    H3 7160   0.414   2.376  14.748  0.5774 -0.2521 -0.0009
  481MPD2     N 7161   0.244   1.977  14.844 -0.1422 -0.5916  0.3020
  481MPD2    H5 7162   0.331   1.963  14.895  0.0285  0.3159  0.2477
  481MPD2    N1 7163   0.014   2.310  14.560 -0.1893  0.5807  0.6197
  481MPD2    H7 7164   0.024   2.401  14.515  0.7012 -0.6416 -1.6385
  482TMC3    C1 7165   4.530   2.321  14.441 -0.2094 -0.4619 -1.3134
  482TMC3    C2 7166   4.451   2.253  14.357  0.4191 -0.2314 -0.4265
  482TMC3    C3 7167   4.374   2.316  14.264 -0.3066 -0.1428  0.2476
  482TMC3    C4 7168   4.528   2.459  14.435  0.4155  0.7949 -0.4478
  482TMC3    C5 7169   4.455   2.523  14.336 -0.1469 -0.6062 -0.1313
  482TMC3    C6 7170   4.374   2.451  14.256 -0.1124  0.2810  0.2130
  482TMC3     C 7171   4.616   2.246  14.536 -1.0351  0.2989 -0.2757
  482TMC3     O 7172   4.585   2.135  14.571  0.4200 -0.3627 -0.3808
  482TMC3     H 7173   4.450   2.145  14.368 -0.1534 -0.3150 -1.2410
  482TMC3    H1 7174   4.592   2.520  14.497 -0.6420  2.2580 -0.7836
  482TMC3    H2 7175   4.329   2.506  14.174  1.7262  1.6365  0.1079
  482TMC3    C7 7176   4.482   2.660  14.311  0.2973 -0.4780  0.7338
  482TMC3    C8 7177   4.291   2.240  14.170 -0.1388  0.6070 -0.0636
  482TMC3    O1 7178   4.523   2.729  14.407 -0.8209  0.1893 -0.2912
  482TMC3    O2 7179   4.298   2.120  14.170 -0.0535  0.2831  0.1310
  483TMC3    C1 7180   2.164   1.270   1.093 -0.2055  0.4162  0.2997
  483TMC3    C2 7181   2.299   1.265   1.096  0.1961 -0.2754 -0.2076
  483TMC3    C3 7182   2.350   1.195   1.195 -0.5840 -0.0652  0.3307
  483TMC3    C4 7183   2.077   1.244   1.197  0.4850 -0.2080  0.4006
  483TMC3    C5 7184   2.140   1.185   1.299 -0.2224 -0.2006 -0.2133
  483TMC3    C6 7185   2.275   1.162   1.303 -0.4886  0.0241 -0.8116
  483TMC3     C 7186   2.108   1.280   0.960  0.4666  0.1290  0.6457
  483TMC3     O 7187   2.152   1.354   0.876 -0.2201  0.0240 -0.3348
  483TMC3     H 7188   2.358   1.286   1.008 -0.8884  0.9956 -0.6355
  483TMC3    H1 7189   1.969   1.250   1.189  0.7695  2.7688 -1.2611
  483TMC3    H2 7190   2.311   1.107   1.389  0.7291  1.0024 -0.6935
  483TMC3    C7 7191   2.061   1.077   1.360 -0.1202 -0.8237  0.4757
  483TMC3    C8 7192   2.484   1.149   1.179  0.0711 -0.1430  0.4555
  483TMC3    O1 7193   1.946   1.105   1.389 -0.0376 -0.4662 -0.4385
  483TMC3    O2 7194   2.537   1.175   1.072 -0.1208 -0.0156  0.5445
  484MPD2     C 7195   0.747   4.445  13.273 -0.3444  0.5237  0.3486
  484MPD2    C1 7196   0.724   4.418  13.141  0.3413  0.3194 -0.1309
  484MPD2    C2 7197   0.820   4.433  13.047 -0.1510 -0.5841 -0.5049
  484MPD2    C3 7198   0.943   4.488  13.084  0.1376 -0.0127  0.0769
  484MPD2    C4 7199   0.971   4.508  13.220  0.3391  0.0442  0.1199
  484MPD2    C5 7200   0.868   4.497  13.313  0.4066  0.1463 -0.2373
  484MPD2     H 7201   0.798   4.405  12.944  2.4328 -1.4153 -0.8411
  484MPD2    H1 7202   1.067   4.541  13.259  0.2993  1.2206 -0.7906
  484MPD2    H2 7203   0.669   4.432  13.348  0.0066 -0.0915  0.6013
  484MPD2    H3 7204   0.890   4.524  13.415  0.1041 -2.4181  0.4988
  484MPD2     N 7205   1.039   4.523  12.988 -0.2541 -0.5564  0.2381
  484MPD2    H5 7206   1.130   4.558  13.018  1.1212 -2.1904 -1.9710
  484MPD2    N1 7207   0.602   4.344  13.119  0.2078  0.4933 -0.1860
  484MPD2    H7 7208   0.551   4.334  13.207  1.6025 -0.6349  0.5084
  485TMC3    C1 7209   1.136   4.570  12.781 -0.1456  0.2846  0.0760
  485TMC3    C2 7210   1.109   4.614  12.655 -0.2652  0.0829  0.2986
  485TMC3    C3 7211   1.212   4.684  12.596  0.1644  0.9471 -0.5201
  485TMC3    C4 7212   1.259   4.562  12.832 -0.0426  0.3809 -0.1515
  485TMC3    C5 7213   1.362   4.625  12.762 -0.2814  0.1996 -0.1780
  485TMC3    C6 7214   1.340   4.689  12.648  0.3048 -0.6913  0.1038
  485TMC3     C 7215   1.024   4.513  12.854  0.0174 -0.1806 -0.2430
  485TMC3     O 7216   0.929   4.492  12.786 -0.0107 -0.3184 -0.1864
  485TMC3     H 7217   1.008   4.623  12.615 -0.3123 -1.8433 -0.0251
  485TMC3    H1 7218   1.287   4.509  12.923  0.7426 -2.5636 -2.1085
  485TMC3    H2 7219   1.423   0.025  12.607  0.5648 -0.1885  1.3163
  485TMC3    C7 7220   1.477   4.540  12.764 -0.1373  0.4000 -0.0915
  485TMC3    C8 7221   1.232   4.680  12.454  0.3344  0.3023 -0.1249
  485TMC3    O1 7222   1.516   4.480  12.863 -0.0626  0.7088  0.1702
  485TMC3    O2 7223   1.350   4.667  12.421  0.3781  0.1006  0.1366
  486MPD2     C 7224   2.715   3.205  13.081 -0.2505  0.0321  0.2436
  486MPD2    C1 7225   2.745   3.173  12.951 -0.1952 -1.0873 -0.1900
  486MPD2    C2 7226   2.739   3.281  12.854 -0.5997  0.5846 -0.5812
  486MPD2    C3 7227   2.703   3.410  12.891  0.4058  0.1278 -0.6273
  486MPD2    C4 7228   2.670   3.432  13.027  0.0853  0.6848 -0.3930
  486MPD2    C5 7229   2.682   3.330  13.117  0.1581  0.6209  0.7113
  486MPD2     H 7230   2.763   3.265  12.750 -0.3489 -1.1443 -0.2662
  486MPD2    H1 7231   2.624   3.527  13.052 -0.6598  0.5792 -1.3538
  486MPD2    H2 7232   2.715   3.128  13.158  1.5499  0.5110  0.7333
  486MPD2    H3 7233   2.652   3.354  13.218  0.9867 -1.2446  1.3939
  486MPD2     N 7234   2.700   3.515  12.798  0.2583 -0.1199 -0.3738
  486MPD2    H5 7235   2.721   3.490  12.701 -1.3149 -0.1637 -0.6910
  486MPD2    N1 7236   2.771   3.040  12.922  0.1102 -0.3331  0.1812
  486MPD2    H7 7237   2.784   2.984  13.006 -0.2300  0.4398  0.7507
  487TMC3    C1 7238   2.834   2.851  12.806 -0.5308 -0.3760  0.3938
  487TMC3    C2 7239   2.807   2.790  12.691  0.0038 -0.6221 -0.6141
  487TMC3    C3 7240   2.869   2.672  12.668  0.1656 -0.0736 -0.7572
  487TMC3    C4 7241   2.907   2.790  12.901  0.2942  0.7890 -0.1642
  487TMC3    C5 7242   2.960   2.667  12.879  0.2511 -0.2942 -0.0174
  487TMC3    C6 7243   2.948   2.614  12.758  0.4524 -0.8347 -0.9722
  487TMC3     C 7244   2.801   2.990  12.806  0.1445  0.0507  0.2655
  487TMC3     O 7245   2.786   3.041  12.695  0.2147  0.5766 -0.2394
  487TMC3     H 7246   2.735   2.830  12.620 -0.3040  0.7235  0.4604
  487TMC3    H1 7247   2.929   2.842  12.994  2.2876 -0.9618  0.3376
  487TMC3    H2 7248   2.972   2.508  12.751 -0.4120 -1.0866 -0.2325
  487TMC3    C7 7249   2.940   2.587  12.997 -1.1374  0.0538 -0.4573
  487TMC3    C8 7250   2.790   2.574  12.604  0.1832 -0.4253  0.2432
  487TMC3    O1 7251   2.874   2.643  13.085 -0.0621  0.0872  0.2643
  487TMC3    O2 7252   2.841   2.492  12.534  0.0122  0.8251 -0.3004
  488MPD2     C 7253   3.006   4.384  16.812 -0.1332 -0.2927 -0.1049
  488MPD2    C1 7254   3.030   4.510  16.868 -0.6510  0.4127  0.3465
  488MPD2    C2 7255   2.992   4.540  16.995 -0.1975  0.7222 -1.1233
  488MPD2    C3 7256   2.936   4.446  17.078  0.4114  0.1299  0.1151
  488MPD2    C4 7257   2.912   4.326  17.021 -0.0245  0.3664 -0.2485
  488MPD2    C5 7258   2.950   4.296  16.893  0.2561 -0.2911  0.4831
  488MPD2     H 7259   3.002   4.643  17.027 -1.5911  0.6093 -0.3045
  488MPD2    H1 7260   2.858   4.243  17.066  0.6507 -1.0591 -2.1134
  488MPD2    H2 7261   3.031   4.353  16.711 -0.3164  1.3937 -0.6684
  488MPD2    H3 7262   2.942   4.196  16.851 -1.0926 -0.1189  0.3265
  488MPD2     N 7263   2.901   4.480  17.211  0.3900 -0.8868  0.9489
  488MPD2    H5 7264   2.925   4.575  17.237  0.8692  0.0774 -2.9404
  488MPD2    N1 7265   3.066   4.623  16.790 -0.3930 -0.5422  0.3643
  488MPD2    H7 7266   3.090   4.711  16.835  3.7364 -1.5753  0.2069
  489TMC3    C1 7267   2.826   4.429  17.431 -0.4652  0.4274 -0.1369
  489TMC3    C2 7268   2.840   4.560  17.464 -0.9067 -0.3563 -0.4080
  489TMC3    C3 7269   2.826   4.602  17.594  0.4487  0.1260  0.0459
  489TMC3    C4 7270   2.816   4.329  17.527  0.1327  0.0254  0.6058
  489TMC3    C5 7271   2.806   4.372  17.662 -0.3113  0.1926  0.6677
  489TMC3    C6 7272   2.794   4.509   0.015  0.3146 -0.1699 -0.6507
  489TMC3     C 7273   2.844   4.385  17.291 -0.0680  0.8844  0.0986
  489TMC3     O 7274   2.826   4.268  17.275  0.1128  0.2820 -0.1589
  489TMC3     H 7275   2.839   4.631  17.383 -1.6496  0.3820  0.2467
  489TMC3    H1 7276   2.820   4.227  17.491 -3.0209  0.8487 -2.0207
  489TMC3    H2 7277   2.784   4.543   0.117  1.6586 -2.3557  0.2010
  489TMC3    C7 7278   2.790   4.275   0.083 -0.4453  0.1872 -0.3760
  489TMC3    C8 7279   2.810   0.026  17.626 -0.2761 -0.0510  0.3498
  489TMC3    O1 7280   2.828   4.301   0.197  0.5135  0.1550 -0.0994
  489TMC3    O2 7281   2.776   0.054   0.059 -0.1251 -0.5404 -0.7309
  490MPD2     C 7282   3.924   3.766   0.366 -0.5179 -0.4870 -0.2240
  490MPD2    C1 7283   3.843   3.873   0.388 -0.4722 -0.3098  0.1550
  490MPD2    C2 7284   3.872   3.958   0.495 -0.1376 -0.2492  0.6863
  490MPD2    C3 7285   3.972   3.929   0.587  0.1577 -0.8207  0.1012
  490MPD2    C4 7286   4.058   3.825   0.557 -0.0688 -0.5163 -0.0111
  490MPD2    C5 7287   4.026   3.738   0.456 -0.1611  0.3833 -0.7627
  490MPD2     H 7288   3.817   4.051   0.496  0.3263  0.0051  1.8946
  490MPD2    H1 7289   4.133   3.801   0.631 -0.6868  1.8390  1.3789
  490MPD2    H2 7290   3.909   3.689   0.291 -1.9310  1.2979 -1.7570
  490MPD2    H3 7291   4.087   3.649   0.445 -2.9708 -1.7571  0.8840
  490MPD2     N 7292   4.007   4.019   0.689 -0.6170  0.0557  0.2233
  490MPD2    H5 7293   4.094   4.014   0.741  1.8389  0.8323 -3.8183
  490MPD2    N1 7294   3.730   3.899   0.310  0.0085 -0.6315 -0.1238
  490MPD2    H7 7295   3.676   3.980   0.338  1.7474 -0.3628  2.4333
  491TMC3    C1 7296   3.541   3.830   0.182  0.5134 -0.0197 -0.9024
  491TMC3    C2 7297   3.462   3.895   0.276 -0.0134 -0.1791 -0.0013
  491TMC3    C3 7298   3.328   3.912   0.251 -0.0743 -0.4167  0.4113
  491TMC3    C4 7299   3.478   3.776   0.073  0.3781 -0.1836 -0.5487
  491TMC3    C5 7300   3.343   3.784   0.062 -0.4982 -0.0267 -0.1357
  491TMC3    C6 7301   3.261   3.858   0.144  0.0043  0.1317  0.6465
  491TMC3     C 7302   3.686   3.822   0.201  0.8899  0.0414 -0.0078
  491TMC3     O 7303   3.754   3.762   0.122 -0.2159 -0.6660  0.2943
  491TMC3     H 7304   3.504   3.919   0.373  1.7801  0.3292 -0.8951
  491TMC3    H1 7305   3.526   3.715  17.678  1.5773  0.9751 -0.7279
  491TMC3    H2 7306   3.154   3.863   0.124  0.2346 -1.3178 -1.0305
  491TMC3    C7 7307   3.268   3.719  17.641  0.3091  0.6789 -0.3311
  491TMC3    C8 7308   3.236   3.987   0.338 -0.6523  0.4222 -0.0994
  491TMC3    O1 7309   3.165   3.661   0.001  0.6771  0.3526  0.8586
  491TMC3    O2 7310   3.127   3.933   0.351  0.2215 -0.0085  0.1871
  492MPD2     C 7311   3.370   3.874  10.374  1.0899 -0.3311 -0.2383
  492MPD2    C1 7312   3.489   3.927  10.422  0.4889  0.6451 -0.5672
  492MPD2    C2 7313   3.516   3.915  10.561 -0.3531 -0.8773  0.0977
  492MPD2    C3 7314   3.414   3.871  10.639 -0.7137 -1.2333 -0.3305
  492MPD2    C4 7315   3.296   3.825  10.585  0.9681 -0.4021  0.4756
  492MPD2    C5 7316   3.273   3.826  10.453 -0.3219  0.7509  0.1026
  492MPD2     H 7317   3.595   3.972  10.608 -0.2539  0.2053 -1.3726
  492MPD2    H1 7318   3.222   3.798  10.659  0.3041 -0.5113 -0.2305
  492MPD2    H2 7319   3.353   3.889  10.268  1.5426 -0.6478 -0.3586
  492MPD2    H3 7320   3.181   3.788  10.411 -0.0372 -2.7412  2.6129
  492MPD2     N 7321   3.404   3.883  10.779  0.1645 -0.3187  0.5701
  492MPD2    H5 7322   3.317   3.855  10.823  0.3552 -2.8083 -0.6152
  492MPD2    N1 7323   3.580   3.983  10.326  0.0408 -0.3105 -0.4372
  492MPD2    H7 7324   3.544   3.996  10.232  0.3889  2.4291 -0.1907
  493TMC3    C1 7325   3.773   4.063  10.224 -0.2347 -0.7927 -0.1528
  493TMC3    C2 7326   3.897   4.119  10.236  0.0483  0.7749 -0.0219
  493TMC3    C3 7327   3.955   4.179  10.130 -0.4195  0.2957 -0.0871
  493TMC3    C4 7328   3.703   4.079  10.110 -0.6162  0.7016 -0.2116
  493TMC3    C5 7329   3.761   4.151  10.006 -0.1935 -0.0582  0.2045
  493TMC3    C6 7330   3.882   4.206  10.016  0.7368 -0.3050  0.5045
  493TMC3     C 7331   3.708   4.020  10.350 -0.2576  0.0716  0.3994
  493TMC3     O 7332   3.761   4.028  10.462  0.3429  0.2463 -0.0263
  493TMC3     H 7333   3.958   4.094  10.322  0.4571  0.5714 -0.3766
  493TMC3    H1 7334   3.605   4.041  10.082 -0.4353  1.3434 -1.7297
  493TMC3    H2 7335   3.926   4.264   9.935 -1.2747 -0.0868 -0.4274
  493TMC3    C7 7336   3.673   4.196   9.902 -0.0175 -0.2702  0.2013
  493TMC3    C8 7337   4.089   4.228  10.144 -0.1835 -0.4086 -0.2044
  493TMC3    O1 7338   3.591   4.115   9.860 -0.2818 -0.3287  0.4138
  493TMC3    O2 7339   4.148   4.185  10.242 -0.1211 -0.0003  0.4838
  494TMC3    C1 7340   4.488   0.804   0.550  0.5326 -0.7031  0.5483
  494TMC3    C2 7341   4.538   0.676   0.541  0.2840 -0.4035 -0.0697
  494TMC3    C3 7342   4.611   0.634   0.431 -0.1401  0.4753 -0.5124
  494TMC3    C4 7343   4.511   0.890   0.446  0.2996  0.5835  0.8295
  494TMC3    C5 7344   4.589   0.839   0.343  0.0433 -0.4877 -0.4804
  494TMC3    C6 7345   4.637   0.712   0.325 -0.2899  0.0550 -0.4648
  494TMC3     C 7346   4.388   0.852   0.647  0.3287  0.3871  0.3121
  494TMC3     O 7347   4.303   0.940   0.617 -0.5341 -0.3421  0.5178
  494TMC3     H 7348   4.523   0.605   0.623 -2.1426  1.1961  0.8842
  494TMC3    H1 7349   4.451   0.980   0.440 -0.8983 -0.1760  1.3572
  494TMC3    H2 7350   0.002   0.700   0.260 -1.4353  0.7280 -2.0703
  494TMC3    C7 7351   4.641   0.923   0.233  0.6021 -0.0932  0.2245
  494TMC3    C8 7352   4.658   0.496   0.438  0.2342 -0.2482  0.4772
  494TMC3    O1 7353   4.677   0.875   0.128  0.0856 -0.1839  0.4739
  494TMC3    O2 7354   4.638   0.429   0.542 -0.0477 -0.1209 -0.4973
  495TMC3    C1 7355   3.174   3.502  14.533 -0.1325 -0.2223 -0.1191
  495TMC3    C2 7356   3.071   3.544  14.457 -0.2260 -0.5260 -0.0070
  495TMC3    C3 7357   2.945   3.537  14.511 -0.1717  0.5553 -0.3081
  495TMC3    C4 7358   3.151   3.472  14.667 -0.8246 -0.7006 -0.5624
  495TMC3    C5 7359   3.023   3.483  14.721  0.3002  0.5397 -0.1459
  495TMC3    C6 7360   2.925   3.516  14.638 -0.0311  0.0180  0.5245
  495TMC3     C 7361   3.241   3.396  14.466 -0.0935  0.6618  0.1011
  495TMC3     O 7362   3.236   3.406  14.346 -0.2092 -0.7356 -0.2695
  495TMC3     H 7363   3.089   3.568  14.353  1.2614 -2.1201 -0.1288
  495TMC3    H1 7364   3.240   3.449  14.725  0.9817 -0.2178 -3.0945
  495TMC3    H2 7365   2.824   3.501  14.673 -0.2134 -1.9637 -0.8330
  495TMC3    C7 7366   2.996   3.371  14.807 -0.4887  1.1286  0.1792
  495TMC3    C8 7367   2.850   3.462  14.426 -0.6916 -0.0175  0.2082
  495TMC3    O1 7368   3.079   3.285  14.797 -0.0312  0.2936 -0.0629
  495TMC3    O2 7369   2.734   3.455  14.463 -0.3240 -0.3945 -0.1733
  496MPD2     C 7370   0.361   3.402  15.533 -0.1683  0.0538  0.0988
  496MPD2    C1 7371   0.354   3.369  15.667  0.3810  0.1806 -0.3083
  496MPD2    C2 7372   0.223   3.380  15.724 -0.1722 -0.1391 -0.5671
  496MPD2    C3 7373   0.112   3.414  15.646 -0.3246 -0.8370 -0.4927
  496MPD2    C4 7374   0.122   3.434  15.507  0.1561 -0.6475  0.3434
  496MPD2    C5 7375   0.251   3.427  15.452 -0.9218 -0.2499 -0.1562
  496MPD2     H 7376   0.218   3.375  15.832 -2.2817  0.4204 -0.6256
  496MPD2    H1 7377   0.036   3.455  15.444 -0.1309  0.5761  1.1294
  496MPD2    H2 7378   0.458   3.404  15.486 -0.9053 -0.7708 -1.4482
  496MPD2    H3 7379   0.264   3.446  15.346  4.0245  1.0873  0.6693
  496MPD2     N 7380   4.702   3.424  15.703 -1.0556 -0.3655 -0.0763
  496MPD2    H5 7381   4.627   3.431  15.635  1.1383  2.5004 -2.2306
  496MPD2    N1 7382   0.476   3.342  15.740 -0.2572  0.0317  0.0835
  496MPD2    H7 7383   0.562   3.336  15.686  0.1356  0.3707  0.6756
  497TMC3    C1 7384   4.536   3.402  15.878 -0.3579 -0.4510 -0.1604
  497TMC3    C2 7385   4.481   3.287  15.825 -1.1098 -0.5908 -0.0166
  497TMC3    C3 7386   4.429   3.189  15.907  0.9277 -0.0547  0.0615
  497TMC3    C4 7387   4.530   3.423  16.011 -0.1374  0.3569 -0.4518
  497TMC3    C5 7388   4.474   3.327  16.088 -0.4074  0.2743 -0.0507
  497TMC3    C6 7389   4.428   3.209  16.038 -0.2431  0.3744  0.4863
  497TMC3     C 7390   4.672   3.431  15.837 -0.5977  0.1895  0.0720
  497TMC3     O 7391   0.027   3.448  15.932  0.3158 -0.5554  0.3108
  497TMC3     H 7392   4.484   3.261  15.720 -2.6190  0.3482 -0.2828
  497TMC3    H1 7393   4.558   3.519  16.051  0.2018 -1.1037  2.7603
  497TMC3    H2 7394   4.393   3.136  16.109 -0.4050  0.9826  1.0212
  497TMC3    C7 7395   4.449   3.355  16.224  0.4744 -0.2763  0.0678
  497TMC3    C8 7396   4.345   3.074  15.864 -0.2405 -0.0975 -0.1794
  497TMC3    O1 7397   4.408   3.470  16.237  0.1541 -0.3677 -0.8225
  497TMC3    O2 7398   4.317   2.990  15.950  0.3104  0.3191  0.2407
  498MPD2     C 7399   1.337   3.369   9.464 -0.2277  0.1045 -0.2509
  498MPD2    C1 7400   1.393   3.374   9.587 -0.6948  0.2883 -0.3033
  498MPD2    C2 7401   1.346   3.295   9.691 -0.5461  0.1647  0.9045
  498MPD2    C3 7402   1.243   3.201   9.658  0.4381 -0.0642 -0.6737
  498MPD2    C4 7403   1.187   3.194   9.528  0.1267  0.1468  0.7821
  498MPD2    C5 7404   1.243   3.274   9.435 -0.0322  0.1295 -0.8402
  498MPD2     H 7405   1.381   3.298   9.794  1.0740 -0.1997  0.3613
  498MPD2    H1 7406   1.105   3.127   9.507  2.0228 -2.0191  0.2317
  498MPD2    H2 7407   1.360   3.440   9.385 -0.8766  0.3287 -0.2370
  498MPD2    H3 7408   1.213   3.272   9.331 -0.9465 -0.6641 -0.5555
  498MPD2     N 7409   1.184   3.131   9.763  0.3978  0.7749  0.6725
  498MPD2    H5 7410   1.222   3.143   9.856  1.5767  0.1362  0.2749
  498MPD2    N1 7411   1.492   3.465   9.620 -0.1739 -0.4112  0.0903
  498MPD2    H7 7412   1.512   3.465   9.719 -0.7260  1.9113  0.1913
  499TMC3    C1 7413   1.628   3.661   9.622 -1.2266 -0.6787 -0.0523
  499TMC3    C2 7414   1.727   3.617   9.701 -0.4952  0.0569 -0.3171
  499TMC3    C3 7415   1.800   3.698   9.781 -0.2896  0.1849  0.0573
  499TMC3    C4 7416   1.608   3.794   9.612  0.3625 -0.5662 -0.2576
  499TMC3    C5 7417   1.695   3.880   9.683  0.1060 -0.2016 -0.5045
  499TMC3    C6 7418   1.790   3.832   9.772 -0.1907  0.5851 -0.4470
  499TMC3     C 7419   1.544   3.568   9.542 -0.4650 -0.6968  0.2533
  499TMC3     O 7420   1.525   3.599   9.425 -1.0167 -0.3568  0.7298
  499TMC3     H 7421   1.735   3.510   9.712 -1.0750 -0.2397 -2.8851
  499TMC3    H1 7422   1.544   3.831   9.534  1.1812 -1.0125 -1.1396
  499TMC3    H2 7423   1.857   3.900   9.823 -1.0356  0.9512  0.1727
  499TMC3    C7 7424   1.664   4.017   9.658  0.3083  0.0582 -0.9149
  499TMC3    C8 7425   1.927   3.659   9.837  0.0138  0.0975  0.0472
  499TMC3    O1 7426   1.630   4.050   9.543  0.2148  0.0916  0.8119
  499TMC3    O2 7427   1.982   3.738   9.913 -0.2477  0.5656 -0.3231
  500MPD2     C 7428   3.473   0.174  10.008 -0.2198 -0.3041 -0.2990
  500MPD2    C1 7429   3.406   0.285  10.059  0.6285  1.0795  0.8059
  500MPD2    C2 7430   3.267   0.281  10.055  0.1531  0.2038  0.7365
  500MPD2    C3 7431   3.195   0.185   9.986 -0.8672  0.0325  0.2253
  500MPD2    C4 7432   3.267   0.091   9.918  0.6845 -0.0030 -0.3736
  500MPD2    C5 7433   3.404   0.090   9.930  0.5166  0.1353  0.2925
  500MPD2     H 7434   3.217   0.365  10.101  1.2637 -0.3693  3.0099
  500MPD2    H1 7435   3.228   0.021   9.846  1.3882 -1.7861  0.9699
  500MPD2    H2 7436   3.581   0.166   9.996 -0.0518  0.9175  0.3452
  500MPD2    H3 7437   3.456   0.014   9.872 -0.1160 -0.8226  0.9918
  500MPD2     N 7438   3.056   0.188   9.979 -0.2583  0.1148  0.0593
  500MPD2    H5 7439   3.011   0.111   9.931  0.0422 -1.0649  1.7142
  500MPD2    N1 7440   3.473   0.400  10.112 -0.6352 -0.7166 -0.5450
  500MPD2    H7 7441   3.417   0.479  10.141 -0.4317 -0.6086 -0.4446
  501TMC3    C1 7442   3.647   0.533  10.178 -0.1462 -0.0965  0.1616
  501TMC3    C2 7443   3.561   0.640  10.161 -0.0129  0.1550  0.5200
  501TMC3    C3 7444   3.579   0.753  10.225  0.1810  0.0642  0.0689
  501TMC3    C4 7445   3.746   0.538  10.266 -0.0637 -0.1401  0.0311
  501TMC3    C5 7446   3.772   0.666  10.317  0.3546  0.7689  0.2246
  501TMC3    C6 7447   3.692   0.777  10.298 -0.6296  0.0278  0.1617
  501TMC3     C 7448   3.605   0.402  10.139 -0.6725 -0.4786  0.7150
  501TMC3     O 7449   3.687   0.315  10.148 -0.0652 -0.1562  0.3385
  501TMC3     H 7450   3.471   0.633  10.101  0.0437 -0.4286  0.5055
  501TMC3    H1 7451   3.818   0.458  10.278 -1.6873 -1.5250  0.5630
  501TMC3    H2 7452   3.711   0.865  10.357 -1.6802 -0.0413  0.6035
  501TMC3    C7 7453   3.878   0.669  10.414  0.2393  0.3807 -0.1003
  501TMC3    C8 7454   3.523   0.879  10.178  0.3990 -0.0451 -0.3276
  501TMC3    O1 7455   3.908   0.560  10.456 -0.3191 -1.3247 -0.5604
  501TMC3    O2 7456   3.464   0.873  10.071  0.3153 -0.2568 -0.3920
  502TMC3    C1 7457   2.592   3.806  15.643 -0.2890  0.3584  0.0087
  502TMC3    C2 7458   2.605   3.875  15.531 -0.7350  0.4640 -0.0069
  502TMC3    C3 7459   2.505   3.869  15.436 -0.6987  0.5498 -0.1419
  502TMC3    C4 7460   2.490   3.720  15.670 -0.1941 -0.3672  0.4962
  502TMC3    C5 7461   2.389   3.716  15.575  1.2254 -0.1533  0.7339
  502TMC3    C6 7462   2.396   3.780  15.451  0.5659  0.4571 -0.1207
  502TMC3     C 7463   2.720   3.779  15.720 -0.1663 -0.2142 -0.0067
  502TMC3     O 7464   2.811   3.857  15.704 -0.0143 -0.0150  0.0871
  502TMC3     H 7465   2.690   3.942  15.519 -0.8349  0.1182 -2.5985
  502TMC3    H1 7466   2.474   3.673  15.767 -0.1415 -0.5384  0.4210
  502TMC3    H2 7467   2.316   3.779  15.378 -0.5466  0.8642  1.0779
  502TMC3    C7 7468   2.288   3.609  15.595 -0.6168  1.1131  0.1369
  502TMC3    C8 7469   2.515   3.950  15.316  0.0334  0.2588  0.3408
  502TMC3    O1 7470   2.321   3.509  15.657 -0.1415  0.6945  0.2734
  502TMC3    O2 7471   2.604   4.035  15.326 -0.2040  0.0316  0.2973
  503MPD2     C 7472   4.685   0.065  16.911 -0.0006  0.3032  0.1130
  503MPD2    C1 7473   4.663   0.094  17.044  0.9983  0.0002 -0.7287
  503MPD2    C2 7474   4.672   4.706  17.140 -0.1468  0.0260  0.2470
  503MPD2    C3 7475   4.715   4.586  17.104  0.3375  0.1165 -0.5172
  503MPD2    C4 7476   0.018   4.561  16.974  0.3508 -0.5749  0.1063
  503MPD2    C5 7477   4.719   4.657  16.872 -0.2074 -0.5724 -0.1360
  503MPD2     H 7478   4.643   0.009  17.242 -0.8709 -1.8864  0.4424
  503MPD2    H1 7479   0.041   4.461  16.938  1.1937 -0.2580 -0.2322
  503MPD2    H2 7480   4.681   0.142  16.835 -3.0002 -2.9481 -3.0334
  503MPD2    H3 7481   0.005   4.626  16.768  0.8900  1.8657 -0.8076
  503MPD2     N 7482   0.010   4.475  17.199 -0.6103  0.1135 -0.2628
  503MPD2    H5 7483   4.671   4.482  17.282 -0.4623  0.4468 -0.1900
  503MPD2    N1 7484   4.623   0.222  17.087 -0.2071 -0.5707 -0.0871
  503MPD2    H7 7485   4.602   0.249  17.183  0.2377 -0.3579 -0.0478
  504TMC3    C1 7486   0.043   4.257  17.282  0.0313  0.2164  1.0295
  504TMC3    C2 7487   0.014   4.288  17.416  1.0147  0.3648  0.0853
  504TMC3    C3 7488   4.712   4.184  17.500  0.2399 -0.2126 -0.6682
  504TMC3    C4 7489   0.056   4.127  17.235  0.2622 -0.2475  0.4638
  504TMC3    C5 7490   0.041   4.026  17.328  0.0338 -0.1893  0.1041
  504TMC3    C6 7491   0.008   4.052  17.460 -0.1088  0.1514  0.1385
  504TMC3     C 7492   0.085   4.363  17.183 -0.6150  0.1809 -0.6585
  504TMC3     O 7493   0.154   4.324  17.093  0.0585  0.5112  1.2324
  504TMC3     H 7494   0.007   4.392  17.447  1.2593 -0.7555  3.9982
  504TMC3    H1 7495   0.069   4.108  17.129 -0.2250  0.5192  0.2678
  504TMC3    H2 7496   4.717   3.968  17.528  0.9025 -0.1522 -0.0704
  504TMC3    C7 7497   0.049   3.885  17.281 -0.4578 -0.3431 -0.1574
  504TMC3    C8 7498   4.680   4.222  17.636 -0.1155  0.0378 -0.2602
  504TMC3    O1 7499   4.708   3.802  17.346 -0.1184  0.1870  0.0408
  504TMC3    O2 7500   4.632   4.335  17.651 -0.1412  0.2450  0.3290
  505MPD2     C 7501   0.211   2.918  10.675  0.6876  0.6742  0.1014
  505MPD2    C1 7502   0.286   2.829  10.748  0.5814 -0.7073  0.0314
  505MPD2    C2 7503   0.391   2.881  10.819  0.2304 -0.4765 -0.0587
  505MPD2    C3 7504   0.424   3.017  10.811 -0.3147 -0.6181  0.5576
  505MPD2    C4 7505   0.349   3.101  10.734 -0.3378  0.5464  0.1069
  505MPD2    C5 7506   0.243   3.054  10.664  0.2873  0.7919 -0.0958
  505MPD2     H 7507   0.458   2.817  10.876  0.9019 -0.8746 -1.3019
  505MPD2    H1 7508   0.365   3.208  10.728  2.4583  0.1507  0.5203
  505MPD2    H2 7509   0.127   2.881  10.618 -0.1783  0.7765  1.2967
  505MPD2    H3 7510   0.189   3.130  10.609 -0.5687  0.0220 -0.3162
  505MPD2     N 7511   0.534   3.075  10.876  0.0063 -0.0747  0.6824
  505MPD2    H5 7512   0.542   3.174  10.853 -2.4833  0.6855  2.9954
  505MPD2    N1 7513   0.278   2.689  10.728 -0.5019 -0.1456 -0.6985
  505MPD2    H7 7514   0.229   2.660  10.644 -2.3672 -0.5799  0.5333
  506TMC3    C1 7515   0.323   2.462  10.771 -0.1218 -0.3072  0.3136
  506TMC3    C2 7516   0.377   2.441  10.641  0.0762  0.3045  0.6941
  506TMC3    C3 7517   0.454   2.329  10.614  0.7624  0.2753 -0.1508
  506TMC3    C4 7518   0.350   2.369  10.868 -0.0058  0.1349  0.6433
  506TMC3    C5 7519   0.433   2.261  10.843 -0.1491 -0.5803  0.2163
  506TMC3    C6 7520   0.471   2.236  10.715  0.6235 -0.0484  0.1593
  506TMC3     C 7521   0.325   2.600  10.815 -0.2120  0.1514  0.4067
  506TMC3     O 7522   0.373   2.610  10.925  0.0378 -0.2612 -0.4527
  506TMC3     H 7523   0.369   2.516  10.563  0.3314 -1.3520 -0.9407
  506TMC3    H1 7524   0.310   2.377  10.968 -3.2697  0.3683 -0.6959
  506TMC3    H2 7525   0.546   2.161  10.692  0.8403  0.6962 -1.5434
  506TMC3    C7 7526   0.559   2.274  10.916 -0.2792 -0.3123  0.3820
  506TMC3    C8 7527   0.510   2.320  10.482 -0.6874 -0.5154  0.0856
  506TMC3    O1 7528   0.637   2.183  10.918 -0.0713 -0.2245 -0.4930
  506TMC3    O2 7529   0.535   2.204  10.459  0.2534 -0.8652  0.3097
  507TMC3    C1 7530   1.245   4.166  15.010 -0.2730  0.1785 -0.2130
  507TMC3    C2 7531   1.181   4.061  14.959 -0.0651 -0.4453  0.0645
  507TMC3    C3 7532   1.198   4.032  14.822  0.1315  0.3948  0.1616
  507TMC3    C4 7533   1.326   4.255  14.931 -0.7548  0.3073  0.1579
  507TMC3    C5 7534   1.352   4.226  14.802 -0.8090 -0.5050  0.5043
  507TMC3    C6 7535   1.295   4.107  14.753  0.2079 -0.5008  0.0049
  507TMC3     C 7536   1.260   4.192  15.155 -0.0326  0.6436 -0.2839
  507TMC3     O 7537   1.361   4.245  15.187  0.0677 -0.0577 -0.0438
  507TMC3     H 7538   1.117   4.000  15.021 -1.1202 -0.4940 -1.0591
  507TMC3    H1 7539   1.347   4.351  14.977 -0.2445  0.2416  0.0646
  507TMC3    H2 7540   1.309   4.079  14.649  0.7041 -0.3316  0.0236
  507TMC3    C7 7541   1.334   4.335  14.710  0.2193 -0.5673  0.0296
  507TMC3    C8 7542   1.076   4.023  14.755 -0.2127 -0.1127 -0.0948
  507TMC3    O1 7543   1.282   4.300  14.607 -0.2225  0.2459  0.5073
  507TMC3    O2 7544   0.976   3.982  14.811  0.0233  0.2396  0.6301
  508MPD2     C 7545   1.268   1.782  16.110  0.0697  0.0892 -0.2013
  508MPD2    C1 7546   1.400   1.758  16.079 -0.0293  0.5240  0.4021
  508MPD2    C2 7547   1.442   1.802  15.955 -0.0224  0.5522  0.5336
  508MPD2    C3 7548   1.358   1.850  15.859 -0.1718 -0.5421  0.0741
  508MPD2    C4 7549   1.223   1.841  15.885  0.2941 -0.0595 -0.0260
  508MPD2    C5 7550   1.177   1.803  16.011 -0.9147  0.1941  0.5005
  508MPD2     H 7551   1.549   1.798  15.936 -0.5900 -1.2058 -2.2966
  508MPD2    H1 7552   1.152   1.863  15.806 -0.3141  1.2406  0.8871
  508MPD2    H2 7553   1.226   1.760  16.208  0.4426 -2.3470 -0.5950
  508MPD2    H3 7554   1.070   1.813  16.027 -0.9807 -0.6811  0.5740
  508MPD2     N 7555   1.413   1.878  15.729 -0.0076  1.0789  0.0796
  508MPD2    H5 7556   1.501   1.834  15.704 -1.1050 -1.0078 -0.1823
  508MPD2    N1 7557   1.491   1.705  16.173  0.2797  0.0965 -0.5025
  508MPD2    H7 7558   1.463   1.702  16.271  0.8718  1.2739 -0.3007
  509TMC3    C1 7559   1.404   2.105  15.320  0.0168 -0.5777 -0.2773
  509TMC3    C2 7560   1.535   2.147  15.335  0.0503 -0.1047 -0.3450
  509TMC3    C3 7561   1.609   2.088  15.432  0.0733 -0.1786  0.3902
  509TMC3    C4 7562   1.348   2.013  15.405 -0.4618 -0.2550  0.4121
  509TMC3    C5 7563   1.423   1.969  15.510 -0.6916  0.0370  0.1331
  509TMC3    C6 7564   1.555   1.993  15.518  0.2492  0.1776  0.2602
  509TMC3     C 7565   1.309   2.195  15.254  0.2020 -0.4101  0.7116
  509TMC3     O 7566   1.193   2.146  15.235  1.1019 -0.1135  0.2457
  509TMC3     H 7567   1.576   2.209  15.256 -2.0960  1.6815 -0.0596
  509TMC3    H1 7568   1.241   1.996  15.400 -0.2563 -1.4788  0.2106
  509TMC3    H2 7569   1.621   1.971  15.602  0.1747 -2.1132 -0.2616
  509TMC3    C7 7570   1.342   1.942  15.628 -0.5324  0.0973 -0.5834
  509TMC3    C8 7571   1.752   2.113  15.449 -0.1022  0.1724 -0.1522
  509TMC3    O1 7572   1.227   1.979  15.625  0.0137 -0.2591 -0.3536
  509TMC3    O2 7573   1.819   2.039  15.519  0.2894  0.0204  0.0369
  510MPD2     C 7574   4.385   3.684  14.771  0.2948  0.2306 -0.3980
  510MPD2    C1 7575   4.423   3.553  14.795 -0.8807  0.3557  0.7215
  510MPD2    C2 7576   4.540   3.506  14.746 -0.0791  0.3499 -0.3886
  510MPD2    C3 7577   4.611   3.591  14.662  0.3285  0.2861  0.5472
  510MPD2    C4 7578   4.563   3.713  14.615 -0.5801  0.3979 -0.1662
  510MPD2    C5 7579   4.448   3.760  14.679  0.3406  0.3598 -0.3707
  510MPD2     H 7580   4.577   3.407  14.772  2.0934  1.2417 -0.1001
  510MPD2    H1 7581   4.611   3.766  14.534 -0.2280 -2.8202 -2.0624
  510MPD2    H2 7582   4.286   3.714  14.802  1.0484  0.6542  1.5844
  510MPD2    H3 7583   4.402   3.853  14.649 -0.0225  0.3451  0.1380
  510MPD2     N 7584   0.018   3.543  14.624 -0.9619 -0.2481  0.5459
  510MPD2    H5 7585   0.058   3.464  14.673 -0.8060 -1.5207 -1.6069
  510MPD2    N1 7586   4.343   3.465  14.866  0.4562  0.0904 -0.2341
  510MPD2    H7 7587   4.375   3.369  14.863 -2.2747 -0.8491  0.8357
  511TMC3    C1 7588   4.158   3.377  14.990  0.3633 -0.0285 -0.1597
  511TMC3    C2 7589   4.098   3.398  15.109 -0.4173  0.5127 -0.0592
  511TMC3    C3 7590   4.033   3.288  15.164 -0.4687  0.3852  0.1533
  511TMC3    C4 7591   4.168   3.257  14.927  0.4965 -0.2697  0.7721
  511TMC3    C5 7592   4.103   3.147  14.981 -0.5739 -0.3908  0.5674
  511TMC3    C6 7593   4.036   3.165  15.101 -0.1084  0.0566 -0.4559
  511TMC3     C 7594   4.220   3.493  14.925  0.3363 -0.1831  0.3705
  511TMC3     O 7595   4.159   3.597  14.945 -0.0249  0.6771 -0.1256
  511TMC3     H 7596   4.117   3.490  15.162  2.6758 -0.1704  0.0055
  511TMC3    H1 7597   4.216   3.251  14.830 -1.3324  0.8122 -0.1991
  511TMC3    H2 7598   3.965   3.086  15.125 -0.2883  0.8506  1.6145
  511TMC3    C7 7599   4.025   3.081  14.881  0.2657  0.1682 -0.4785
  511TMC3    C8 7600   3.968   3.301  15.286  0.1703 -0.5450 -0.3984
  511TMC3    O1 7601   3.972   3.155  14.800 -0.3347 -0.1847 -0.3018
  511TMC3    O2 7602   3.940   3.412  15.323 -0.1057 -0.1938 -0.9453
  512TMC3    C1 7603   3.000   3.441  13.216 -0.7913 -0.0204  0.1896
  512TMC3    C2 7604   3.023   3.339  13.311  0.3009 -0.8975 -0.5169
  512TMC3    C3 7605   3.069   3.217  13.263 -0.5881  0.1037 -0.5875
  512TMC3    C4 7606   3.007   3.416  13.084  0.7106 -0.2312 -0.4067
  512TMC3    C5 7607   3.040   3.294  13.039 -0.3784  0.6574 -0.4694
  512TMC3    C6 7608   3.069   3.190  13.122 -0.8135 -0.1141 -0.0758
  512TMC3     C 7609   2.916   3.560  13.252 -0.1855  0.2580  0.9090
  512TMC3     O 7610   2.883   3.634  13.158  0.3789  0.2213 -0.4595
  512TMC3     H 7611   3.035   3.358  13.417 -2.5194 -0.8327 -0.2189
  512TMC3    H1 7612   2.985   3.497  13.016 -0.4718  1.4189  1.9472
  512TMC3    H2 7613   3.076   3.086  13.092  2.9702  0.0667  0.1488
  512TMC3    C7 7614   3.081   3.282  12.898 -0.6196 -0.1247 -1.1740
  512TMC3    C8 7615   3.155   3.136  13.342  0.5305  0.1832  0.1946
  512TMC3    O1 7616   3.044   3.367  12.818  0.0512  0.6195  0.1325
  512TMC3    O2 7617   3.178   3.022  13.295  0.0555  0.4191  0.1815
  513MPD2     C 7618   0.255   2.346  13.883 -0.1687  0.7933 -0.6612
  513MPD2    C1 7619   0.180   2.439  13.818  0.2751 -0.5592  0.3965
  513MPD2    C2 7620   0.123   2.542  13.894  0.5973 -0.3980  0.1147
  513MPD2    C3 7621   0.124   2.547  14.035 -0.0584 -0.0986 -0.5545
  513MPD2    C4 7622   0.193   2.446  14.094  0.1667 -0.3361  0.5829
  513MPD2    C5 7623   0.255   2.347  14.021 -0.4749 -0.5495 -0.3948
  513MPD2     H 7624   0.089   2.630  13.840  1.0908 -0.1258  0.2428
  513MPD2    H1 7625   0.194   2.441  14.202  0.2103 -0.7119  0.5630
  513MPD2    H2 7626   0.294   2.257  13.835 -0.5301 -0.8854  2.1729
  513MPD2    H3 7627   0.309   2.269  14.072  2.3773  0.2771 -2.1631
  513MPD2     N 7628   0.075   2.665  14.094 -0.1224 -0.7813 -0.1524
  513MPD2    H5 7629   0.043   2.741  14.036  1.0051 -0.1420  0.0532
  513MPD2    N1 7630   0.166   2.428  13.674  0.7609  0.8003 -0.3564
  513MPD2    H7 7631   0.221   2.353  13.634 -0.5517  0.4392 -1.4670
  514TMC3    C1 7632   0.128   2.511  13.443  0.2459  0.3634  0.2238
  514TMC3    C2 7633   0.241   2.445  13.394 -0.0662 -0.2874  0.0866
  514TMC3    C3 7634   0.304   2.485  13.278 -0.2417  0.0059  0.0991
  514TMC3    C4 7635   0.083   2.622  13.381  0.3836  0.4334 -0.1817
  514TMC3    C5 7636   0.164   2.672  13.279  0.5020  0.1128 -0.3525
  514TMC3    C6 7637   0.264   2.602  13.225  0.5920 -0.2500  0.0969
  514TMC3     C 7638   0.103   2.515  13.588 -0.5669  0.7962 -0.3728
  514TMC3     O 7639   0.050   2.619  13.618 -0.2138  0.7310 -0.7356
  514TMC3     H 7640   0.287   2.366  13.451  1.0729 -0.1477 -0.6300
  514TMC3    H1 7641   4.714   2.680  13.405 -1.6084 -3.0600  0.9084
  514TMC3    H2 7642   0.322   2.644  13.144 -1.1514 -1.1018 -1.5764
  514TMC3    C7 7643   0.201   2.813  13.310 -0.5438 -0.1276 -0.6619
  514TMC3    C8 7644   0.433   2.423  13.248 -0.1131  0.3891 -0.0383
  514TMC3    O1 7645   0.219   2.892  13.219  0.0387 -0.7163 -0.4400
  514TMC3    O2 7646   0.486   2.366  13.340  0.1177 -0.1967  0.3870
  515MPD2     C 7647   3.181   0.024  14.604  0.7662 -0.4614  0.2317
  515MPD2    C1 7648   3.192   4.602  14.615 -0.2703 -0.2324 -0.2096
  515MPD2    C2 7649   3.254   4.550  14.731 -0.3894  0.1574 -0.4254
  515MPD2    C3 7650   3.299   4.631  14.825 -0.1904 -0.4342  0.1911
  515MPD2    C4 7651   3.290   0.047  14.808 -0.4468  0.2837  1.0849
  515MPD2    C5 7652   3.242   0.108  14.697  0.4412 -1.0482  0.8208
  515MPD2     H 7653   3.260   4.443  14.740  2.1273  0.4321  0.9040
  515MPD2    H1 7654   3.339   0.108  14.883  0.8663  0.9460 -0.3004
  515MPD2    H2 7655   3.142   0.063  14.511  0.0929  0.3468  0.8546
  515MPD2    H3 7656   3.256   0.215  14.687  1.0383 -1.1715  0.3158
  515MPD2     N 7657   3.354   4.587  14.951  0.2738  0.5927 -0.6957
  515MPD2    H5 7658   3.397   4.656  15.011  0.0567  0.5515 -0.4945
  515MPD2    N1 7659   3.125   4.517  14.520 -0.2781  0.0205  0.4784
  515MPD2    H7 7660   3.143   4.417  14.527 -1.2477 -0.2234 -0.5963
  516TMC3    C1 7661   2.995   4.443  14.340 -0.5801  0.6732  0.2902
  516TMC3    C2 7662   2.889   4.482  14.257 -0.1320  0.1359 -0.4418
  516TMC3    C3 7663   2.802   4.387  14.210  0.2068 -0.3277  0.0358
  516TMC3    C4 7664   3.003   4.314  14.392  0.0359 -0.1816  0.3612
  516TMC3    C5 7665   2.902   4.231  14.352  0.5923  0.5058 -0.2013
  516TMC3    C6 7666   2.803   4.260  14.260 -0.4926  0.5053  0.4411
  516TMC3     C 7667   3.049   4.556  14.421 -0.3578  0.1378 -0.0413
  516TMC3     O 7668   2.995   4.667  14.397 -0.2231 -0.6773 -0.5522
  516TMC3     H 7669   2.893   4.581  14.212  0.5626 -0.4095 -1.5800
  516TMC3    H1 7670   3.094   4.277  14.436  1.2903  2.5225  0.0600
  516TMC3    H2 7671   2.744   4.183  14.212 -0.0431  0.1049  0.5293
  516TMC3    C7 7672   2.902   4.107  14.425  0.1416  0.0527  1.4091
  516TMC3    C8 7673   2.694   4.425  14.121 -0.2516 -0.7987 -1.1302
  516TMC3    O1 7674   2.994   4.090  14.502  0.2067  0.3496  0.0328
  516TMC3    O2 7675   2.713   4.523  14.048  0.1073  0.3674  0.4864
  517MPD2     C 7676   2.827   0.700   0.306  0.2259 -0.1898 -0.3150
  517MPD2    C1 7677   2.952   0.742   0.285  0.4733 -0.1134 -0.1246
  517MPD2    C2 7678   3.024   0.811   0.383  0.3801  0.0630  0.4003
  517MPD2    C3 7679   2.973   0.826   0.511 -0.1000 -0.3768  0.0768
  517MPD2    C4 7680   2.845   0.789   0.531 -0.0469 -0.4118  0.3346
  517MPD2    C5 7681   2.776   0.732   0.428 -0.3765 -0.5995  0.2078
  517MPD2     H 7682   3.122   0.846   0.350  0.3842  2.0458  2.6048
  517MPD2    H1 7683   2.798   0.805   0.627 -0.8458 -1.3141  0.0972
  517MPD2    H2 7684   2.758   0.651   0.239  1.3389 -0.1619 -1.4842
  517MPD2    H3 7685   2.672   0.709   0.448 -0.4688 -0.6475 -0.3424
  517MPD2     N 7686   3.035   0.886   0.624  0.2838 -0.0483 -0.1889
  517MPD2    H5 7687   2.979   0.892   0.708 -0.4998 -0.2633 -0.6996
  517MPD2    N1 7688   3.017   0.726   0.157 -0.0986 -0.0423 -0.0189
  517MPD2    H7 7689   3.098   0.783   0.137 -0.2433  0.3465  0.5100
  518TMC3    C1 7690   3.068   0.611  17.635  0.4831  0.1264  0.3597
  518TMC3    C2 7691   3.108   0.492  17.584  0.1650 -0.1576  0.5858
  518TMC3    C3 7692   3.173   0.499  17.463 -0.5264  1.3012  0.6902
  518TMC3    C4 7693   3.092   0.732  17.576  0.6603  0.0148  0.3048
  518TMC3    C5 7694   3.160   0.741  17.456 -0.7843 -0.6893 -0.2689
  518TMC3    C6 7695   3.196   0.621  17.401 -0.1051 -0.6004  0.4610
  518TMC3     C 7696   3.000   0.613   0.083 -0.0662 -0.0544  0.7746
  518TMC3     O 7697   2.941   0.512   0.118  0.5334 -0.2693  0.2003
  518TMC3     H 7698   3.077   0.396  17.624  0.0148  0.6644  2.4568
  518TMC3    H1 7699   3.059   0.821  17.627  1.7427  1.4937 -1.5721
  518TMC3    H2 7700   3.224   0.627  17.297 -2.9466 -2.1262 -0.3852
  518TMC3    C7 7701   3.265   0.847  17.446 -0.5010 -0.2199 -0.6528
  518TMC3    C8 7702   3.248   0.373  17.421 -0.4547 -0.5170  0.6717
  518TMC3    O1 7703   3.247   0.962  17.485 -0.2175 -0.2883  0.1160
  518TMC3    O2 7704   3.240   0.277  17.494  0.8480 -0.2257  0.5391
  519MPD2     C 7705   0.064   0.073  14.312 -0.7165 -0.1822 -0.0203
  519MPD2    C1 7706   4.710   0.002  14.398 -0.4442  0.0774 -0.0317
  519MPD2    C2 7707   0.017   4.588  14.402 -0.0459 -0.6533 -0.6459
  519MPD2    C3 7708   0.111   4.525  14.329 -0.7472  0.6389 -1.1629
  519MPD2    C4 7709   0.200   4.601  14.256 -0.4025 -0.3830 -0.1573
  519MPD2    C5 7710   0.171   0.018  14.237  0.2637  0.5392 -0.4125
  519MPD2     H 7711   4.673   4.537  14.473  0.4456  0.8001  0.8388
  519MPD2    H1 7712   0.284   4.551  14.210 -0.3671  0.1808 -0.7066
  519MPD2    H2 7713   0.056   0.181  14.313 -1.8225 -0.2650 -0.7982
  519MPD2    H3 7714   0.240   0.078  14.178 -0.9113  1.7850 -0.5100
  519MPD2     N 7715   0.127   4.388  14.331 -0.4614 -0.8372 -0.2372
  519MPD2    H5 7716   0.205   4.349  14.279 -0.5681  0.1715 -1.1573
  519MPD2    N1 7717   4.608   0.067  14.466 -0.2226 -0.6278 -0.1514
  519MPD2    H7 7718   4.589   0.165  14.445  0.7306 -0.3526  0.2640
  520TMC3    C1 7719   0.065   4.160  14.322 -0.4679 -0.4603 -0.6290
  520TMC3    C2 7720   4.681   4.069  14.329  0.2805  0.0562  0.2181
  520TMC3    C3 7721   4.707   3.945  14.286  0.5961  0.5179  0.3045
  520TMC3    C4 7722   0.192   4.125  14.276  0.8742  0.2917 -0.0097
  520TMC3    C5 7723   0.211   3.994  14.244  0.3935  0.4319  0.3025
  520TMC3    C6 7724   0.109   3.904  14.251 -0.3139 -0.1771 -0.2532
  520TMC3     C 7725   0.034   4.293  14.373  0.5009 -0.2110  0.1425
  520TMC3     O 7726   4.645   4.313  14.422 -0.0318 -0.3960 -0.7352
  520TMC3     H 7727   4.584   4.095  14.371 -1.0063  1.0523 -3.4426
  520TMC3    H1 7728   0.277   4.192  14.284  0.0409  0.9941  2.7096
  520TMC3    H2 7729   0.116   3.802  14.216 -0.6490  0.3963 -1.9651
  520TMC3    C7 7730   0.349   3.944  14.224  0.0988 -0.4169 -0.2630
  520TMC3    C8 7731   4.600   3.875  14.216  0.2518 -0.4535  0.4739
  520TMC3    O1 7732   0.376   3.832  14.255 -0.2625 -0.5598 -0.1664
  520TMC3    O2 7733   4.613   3.762  14.169  0.0605  0.3128  0.3126
  521MPD2     C 7734   0.645   2.486  17.559  1.0325  0.9049 -0.7675
  521MPD2    C1 7735   0.596   2.380  17.493  0.4965  0.1064  0.2505
  521MPD2    C2 7736   0.679   2.297  17.425 -0.4057 -0.2240  0.4730
  521MPD2    C3 7737   0.812   2.323  17.406  0.2923  0.6120  0.2958
  521MPD2    C4 7738   0.862   2.441  17.458 -0.3727  0.5461 -0.2974
  521MPD2    C5 7739   0.781   2.512  17.540  0.6769 -1.0223  0.4839
  521MPD2     H 7740   0.637   2.220  17.362  2.7018 -0.8587 -0.7916
  521MPD2    H1 7741   0.967   2.468  17.454 -0.7659  1.8714 -1.6897
  521MPD2    H2 7742   0.583   2.550  17.621  0.3221 -0.8712  0.3404
  521MPD2    H3 7743   0.816   2.599  17.595  1.9972 -0.9480 -0.4780
  521MPD2     N 7744   0.882   2.239  17.317  0.3907 -0.4460 -0.0349
  521MPD2    H5 7745   0.827   2.157  17.295 -1.2014  0.7877 -0.6757
  521MPD2    N1 7746   0.461   2.334  17.532 -0.3569  0.6852 -0.3845
  521MPD2    H7 7747   0.421   2.391  17.605 -1.5578 -2.0150  1.0577
  522TMC3    C1 7748   1.067   2.146  17.199 -0.0070  0.0835  0.4296
  522TMC3    C2 7749   1.201   2.138  17.185  0.3785  0.4609 -0.5929
  522TMC3    C3 7750   1.253   2.024  17.138 -0.0875  0.2556  0.2208
  522TMC3    C4 7751   0.981   2.044  17.160 -0.1093 -0.2134 -0.0738
  522TMC3    C5 7752   1.042   1.932  17.103  0.5310 -0.5651 -0.5856
  522TMC3    C6 7753   1.173   1.922  17.095  0.0014  0.3377 -0.9542
  522TMC3     C 7754   1.016   2.257  17.283  0.2543 -0.3510 -0.2922
  522TMC3     O 7755   1.086   2.355  17.292  0.4335 -0.4020  0.1367
  522TMC3     H 7756   1.264   2.224  17.206  0.9427  0.6658 -3.2254
  522TMC3    H1 7757   0.875   2.054  17.179 -0.3735 -0.8342 -1.2370
  522TMC3    H2 7758   1.218   1.825  17.079  2.6375  1.6201 -1.2269
  522TMC3    C7 7759   0.944   1.830  17.059 -0.3129  0.0430  0.2367
  522TMC3    C8 7760   1.402   2.019  17.118 -0.5337 -0.0225 -0.5356
  522TMC3    O1 7761   0.993   1.720  17.022  0.3578 -0.2843  0.0086
  522TMC3    O2 7762   1.463   2.112  17.171 -0.1928  0.4227  0.1269
  523MPD2     C 7763   3.684   2.254  10.103 -0.5220  0.2504 -0.2956
  523MPD2    C1 7764   3.594   2.175  10.035  0.0584 -0.1688 -0.4452
  523MPD2    C2 7765   3.502   2.230   9.950 -0.0134 -0.0685  0.1368
  523MPD2    C3 7766   3.488   2.363   9.938 -0.3676 -0.3086 -0.2189
  523MPD2    C4 7767   3.570   2.445  10.013  0.6400 -0.3023 -0.3912
  523MPD2    C5 7768   3.671   2.393  10.084 -0.8224 -0.0577 -1.0144
  523MPD2     H 7769   3.441   2.158   9.896 -0.0695  0.0859 -0.0029
  523MPD2    H1 7770   3.562   2.553  10.019 -0.1959 -0.2598 -2.5428
  523MPD2    H2 7771   3.750   2.210  10.177 -2.4243  1.0494  1.8417
  523MPD2    H3 7772   3.738   2.459  10.138 -0.4266 -1.7079  0.5332
  523MPD2     N 7773   3.395   2.424   9.859  0.0052  0.0155 -0.2583
  523MPD2    H5 7774   3.402   2.525   9.863 -1.1633  0.0653  0.5882
  523MPD2    N1 7775   3.612   2.029  10.067 -0.1761  0.0355 -0.3179
  523MPD2    H7 7776   3.679   1.997  10.136 -0.8461  0.7221  0.6607
  524TMC3    C1 7777   3.216   2.442   9.707  0.3010 -0.5228  0.2186
  524TMC3    C2 7778   3.161   2.393   9.594 -0.1284  0.3486 -0.3371
  524TMC3    C3 7779   3.071   2.467   9.527 -0.2506  0.7045 -0.0744
  524TMC3    C4 7780   3.183   2.565   9.752  0.3305  0.3838 -1.0364
  524TMC3    C5 7781   3.076   2.630   9.694  0.5181 -0.2994  0.1660
  524TMC3    C6 7782   3.022   2.587   9.578 -0.1335  0.4913 -0.0012
  524TMC3     C 7783   3.304   2.356   9.783  0.4235  0.3533 -0.4971
  524TMC3     O 7784   3.305   2.239   9.748  0.1972 -0.4023 -0.3812
  524TMC3     H 7785   3.204   2.307   9.544 -1.4355 -0.8027  0.5441
  524TMC3    H1 7786   3.223   2.600   9.846  2.0347  2.9652 -2.7126
  524TMC3    H2 7787   2.931   2.638   9.551  0.7913  1.3718 -1.4447
  524TMC3    C7 7788   2.992   2.702   9.785  0.3252  0.3264 -1.0436
  524TMC3    C8 7789   3.005   2.409   9.414  0.2527  0.1460  0.1200
  524TMC3    O1 7790   2.993   2.658   9.901 -0.6037 -0.1420  0.2950
  524TMC3    O2 7791   3.015   2.286   9.394  0.1492  0.0743  0.0192
  525MPD2     C 7792   1.428   3.939  14.469 -0.1755  0.1799 -0.4506
  525MPD2    C1 7793   1.533   3.932  14.564  0.1150  0.0536 -0.2059
  525MPD2    C2 7794   1.616   4.041  14.571 -0.4023 -0.8503 -0.0709
  525MPD2    C3 7795   1.584   4.162  14.507  0.2445  0.2790  1.1391
  525MPD2    C4 7796   1.482   4.162  14.419  0.4030  0.0266 -0.1683
  525MPD2    C5 7797   1.404   4.056  14.396 -0.0086  0.1819  0.6355
  525MPD2     H 7798   1.709   4.030  14.626 -0.0795 -1.0746 -0.6601
  525MPD2    H1 7799   1.460   4.257  14.371  0.6290  0.7309  1.1206
  525MPD2    H2 7800   1.360   3.855  14.457  1.6037 -1.5018  1.1870
  525MPD2    H3 7801   1.330   4.052  14.317  0.6119  3.6618 -0.1660
  525MPD2     N 7802   1.655   4.278  14.530  0.1297 -0.3020 -0.1179
  525MPD2    H5 7803   1.621   4.363  14.486  0.2372 -0.3186 -0.2318
  525MPD2    N1 7804   1.554   3.817  14.645 -0.3951  0.4290  0.1602
  525MPD2    H7 7805   1.635   3.816  14.706  0.9511 -1.7568 -1.6164
  526TMC3    C1 7806   1.534   3.617  14.747  0.2476 -0.0418 -0.0882
  526TMC3    C2 7807   1.468   3.550  14.848 -0.2210  0.5765  0.1237
  526TMC3    C3 7808   1.534   3.468  14.938 -0.2826  0.9796  0.1853
  526TMC3    C4 7809   1.674   3.613  14.746 -0.0322 -0.1070 -0.6831
  526TMC3    C5 7810   1.737   3.534  14.841 -0.5721 -0.3961  0.2340
  526TMC3    C6 7811   1.669   3.453  14.930 -0.1629 -0.3145 -0.0054
  526TMC3     C 7812   1.471   3.711  14.657 -1.3373  0.6838 -0.5338
  526TMC3     O 7813   1.350   3.710  14.652  0.4002  0.7955 -0.2028
  526TMC3     H 7814   1.360   3.550  14.861  0.0840 -1.6964  2.6065
  526TMC3    H1 7815   1.723   3.653  14.658 -0.9748  0.6151 -0.8890
  526TMC3    H2 7816   1.719   3.401  15.011  0.7398 -0.4273 -0.6345
  526TMC3    C7 7817   1.869   3.480  14.805 -0.1070 -0.2716 -0.0685
  526TMC3    C8 7818   1.475   3.446  15.063  0.1888 -0.1817 -0.4888
  526TMC3    O1 7819   1.903   3.368  14.851  0.4297  0.3628  0.5887
  526TMC3    O2 7820   1.543   3.483  15.157 -0.3982 -0.2226 -0.1975
  527MPD2     C 7821   3.917   1.684   1.112 -0.5991 -0.5069 -0.0540
  527MPD2    C1 7822   3.933   1.604   1.220  0.3161 -0.0337 -0.0697
  527MPD2    C2 7823   4.064   1.547   1.242  0.8084  0.8836 -0.3749
  527MPD2    C3 7824   4.161   1.552   1.146 -0.0219  0.3726  0.0795
  527MPD2    C4 7825   4.132   1.633   1.040  0.2829 -0.4182  0.0703
  527MPD2    C5 7826   4.021   1.703   1.021 -0.6873 -0.0519 -0.2990
  527MPD2     H 7827   4.079   1.489   1.333 -1.5211  0.8698  0.0178
  527MPD2    H1 7828   4.203   1.665   0.965  0.6168  1.8123  1.3326
  527MPD2    H2 7829   3.825   1.741   1.097  0.4694  0.7710 -1.7548
  527MPD2    H3 7830   4.016   1.776   0.941 -2.1238  1.4322  1.1656
  527MPD2     N 7831   4.291   1.497   1.169 -0.1173  0.9064 -0.1816
  527MPD2    H5 7832   4.306   1.448   1.257 -0.3734  1.7403  0.3244
  527MPD2    N1 7833   3.833   1.573   1.311 -0.0337 -0.7702 -0.1698
  527MPD2    H7 7834   3.867   1.520   1.390  0.8381 -1.5317 -1.0686
  528TMC3    C1 7835   3.615   1.544   1.395  0.3031  0.2693  0.5806
  528TMC3    C2 7836   3.673   1.512   1.517 -0.5661 -0.1078 -0.3334
  528TMC3    C3 7837   3.588   1.462   1.613  0.5886  0.2052  0.0668
  528TMC3    C4 7838   3.483   1.536   1.368 -0.4822 -0.7637  0.0820
  528TMC3    C5 7839   3.401   1.480   1.468 -0.7087 -0.3002 -0.0105
  528TMC3    C6 7840   3.448   1.453   1.591 -0.7135 -0.5888 -0.3776
  528TMC3     C 7841   3.696   1.608   1.297 -0.5496  0.1307 -0.5282
  528TMC3     O 7842   3.639   1.660   1.198 -0.0779  0.5024 -0.8062
  528TMC3     H 7843   3.780   1.511   1.537 -1.1481 -0.2433  2.7004
  528TMC3    H1 7844   3.441   1.577   1.277  0.4585 -1.3368 -0.6080
  528TMC3    H2 7845   3.384   1.400   1.661 -0.2801  0.5040  0.8394
  528TMC3    C7 7846   3.262   1.444   1.436 -0.0419 -0.3221 -0.1630
  528TMC3    C8 7847   3.654   1.415   1.731  1.0389 -0.5844  0.6685
  528TMC3    O1 7848   3.179   1.457   1.520 -0.4023 -0.2425 -0.0208
  528TMC3    O2 7849   3.777   1.431   1.739  0.1733 -0.0366  0.5508
  529MPD2     C 7850   0.411   4.032   0.755 -0.3848 -0.0303 -0.4641
  529MPD2    C1 7851   0.538   4.080   0.764 -0.2952 -0.1406 -0.3832
  529MPD2    C2 7852   0.587   4.172   0.665 -0.4271  0.4959  0.0239
  529MPD2    C3 7853   0.501   4.201   0.560 -0.4245 -0.1916 -0.3531
  529MPD2    C4 7854   0.378   4.140   0.541  0.6191 -0.4037 -0.1920
  529MPD2    C5 7855   0.332   4.066   0.647  0.0468 -0.6542 -0.4482
  529MPD2     H 7856   0.690   4.206   0.659 -0.1158 -0.5960 -0.8999
  529MPD2    H1 7857   0.314   4.153   0.454  3.1368  2.6740 -1.6012
  529MPD2    H2 7858   0.377   3.964   0.832  0.3894  0.3819  0.2482
  529MPD2    H3 7859   0.231   4.027   0.641 -0.6443  0.9230  0.8932
  529MPD2     N 7860   0.539   4.300   0.463 -0.2866 -0.3546  0.3386
  529MPD2    H5 7861   0.478   4.305   0.382 -2.1141 -0.2186  1.7438
  529MPD2    N1 7862   0.629   4.032   0.863 -0.6521  0.2364  0.5096
  529MPD2    H7 7863   0.722   4.074   0.863 -1.1070  1.2655 -1.7445
  530TMC3    C1 7864   0.703   3.945   1.052 -0.1110  0.2938 -0.0467
  530TMC3    C2 7865   0.778   4.060   1.074  0.3772 -0.0349  0.0074
  530TMC3    C3 7866   0.880   4.054   1.167 -0.3256  0.3849  0.7565
  530TMC3    C4 7867   0.722   3.830   1.125 -0.5430  0.4331 -0.1862
  530TMC3    C5 7868   0.828   3.826   1.216  0.0323  0.6389  0.3097
  530TMC3    C6 7869   0.903   3.945   1.244  0.1558  0.0672 -0.5127
  530TMC3     C 7870   0.594   3.951   0.967 -0.2464 -0.0149  0.3785
  530TMC3     O 7871   0.504   3.868   0.990  0.2042 -0.0259 -0.1188
  530TMC3     H 7872   0.760   4.157   1.028  0.3307 -0.2176 -0.3522
  530TMC3    H1 7873   0.664   3.739   1.106 -2.9548  1.8854  0.1621
  530TMC3    H2 7874   0.962   3.952   1.335 -0.2199  0.1869 -0.2778
  530TMC3    C7 7875   0.865   3.696   1.270  0.3846 -0.5428  0.3286
  530TMC3    C8 7876   0.938   4.174   1.208  0.4913  0.2041  0.1737
  530TMC3    O1 7877   0.787   3.609   1.245  0.1141 -0.3722  0.3842
  530TMC3    O2 7878   0.889   4.283   1.171  0.4903 -0.3316  0.5869
  531MPD2     C 7879   0.277   3.171  13.654 -0.2005  0.6097 -0.6129
  531MPD2    C1 7880   0.231   3.059  13.721 -0.2927 -0.1711 -0.2937
  531MPD2    C2 7881   0.193   2.955  13.642 -0.0657 -0.1018 -0.7660
  531MPD2    C3 7882   0.212   2.956  13.503  0.0941 -0.5358  0.7983
  531MPD2    C4 7883   0.256   3.074  13.439  0.2186  0.9423  0.3025
  531MPD2    C5 7884   0.296   3.179  13.513 -0.3291 -0.0705  0.1313
  531MPD2     H 7885   0.158   2.864  13.688 -0.6584  0.6558  0.2859
  531MPD2    H1 7886   0.284   3.079  13.335 -0.3951  0.2505  0.1062
  531MPD2    H2 7887   0.298   3.262  13.710  0.4790 -0.5297  0.9698
  531MPD2    H3 7888   0.327   3.272  13.466 -0.6506 -0.0203  0.0139
  531MPD2     N 7889   0.177   2.836  13.439  0.6422  0.1847 -0.5183
  531MPD2    H5 7890   0.138   2.754  13.484  4.2715 -1.3269 -0.1394
  531MPD2    N1 7891   0.219   3.058  13.865  0.1141 -0.4996 -0.6838
  531MPD2    H7 7892   0.255   3.135  13.920  0.1479  0.2215 -1.7099
  532TMC3    C1 7893   0.166   2.969  14.070  0.7058  0.5735 -0.4660
  532TMC3    C2 7894   0.068   2.899  14.131  0.2601 -0.4833  0.0519
  532TMC3    C3 7895   0.091   2.835  14.250 -0.1473  0.1814  0.2484
  532TMC3    C4 7896   0.293   2.957  14.113  0.4661 -0.3058 -0.1108
  532TMC3    C5 7897   0.310   2.900  14.236 -0.1656  0.4648 -0.3344
  532TMC3    C6 7898   0.204   2.857  14.310 -0.2578 -0.0073 -0.4926
  532TMC3     C 7899   0.149   2.967  13.932  0.0717 -0.2820  0.3347
  532TMC3     O 7900   0.084   2.870  13.890 -0.1989 -0.0286  0.7620
  532TMC3     H 7901   4.688   2.900  14.088  0.7159 -3.4179 -1.1229
  532TMC3    H1 7902   0.379   2.991  14.057 -0.6072  1.3045 -0.7926
  532TMC3    H2 7903   0.217   2.831  14.414 -2.4499  0.2707 -0.1621
  532TMC3    C7 7904   0.430   2.926  14.314  0.5651 -0.8507 -0.1079
  532TMC3    C8 7905   0.072   2.688  14.230 -0.3292  0.2768  0.0473
  532TMC3    O1 7906   0.431   2.900  14.433  0.3296 -0.5446  0.1109
  532TMC3    O2 7907   0.113   2.622  14.322 -0.4296 -0.4561  0.2416
  533TMC3    C1 7908   1.813   4.421  14.642  0.1214 -0.3015 -0.6448
  533TMC3    C2 7909   1.942   4.426  14.680 -0.8743 -0.2042 -0.1365
  533TMC3    C3 7910   1.981   4.511  14.778  0.1805  0.5333  0.5771
  533TMC3    C4 7911   1.723   4.500  14.715 -0.7915 -0.2248 -0.4368
  533TMC3    C5 7912   1.767   4.580  14.817  0.0694 -0.4027 -0.2639
  533TMC3    C6 7913   1.897   4.598  14.842 -0.3730 -0.0221  0.6788
  533TMC3     C 7914   1.774   4.283  14.608 -0.5421  0.6478 -0.4191
  533TMC3     O 7915   1.851   4.193  14.641  0.2913 -0.4650  0.1914
  533TMC3     H 7916   2.019   4.367  14.632  0.4587  0.1073  1.6350
  533TMC3    H1 7917   1.616   4.493  14.694 -1.5568  2.1863  2.6609
  533TMC3    H2 7918   1.932   4.658  14.926 -5.6316  0.2850  2.6915
  533TMC3    C7 7919   1.688   4.546  14.935 -0.0428  0.4782  0.1690
  533TMC3    C8 7920   2.123   4.536  14.774  0.3481 -0.5988 -0.1783
  533TMC3    O1 7921   1.614   4.448  14.929  0.3611  0.1899 -0.1016
  533TMC3    O2 7922   2.189   4.437  14.749  0.0544 -0.1313  0.0901
  534MPD2     C 7923   3.270   0.692   2.265 -0.9061 -0.1678  0.3178
  534MPD2    C1 7924   3.340   0.693   2.143  0.3964  0.2020 -0.6853
  534MPD2    C2 7925   3.272   0.632   2.035  0.0582 -0.0882 -0.4001
  534MPD2    C3 7926   3.138   0.597   2.044  0.4744 -0.1224  0.6479
  534MPD2    C4 7927   3.066   0.614   2.157  0.2452 -0.0833 -0.3473
  534MPD2    C5 7928   3.141   0.654   2.271 -0.5692  0.4999 -0.1763
  534MPD2     H 7929   3.315   0.631   1.936  0.9770  0.9709  0.0019
  534MPD2    H1 7930   2.963   0.581   2.154  0.0839  0.5395 -1.5995
  534MPD2    H2 7931   3.310   0.737   2.355  0.9443 -1.9733  0.4087
  534MPD2    H3 7932   3.091   0.655   2.367 -0.5421  1.1224 -0.1678
  534MPD2     N 7933   3.073   0.535   1.929  0.2032  0.2174 -0.1957
  534MPD2    H5 7934   2.971   0.532   1.933  0.2725 -0.8983  0.6729
  534MPD2    N1 7935   3.467   0.744   2.122  0.4695 -0.5050 -0.0865
  534MPD2    H7 7936   3.504   0.730   2.029 -0.0437  1.1457 -0.5486
  535TMC3    C1 7937   3.011   0.512   1.706  0.1263  0.9356  0.3537
  535TMC3    C2 7938   2.903   0.431   1.711  0.5940 -0.1308 -0.4234
  535TMC3    C3 7939   2.827   0.414   1.600 -0.7872  0.9054  0.5844
  535TMC3    C4 7940   3.048   0.561   1.588 -0.4213  0.3462  0.6744
  535TMC3    C5 7941   2.974   0.542   1.476  0.5679 -0.2361 -0.2631
  535TMC3    C6 7942   2.855   0.463   1.478 -0.2906 -0.0003 -0.3564
  535TMC3     C 7943   3.117   0.505   1.806  0.2580 -0.1514  0.1100
  535TMC3     O 7944   3.238   0.501   1.778  0.0268  0.0937  0.7342
  535TMC3     H 7945   2.881   0.386   1.807  1.6656 -0.2554 -0.2359
  535TMC3    H1 7946   3.135   0.623   1.572 -1.6599  2.1653  0.8686
  535TMC3    H2 7947   2.791   0.446   1.392 -1.1640 -1.2755  0.5534
  535TMC3    C7 7948   3.038   0.573   1.348  1.0137 -0.1937 -0.1073
  535TMC3    C8 7949   2.727   0.309   1.607  0.7076  0.1419  0.2903
  535TMC3    O1 7950   3.158   0.588   1.359  0.1487 -0.2959  0.4872
  535TMC3    O2 7951   2.637   0.318   1.527 -0.2523 -0.5672  0.3704
  536MPD2     C 7952   2.623   2.812  16.923 -0.5583  0.0053  0.4108
  536MPD2    C1 7953   2.658   2.942  16.899 -0.6995 -0.1918 -0.4200
  536MPD2    C2 7954   2.679   2.974  16.765  0.5665 -0.2104  0.5792
  536MPD2    C3 7955   2.669   2.875  16.665  0.5536  0.8563  0.7287
  536MPD2    C4 7956   2.639   2.741  16.698  0.0430  0.2163 -0.0885
  536MPD2    C5 7957   2.622   2.707  16.834  0.5063  0.0978 -0.3547
  536MPD2     H 7958   2.691   3.078  16.736 -2.5796  0.6182  2.1763
  536MPD2    H1 7959   2.619   2.668  16.621  1.2289  1.2793 -1.3984
  536MPD2    H2 7960   2.598   2.778  17.022 -0.8452 -1.5956 -0.2005
  536MPD2    H3 7961   2.579   2.613  16.867  2.4597  0.4208  3.1102
  536MPD2     N 7962   2.668   2.902  16.530 -0.2994 -0.2800  0.6228
  536MPD2    H5 7963   2.635   2.825  16.473  0.7805 -0.3146  0.0595
  536MPD2    N1 7964   2.675   3.027  17.004  0.5010 -0.6934 -0.1222
  536MPD2    H7 7965   2.656   2.987  17.095 -1.9923  1.1469  0.1619
  537TMC3    C1 7966   2.701   3.231  17.116  0.3448  0.5348 -0.1242
  537TMC3    C2 7967   2.793   3.321  17.155 -0.1297 -0.8187 -0.4189
  537TMC3    C3 7968   2.793   3.357  17.288 -0.4468  0.4890  0.5260
  537TMC3    C4 7969   2.610   3.176  17.209  0.5232  0.3727 -0.0706
  537TMC3    C5 7970   2.627   3.200  17.342 -0.0108  0.1525 -0.3102
  537TMC3    C6 7971   2.713   3.301  17.385  0.6871 -0.0998 -0.3933
  537TMC3     C 7972   2.715   3.161  16.993 -0.1074  0.0480 -0.2432
  537TMC3     O 7973   2.762   3.223  16.900  0.4201  0.3995 -0.9853
  537TMC3     H 7974   2.876   3.349  17.092 -0.0244  1.2400  0.6167
  537TMC3    H1 7975   2.525   3.120  17.172  0.5041 -0.9127  1.9386
  537TMC3    H2 7976   2.716   3.332  17.488 -0.9517  0.1261 -0.4021
  537TMC3    C7 7977   2.580   3.110  17.442 -0.2307  0.3541  0.1492
  537TMC3    C8 7978   2.899   3.452  17.335  0.4882  0.2301  0.4432
  537TMC3    O1 7979   2.622   3.124  17.555 -0.4521  0.0423  0.3424
  537TMC3    O2 7980   2.908   3.458  17.455 -0.4018 -0.0117  0.3970
  538TMC3    C1 7981   4.039   2.012  10.715 -0.2948 -0.1483 -0.0161
  538TMC3    C2 7982   4.082   1.886  10.674 -0.9797  0.2024  0.4853
  538TMC3    C3 7983   4.046   1.848  10.545 -0.9004 -1.0329 -0.0355
  538TMC3    C4 7984   3.965   2.087  10.631  0.9845  0.4297 -0.9129
  538TMC3    C5 7985   3.945   2.051  10.503 -0.1895 -0.0773 -0.1740
  538TMC3    C6 7986   3.975   1.923  10.457 -0.8894  0.3227 -0.3446
  538TMC3     C 7987   4.048   2.055  10.854 -0.1765 -0.1268  0.3955
  538TMC3     O 7988   3.981   2.151  10.882 -0.1619  0.2724  0.7193
  538TMC3     H 7989   4.145   1.826  10.738 -0.9265 -0.8051 -0.5209
  538TMC3    H1 7990   3.929   2.181  10.670  0.5852 -0.0987 -0.0152
  538TMC3    H2 7991   3.963   1.898  10.352 -0.2655 -1.2484 -0.0308
  538TMC3    C7 7992   3.831   2.115  10.448  0.0682  0.1455 -0.6987
  538TMC3    C8 7993   4.140   1.767  10.467  0.2476  0.7693  0.1995
  538TMC3    O1 7994   3.749   2.056  10.378  0.4902  0.1454 -0.3655
  538TMC3    O2 7995   4.103   1.712  10.366 -0.2219 -0.1334  0.1276
  539MPD2     C 7996   3.827   1.698  11.958 -0.1683  0.2479 -0.5810
  539MPD2    C1 7997   3.758   1.671  11.841 -1.2440 -0.0031  0.7702
  539MPD2    C2 7998   3.712   1.775  11.758  0.1872  0.1005  0.2043
  539MPD2    C3 7999   3.736   1.908  11.798  0.5706  0.3737 -1.3397
  539MPD2    C4 8000   3.804   1.929  11.914 -0.4477 -0.7653  0.1460
  539MPD2    C5 8001   3.845   1.831  11.995 -0.2757 -0.7856  0.7774
  539MPD2     H 8002   3.648   1.745  11.676  0.9044 -1.8723  0.3594
  539MPD2    H1 8003   3.828   2.023  11.962  1.2976 -1.5750  0.8288
  539MPD2    H2 8004   3.859   1.621  12.028  2.1088  3.0862  1.4900
  539MPD2    H3 8005   3.890   1.867  12.087 -2.4973 -0.3528  1.6815
  539MPD2     N 8006   3.700   2.020  11.723  0.1102  0.3992 -0.2200
  539MPD2    H5 8007   3.727   2.106  11.769 -3.4070  0.0788  2.4493
  539MPD2    N1 8008   3.743   1.538  11.800 -0.0901  0.6273 -0.4414
  539MPD2    H7 8009   3.721   1.531  11.701  0.1395  1.4728 -0.5529
  540TMC3    C1 8010   3.602   2.149  11.546 -0.0358 -0.3105  0.1789
  540TMC3    C2 8011   3.594   2.154  11.409 -0.1932 -0.9425  0.4634
  540TMC3    C3 8012   3.596   2.279  11.349  0.4150  0.9248 -0.6583
  540TMC3    C4 8013   3.608   2.260  11.623  0.0592 -0.1299 -0.7601
  540TMC3    C5 8014   3.611   2.382  11.558  0.2290 -0.3667 -0.4216
  540TMC3    C6 8015   3.603   2.392  11.422 -0.0017 -0.5811 -1.0842
  540TMC3     C 8016   3.654   2.020  11.592  0.2409 -0.2346 -0.3548
  540TMC3     O 8017   3.623   1.921  11.529  0.1281 -0.4394 -0.0051
  540TMC3     H 8018   3.601   2.064  11.350 -0.0917 -0.2238 -0.6189
  540TMC3    H1 8019   3.599   2.254  11.731  0.6151  2.0556 -0.5851
  540TMC3    H2 8020   3.596   2.487  11.370 -0.9698  0.8747  1.6802
  540TMC3    C7 8021   3.575   2.502  11.624 -0.7747  0.4439  0.0494
  540TMC3    C8 8022   3.648   2.273  11.214 -1.0310  0.0050  0.2340
  540TMC3    O1 8023   3.632   2.603  11.589  0.0804 -0.5631 -0.2881
  540TMC3    O2 8024   3.718   2.366  11.176  0.2421 -0.0524 -0.4453
  541MPD2     C 8025   2.251   3.070  13.289  0.0347  0.0237  0.3759
  541MPD2    C1 8026   2.250   2.986  13.176  0.1744  0.5179 -0.6974
  541MPD2    C2 8027   2.298   3.045  13.059 -0.0041  0.3016 -0.5433
  541MPD2    C3 8028   2.323   3.178  13.047  0.3858  0.3253  0.5079
  541MPD2    C4 8029   2.296   3.262  13.151  1.1869  0.1653 -0.0014
  541MPD2    C5 8030   2.269   3.207  13.271  0.1009 -0.1137  0.5848
  541MPD2     H 8031   2.295   2.992  12.965 -0.0710  0.5667 -0.6915
  541MPD2    H1 8032   2.301   3.370  13.145  0.2575  0.1933 -0.2098
  541MPD2    H2 8033   2.212   3.028  13.381 -0.8092 -1.2901 -0.5694
  541MPD2    H3 8034   2.259   3.274  13.356 -2.1072  1.1798 -0.7107
  541MPD2     N 8035   2.369   3.237  12.921 -0.4256 -0.0267 -0.0974
  541MPD2    H5 8036   2.387   3.337  12.921  0.0203 -0.1100  1.7641
  541MPD2    N1 8037   2.209   2.846  13.189  0.2625  0.2425 -0.0718
  541MPD2    H7 8038   2.197   2.810  13.284 -1.2516 -0.4305 -0.5156
  542TMC3    C1 8039   2.407   3.236  12.690 -0.1198 -0.5557 -0.0730
  542TMC3    C2 8040   2.444   3.175  12.574  0.3041 -0.5896  1.1799
  542TMC3    C3 8041   2.453   3.260  12.466  0.2975  0.2666  0.1115
  542TMC3    C4 8042   2.337   3.358  12.690 -0.2616 -0.1402 -0.0509
  542TMC3    C5 8043   2.326   3.429  12.575 -0.5387 -0.3346  0.8341
  542TMC3    C6 8044   2.388   3.380  12.463 -0.1304  0.2949  0.7782
  542TMC3     C 8045   2.398   3.160  12.808  0.1058 -0.1252 -0.2292
  542TMC3     O 8046   2.431   3.045  12.801  0.6078  0.2088 -0.0683
  542TMC3     H 8047   2.491   3.078  12.570 -0.5625 -1.0250  1.5051
  542TMC3    H1 8048   2.279   3.396  12.773  1.0808  0.3422  0.6816
  542TMC3    H2 8049   2.404   3.441  12.374 -1.2896 -0.0918  0.3004
  542TMC3    C7 8050   2.270   3.561  12.591 -0.1841  0.2325  0.2705
  542TMC3    C8 8051   2.479   3.210  12.335 -0.8204  1.2942  0.2430
  542TMC3    O1 8052   2.266   3.613  12.706 -0.3293 -0.1796 -0.0145
  542TMC3    O2 8053   2.446   3.092  12.314 -0.1070 -0.7400  0.3470
  543TMC3    C1 8054   1.384   3.016  16.887 -0.4789 -0.6386 -0.0709
  543TMC3    C2 8055   1.460   2.914  16.851  0.2267 -0.1257  0.5908
  543TMC3    C3 8056   1.452   2.805  16.932  0.4473 -0.7689  0.5567
  543TMC3    C4 8057   1.282   3.014  16.983 -0.3652  0.5339  0.3228
  543TMC3    C5 8058   1.285   2.906  17.069  0.7138  0.3410 -0.1633
  543TMC3    C6 8059   1.373   2.800  17.042 -0.3302 -0.7707  0.4095
  543TMC3     C 8060   1.414   3.142  16.817 -0.3727  0.3732 -0.2015
  543TMC3     O 8061   1.481   3.140  16.718  0.1063  0.0965 -0.6009
  543TMC3     H 8062   1.533   2.920  16.771 -0.9164  2.3739 -0.2587
  543TMC3    H1 8063   1.215   3.098  16.995 -1.0542  0.5427 -3.6548
  543TMC3    H2 8064   1.373   2.724  17.119  1.6866  1.1905  2.3664
  543TMC3    C7 8065   1.173   2.876  17.150  0.5162  0.3106  0.3617
  543TMC3    C8 8066   1.521   2.685  16.890  0.1852  0.0046  0.9427
  543TMC3    O1 8067   1.152   2.761  17.177 -0.2149  0.4857 -0.2384
  543TMC3    O2 8068   1.608   2.706  16.808  0.0731 -0.1326  0.4165
  544MPD2     C 8069   1.537   2.174  16.813  0.6934 -0.0388 -0.3500
  544MPD2    C1 8070   1.632   2.277  16.800 -0.1524 -0.3089 -0.7444
  544MPD2    C2 8071   1.610   2.406  16.838 -0.1794  0.4717  0.3880
  544MPD2    C3 8072   1.489   2.437  16.889 -0.0962  0.2260 -0.0362
  544MPD2    C4 8073   1.395   2.339  16.909 -0.0908 -0.5587  0.2983
  544MPD2    C5 8074   1.417   2.209  16.870 -0.3090  0.2572  0.4673
  544MPD2     H 8075   1.688   2.482  16.839  0.5616 -0.2424 -2.5782
  544MPD2    H1 8076   1.303   2.362  16.960 -1.2632 -2.7781 -0.8139
  544MPD2    H2 8077   1.555   2.071  16.783 -2.6350 -0.2347 -1.6253
  544MPD2    H3 8078   1.337   2.136  16.883  0.2730 -0.2101  1.4399
  544MPD2     N 8079   1.460   2.568  16.933 -0.3121 -0.3681 -0.0676
  544MPD2    H5 8080   1.374   2.578  16.985 -0.1808 -2.1796  0.4836
  544MPD2    N1 8081   1.752   2.237  16.741 -0.7449 -0.4827  0.1224
  544MPD2    H7 8082   1.776   2.139  16.747  0.0926 -0.2940 -0.1126
  545TMC3    C1 8083   1.978   2.267  16.688  0.6989  0.5180  0.0256
  545TMC3    C2 8084   2.068   2.351  16.624  0.6021 -0.1319  0.1578
  545TMC3    C3 8085   2.198   2.336  16.661 -0.3131  0.5770 -0.1404
  545TMC3    C4 8086   2.011   2.166  16.772 -0.2026 -0.0451 -0.0598
  545TMC3    C5 8087   2.146   2.153  16.801 -0.0444 -0.7770  0.0928
  545TMC3    C6 8088   2.239   2.248  16.761  0.2149  0.1651 -0.2718
  545TMC3     C 8089   1.842   2.327  16.685 -0.2913 -0.2026  0.6800
  545TMC3     O 8090   1.813   2.433  16.634  0.2739  0.3076  0.1636
  545TMC3     H 8091   2.024   2.426  16.559 -2.5078 -2.1857 -0.1615
  545TMC3    H1 8092   1.939   2.104  16.824 -0.7697  1.4410  0.9411
  545TMC3    H2 8093   2.344   2.239  16.787  0.3231  1.4481 -0.2572
  545TMC3    C7 8094   2.168   2.084  16.925  0.2201 -0.3924  0.2431
  545TMC3    C8 8095   2.298   2.435  16.614  0.0789  0.3242 -0.7349
  545TMC3    O1 8096   2.131   1.968  16.932 -0.1214  0.0106 -0.3597
  545TMC3    O2 8097   2.390   2.472  16.687  0.3275  0.4484 -0.2436
  546MPD2     C 8098   3.062   4.083   0.040  0.4059 -0.4632 -0.2514
  546MPD2    C1 8099   3.113   4.061  17.590 -0.2119  0.2841  0.0411
  546MPD2    C2 8100   3.228   4.123  17.551  0.3472  0.6246 -0.3427
  546MPD2    C3 8101   3.295   4.206  17.633  0.7401  0.3771  0.4418
  546MPD2    C4 8102   3.242   4.227   0.082 -0.0423 -0.9783  0.4774
  546MPD2    C5 8103   3.123   4.176   0.121 -0.1080 -0.2816  0.2128
  546MPD2     H 8104   3.265   4.116  17.450 -1.5450  0.4130 -1.0109
  546MPD2    H1 8105   3.293   4.291   0.154 -0.3445  1.6791 -1.6886
  546MPD2    H2 8106   2.970   4.048   0.086 -0.1007  1.5761  0.2587
  546MPD2    H3 8107   3.081   4.204   0.217 -0.2959 -1.8548  0.5828
  546MPD2     N 8108   3.420   4.257  17.612 -0.7332 -0.0957  0.1739
  546MPD2    H5 8109   3.451   4.333  17.672 -1.0441  0.2542 -0.1027
  546MPD2    N1 8110   3.030   3.980  17.506 -0.2206 -0.0516 -0.0244
  546MPD2    H7 8111   2.952   3.932  17.548 -1.1538  1.4406 -0.0553
  547TMC3    C1 8112   2.937   3.896  17.302  0.3850 -0.1073 -0.3870
  547TMC3    C2 8113   2.909   3.926  17.176 -0.9720 -0.1883  0.3587
  547TMC3    C3 8114   2.787   3.879  17.117 -0.2204 -0.0972 -0.3272
  547TMC3    C4 8115   2.851   3.822  17.378  0.4921  0.3000  0.3708
  547TMC3    C5 8116   2.728   3.779  17.317  0.1131 -1.0324  0.1933
  547TMC3    C6 8117   2.693   3.815  17.188  0.6276  0.0567  0.7863
  547TMC3     C 8118   3.049   3.963  17.370  0.0805  0.5096 -0.3446
  547TMC3     O 8119   3.130   4.018  17.294 -0.8813 -0.2851 -0.5636
  547TMC3     H 8120   2.986   3.973  17.116 -0.8912 -1.5294 -0.5708
  547TMC3    H1 8121   2.886   3.784  17.474 -0.0109  2.9690  1.6145
  547TMC3    H2 8122   2.592   3.799  17.152  1.7819 -1.3374 -1.8339
  547TMC3    C7 8123   2.626   3.704  17.402  1.1285 -0.0170  0.6065
  547TMC3    C8 8124   2.766   3.921  16.974  0.6895 -0.0924 -0.7579
  547TMC3    O1 8125   2.519   3.676  17.351  0.3972 -0.3655  0.2112
  547TMC3    O2 8126   2.850   3.994  16.921  0.3902  0.3078 -0.0884
  548MPD2     C 8127   2.798   0.469  12.100 -0.4148  0.0320 -0.2130
  548MPD2    C1 8128   2.768   0.331  12.102 -0.7680  0.1937 -0.6103
  548MPD2    C2 8129   2.850   0.242  12.046 -0.6594  0.8050 -0.1752
  548MPD2    C3 8130   2.968   0.287  11.992  0.2250 -0.2433 -0.0199
  548MPD2    C4 8131   2.996   0.418  11.973  0.1287  0.1823 -0.2265
  548MPD2    C5 8132   2.901   0.500  12.023  0.3271 -0.0978  0.0678
  548MPD2     H 8133   2.816   0.140  12.029  2.6109 -0.0863 -1.2998
  548MPD2    H1 8134   3.087   0.463  11.936 -0.6802  1.5940 -0.5110
  548MPD2    H2 8135   2.740   0.549  12.144  1.4708  0.8357  0.8018
  548MPD2    H3 8136   2.925   0.606  12.018  1.4313 -0.3996 -1.0382
  548MPD2     N 8137   3.061   0.186  11.976  0.5853 -0.2550 -0.9447
  548MPD2    H5 8138   3.026   0.100  12.017  0.5140 -0.3323 -1.1649
  548MPD2    N1 8139   2.656   0.296  12.182  0.1401 -0.6011  0.2764
  548MPD2    H7 8140   2.619   0.375  12.233 -1.8992 -2.3243  1.4869
  549TMC3    C1 8141   2.524   0.168  12.333  0.1042 -0.1064 -0.7227
  549TMC3    C2 8142   2.455   0.282  12.357 -0.0398 -0.7105 -0.3817
  549TMC3    C3 8143   2.392   0.300  12.474 -0.4030 -0.3672 -0.3393
  549TMC3    C4 8144   2.539   0.066  12.423 -0.2995  0.2545  0.3916
  549TMC3    C5 8145   2.468   0.085  12.539  0.1058 -0.4725 -0.7552
  549TMC3    C6 8146   2.390   0.196  12.568 -0.6394 -0.6138 -0.1638
  549TMC3     C 8147   2.617   0.168  12.220 -0.0082  0.1923 -0.0407
  549TMC3     O 8148   2.685   0.069  12.200 -0.0474  0.1646 -0.6485
  549TMC3     H 8149   2.444   0.350  12.272  1.2414 -0.4614 -0.3513
  549TMC3    H1 8150   2.601   4.698  12.406 -0.2041  0.5517 -0.7447
  549TMC3    H2 8151   2.340   0.198  12.664  0.7638  0.7796  0.5235
  549TMC3    C7 8152   2.526   0.018  12.659 -0.5643 -0.0051 -0.0581
  549TMC3    C8 8153   2.296   0.403  12.467 -0.2147 -0.0969  0.4377
  549TMC3    O1 8154   2.573   0.088  12.745  0.1982  0.5190  0.1069
  549TMC3    O2 8155   2.179   0.378  12.441  0.5832  0.1433  0.3682
  550TMC3    C1 8156   1.324   2.562  12.986  0.3463  0.5029 -0.3414
  550TMC3    C2 8157   1.230   2.650  13.032  0.5084 -0.3662  0.5917
  550TMC3    C3 8158   1.216   2.765  12.968  0.1960  0.2738 -0.5829
  550TMC3    C4 8159   1.420   2.592  12.890  0.5250 -0.7770  0.0613
  550TMC3    C5 8160   1.405   2.712  12.832 -0.5079 -0.5365  0.5473
  550TMC3    C6 8161   1.310   2.801  12.875  0.5064  0.3622 -0.4574
  550TMC3     C 8162   1.272   2.423  12.956 -0.0981 -0.3276  0.2447
  550TMC3     O 8163   1.190   2.371  13.033  0.5188  0.4881 -0.6072
  550TMC3     H 8164   1.156   2.617  13.104  0.7560 -1.3811  0.3819
  550TMC3    H1 8165   1.496   2.523  12.856  2.8582  1.2810  1.1474
  550TMC3    H2 8166   1.287   2.889  12.815 -1.2504  1.0250  1.1668
  550TMC3    C7 8167   1.411   2.687  12.690  0.0870  0.0469  0.5664
  550TMC3    C8 8168   1.102   2.850  12.995  0.1782 -0.2377  0.6154
  550TMC3    O1 8169   1.445   2.574  12.652 -0.1931 -0.6358 -0.6354
  550TMC3    O2 8170   1.120   2.967  12.974 -0.5767 -0.5506  0.3348
  551TMC3    C1 8171   3.759   0.463  13.519  0.5439  0.4662 -0.2379
  551TMC3    C2 8172   3.887   0.426  13.475  0.0537  0.0793  0.0277
  551TMC3    C3 8173   3.989   0.420  13.558 -0.3969  0.1665  0.2365
  551TMC3    C4 8174   3.737   0.496  13.650  0.3867  0.1917 -0.0350
  551TMC3    C5 8175   3.844   0.493  13.728  0.0224  0.1285 -0.2779
  551TMC3    C6 8176   3.970   0.445  13.688 -0.2720  0.2120 -0.5100
  551TMC3     C 8177   3.665   0.503  13.413  0.3329  0.0116 -0.2149
  551TMC3     O 8178   3.702   0.503  13.295  0.5619 -0.4448 -0.1652
  551TMC3     H 8179   3.919   0.425  13.372  0.3372 -1.0610  0.1317
  551TMC3    H1 8180   3.640   0.512  13.695  0.4436  0.6439 -0.0778
  551TMC3    H2 8181   4.053   0.444  13.757 -1.7661  0.7901  1.2887
  551TMC3    C7 8182   3.850   0.582  13.843 -0.4185  0.4026  0.0830
  551TMC3    C8 8183   4.116   0.443  13.500  0.3207 -0.4429  0.2329
  551TMC3    O1 8184   3.944   0.574  13.916  0.6449 -0.2758  0.3399
  551TMC3    O2 8185   4.161   0.356  13.430  0.1306  0.3540 -0.1416
  552MPD2     C 8186   0.706   2.447  14.689 -0.2367 -0.1870  0.4096
  552MPD2    C1 8187   0.795   2.436  14.583  0.4690 -0.3646 -0.1464
  552MPD2    C2 8188   0.930   2.409  14.603  0.2226  0.0976  0.6530
  552MPD2    C3 8189   0.970   2.395  14.733  0.2422  0.6328  0.3613
  552MPD2    C4 8190   0.886   2.405  14.838 -0.4317  0.0826  0.0143
  552MPD2    C5 8191   0.754   2.425  14.820 -0.3313 -0.5913  0.0241
  552MPD2     H 8192   0.998   2.403  14.519  1.4355  0.6529  1.5971
  552MPD2    H1 8193   0.923   2.399  14.940 -0.6287 -2.7777 -0.0819
  552MPD2    H2 8194   0.599   2.456  14.675 -0.1016  0.1952 -0.4074
  552MPD2    H3 8195   0.682   2.425  14.901 -0.6192 -1.3856 -0.2242
  552MPD2     N 8196   1.102   2.371  14.768  0.0335 -0.1696  0.5427
  552MPD2    H5 8197   1.117   2.337  14.863  0.1744  2.0841  1.3221
  552MPD2    N1 8198   0.754   2.439  14.445  0.6697 -0.1333 -0.3805
  552MPD2    H7 8199   0.826   2.414  14.379  0.9969 -0.2616  0.0230
  553TMC3    C1 8200   0.641   2.480  14.246 -0.6913  0.1244 -0.5407
  553TMC3    C2 8201   0.590   2.571  14.159 -0.0980  0.3413 -0.1685
  553TMC3    C3 8202   0.575   2.535  14.028  0.6639  0.3189 -0.2041
  553TMC3    C4 8203   0.698   2.362  14.198  0.8529 -0.3611 -0.2045
  553TMC3    C5 8204   0.679   2.333  14.067  0.6101  0.9512  0.5225
  553TMC3    C6 8205   0.618   2.415  13.975  0.1662 -0.1972 -0.4333
  553TMC3     C 8206   0.641   2.498  14.393 -0.4815 -0.2238 -0.4512
  553TMC3     O 8207   0.570   2.579  14.451 -0.0866  0.4303 -0.6295
  553TMC3     H 8208   0.548   2.664  14.197  0.3804  0.9594 -1.1387
  553TMC3    H1 8209   0.723   2.278  14.262 -1.1710 -0.4944  0.4096
  553TMC3    H2 8210   0.626   2.388  13.870  0.4284  0.2519 -0.5309
  553TMC3    C7 8211   0.744   2.220  14.023 -0.5125 -0.2233  0.2677
  553TMC3    C8 8212   0.556   2.646  13.937 -0.3002 -0.1118  0.4969
  553TMC3    O1 8213   0.674   2.147  13.953  0.0051 -0.0990 -0.1170
  553TMC3    O2 8214   0.561   2.758  13.985  0.6709  0.5937  0.0548
  554TMC3    C1 8215   2.602   1.912  11.674  0.5175  0.3061  0.2164
  554TMC3    C2 8216   2.492   1.856  11.612  0.2264  0.5528  0.9103
  554TMC3    C3 8217   2.487   1.869  11.481  0.2476  0.3343  0.1717
  554TMC3    C4 8218   2.711   1.961  11.608 -0.1799  0.0209  0.2419
  554TMC3    C5 8219   2.695   1.979  11.477  0.4922 -0.1778 -0.4903
  554TMC3    C6 8220   2.581   1.935  11.407 -0.4341 -0.7677 -0.3246
  554TMC3     C 8221   2.618   1.892  11.820 -0.0825  0.2084 -0.3466
  554TMC3     O 8222   2.516   1.861  11.884  0.1822  0.3204  0.1173
  554TMC3     H 8223   2.415   1.806  11.670  0.5674 -0.3954  0.5466
  554TMC3    H1 8224   2.800   2.000  11.658  0.5569 -0.4467 -0.7099
  554TMC3    H2 8225   2.565   1.962  11.303 -0.1046  0.8151  0.0278
  554TMC3    C7 8226   2.800   2.018  11.393  0.0991  0.2125 -0.5680
  554TMC3    C8 8227   2.396   1.791  11.393  0.0625  0.2256  0.3325
  554TMC3    O1 8228   2.789   1.972  11.281 -0.2017 -0.6193 -0.0177
  554TMC3    O2 8229   2.365   1.837  11.288  0.8050 -0.1193 -0.1344
  555TMC3    C1 8230   1.827   1.021  15.409 -0.2357 -0.1569 -0.6000
  555TMC3    C2 8231   1.742   1.076  15.497  1.0591  0.0365 -0.6234
  555TMC3    C3 8232   1.684   1.000  15.596  0.5880  1.0712 -0.3145
  555TMC3    C4 8233   1.851   0.892  15.419  0.0902 -0.2046 -0.3483
  555TMC3    C5 8234   1.782   0.809  15.511  0.3323 -0.1328  0.3681
  555TMC3    C6 8235   1.695   0.866  15.599  0.2780  0.5788 -0.1549
  555TMC3     C 8236   1.902   1.107  15.326  0.3735 -0.7525  0.1250
  555TMC3     O 8237   2.013   1.063  15.292  0.4529 -0.8162 -0.3302
  555TMC3     H 8238   1.739   1.182  15.519 -1.4298 -0.6238  2.3103
  555TMC3    H1 8239   1.926   0.849  15.353 -1.5218 -4.1815  0.3744
  555TMC3    H2 8240   1.668   0.815  15.691 -2.1356  0.6338 -0.8488
  555TMC3    C7 8241   1.790   0.665  15.473  0.1380 -0.3670 -0.0481
  555TMC3    C8 8242   1.697   1.055  15.733  0.2260  0.3448 -0.5481
  555TMC3    O1 8243   1.845   0.645  15.364 -0.3039 -0.1009  0.0376
  555TMC3    O2 8244   1.586   1.063  15.789 -0.2233 -0.1696  0.0638
  556MPD2     C 8245   4.486   2.496  10.800 -0.2070 -0.1132  0.4911
  556MPD2    C1 8246   4.592   2.472  10.889 -0.3700 -0.3139 -0.8386
  556MPD2    C2 8247   4.696   2.389  10.845 -0.1396  0.0838 -0.0512
  556MPD2    C3 8248   4.702   2.341  10.714 -0.1942  0.2672  0.7197
  556MPD2    C4 8249   4.603   2.386  10.629 -0.5499  1.0689 -0.3742
  556MPD2    C5 8250   4.502   2.470  10.672  0.0483  0.4880  0.3375
  556MPD2     H 8251   0.062   2.367  10.908  1.9724  0.7409 -2.6791
  556MPD2    H1 8252   4.588   2.359  10.525  1.6956  0.5855 -0.5758
  556MPD2    H2 8253   4.396   2.546  10.835  0.6936  2.2207 -0.5496
  556MPD2    H3 8254   4.419   2.493  10.606 -1.3012 -0.1832  1.7915
  556MPD2     N 8255   0.076   2.253  10.680 -0.7300  0.2912 -0.4422
  556MPD2    H5 8256   0.130   2.209  10.754 -0.6996 -1.1506 -1.3293
  556MPD2    N1 8257   4.600   2.517  11.024  0.1403  0.7957 -0.2383
  556MPD2    H7 8258   4.686   2.497  11.073  0.0649  0.4323 -0.2590
  557TMC3    C1 8259   0.189   2.105  10.523 -0.4709  0.5206 -0.0682
  557TMC3    C2 8260   0.234   2.104  10.396  0.2240 -0.6880  0.2770
  557TMC3    C3 8261   0.256   1.982  10.343  0.2374  0.3658  0.5033
  557TMC3    C4 8262   0.144   1.992  10.594  0.1551 -0.1136  0.1803
  557TMC3    C5 8263   0.159   1.869  10.532  0.3192  0.3931  0.0458
  557TMC3    C6 8264   0.213   1.863  10.405  0.7484 -0.1530  0.9020
  557TMC3     C 8265   0.117   2.228  10.550 -0.2718  0.4073 -0.6983
  557TMC3     O 8266   0.098   2.305  10.454 -0.3633 -0.2358  0.6003
  557TMC3     H 8267   0.271   2.189  10.341  0.5409 -1.4563 -0.6848
  557TMC3    H1 8268   0.115   2.017  10.696  1.3430 -2.0981  0.9999
  557TMC3    H2 8269   0.224   1.767  10.355 -1.1788 -0.7258  1.6162
  557TMC3    C7 8270   0.048   1.784  10.552  0.8532  0.1487 -0.3500
  557TMC3    C8 8271   0.327   1.975  10.215  0.2336  0.2496 -0.4697
  557TMC3    O1 8272   4.714   1.796  10.658 -0.4017  0.3351  0.4359
  557TMC3    O2 8273   0.361   2.078  10.160 -0.5247  0.0485 -0.4827
  558TMC3    C1 8274   2.834   0.254   9.987 -0.1673  1.2758 -0.7263
  558TMC3    C2 8275   2.725   0.312  10.049 -0.7455  0.6995  0.5893
  558TMC3    C3 8276   2.616   0.355   9.981 -0.6450 -0.3720 -0.4922
  558TMC3    C4 8277   2.816   0.230   9.849  0.4962 -0.5026 -0.0572
  558TMC3    C5 8278   2.700   0.267   9.781  0.2395  0.2140  0.0037
  558TMC3    C6 8279   2.600   0.336   9.845  0.0731  0.2810  0.4295
  558TMC3     C 8280   2.966   0.270  10.038 -0.3901 -0.3705  0.2407
  558TMC3     O 8281   2.992   0.344  10.133 -0.2254 -0.7205 -0.1903
  558TMC3     H 8282   2.735   0.344  10.152  1.6889  0.5048  0.4210
  558TMC3    H1 8283   2.900   0.189   9.794  1.1062  1.8175 -0.8741
  558TMC3    H2 8284   2.525   0.387   9.784  2.5859  1.5810 -1.5777
  558TMC3    C7 8285   2.689   0.231   9.638  0.6536 -0.3345  0.1542
  558TMC3    C8 8286   2.538   0.458  10.041  0.7011 -1.3441 -0.4097
  558TMC3    O1 8287   2.798   0.212   9.583  0.3713  0.1949  0.0494
  558TMC3    O2 8288   2.506   0.548   9.964 -0.2940  0.0947 -0.4341
  559MPD2     C 8289   2.414   1.099  10.770 -0.3218 -0.9661  0.4087
  559MPD2    C1 8290   2.375   1.070  10.900  0.4721 -0.2178 -0.8218
  559MPD2    C2 8291   2.424   1.150  11.009  0.2712 -0.3043  0.6314
  559MPD2    C3 8292   2.518   1.249  10.984  0.5716  0.0880 -0.3813
  559MPD2    C4 8293   2.557   1.275  10.853  0.2455 -0.5970 -0.1425
  559MPD2    C5 8294   2.498   1.204  10.748 -0.0754 -0.3825 -0.4162
  559MPD2     H 8295   2.382   1.136  11.108 -0.6029  1.1599  0.4809
  559MPD2    H1 8296   2.635   1.348  10.837  0.9419 -1.7691 -2.1745
  559MPD2    H2 8297   2.393   1.042  10.681  1.1157 -0.1312 -0.4829
  559MPD2    H3 8298   2.532   1.226  10.648  0.5676  0.2574 -0.0543
  559MPD2     N 8299   2.584   1.293  11.100 -0.2199  0.3537 -0.1445
  559MPD2    H5 8300   2.554   1.249  11.186 -0.2656 -0.9235 -0.8204
  559MPD2    N1 8301   2.287   0.963  10.938  0.3360  0.1441 -0.8746
  559MPD2    H7 8302   2.281   0.954  11.039  2.3311 -2.6043 -1.0203
  560TMC3    C1 8303   2.698   1.402  11.267 -0.1432  0.7258  0.0496
  560TMC3    C2 8304   2.601   1.349  11.356 -0.0644 -0.5534  0.1128
  560TMC3    C3 8305   2.630   1.259  11.453  0.4886 -1.4861 -0.3160
  560TMC3    C4 8306   2.825   1.380  11.302  0.1721  0.1062  0.5521
  560TMC3    C5 8307   2.855   1.304  11.409 -0.2993  0.1052 -0.6336
  560TMC3    C6 8308   2.757   1.233  11.479 -0.7141  0.5372 -0.5632
  560TMC3     C 8309   2.680   1.386  11.121 -0.8133  0.1835 -0.9082
  560TMC3     O 8310   2.752   1.436  11.032  0.0312  0.6935  0.0118
  560TMC3     H 8311   2.496   1.362  11.335 -0.3984 -1.4471  1.2769
  560TMC3    H1 8312   2.900   1.399  11.226  1.2772  0.0683  1.6371
  560TMC3    H2 8313   2.783   1.156  11.550 -1.3338  2.5616  1.8455
  560TMC3    C7 8314   2.989   1.278  11.451 -0.3995  0.5428  0.0837
  560TMC3    C8 8315   2.547   1.144  11.434  0.4682  0.6553  0.5307
  560TMC3    O1 8316   3.009   1.175  11.514 -0.1483 -0.3778  0.0991
  560TMC3    O2 8317   2.496   1.130  11.322 -0.2429 -0.2844 -0.1458
  561TMC3    C1 8318   0.407   0.121  11.495  0.7756 -0.2322 -0.1294
  561TMC3    C2 8319   0.376   0.081  11.621  0.0463  0.2879 -0.3917
  561TMC3    C3 8320   0.345   0.179  11.711  0.3967  0.0966 -0.7951
  561TMC3    C4 8321   0.418   0.254  11.462  0.3736 -0.2806 -0.5962
  561TMC3    C5 8322   0.391   0.346  11.554 -0.1225  0.0404 -0.4086
  561TMC3    C6 8323   0.352   0.318  11.680  0.0071  0.5640  0.1054
  561TMC3     C 8324   0.455   0.020  11.405  0.3132 -0.3906 -0.8825
  561TMC3     O 8325   0.467   4.622  11.448  0.0251 -0.4641 -0.2510
  561TMC3     H 8326   0.376   4.695  11.646  1.5111  0.1021 -1.1664
  561TMC3    H1 8327   0.419   0.292  11.360 -1.5052 -0.7111 -0.7699
  561TMC3    H2 8328   0.343   0.401  11.749 -1.2944  1.2827 -0.9256
  561TMC3    C7 8329   0.412   0.490  11.525  0.2161 -0.4530 -0.8695
  561TMC3    C8 8330   0.309   0.136  11.842 -0.9759 -0.2589  0.4621
  561TMC3    O1 8331   0.379   0.567  11.614  0.6476  0.2241  0.4933
  561TMC3    O2 8332   0.351   0.029  11.875  0.3759 -0.0997  0.0406
  562TMC3    C1 8333   1.892   0.922  16.232 -0.0452 -0.6042  0.1016
  562TMC3    C2 8334   1.776   0.984  16.260  0.3775 -0.4861 -0.2073
  562TMC3    C3 8335   1.677   0.964  16.167 -0.0862 -0.2843  0.0340
  562TMC3    C4 8336   1.912   0.836  16.130 -0.4387  0.1211  0.1664
  562TMC3    C5 8337   1.815   0.827  16.034  0.0235  0.6046 -0.4197
  562TMC3    C6 8338   1.694   0.893  16.050 -0.1424  0.0110 -0.9852
  562TMC3     C 8339   2.005   0.934  16.326  0.3308 -0.3286  0.4156
  562TMC3     O 8340   2.107   0.877  16.296 -0.4125  0.5675  0.4498
  562TMC3     H 8341   1.750   1.038  16.350  1.5138  0.2658 -0.3164
  562TMC3    H1 8342   2.002   0.776  16.128 -0.5489 -0.0251 -0.4480
  562TMC3    H2 8343   1.610   0.883  15.982 -0.7585  2.1333 -0.5180
  562TMC3    C7 8344   1.831   0.726  15.929 -0.2730  0.2528 -0.2225
  562TMC3    C8 8345   1.551   1.035  16.197  0.4796 -0.6186 -1.3791
  562TMC3    O1 8346   1.740   0.687  15.863 -0.3292 -0.3712 -0.2820
  562TMC3    O2 8347   1.527   1.034  16.319  0.3766 -0.1464  0.2440
  563MPD2     C 8348   3.762   2.565  15.471  0.2140 -0.4289  0.5973
  563MPD2    C1 8349   3.767   2.527  15.604  0.6585 -0.0291 -0.2819
  563MPD2    C2 8350   3.865   2.446  15.647  0.2591 -0.0630 -0.0245
  563MPD2    C3 8351   3.950   2.376  15.563  0.4437  0.7123 -0.3973
  563MPD2    C4 8352   3.932   2.398  15.428 -0.4216 -0.3963 -0.4775
  563MPD2    C5 8353   3.849   2.505  15.385  0.7272 -0.0342  0.4104
  563MPD2     H 8354   3.856   2.424  15.753 -1.3064 -3.8484 -0.9400
  563MPD2    H1 8355   4.009   2.369  15.357 -2.6461  0.2896 -3.1930
  563MPD2    H2 8356   3.690   2.635  15.431  0.8866  1.2146  2.2606
  563MPD2    H3 8357   3.865   2.537  15.283  0.1187 -1.4479 -0.1294
  563MPD2     N 8358   4.053   2.291  15.609  0.3384  0.5763 -0.0982
  563MPD2    H5 8359   4.090   2.290  15.704  1.4384 -0.3906 -0.5280
  563MPD2    N1 8360   3.687   2.584  15.698  0.2782  0.1630 -0.4319
  563MPD2    H7 8361   3.698   2.550  15.793 -0.5188 -1.3014 -0.8751
  564TMC3    C1 8362   3.515   2.696  15.802  0.1410  0.1498  0.1427
  564TMC3    C2 8363   3.400   2.626  15.843 -0.0430 -0.1117  0.8465
  564TMC3    C3 8364   3.390   2.596  15.978  0.1195 -0.1710 -0.7824
  564TMC3    C4 8365   3.611   2.739  15.893 -0.3740  0.0098  1.1292
  564TMC3    C5 8366   3.593   2.707  16.026 -0.2251  0.3265  0.4572
  564TMC3    C6 8367   3.487   2.635  16.070 -0.9261 -0.1629  0.0769
  564TMC3     C 8368   3.565   2.657  15.670  0.9633 -0.4831 -0.5438
  564TMC3     O 8369   3.498   2.672  15.568 -0.1692  0.6652  0.0975
  564TMC3     H 8370   3.322   2.598  15.773  1.6872  1.3271 -1.6741
  564TMC3    H1 8371   3.702   2.782  15.854  0.4619 -0.6157  2.4154
  564TMC3    H2 8372   3.481   2.607  16.175  1.1665 -2.0391 -0.2954
  564TMC3    C7 8373   3.719   2.701  16.101  0.2338  0.4009  1.0616
  564TMC3    C8 8374   3.288   2.509  16.026  0.3177 -0.2776  0.2713
  564TMC3    O1 8375   3.811   2.785  16.086 -0.1012 -0.0185  0.3679
  564TMC3    O2 8376   3.252   2.529  16.141  0.2791  0.3056 -0.3923
  565TMC3    C1 8377   4.313   3.069  10.316  0.7063 -0.0850  0.1190
  565TMC3    C2 8378   4.404   3.086  10.417 -0.2968  0.7618 -0.0806
  565TMC3    C3 8379   4.375   3.172  10.516  0.2813  0.5056  0.5539
  565TMC3    C4 8380   4.194   3.137  10.320 -0.7250  0.2223  0.3661
  565TMC3    C5 8381   4.176   3.236  10.416  0.0620  0.3221  0.0690
  565TMC3    C6 8382   4.264   3.255  10.520  0.7033  0.3813  0.0157
  565TMC3     C 8383   4.374   3.022  10.195  0.4135  0.3120  0.4008
  565TMC3     O 8384   4.496   3.029  10.192 -0.4409 -0.0116 -0.3746
  565TMC3     H 8385   4.499   3.036  10.405 -0.1785  0.4997  1.8905
  565TMC3    H1 8386   4.119   3.109  10.248 -0.2909 -0.8703  0.3432
  565TMC3    H2 8387   4.232   3.310  10.608  2.0951  1.9617 -0.4765
  565TMC3    C7 8388   4.041   3.280  10.442 -0.4133  0.7784  0.0731
  565TMC3    C8 8389   4.464   3.178  10.635 -0.1089 -0.3685 -0.3487
  565TMC3    O1 8390   4.008   3.278  10.561  0.2803 -0.0595  0.0944
  565TMC3    O2 8391   4.446   3.269  10.713  0.2045 -0.1188 -0.2406
  566MPD2     C 8392   1.321   0.888  14.376 -0.8050 -0.0310 -0.0041
  566MPD2    C1 8393   1.375   0.960  14.269 -0.0174  0.8154 -0.4962
  566MPD2    C2 8394   1.383   0.892  14.145  0.0317 -0.3898 -0.1991
  566MPD2    C3 8395   1.367   0.758  14.137  0.7555  0.0971 -0.1621
  566MPD2    C4 8396   1.339   0.687  14.253 -0.3012  0.5984  0.3763
  566MPD2    C5 8397   1.322   0.753  14.373 -0.4238 -1.0677 -0.1130
  566MPD2     H 8398   1.417   0.948  14.059 -0.4897  0.9649  0.4683
  566MPD2    H1 8399   1.320   0.581  14.266 -2.0243  0.7486 -0.8742
  566MPD2    H2 8400   1.290   0.935  14.469  1.4810  1.8277 -0.1878
  566MPD2    H3 8401   1.310   0.685  14.456  0.4410  1.4166  2.0331
  566MPD2     N 8402   1.389   0.696  14.010  0.0655 -0.3464 -0.2594
  566MPD2    H5 8403   1.414   0.755  13.932 -0.5369 -0.5830 -0.6309
  566MPD2    N1 8404   1.405   1.098  14.277  0.0342 -0.3075 -0.0058
  566MPD2    H7 8405   1.428   1.137  14.186 -1.3127  1.6717  0.5066
  567TMC3    C1 8406   1.480   1.300  14.377 -0.9354 -0.4197 -0.4477
  567TMC3    C2 8407   1.522   1.324  14.248  0.2196  0.6397  0.1828
  567TMC3    C3 8408   1.651   1.372  14.243  0.4214 -0.2865  0.1831
  567TMC3    C4 8409   1.550   1.345  14.483  0.3697  0.5094  0.3431
  567TMC3    C5 8410   1.679   1.383  14.471 -1.0148 -0.1467  0.0157
  567TMC3    C6 8411   1.728   1.395  14.349  0.4696  0.3140 -0.2766
  567TMC3     C 8412   1.422   1.168  14.395  0.0744 -0.0328  0.1747
  567TMC3     O 8413   1.430   1.132  14.513 -0.8530 -0.0259  0.8206
  567TMC3     H 8414   1.451   1.323  14.166  0.3232 -3.3161  0.1104
  567TMC3    H1 8415   1.515   1.339  14.586  1.2098  0.1950  0.6059
  567TMC3    H2 8416   1.833   1.421  14.350  0.4505  0.2758  1.7463
  567TMC3    C7 8417   1.770   1.321  14.568  0.5590 -0.2498 -0.0856
  567TMC3    C8 8418   1.702   1.383  14.108  0.2322 -0.2104  0.3900
  567TMC3    O1 8419   1.872   1.384  14.595 -0.3769  0.0667  0.2255
  567TMC3    O2 8420   1.618   1.381  14.018  0.1253 -0.2629 -0.2472
  568MPD2     C 8421   3.348   1.312  16.689 -0.5640 -0.2947  0.2486
  568MPD2    C1 8422   3.410   1.421  16.747  0.0086 -0.1135 -0.7820
  568MPD2    C2 8423   3.353   1.552  16.736 -0.1541 -0.5735  0.0316
  568MPD2    C3 8424   3.255   1.571  16.640  0.1473 -0.3382 -0.2514
  568MPD2    C4 8425   3.200   1.460  16.586  0.2170  0.4122 -0.0809
  568MPD2    C5 8426   3.243   1.332  16.615  0.4874 -0.3546  0.2835
  568MPD2     H 8427   3.396   1.637  16.787 -2.3291  0.5515 -0.0066
  568MPD2    H1 8428   3.140   1.466  16.495 -1.1417  1.8218  0.9135
  568MPD2    H2 8429   3.397   1.216  16.701  0.3621  0.3311  1.5491
  568MPD2    H3 8430   3.190   1.249  16.569 -0.0784 -0.8614  1.8405
  568MPD2     N 8431   3.204   1.703  16.607  0.5356  0.6336  0.5702
  568MPD2    H5 8432   3.271   1.777  16.628 -0.0524  0.7205  2.1042
  568MPD2    N1 8433   3.534   1.398  16.808  0.6400  0.4805  0.0364
  568MPD2    H7 8434   3.574   1.306  16.797  1.8870  1.0716 -0.3881
  569TMC3    C1 8435   3.053   1.861  16.521 -0.1471 -0.7142  0.6936
  569TMC3    C2 8436   3.120   1.960  16.587  0.5913  0.8951  0.1633
  569TMC3    C3 8437   3.081   2.083  16.565 -0.2961 -0.4821 -0.3003
  569TMC3    C4 8438   2.953   1.884  16.432 -0.3212  0.1581 -0.1789
  569TMC3    C5 8439   2.911   2.012  16.414  0.2488 -0.1131 -0.0795
  569TMC3    C6 8440   2.971   2.111  16.480  0.3116  0.5438 -0.4096
  569TMC3     C 8441   3.090   1.724  16.544 -0.3277  0.0569  0.0188
  569TMC3     O 8442   3.002   1.641  16.520  0.6186  0.4315 -0.2577
  569TMC3     H 8443   3.201   1.934  16.653  0.5402  1.2526  0.3683
  569TMC3    H1 8444   2.896   1.801  16.391 -0.3501 -0.8083  1.8002
  569TMC3    H2 8445   2.935   2.212  16.468 -1.3492 -0.1705 -1.4433
  569TMC3    C7 8446   2.895   2.048  16.270 -0.3164 -1.1134  0.0828
  569TMC3    C8 8447   3.172   2.192  16.540 -0.7816  0.5645 -0.1686
  569TMC3    O1 8448   2.834   1.970  16.197  0.3689  0.5736 -0.0760
  569TMC3    O2 8449   3.159   2.249  16.434 -0.2403  0.5913 -0.1257
  570TMC3    C1 8450   3.135   0.042  16.616  0.0191  0.1483 -0.6151
  570TMC3    C2 8451   3.209   0.056  16.504 -0.2127 -0.3013 -0.3487
  570TMC3    C3 8452   3.220   0.179  16.447 -0.0437  0.0432  0.6323
  570TMC3    C4 8453   3.074   0.147  16.673  0.6448  0.4495 -0.8620
  570TMC3    C5 8454   3.088   0.269  16.608  0.8229  0.5926  0.1025
  570TMC3    C6 8455   3.158   0.288  16.497 -0.9663 -0.1389 -0.7082
  570TMC3     C 8456   3.119   4.620  16.665 -0.1834 -0.5558 -0.3085
  570TMC3     O 8457   3.157   4.526  16.601  0.0513 -0.1881 -0.0936
  570TMC3     H 8458   3.252   4.682  16.469  1.0742  0.4440 -0.7399
  570TMC3    H1 8459   3.022   0.145  16.768  2.5234 -0.9963  0.1291
  570TMC3    H2 8460   3.155   0.387  16.453 -1.3767  1.1287  2.2321
  570TMC3    C7 8461   2.998   0.376  16.654  0.5233 -0.3346 -0.2254
  570TMC3    C8 8462   3.309   0.197  16.334  0.2123  0.3426 -0.1885
  570TMC3    O1 8463   2.969   0.373  16.774 -0.4443  0.0187  0.3506
  570TMC3    O2 8464   3.330   0.318  16.306 -0.1403  0.1760  0.7519
  571MPD2     C 8465   1.568   1.781  17.387 -0.7414 -0.0415 -0.0197
  571MPD2    C1 8466   1.445   1.743  17.330 -0.5832 -0.1652  0.3956
  571MPD2    C2 8467   1.327   1.805  17.372 -0.6950 -0.3670 -0.4383
  571MPD2    C3 8468   1.334   1.903  17.467 -0.2648  0.4864 -1.0093
  571MPD2    C4 8469   1.460   1.952  17.505  0.1717 -0.6379  0.4450
  571MPD2    C5 8470   1.572   1.887  17.465 -0.1380  0.0541  0.1978
  571MPD2     H 8471   1.235   1.767  17.329  0.4485 -2.3005 -1.1770
  571MPD2    H1 8472   1.476   2.039  17.568  0.6145 -0.9244  0.7244
  571MPD2    H2 8473   1.663   1.752  17.342 -0.3483  1.0724  0.1034
  571MPD2    H3 8474   1.668   1.922  17.503  0.2520  0.3885 -1.0909
  571MPD2     N 8475   1.214   1.962  17.519  0.6823  0.2638 -0.0415
  571MPD2    H5 8476   1.229   2.034  17.589 -1.8583 -0.6845  1.4771
  571MPD2    N1 8477   1.456   1.632  17.246  0.6192 -0.0532  0.3615
  571MPD2    H7 8478   1.547   1.597  17.219 -0.0204  0.6020 -2.6927
  572TMC3    C1 8479   0.995   1.984  17.586 -0.3102  0.3816  0.2734
  572TMC3    C2 8480   0.863   1.960  17.561 -0.4502 -0.3078 -0.5744
  572TMC3    C3 8481   0.770   2.030  17.633  0.1890 -0.0787  0.0819
  572TMC3    C4 8482   1.027   2.082  17.677 -0.8124  0.5538 -0.2976
  572TMC3    C5 8483   0.924   2.155   0.059  0.3874 -0.3001  0.0099
  572TMC3    C6 8484   0.793   2.132   0.036 -0.2810  0.1481 -0.0245
  572TMC3     C 8485   1.086   1.917  17.500  0.2839  0.3396  0.5595
  572TMC3     O 8486   1.027   1.838  17.429 -0.4214  0.5646  0.4964
  572TMC3     H 8487   0.832   1.879  17.495  1.0977 -2.3966  1.2432
  572TMC3    H1 8488   1.128   2.111   0.026 -0.5468 -0.4135 -0.2562
  572TMC3    H2 8489   0.709   2.186   0.078  1.1697 -0.5095  3.7242
  572TMC3    C7 8490   0.945   2.286   0.122 -0.0404 -0.6847 -0.2149
  572TMC3    C8 8491   0.640   1.978  17.633  0.0490  0.0306 -0.3723
  572TMC3    O1 8492   0.861   2.319   0.205 -0.0494 -0.0602 -0.2321
  572TMC3    O2 8493   0.585   1.933  17.532  0.0096  0.0168 -0.2155
  573MPD2     C 8494   1.954   2.401   0.753  0.0557 -0.5069  0.1560
  573MPD2    C1 8495   1.887   2.514   0.710  0.2060  0.3917 -0.1195
  573MPD2    C2 8496   1.885   2.540   0.574 -1.2552  0.3558 -0.7301
  573MPD2    C3 8497   1.952   2.461   0.482  0.0295  0.6625  0.6057
  573MPD2    C4 8498   2.020   2.351   0.529 -0.0090  0.2968  0.3066
  573MPD2    C5 8499   2.018   2.321   0.660  0.4734 -0.1460 -0.0926
  573MPD2     H 8500   1.855   2.640   0.544 -1.1584 -0.1757 -2.6295
  573MPD2    H1 8501   2.069   2.280   0.464 -3.0695  0.1136 -1.8109
  573MPD2    H2 8502   1.948   2.359   0.853 -0.0863 -1.1885 -0.1421
  573MPD2    H3 8503   2.065   2.227   0.686 -0.9108 -1.1692 -1.2551
  573MPD2     N 8504   1.971   2.483   0.342 -0.0790  0.0081  0.0933
  573MPD2    H5 8505   2.039   2.424   0.294  0.1718 -0.1502  0.6422
  573MPD2    N1 8506   1.829   2.599   0.811  0.9540  0.5924 -0.1950
  573MPD2    H7 8507   1.839   2.559   0.904  0.3890 -2.3759 -1.3866
  574TMC3    C1 8508   1.979   2.590   0.141 -0.0349 -0.0100  0.4059
  574TMC3    C2 8509   2.018   2.470   0.083  0.5998 -0.1981 -0.8428
  574TMC3    C3 8510   2.082   2.470  17.645 -0.0705  0.0204  0.0616
  574TMC3    C4 8511   2.009   2.710   0.083 -0.4274 -0.1386 -0.2613
  574TMC3    C5 8512   2.070   2.706  17.644 -0.4979  0.7528  0.3235
  574TMC3    C6 8513   2.117   2.590  17.581  0.9450  0.5986  0.3764
  574TMC3     C 8514   1.926   2.591   0.275 -0.0813  0.2276 -0.5468
  574TMC3     O 8515   1.868   2.691   0.319  0.0840 -0.2642 -0.1757
  574TMC3     H 8516   2.004   2.377   0.137  1.7540 -0.0357 -0.2515
  574TMC3    H1 8517   1.976   2.796   0.140 -2.9531 -0.4991 -1.1593
  574TMC3    H2 8518   2.183   2.588  17.494  1.2384  0.1305  0.6088
  574TMC3    C7 8519   2.084   2.831  17.585  0.3201  0.4240 -0.6444
  574TMC3    C8 8520   2.119   2.339  17.592 -0.8972 -0.7287  0.2769
  574TMC3    O1 8521   2.054   2.927  17.654 -0.0988 -0.0188 -0.1376
  574TMC3    O2 8522   2.119   2.238  17.663  0.1460 -0.2856 -0.4994
  575TMC3    C1 8523   0.228   3.623  11.228 -0.1583 -0.1892  0.5250
  575TMC3    C2 8524   0.349   3.568  11.267 -0.7597  0.0956 -0.3250
  575TMC3    C3 8525   0.369   3.444  11.218  0.0017  0.1894 -0.1967
  575TMC3    C4 8526   0.138   3.557  11.156  0.4734 -0.2952 -0.4468
  575TMC3    C5 8527   0.167   3.428  11.111 -0.1666 -0.2769  0.3190
  575TMC3    C6 8528   0.288   3.368  11.142  0.6491  0.2100 -0.7591
  575TMC3     C 8529   0.182   3.735  11.312  0.3014  0.4481 -0.1737
  575TMC3     O 8530   0.272   3.794  11.372 -0.5975 -0.0737  0.2416
  575TMC3     H 8531   0.416   3.615  11.339 -0.2435  0.8678 -1.3166
  575TMC3    H1 8532   0.050   3.611  11.123  0.5227 -0.5452 -0.9820
  575TMC3    H2 8533   0.323   3.270  11.112 -2.2456 -0.7452 -0.9801
  575TMC3    C7 8534   0.079   3.348  11.029 -0.4376 -0.4529 -0.4969
  575TMC3    C8 8535   0.502   3.384  11.222  0.1272 -0.7211  0.4103
  575TMC3    O1 8536   0.004   3.414  10.955 -0.4682  0.1228  0.2117
  575TMC3    O2 8537   0.517   3.262  11.213 -0.3500 -0.4992 -0.2704
  576MPD2     C 8538   4.251   0.540  12.732  0.3451 -0.7086 -0.4590
  576MPD2    C1 8539   4.286   0.669  12.694  0.1026  0.4441 -0.3559
  576MPD2    C2 8540   4.241   0.776  12.769  0.3700  0.2744  0.5961
  576MPD2    C3 8541   4.154   0.764  12.877  0.1577 -0.1936  0.4857
  576MPD2    C4 8542   4.126   0.640  12.921 -0.4601 -0.6437 -0.5606
  576MPD2    C5 8543   4.169   0.532  12.845  0.1567  0.5280 -0.0828
  576MPD2     H 8544   4.268   0.878  12.746 -1.9438  0.7489  0.0717
  576MPD2    H1 8545   4.069   0.615  13.010  0.0517  1.4012  0.3408
  576MPD2    H2 8546   4.289   0.449  12.687  1.1084  0.9090 -3.0733
  576MPD2    H3 8547   4.134   0.434  12.874 -0.9159  0.9178 -0.0798
  576MPD2     N 8548   4.096   0.878  12.936  0.7198 -0.4268  0.0728
  576MPD2    H5 8549   4.122   0.966  12.892 -0.2062 -0.5971 -0.7990
  576MPD2    N1 8550   4.378   0.691  12.589 -0.1197  0.3091  0.9471
  576MPD2    H7 8551   4.426   0.610  12.551 -2.0662 -0.9239  1.1302
  577TMC3    C1 8552   4.528   0.792  12.454  0.0480  0.0970  0.1693
  577TMC3    C2 8553   4.621   0.694  12.479  0.0797 -0.2337  0.2243
  577TMC3    C3 8554   4.707   0.674  12.377 -0.0425  0.4078  0.0636
  577TMC3    C4 8555   4.524   0.867  12.344 -0.3656 -0.1339 -0.5467
  577TMC3    C5 8556   4.621   0.848  12.255  0.2689  0.6654 -0.7495
  577TMC3    C6 8557   4.716   0.756  12.270  0.6801 -0.3594 -0.1232
  577TMC3     C 8558   4.419   0.817  12.542  0.5592  0.4005 -0.2443
  577TMC3     O 8559   4.377   0.930  12.567  0.6062  0.5507 -0.1981
  577TMC3     H 8560   4.622   0.627  12.565  0.9667  0.4691  0.7664
  577TMC3    H1 8561   4.463   0.956  12.334 -0.9507 -0.1379  2.9903
  577TMC3    H2 8562   0.073   0.757  12.193 -1.2737  0.3314 -2.0604
  577TMC3    C7 8563   4.620   0.902  12.115  0.6453  0.2659  0.0234
  577TMC3    C8 8564   0.067   0.557  12.377  0.1218  0.1673 -0.3898
  577TMC3    O1 8565   4.716   0.881  12.041  0.2280 -0.2181 -0.2952
  577TMC3    O2 8566   0.108   0.511  12.483 -0.6709  0.1228 -0.0381
  578MPD2     C 8567   1.542   0.648   1.319  0.3291  0.4259  0.5466
  578MPD2    C1 8568   1.560   0.559   1.216 -0.4431  0.0552  0.0085
  578MPD2    C2 8569   1.649   0.454   1.227  0.6317  0.1561 -0.8294
  578MPD2    C3 8570   1.723   0.434   1.342  0.3534 -0.0254  1.1488
  578MPD2    C4 8571   1.686   0.511   1.456  0.2433 -0.3528  0.3370
  578MPD2    C5 8572   1.598   0.616   1.441  0.6428  0.2861  0.1759
  578MPD2     H 8573   1.675   0.386   1.146  2.9901  2.6583 -2.1719
  578MPD2    H1 8574   1.738   0.500   1.551  1.8807  1.5616 -0.3319
  578MPD2    H2 8575   1.477   0.734   1.308  0.2076  0.2866  0.1933
  578MPD2    H3 8576   1.571   0.676   1.527 -1.5070 -0.4440  0.0199
  578MPD2     N 8577   1.810   0.327   1.345  0.0936  0.4175 -0.1380
  578MPD2    H5 8578   1.846   0.276   1.265 -0.4060  0.7987 -0.5988
  578MPD2    N1 8579   1.495   0.593   1.093  0.4737 -0.2688  0.3769
  578MPD2    H7 8580   1.445   0.681   1.089 -1.2849 -1.3069 -0.4678
  579TMC3    C1 8581   1.944   0.160   1.472  1.1370  0.4315  0.0991
  579TMC3    C2 8582   2.041   0.159   1.572  0.3080  0.8993 -0.3230
  579TMC3    C3 8583   2.135   0.062   1.561  0.8370  1.1613 -0.1487
  579TMC3    C4 8584   1.928   0.067   1.372 -0.7633 -0.0533  0.4059
  579TMC3    C5 8585   2.030   4.693   1.375  0.3096 -0.0950  0.2241
  579TMC3    C6 8586   2.133   4.687   1.462 -0.8961 -0.5847  0.1848
  579TMC3     C 8587   1.858   0.283   1.469  0.6115  0.0614 -0.3208
  579TMC3     O 8588   1.849   0.328   1.584 -0.1274 -0.1865 -0.1596
  579TMC3     H 8589   2.051   0.229   1.653 -0.2355  1.5547 -0.8208
  579TMC3    H1 8590   1.862   0.077   1.287  0.5656  0.3789 -0.5782
  579TMC3    H2 8591   2.217   4.619   1.446  1.1230  1.8397  0.5433
  579TMC3    C7 8592   2.016   4.574   1.290 -0.0187  0.4730 -0.4632
  579TMC3    C8 8593   2.259   0.093   1.634  0.9096  0.2462  0.2205
  579TMC3    O1 8594   2.113   4.509   1.271 -0.8301  0.2540  0.5040
  579TMC3    O2 8595   2.285   0.209   1.662 -0.4486 -0.1762 -0.4490
  580TMC3    C1 8596   2.060   4.371  11.831 -0.0386  0.3362  0.1112
  580TMC3    C2 8597   2.103   4.382  11.698  0.8058  0.4261  0.5595
  580TMC3    C3 8598   2.173   4.277  11.639  0.3611  0.0877  0.4880
  580TMC3    C4 8599   2.077   4.260  11.900 -0.0855 -0.3364  0.3675
  580TMC3    C5 8600   2.157   4.156  11.849  1.1586 -0.1390  1.0320
  580TMC3    C6 8601   2.207   4.174  11.721 -0.0697  0.0072 -0.1482
  580TMC3     C 8602   2.059   4.493  11.907  0.1523 -0.9844  0.5534
  580TMC3     O 8603   2.020   4.490  12.024  0.5457 -0.9462 -0.3919
  580TMC3     H 8604   2.081   4.467  11.635 -1.9809 -1.4624 -0.9864
  580TMC3    H1 8605   2.050   4.256  12.005 -2.1205 -1.3781 -0.2103
  580TMC3    H2 8606   2.282   4.104  11.686  0.6336  0.3949  0.5816
  580TMC3    C7 8607   2.227   4.073  11.945  0.3744  0.3152 -0.2505
  580TMC3    C8 8608   2.273   4.326  11.549 -0.4947 -0.4275 -0.1191
  580TMC3    O1 8609   2.238   4.125  12.053  0.1753 -0.5527  0.2292
  580TMC3    O2 8610   2.266   4.296  11.430 -0.4778 -0.4515  0.5383
  581MPD2     C 8611   4.520   4.172  14.736  0.5176 -0.8672  0.1102
  581MPD2    C1 8612   4.553   4.165  14.870  0.6199 -0.8045  0.4288
  581MPD2    C2 8613   4.514   4.261  14.966  0.4064 -0.2631  0.0939
  581MPD2    C3 8614   4.448   4.373  14.924  0.1680 -0.0207 -0.2378
  581MPD2    C4 8615   4.431   4.390  14.789 -0.3563 -0.0617 -0.5206
  581MPD2    C5 8616   4.455   4.289  14.699 -0.0383 -0.2367  0.2003
  581MPD2     H 8617   4.533   4.252  15.072 -1.9826 -1.4786  0.4227
  581MPD2    H1 8618   4.395   4.488  14.760 -0.4177 -0.1534 -0.7550
  581MPD2    H2 8619   4.535   4.098  14.658  1.9487 -1.2438  0.7327
  581MPD2    H3 8620   4.432   4.309  14.595 -0.2733  0.7198  0.4325
  581MPD2     N 8621   4.367   4.457  15.006 -0.2886 -0.2597  0.4638
  581MPD2    H5 8622   4.300   4.518  14.960 -0.0047  1.8428  2.8275
  581MPD2    N1 8623   4.629   4.046  14.899 -0.1125 -0.2414  0.4867
  581MPD2    H7 8624   4.657   3.991  14.818  1.2699  0.0993  0.7315
  582TMC3    C1 8625   0.067   3.925  15.019 -0.5612 -0.1375 -0.5082
  582TMC3    C2 8626   0.188   3.945  15.077 -0.6053 -0.4212 -0.6274
  582TMC3    C3 8627   0.276   3.840  15.082 -0.1632 -0.3588  0.4933
  582TMC3    C4 8628   0.024   3.806  14.968  0.3097  0.6403 -0.8532
  582TMC3    C5 8629   0.120   3.705  14.967 -0.0646  0.6236  0.4759
  582TMC3    C6 8630   0.243   3.722  15.021 -0.0654 -0.1129 -0.0966
  582TMC3     C 8631   4.694   4.036  15.029  0.1660 -0.1535  0.3496
  582TMC3     O 8632   4.682   4.093  15.132 -0.7987 -0.1327 -0.6577
  582TMC3     H 8633   0.199   4.030  15.142 -1.7606  0.9203 -2.1689
  582TMC3    H1 8634   4.638   3.795  14.942  0.2468  1.8499 -1.0954
  582TMC3    H2 8635   0.315   3.641  15.017 -0.3166 -0.3730  0.7687
  582TMC3    C7 8636   0.065   3.579  15.006  0.4304  0.1082  0.2018
  582TMC3    C8 8637   0.316   3.808  15.218  0.7032  0.4351  0.2126
  582TMC3    O1 8638   0.131   3.481  14.990 -0.1418 -0.3215 -0.0237
  582TMC3    O2 8639   0.238   3.822  15.310 -0.2059  0.2682  0.0923
  583MPD2     C 8640   4.545   0.977  16.418 -0.2319  0.3776  0.5570
  583MPD2    C1 8641   4.637   0.931  16.508 -0.5319  0.0160  0.2852
  583MPD2    C2 8642   4.633   0.981  16.640  0.0336  0.2246 -0.2450
  583MPD2    C3 8643   4.531   1.064  16.682 -0.4025 -0.8108  0.3248
  583MPD2    C4 8644   4.441   1.107  16.588 -0.0265  0.6875  0.3074
  583MPD2    C5 8645   4.455   1.067  16.457  0.2628  0.1886  0.6532
  583MPD2     H 8646   4.711   0.943  16.704 -1.3723 -1.4192  0.4952
  583MPD2    H1 8647   4.372   1.188  16.609 -0.8604 -0.8370  3.4580
  583MPD2    H2 8648   4.549   0.949  16.313 -0.5330 -1.9453  1.1828
  583MPD2    H3 8649   4.396   1.106  16.374  1.8707  0.5197 -0.3381
  583MPD2     N 8650   4.522   1.120  16.810  0.1095 -0.0776 -0.2724
  583MPD2    H5 8651   4.446   1.182  16.837  0.6718  0.8402 -0.8053
  583MPD2    N1 8652   0.026   0.849  16.468  0.6567  0.1294  0.8985
  583MPD2    H7 8653   0.104   0.854  16.533  0.2993  0.4662  1.2994
  584TMC3    C1 8654   4.586   1.149  17.043 -0.2488  0.0014  0.4172
  584TMC3    C2 8655   4.560   1.276  17.025 -0.3084  0.3672 -0.8187
  584TMC3    C3 8656   4.552   1.362  17.126 -0.5489 -0.8049 -0.1410
  584TMC3    C4 8657   4.629   1.100  17.161  0.0522  0.3593 -0.1225
  584TMC3    C5 8658   4.612   1.187  17.265 -0.0152  0.0479  0.5625
  584TMC3    C6 8659   4.563   1.312  17.250  0.2610 -0.0617  0.2569
  584TMC3     C 8660   4.602   1.078  16.917  0.2491  0.0607 -0.9221
  584TMC3     O 8661   4.669   0.974  16.922  0.3195  0.0904  0.5158
  584TMC3     H 8662   4.544   1.313  16.924 -1.1487 -0.8311 -1.1205
  584TMC3    H1 8663   4.645   0.993  17.162 -1.1198  0.1634 -1.6445
  584TMC3    H2 8664   4.542   1.381  17.332  2.0798  0.6183  0.1411
  584TMC3    C7 8665   4.655   1.137  17.404  0.1128 -0.1105 -0.6236
  584TMC3    C8 8666   4.512   1.503  17.092  0.4634  0.3883  1.3806
  584TMC3    O1 8667   4.651   1.017  17.434  0.9179 -0.1276  0.2464
  584TMC3    O2 8668   4.463   1.516  16.984 -0.5141 -0.1330  0.3504
  585MPD2     C 8669   3.509   0.085   1.137 -0.3871 -0.0821  0.1189
  585MPD2    C1 8670   3.599   0.132   1.045  0.3261  0.4529 -0.3785
  585MPD2    C2 8671   3.702   0.054   1.006  1.4082  0.5054 -0.2465
  585MPD2    C3 8672   3.701   4.636   1.029 -0.1588 -0.0998 -0.4995
  585MPD2    C4 8673   3.601   4.588   1.117  0.0964  0.5607  1.0222
  585MPD2    C5 8674   3.504   4.674   1.161  0.2032 -0.0748  0.0575
  585MPD2     H 8675   3.774   0.084   0.931  0.8436  0.9006 -0.6300
  585MPD2    H1 8676   3.596   4.480   1.130  0.5225  0.1959 -1.6911
  585MPD2    H2 8677   3.423   0.141   1.173 -1.5897 -1.0396 -1.2472
  585MPD2    H3 8678   3.421   4.639   1.221 -0.4001  1.0904 -0.1146
  585MPD2     N 8679   3.794   4.531   0.987  1.3120 -0.4343 -0.4976
  585MPD2    H5 8680   3.782   4.434   1.013 -0.5891 -0.1097 -0.1797
  585MPD2    N1 8681   3.586   0.267   1.001  0.3612  0.1861 -0.2826
  585MPD2    H7 8682   3.489   0.298   1.002  0.2526 -0.1078 -1.1545
  586TMC3    C1 8683   3.987   4.442   0.881  0.2014 -0.2344  0.0214
  586TMC3    C2 8684   4.120   4.468   0.847 -0.2754 -0.2989  0.8470
  586TMC3    C3 8685   4.200   4.362   0.793  0.2963  0.0887  0.9150
  586TMC3    C4 8686   3.930   4.329   0.851 -0.2463  0.2488  0.4808
  586TMC3    C5 8687   4.005   4.224   0.796  0.3069  0.2646 -0.2878
  586TMC3    C6 8688   4.137   4.246   0.766  1.1107 -0.1100  1.3566
  586TMC3     C 8689   3.911   4.559   0.916  0.1539 -0.5563 -0.3879
  586TMC3     O 8690   3.965   4.666   0.883 -0.4412 -0.6903 -0.2306
  586TMC3     H 8691   4.165   4.563   0.873  0.9442 -0.0427 -2.2321
  586TMC3    H1 8692   3.822   4.319   0.856 -0.1696 -0.8253 -0.0216
  586TMC3    H2 8693   4.184   4.166   0.709  0.8695 -1.4394  3.0007
  586TMC3    C7 8694   3.934   4.128   0.718  0.6844  0.2957 -0.4027
  586TMC3    C8 8695   4.294   4.394   0.690 -0.1968  0.2355  0.1197
  586TMC3    O1 8696   3.828   4.160   0.683  0.4325  0.0644 -0.0385
  586TMC3    O2 8697   4.356   4.295   0.657 -0.1946 -0.0961 -0.0871
  587TMC3    C1 8698   0.970   2.635  16.387  0.6986  1.0421 -0.0839
  587TMC3    C2 8699   0.946   2.744  16.311  0.2570  0.0494  0.3172
  587TMC3    C3 8700   1.042   2.778  16.218 -0.0371 -0.1196  0.3410
  587TMC3    C4 8701   1.082   2.561  16.374  0.9566  0.2011 -0.0310
  587TMC3    C5 8702   1.180   2.598  16.289 -0.4218  0.3427  0.6651
  587TMC3    C6 8703   1.159   2.706  16.204  0.4944  0.3530 -0.0675
  587TMC3     C 8704   0.871   2.574  16.481 -0.3007 -0.1097 -0.2966
  587TMC3     O 8705   0.890   2.453  16.505 -0.3876 -0.5581  0.1511
  587TMC3     H 8706   0.856   2.802  16.327  0.5530  0.5362  0.2126
  587TMC3    H1 8707   1.100   2.471  16.431  0.9593  1.0951  1.3820
  587TMC3    H2 8708   1.225   2.741  16.126 -1.4138 -0.0020 -1.8518
  587TMC3    C7 8709   1.300   2.514  16.279 -0.5248  0.7415  0.7036
  587TMC3    C8 8710   1.028   2.898  16.141  0.4523  0.4042 -0.2398
  587TMC3    O1 8711   1.327   2.439  16.371 -0.0502 -0.0963  0.1028
  587TMC3    O2 8712   1.078   2.900  16.031 -0.0859  0.0372  0.1521
  588TMC3    C1 8713   3.980   1.486   9.777  0.8857 -0.8199 -0.5235
  588TMC3    C2 8714   3.920   1.377   9.725  0.8631 -0.4481  0.3575
  588TMC3    C3 8715   4.003   1.264   9.705  0.0777 -1.0180  0.2026
  588TMC3    C4 8716   4.110   1.490   9.797  0.2441 -0.1267 -0.4184
  588TMC3    C5 8717   4.192   1.381   9.777 -0.5108  0.3791  0.0053
  588TMC3    C6 8718   4.138   1.266   9.726  0.4090 -0.3263  0.7102
  588TMC3     C 8719   3.912   1.603   9.808 -0.9247  0.0889  0.0481
  588TMC3     O 8720   3.807   1.621   9.755  0.1033  0.3045  0.4167
  588TMC3     H 8721   3.812   1.367   9.722  0.6296  2.1035 -0.2655
  588TMC3    H1 8722   4.163   1.585   9.795  1.0980 -0.6402 -2.0078
  588TMC3    H2 8723   4.201   1.178   9.719  2.7892  1.3544  0.7503
  588TMC3    C7 8724   4.333   1.391   9.812  0.0248 -0.7187 -0.1360
  588TMC3    C8 8725   3.932   1.145   9.659 -0.4662 -0.2148  0.0440
  588TMC3    O1 8726   4.400   1.298   9.773  0.1427 -0.1939  0.3729
  588TMC3    O2 8727   3.822   1.140   9.610  0.0179  0.0576  0.3397
  589TMC3    C1 8728   2.623   3.017   1.199  0.9294 -0.8198  0.1591
  589TMC3    C2 8729   2.693   3.080   1.295 -0.0127  0.1965  0.2328
  589TMC3    C3 8730   2.813   3.033   1.331  0.3222 -0.5064  0.1602
  589TMC3    C4 8731   2.668   2.908   1.126  0.7923  0.2013 -0.5931
  589TMC3    C5 8732   2.794   2.866   1.165  0.4661 -0.6313  0.4540
  589TMC3    C6 8733   2.868   2.924   1.269  0.1162 -0.1443  1.1753
  589TMC3     C 8734   2.492   3.062   1.156  0.0777 -0.5271 -0.6624
  589TMC3     O 8735   2.437   3.002   1.066  0.1375 -0.3740 -0.2870
  589TMC3     H 8736   2.664   3.178   1.332  0.8670  0.1921  0.9157
  589TMC3    H1 8737   2.609   2.865   1.046  1.4259  0.6114 -1.2834
  589TMC3    H2 8738   2.963   2.885   1.304 -0.5915 -1.8682  1.2252
  589TMC3    C7 8739   2.851   2.742   1.102 -0.5463 -0.2405  0.0089
  589TMC3    C8 8740   2.885   3.112   1.433  0.0750 -0.2560 -1.0872
  589TMC3    O1 8741   2.936   2.687   1.164 -0.0550  0.1963 -0.0245
  589TMC3    O2 8742   2.811   3.198   1.485 -0.7594 -0.4945  0.1356
  590MPD2     C 8743   2.342   1.540  16.468  0.9570 -0.1755  0.2842
  590MPD2    C1 8744   2.271   1.612  16.370  0.1881 -0.0867 -0.3670
  590MPD2    C2 8745   2.338   1.678  16.267 -0.2999  0.2827  0.7026
  590MPD2    C3 8746   2.469   1.671  16.257  0.4920  0.3776  0.1530
  590MPD2    C4 8747   2.536   1.616  16.370 -0.4666 -0.2058 -0.1072
  590MPD2    C5 8748   2.479   1.549  16.473  0.3196  0.8465 -0.5602
  590MPD2     H 8749   2.287   1.718  16.180  0.5249 -0.4201 -0.0949
  590MPD2    H1 8750   2.642   1.635  16.368 -0.3996 -0.7629 -1.8620
  590MPD2    H2 8751   2.282   1.473  16.529 -1.8345  0.2358 -2.0061
  590MPD2    H3 8752   2.534   1.499  16.552 -2.1968 -0.5471  0.3328
  590MPD2     N 8753   2.533   1.717  16.140 -0.1427 -0.1639  0.0065
  590MPD2    H5 8754   2.463   1.741  16.070  0.5652  1.6038 -0.0827
  590MPD2    N1 8755   2.136   1.604  16.379  0.2909 -0.6735 -0.4973
  590MPD2    H7 8756   2.092   1.531  16.436 -0.2151 -0.0373 -0.0769
  591TMC3    C1 8757   2.707   1.767  15.995  0.5287 -0.1738 -0.3945
  591TMC3    C2 8758   2.803   1.704  15.923  0.4542  0.2129  0.0436
  591TMC3    C3 8759   2.808   1.730  15.785 -0.5348  0.1998 -0.8995
  591TMC3    C4 8760   2.618   1.855  15.930 -0.8308 -0.6889  0.1811
  591TMC3    C5 8761   2.629   1.877  15.795 -0.2402 -0.7466  0.2024
  591TMC3    C6 8762   2.728   1.817  15.718  0.1836 -0.2080 -0.0370
  591TMC3     C 8763   2.664   1.698  16.114  0.6603  0.2634  0.6379
  591TMC3     O 8764   2.746   1.637  16.177  0.4914 -0.0698  0.0329
  591TMC3     H 8765   2.869   1.629  15.967  1.3793 -0.8036 -3.0657
  591TMC3    H1 8766   2.565   1.923  15.995  0.8100 -0.7031  1.5195
  591TMC3    H2 8767   2.728   1.833  15.611 -2.7960  1.3411  0.1929
  591TMC3    C7 8768   2.568   1.998  15.760  0.0905  0.3801 -0.4297
  591TMC3    C8 8769   2.912   1.662  15.714 -0.4060 -0.7903 -0.4915
  591TMC3    O1 8770   2.470   2.030  15.822  0.7741  0.6374 -0.0017
  591TMC3    O2 8771   2.960   1.563  15.767 -0.2274  0.3842 -0.1436
  592MPD2     C 8772   3.184   4.240  11.193  0.5541  0.3011 -0.0662
  592MPD2    C1 8773   3.211   4.246  11.329  0.4696 -0.6358 -0.0770
  592MPD2    C2 8774   3.136   4.164  11.411 -0.8733 -0.7061  0.1371
  592MPD2    C3 8775   3.048   4.075  11.368 -0.8196  0.2141 -0.1833
  592MPD2    C4 8776   3.032   4.061  11.231  0.1355 -0.8553  0.9008
  592MPD2    C5 8777   3.100   4.141  11.143 -0.2160  0.1781 -0.3275
  592MPD2     H 8778   3.146   4.179  11.518 -0.0565  2.6422 -0.4285
  592MPD2    H1 8779   2.966   3.981  11.200 -0.4730 -0.1270  0.3161
  592MPD2    H2 8780   3.231   4.312  11.127  0.9774  0.3545  0.2934
  592MPD2    H3 8781   3.092   4.148  11.035 -1.5891  1.6912 -0.1298
  592MPD2     N 8782   2.982   4.007  11.476 -0.1680  0.1880 -0.1070
  592MPD2    H5 8783   3.013   4.022  11.571 -0.8769  0.3352  0.1025
  592MPD2    N1 8784   3.309   4.336  11.368 -0.3125  0.7183  0.9720
  592MPD2    H7 8785   3.361   4.388  11.298  2.2103 -1.9568  0.8682
  593TMC3    C1 8786   3.450   4.455  11.519  0.2060  0.6856  0.7704
  593TMC3    C2 8787   3.452   4.504  11.651 -0.0082  0.0170 -0.5576
  593TMC3    C3 8788   3.526   4.621  11.668  0.4658  0.1619 -0.1486
  593TMC3    C4 8789   3.494   4.527  11.414  0.4009  0.5313 -0.8914
  593TMC3    C5 8790   3.550   4.648  11.431  0.0712 -0.2171  0.2736
  593TMC3    C6 8791   3.582   4.688  11.560 -0.3236 -0.9345  0.0413
  593TMC3     C 8792   3.337   4.363  11.498  0.9960 -0.2411 -0.5002
  593TMC3     O 8793   3.288   4.320  11.600  0.6566  0.2021 -0.2526
  593TMC3     H 8794   3.410   4.438  11.726 -1.6287  2.1989  0.4660
  593TMC3    H1 8795   3.488   4.483  11.315  0.2272 -0.9534 -0.2220
  593TMC3    H2 8796   3.641   0.058  11.574 -2.4997  0.7554 -1.6131
  593TMC3    C7 8797   3.645   4.699  11.334 -0.1994 -0.1725 -0.0324
  593TMC3    C8 8798   3.574   4.649  11.810  0.4106  0.2669 -0.4757
  593TMC3    O1 8799   3.750   0.017  11.392 -0.4086  0.6662 -0.0810
  593TMC3    O2 8800   3.545   4.569  11.895  0.4036  0.2481 -0.0805
  594MPD2     C 8801   2.045   2.247  14.711 -0.1701 -0.3978  0.0495
  594MPD2    C1 8802   1.944   2.342  14.680 -0.0816  0.6191 -0.7112
  594MPD2    C2 8803   1.976   2.472  14.640  0.0451 -0.4262  0.5005
  594MPD2    C3 8804   2.111   2.500  14.615  0.6365 -0.1140  0.1338
  594MPD2    C4 8805   2.211   2.405  14.639  0.2356  0.1057  0.8228
  594MPD2    C5 8806   2.177   2.286  14.693  0.3243  0.4300  0.1350
  594MPD2     H 8807   1.901   2.550  14.633  1.2805  0.4736 -2.9824
  594MPD2    H1 8808   2.314   2.418  14.607 -0.4308 -0.9217 -1.7388
  594MPD2    H2 8809   2.015   2.145  14.735  0.2261 -0.7542 -1.0038
  594MPD2    H3 8810   2.263   2.226  14.721 -0.0194 -0.4563 -0.7032
  594MPD2     N 8811   2.146   2.630  14.577  0.2731  0.4298 -0.4078
  594MPD2    H5 8812   2.066   2.691  14.569  1.1008  0.8151 -5.6092
  594MPD2    N1 8813   1.807   2.300  14.698 -0.1955 -0.0291 -0.2299
  594MPD2    H7 8814   1.801   2.210  14.745 -2.1334 -0.1814 -0.7660
  595TMC3    C1 8815   2.383   2.960  14.331 -0.0760  0.5612  0.5256
  595TMC3    C2 8816   2.385   2.855  14.416  0.4770 -0.4133  0.4693
  595TMC3    C3 8817   2.274   2.815  14.485  0.3047 -0.1942 -0.6544
  595TMC3    C4 8818   2.274   3.036  14.332 -0.8269  0.5089  1.1931
  595TMC3    C5 8819   2.174   3.008  14.424 -0.1414  0.0071 -0.4497
  595TMC3    C6 8820   2.166   2.897  14.496  0.9640 -0.0954  0.1824
  595TMC3     C 8821   2.505   3.046  14.356 -0.8641 -0.0986 -0.0665
  595TMC3     O 8822   2.482   3.153  14.418 -0.8815 -0.0438 -1.0294
  595TMC3     H 8823   2.476   2.800  14.437  1.6191  1.7028  1.1416
  595TMC3    H1 8824   2.281   3.126  14.273 -6.0874  1.7940  2.4997
  595TMC3    H2 8825   2.081   2.880  14.562  0.4426 -0.1876 -0.5061
  595TMC3    C7 8826   2.126   3.120  14.495 -0.6398 -0.5862 -0.6745
  595TMC3    C8 8827   2.269   2.679  14.530  0.9527  0.2509  0.4670
  595TMC3    O1 8828   2.021   3.104  14.553 -0.2233 -0.1349  0.4244
  595TMC3    O2 8829   2.366   2.612  14.498 -0.5358  0.2551  0.0984
  596MPD2     C 8830   0.593   0.579  16.804  0.1827  0.0383  0.2241
  596MPD2    C1 8831   0.661   0.668  16.726 -0.4713 -0.8401  0.1221
  596MPD2    C2 8832   0.705   0.622  16.599  0.4787  0.1359 -0.5678
  596MPD2    C3 8833   0.684   0.494  16.553 -0.2078  0.2957 -0.6332
  596MPD2    C4 8834   0.613   0.406  16.636  0.2213 -0.2705  0.1456
  596MPD2    C5 8835   0.570   0.449  16.759 -0.0820 -0.1863 -0.4458
  596MPD2     H 8836   0.745   0.699  16.534  2.3539  0.5075  1.0125
  596MPD2    H1 8837   0.598   0.301  16.616  0.5808 -0.4601  0.8685
  596MPD2    H2 8838   0.552   0.602  16.902 -1.5547  0.5483 -0.6093
  596MPD2    H3 8839   0.517   0.380  16.823 -0.0756 -0.6478 -0.9358
  596MPD2     N 8840   0.727   0.447  16.432 -0.5693 -0.2471 -0.0663
  596MPD2    H5 8841   0.669   0.370  16.403  1.3713 -1.6369 -0.2526
  596MPD2    N1 8842   0.680   0.807  16.755 -0.7201  0.5857  0.3739
  596MPD2    H7 8843   0.736   0.861  16.690  0.5446 -0.1198  0.8751
  597TMC3    C1 8844   0.663   1.005  16.876 -0.1220  0.7142 -0.2176
  597TMC3    C2 8845   0.762   1.067  16.805 -0.5095 -0.0800  0.1712
  597TMC3    C3 8846   0.798   1.196  16.837  0.0670  0.4366  0.1912
  597TMC3    C4 8847   0.588   1.076  16.970  0.2599  0.2225 -0.6904
  597TMC3    C5 8848   0.631   1.203  16.998 -0.4381  0.4016  0.0536
  597TMC3    C6 8849   0.741   1.262  16.938  0.3440  1.1243  0.2634
  597TMC3     C 8850   0.620   0.870  16.859  0.1953 -0.4921  0.5252
  597TMC3     O 8851   0.540   0.823  16.941  0.1580  0.0089 -0.1752
  597TMC3     H 8852   0.824   1.010  16.737  0.3890 -2.0209  2.6160
  597TMC3    H1 8853   0.518   1.025  17.035  1.0899  0.5273  0.4406
  597TMC3    H2 8854   0.765   1.368  16.947 -0.9856  1.4959 -0.4520
  597TMC3    C7 8855   0.596   1.252  17.133 -0.3264  0.0421 -0.2538
  597TMC3    C8 8856   0.895   1.276  16.761 -0.6221 -0.0524  0.4242
  597TMC3    O1 8857   0.481   1.233  17.170 -0.3566 -0.0231  0.0013
  597TMC3    O2 8858   0.898   1.397  16.783  0.0709 -0.6107  0.5737
  598TMC3    C1 8859   3.928   2.112  14.839 -0.6878 -0.1440  1.1293
  598TMC3    C2 8860   3.863   2.010  14.778  1.3122 -0.2497 -0.3027
  598TMC3    C3 8861   3.796   2.041  14.669  0.3657 -0.4592 -0.2470
  598TMC3    C4 8862   3.923   2.242  14.802  0.0286  0.4246  0.2202
  598TMC3    C5 8863   3.867   2.265  14.682  0.0748 -0.6730  0.3176
  598TMC3    C6 8864   3.798   2.166  14.624 -0.9054  0.3830 -0.5039
  598TMC3     C 8865   4.027   2.082  14.942 -0.0171  0.3782  0.5548
  598TMC3     O 8866   4.033   2.151  15.042  0.6806 -0.1400  0.2057
  598TMC3     H 8867   3.852   1.909  14.816 -0.7416  0.5173  1.1693
  598TMC3    H1 8868   3.986   2.309  14.859  0.4463 -0.8570  1.2557
  598TMC3    H2 8869   3.742   2.194  14.536 -1.3024  1.0636 -0.0385
  598TMC3    C7 8870   3.854   2.400  14.629  0.0409  0.4032  0.2030
  598TMC3    C8 8871   3.709   1.936  14.614  0.0146  0.0192 -0.3083
  598TMC3    O1 8872   3.791   2.420  14.529 -0.0135 -0.4615 -0.4663
  598TMC3    O2 8873   3.715   1.827  14.654  0.0203  0.1956 -0.2170
  599MPD2     C 8874   4.242   4.452  16.311  0.7377 -0.0275  0.2948
  599MPD2    C1 8875   4.128   4.366  16.315  0.2349 -0.5015  0.0684
  599MPD2    C2 8876   4.005   4.419  16.319 -0.1718 -0.4026  0.1889
  599MPD2    C3 8877   3.977   4.557  16.324 -0.0298  0.4459 -0.6222
  599MPD2    C4 8878   4.087   4.642  16.327  0.1681  0.2470 -0.6780
  599MPD2    C5 8879   4.213   4.591  16.317 -0.0798  0.0411  0.2415
  599MPD2     H 8880   3.923   4.349  16.329  0.1715 -1.0588 -1.3881
  599MPD2    H1 8881   4.076   0.030  16.329  0.8191  0.3449 -2.1955
  599MPD2    H2 8882   4.344   4.419  16.325  0.3486 -1.8321 -1.0283
  599MPD2    H3 8883   4.294   4.664  16.315  0.1621 -0.2403 -0.4439
  599MPD2     N 8884   3.853   4.608  16.333 -0.3163  0.0408 -0.8096
  599MPD2    H5 8885   3.841   4.703  16.366 -0.3714  0.8110 -2.9976
  599MPD2    N1 8886   4.155   4.228  16.342 -0.1770 -0.5270  0.2767
  599MPD2    H7 8887   4.245   4.189  16.369 -0.1292 -2.1337 -2.2510
  600TMC3    C1 8888   3.621   4.558  16.381 -1.0317  0.6004 -0.8173
  600TMC3    C2 8889   3.541   4.449  16.410  0.6480 -0.2536  0.0907
  600TMC3    C3 8890   3.470   4.452  16.527  0.3765 -0.1136  0.8245
  600TMC3    C4 8891   3.627   4.667  16.463 -0.0647  0.1252 -0.5287
  600TMC3    C5 8892   3.554   4.671  16.578 -0.1783  0.1627 -0.2763
  600TMC3    C6 8893   3.479   4.563  16.609 -0.2458 -0.8764 -0.3679
  600TMC3     C 8894   3.739   4.529  16.307  0.0678  0.0632  0.6841
  600TMC3     O 8895   3.732   4.428  16.240 -0.5534 -0.1206  0.2905
  600TMC3     H 8896   3.539   4.363  16.343 -2.0460 -0.5645  0.5758
  600TMC3    H1 8897   3.676   0.037  16.425  0.5171  0.4628  1.0341
  600TMC3    H2 8898   3.409   4.570  16.692 -1.3154  3.7108 -1.6522
  600TMC3    C7 8899   3.531   0.079  16.650  0.5003 -0.4762 -0.0099
  600TMC3    C8 8900   3.392   4.330  16.554  0.0875 -0.0278 -0.0433
  600TMC3    O1 8901   3.448   0.078  16.736  0.3491 -0.4224  0.4715
  600TMC3    O2 8902   3.373   4.256  16.457  0.5783  0.3369  0.4309
  601MPD2     C 8903   1.119   2.761   0.127  0.3173  0.0299  0.7508
  601MPD2    C1 8904   0.999   2.707   0.165  0.2114 -0.0862  1.0691
  601MPD2    C2 8905   0.979   2.570   0.157  0.8094 -0.3605  0.1650
  601MPD2    C3 8906   1.084   2.486   0.114  0.7872 -0.0315 -0.0696
  601MPD2    C4 8907   1.205   2.537   0.078  0.1429  0.4564  0.0481
  601MPD2    C5 8908   1.217   2.671   0.079 -0.0236 -0.4101  0.2621
  601MPD2     H 8909   0.877   2.535   0.173  0.1519  0.6165 -1.9037
  601MPD2    H1 8910   1.282   2.467   0.046 -0.1811  0.2541 -0.2778
  601MPD2    H2 8911   1.137   2.867   0.140  2.2499 -0.2693  0.5499
  601MPD2    H3 8912   1.317   2.700   0.049 -0.2479 -1.8972 -1.9572
  601MPD2     N 8913   1.064   2.348   0.086 -0.1416  0.2585 -0.2143
  601MPD2    H5 8914   1.131   2.289   0.038  0.7693 -0.4045  1.9089
  601MPD2    N1 8915   0.890   2.783   0.215  0.5043  0.0074 -0.4119
  601MPD2    H7 8916   0.806   2.731   0.240  1.0062 -0.8606 -0.5450
  602TMC3    C1 8917   0.738   2.955   0.233 -0.0029  0.3758  0.0957
  602TMC3    C2 8918   0.702   3.068   0.153  0.7792  0.2453 -0.8848
  602TMC3    C3 8919   0.571   3.083   0.118 -0.3571 -0.2019 -0.4095
  602TMC3    C4 8920   0.653   2.846   0.256  0.0958 -0.0192 -0.4322
  602TMC3    C5 8921   0.523   2.867   0.209  0.4131  0.2423  0.1034
  602TMC3    C6 8922   0.487   2.979   0.138  0.4117 -0.0352  0.0516
  602TMC3     C 8923   0.876   2.918   0.218 -0.4466  0.4657  0.4692
  602TMC3     O 8924   0.960   3.001   0.184  0.7063  0.4551 -0.1448
  602TMC3     H 8925   0.773   3.148   0.143 -1.1556  1.9052 -1.3693
  602TMC3    H1 8926   0.668   2.767   0.328  1.1532  0.5272 -0.0526
  602TMC3    H2 8927   0.388   2.975   0.093  0.6912 -1.0903 -0.4622
  602TMC3    C7 8928   0.424   2.772   0.254  0.1327  0.1461 -0.3890
  602TMC3    C8 8929   0.543   3.196   0.037  0.9514 -0.1177 -0.2859
  602TMC3    O1 8930   0.461   2.659   0.275 -0.4521 -0.4775  0.1916
  602TMC3    O2 8931   0.620   3.264  17.656  0.1040  0.1332  0.4646
  603TMC3    C1 8932   4.466   3.176  11.148  0.0234  0.1160 -0.0630
  603TMC3    C2 8933   4.504   3.155  11.276  0.5211 -0.0788  0.5108
  603TMC3    C3 8934   4.533   3.263  11.352 -0.1037  0.4724  0.4803
  603TMC3    C4 8935   4.455   3.301  11.095  1.2971  0.1948  0.0329
  603TMC3    C5 8936   4.485   3.411  11.177  0.0302  0.2001 -0.0716
  603TMC3    C6 8937   4.536   3.388  11.298  0.1801 -0.5985 -0.5858
  603TMC3     C 8938   4.406   3.066  11.088 -0.2848  0.4606  0.0836
  603TMC3     O 8939   4.429   2.958  11.144 -0.4187  0.2198 -0.1688
  603TMC3     H 8940   4.503   3.055  11.318 -0.1186  0.3530  1.5191
  603TMC3    H1 8941   4.434   3.325  10.991 -0.1837  1.2440  0.5808
  603TMC3    H2 8942   4.550   3.474  11.362  0.0562 -0.8631 -0.2002
  603TMC3    C7 8943   4.466   3.551  11.137  0.0468  0.1927  0.3098
  603TMC3    C8 8944   4.540   3.252  11.497 -0.1755 -0.7162  1.6631
  603TMC3    O1 8945   4.539   3.637  11.183 -0.0785  0.5369  0.3385
  603TMC3    O2 8946   4.461   3.181  11.557  0.3003  0.0320 -0.1348
  604MPD2     C 8947   4.536   1.723  16.366  0.0294  0.8575 -0.0090
  604MPD2    C1 8948   4.427   1.714  16.287  0.3884  0.3347 -0.0798
  604MPD2    C2 8949   4.442   1.698  16.148 -0.0411 -0.7055  0.7740
  604MPD2    C3 8950   4.567   1.661  16.104 -0.1246 -0.2155  0.6933
  604MPD2    C4 8951   4.678   1.687  16.188 -0.4679 -0.2564  0.7693
  604MPD2    C5 8952   4.658   1.705  16.321  0.1375  0.3680 -0.1972
  604MPD2     H 8953   4.363   1.693  16.074 -1.7672  1.5545  2.4554
  604MPD2    H1 8954   0.063   1.683  16.157 -0.9545 -0.8279 -0.8276
  604MPD2    H2 8955   4.541   1.745  16.472 -0.0271 -0.8789  0.3548
  604MPD2    H3 8956   0.021   1.712  16.391  1.2489 -1.3970 -1.3311
  604MPD2     N 8957   4.577   1.624  15.971 -0.4999  0.1044 -0.6293
  604MPD2    H5 8958   4.490   1.616  15.919 -1.7273 -0.6988  1.5232
  604MPD2    N1 8959   4.315   1.748  16.363  0.1975  0.0413 -0.4056
  604MPD2    H7 8960   4.326   1.765  16.462  2.0670 -2.2048 -0.2381
  605TMC3    C1 8961   4.097   1.810  16.397  0.3912  0.2080  0.7885
  605TMC3    C2 8962   4.138   1.808  16.527  0.3555 -0.3066 -0.1745
  605TMC3    C3 8963   4.126   1.914  16.611  0.6081  0.0514 -0.7151
  605TMC3    C4 8964   4.039   1.923  16.350  0.5677 -0.3274  0.7691
  605TMC3    C5 8965   4.020   2.031  16.432 -0.1111  0.1903 -0.1096
  605TMC3    C6 8966   4.059   2.022  16.568 -0.0685  0.3787  0.1627
  605TMC3     C 8967   4.191   1.749  16.307 -0.6401 -0.0085  0.1625
  605TMC3     O 8968   4.151   1.763  16.191 -0.9812 -0.2235  0.2836
  605TMC3     H 8969   4.190   1.723  16.571  1.1463 -0.8003 -2.0569
  605TMC3    H1 8970   3.998   1.942  16.252  0.0406 -2.4297  0.5725
  605TMC3    H2 8971   4.064   2.117  16.620 -0.1948  0.1477  0.5930
  605TMC3    C7 8972   3.955   2.150  16.389 -0.3267  0.5899 -0.2395
  605TMC3    C8 8973   4.263   1.942  16.676  0.1922 -0.1938 -0.0867
  605TMC3    O1 8974   3.885   2.128  16.289 -0.0827  0.1671 -0.2716
  605TMC3    O2 8975   4.353   1.871  16.637  0.0804  0.9061 -0.6636
  606TMC3    C1 8976   1.166   0.665  17.403  0.1453  0.4566  0.2530
  606TMC3    C2 8977   1.148   0.612  17.522 -0.3571 -0.0389 -0.4449
  606TMC3    C3 8978   1.162   0.474  17.526  0.2647  0.0915  0.4360
  606TMC3    C4 8979   1.212   0.600  17.292 -0.0424 -0.2848  0.0657
  606TMC3    C5 8980   1.232   0.462  17.298 -0.3253 -0.4251 -0.2138
  606TMC3    C6 8981   1.196   0.403  17.413 -0.5784 -0.0356 -0.4185
  606TMC3     C 8982   1.175   0.813  17.400 -0.0938 -0.2856  0.2228
  606TMC3     O 8983   1.266   0.862  17.332 -0.1547  0.2683  0.2689
  606TMC3     H 8984   1.123   0.672  17.610 -3.2575  1.5303 -2.3468
  606TMC3    H1 8985   1.253   0.664  17.215  2.1275 -1.3067  0.3902
  606TMC3    H2 8986   1.204   0.297  17.433 -3.2059 -0.4479 -1.4616
  606TMC3    C7 8987   1.204   0.392  17.182 -0.0504  0.7123 -0.4367
  606TMC3    C8 8988   1.127   0.400  17.648 -0.1526  0.0123 -0.2400
  606TMC3    O1 8989   1.229   0.451  17.079  0.1457  0.5182  0.0097
  606TMC3    O2 8990   1.159   0.281  17.651 -0.4051 -0.2893 -0.7676
  607MPD2     C 8991   3.120   3.580  11.479 -0.0354  0.1409  0.5713
  607MPD2    C1 8992   3.213   3.678  11.496  0.0158 -0.0610 -0.3851
  607MPD2    C2 8993   3.228   3.737  11.620 -0.3581 -0.3947  0.2202
  607MPD2    C3 8994   3.189   3.683  11.741 -0.2121 -0.4746 -0.0762
  607MPD2    C4 8995   3.090   3.584  11.728  0.2373 -0.1076 -0.7855
  607MPD2    C5 8996   3.060   3.533  11.601 -0.0448 -0.5030  0.6397
  607MPD2     H 8997   3.283   3.831  11.624  0.8233 -1.2144  3.5977
  607MPD2    H1 8998   3.054   3.524  11.811 -1.0009  2.7776  0.7425
  607MPD2    H2 8999   3.089   3.537  11.384 -0.2088 -0.8130  1.0643
  607MPD2    H3 9000   2.988   3.452  11.607 -1.0355  0.4309  1.2966
  607MPD2     N 9001   3.223   3.751  11.853 -0.4805 -0.0202 -0.2540
  607MPD2    H5 9002   3.287   3.829  11.839 -1.5323  0.8908  0.1087
  607MPD2    N1 9003   3.288   3.742  11.391 -0.1697 -0.2784 -0.7120
  607MPD2    H7 9004   3.370   3.797  11.412 -0.3801 -0.4173  0.4623
  608TMC3    C1 9005   3.341   3.844  11.191 -0.2720  0.0093  0.2842
  608TMC3    C2 9006   3.396   3.946  11.270 -0.0670 -0.2585  0.5517
  608TMC3    C3 9007   3.480   4.040  11.212 -0.6745  0.6302  0.7545
  608TMC3    C4 9008   3.370   3.845  11.054 -0.1258 -0.0453  0.0827
  608TMC3    C5 9009   3.452   3.943  10.995 -0.1562 -0.4864  0.0038
  608TMC3    C6 9010   3.520   4.027  11.078 -0.1962 -0.5670  0.4757
  608TMC3     C 9011   3.257   3.741  11.258  0.1569 -0.4838 -0.0068
  608TMC3     O 9012   3.187   3.662  11.199  0.2323  0.0248  0.1290
  608TMC3     H 9013   3.346   3.976  11.361 -0.2973  0.1816  0.2833
  608TMC3    H1 9014   3.323   3.765  10.997 -0.7898  1.8171 -1.9511
  608TMC3    H2 9015   3.583   4.103  11.034  0.5424 -1.0240  0.7579
  608TMC3    C7 9016   3.501   3.932  10.862 -0.2916 -0.3938 -0.0818
  608TMC3    C8 9017   3.553   4.141  11.287 -0.0915 -0.2178  0.7838
  608TMC3    O1 9018   3.604   3.993  10.836  0.0935 -0.2665 -0.6400
  608TMC3    O2 9019   3.611   4.236  11.235 -0.3258  0.4020  0.4657
  609TMC3    C1 9020   2.288   2.066   9.487 -0.4014 -0.1721  0.2665
  609TMC3    C2 9021   2.219   2.001   9.387 -0.6365 -0.3753  0.1933
  609TMC3    C3 9022   2.269   1.884   9.345 -0.3393  0.1603  0.6580
  609TMC3    C4 9023   2.406   2.021   9.534 -0.2684 -0.6306 -0.1964
  609TMC3    C5 9024   2.460   1.910   9.478 -0.3502  0.5041  0.0149
  609TMC3    C6 9025   2.395   1.837   9.388 -0.3264 -0.3300  0.5255
  609TMC3     C 9026   2.235   2.196   9.522 -0.4347 -0.1401  0.5783
  609TMC3     O 9027   2.141   2.233   9.453  0.2634  0.2841 -0.2503
  609TMC3     H 9028   2.143   2.050   9.328  0.0105  2.0223  1.3654
  609TMC3    H1 9029   2.455   2.081   9.609 -1.9003 -4.0217  3.6340
  609TMC3    H2 9030   2.433   1.743   9.350  1.0521 -0.8536  3.2204
  609TMC3    C7 9031   2.592   1.867   9.524 -0.5738  0.0174  0.4619
  609TMC3    C8 9032   2.209   1.813   9.237  0.4404  0.2304 -0.7234
  609TMC3    O1 9033   2.644   1.929   9.615  0.3419  0.4428 -0.8735
  609TMC3    O2 9034   2.276   1.724   9.182  0.0707  0.7752 -0.5102
  610TMC3    C1 9035   3.794   3.584  12.763  0.3610 -0.0865 -0.4558
  610TMC3    C2 9036   3.888   3.607  12.667 -0.2142 -0.3424  0.1977
  610TMC3    C3 9037   3.987   3.516  12.665 -0.0637  0.0563 -0.6853
  610TMC3    C4 9038   3.785   3.469  12.837 -0.2630 -0.7834  0.1370
  610TMC3    C5 9039   3.897   3.387  12.828  0.1265  0.2418 -0.4902
  610TMC3    C6 9040   3.991   3.403  12.734  0.8901 -0.3204 -0.4220
  610TMC3     C 9041   3.700   3.693  12.778 -0.0743  0.5913  0.1075
  610TMC3     O 9042   3.727   3.793  12.715 -0.1231 -0.6257  0.0311
  610TMC3     H 9043   3.894   3.703  12.616 -1.0631 -0.9794 -1.1106
  610TMC3    H1 9044   3.715   3.455  12.918 -0.9049  1.8213  0.0366
  610TMC3    H2 9045   4.087   3.351  12.734 -0.8449 -3.4937  0.0193
  610TMC3    C7 9046   3.954   3.323  12.949  0.2754 -1.1643  0.4323
  610TMC3    C8 9047   4.117   3.578  12.641  0.5277 -0.0438 -0.3308
  610TMC3    O1 9048   4.041   3.236  12.941  0.1224 -0.2166  0.4139
  610TMC3    O2 9049   4.197   3.540  12.722 -0.1876 -0.4119 -0.3467
  611MPD2     C 9050   3.384   3.528  10.895  0.4883  0.9717 -0.4405
  611MPD2    C1 9051   3.349   3.523  10.758 -0.5527  0.7932 -0.7270
  611MPD2    C2 9052   3.450   3.530  10.663 -0.4750 -0.5446 -0.7076
  611MPD2    C3 9053   3.582   3.551  10.703  0.4522  0.0884 -0.0115
  611MPD2    C4 9054   3.619   3.550  10.836  0.1889 -0.1745 -0.2893
  611MPD2    C5 9055   3.517   3.546  10.927  0.7901 -0.6895  0.2651
  611MPD2     H 9056   3.432   3.527  10.556 -2.4025  1.5781 -0.4441
  611MPD2    H1 9057   3.722   3.550  10.870  0.3178 -0.4995 -0.6815
  611MPD2    H2 9058   3.308   3.518  10.972 -0.3747  3.6424 -0.9594
  611MPD2    H3 9059   3.539   3.528  11.031  0.6561  3.1322  0.9388
  611MPD2     N 9060   3.688   3.579  10.616 -1.1286 -0.2148  0.2837
  611MPD2    H5 9061   3.782   3.587  10.654 -1.1540  1.7968 -0.0888
  611MPD2    N1 9062   3.214   3.504  10.721 -0.2137  0.3065 -0.0133
  611MPD2    H7 9063   3.150   3.510  10.799  0.0165  1.3363  0.0886
  612TMC3    C1 9064   3.808   3.662  10.427  0.3621 -0.2062 -0.2210
  612TMC3    C2 9065   3.906   3.699  10.512  0.0740 -0.4651 -0.1514
  612TMC3    C3 9066   4.020   3.745  10.455 -0.1128  0.0277 -0.8008
  612TMC3    C4 9067   3.816   3.661  10.295 -0.3055 -1.1917  0.3386
  612TMC3    C5 9068   3.928   3.713  10.237  0.0962  0.1600 -0.7031
  612TMC3    C6 9069   4.030   3.758  10.319 -0.2827  0.0868 -0.2150
  612TMC3     C 9070   3.680   3.616  10.482 -0.3570 -0.0224 -0.6551
  612TMC3     O 9071   3.589   3.609  10.405  0.3885 -0.0246  0.1516
  612TMC3     H 9072   3.887   3.713  10.618  0.0434 -2.3730  0.0917
  612TMC3    H1 9073   3.728   3.636  10.236  1.4880  1.7989 -3.5732
  612TMC3    H2 9074   4.118   3.803  10.273  1.7933 -2.2947  1.4435
  612TMC3    C7 9075   3.962   3.668  10.098  0.3713 -0.3625  0.1192
  612TMC3    C8 9076   4.130   3.796  10.539  0.2366  0.0917  0.0524
  612TMC3    O1 9077   4.082   3.663  10.071 -0.2101 -0.4947  0.3766
  612TMC3    O2 9078   4.176   3.905  10.504 -0.1450 -0.1474  0.2467
  613MPD2     C 9079   2.475   0.763  16.424  0.5161 -0.4123 -0.4055
  613MPD2    C1 9080   2.526   0.845  16.323  0.1059  0.3796 -0.2465
  613MPD2    C2 9081   2.593   0.786  16.218 -0.2926 -0.9049  0.1837
  613MPD2    C3 9082   2.604   0.651  16.210  0.1507 -0.6167  0.5899
  613MPD2    C4 9083   2.556   0.572  16.312 -0.4842 -0.0600 -0.9583
  613MPD2    C5 9084   2.488   0.631  16.413  0.1888 -0.1487 -0.0479
  613MPD2     H 9085   2.618   0.846  16.131 -0.8795  0.3420  0.8595
  613MPD2    H1 9086   2.562   0.463  16.313 -1.1376 -0.0806  0.7588
  613MPD2    H2 9087   2.426   0.806  16.512  2.3016 -0.6022  0.6826
  613MPD2    H3 9088   2.432   0.578  16.489  2.1078 -0.5585  1.0686
  613MPD2     N 9089   2.674   0.594  16.099  0.4398  0.2131 -0.6243
  613MPD2    H5 9090   2.689   0.659  16.022 -0.5958  0.6828 -0.4276
  613MPD2    N1 9091   2.510   0.986  16.328 -0.2771  0.3015  0.2653
  613MPD2    H7 9092   2.453   1.020  16.405  0.9049  1.9579  0.4105
  614TMC3    C1 9093   2.534   1.212  16.262 -0.4591 -0.9220 -0.3038
  614TMC3    C2 9094   2.607   1.281  16.176  0.7875 -0.5764  0.6400
  614TMC3    C3 9095   2.540   1.370  16.095 -0.3063  0.1070 -0.0334
  614TMC3    C4 9096   2.400   1.217  16.267  0.3329 -0.2553  0.1655
  614TMC3    C5 9097   2.337   1.299  16.185 -0.6048 -0.4902 -0.6804
  614TMC3    C6 9098   2.405   1.373  16.098 -0.5080  0.0247  0.0504
  614TMC3     C 9099   2.573   1.075  16.246 -0.3542  0.0286  0.6928
  614TMC3     O 9100   2.654   1.052  16.159  0.2475  0.2733  0.1646
  614TMC3     H 9101   2.715   1.292  16.185  0.4015  3.7184 -0.3084
  614TMC3    H1 9102   2.346   1.152  16.335 -1.0344  2.2233  1.4606
  614TMC3    H2 9103   2.361   1.445  16.029 -0.2194 -1.6865 -1.9228
  614TMC3    C7 9104   2.200   1.286  16.175  0.0053  0.4389  0.4242
  614TMC3    C8 9105   2.601   1.375  15.963  0.0442  0.2597  0.0657
  614TMC3    O1 9106   2.148   1.273  16.285 -0.2433 -0.1243 -0.2687
  614TMC3    O2 9107   2.569   1.456  15.881  0.0442  0.3575 -0.4233
  615MPD2     C 9108   0.975   2.298  15.505  0.1050  0.5039 -0.8636
  615MPD2    C1 9109   0.984   2.278  15.639  0.0246 -0.5258  0.1514
  615MPD2    C2 9110   0.868   2.244  15.712 -0.9737 -0.6559  0.2636
  615MPD2    C3 9111   0.743   2.245  15.648  0.1267 -0.5632  0.1271
  615MPD2    C4 9112   0.746   2.264  15.510 -0.7983  0.2622 -0.4952
  615MPD2    C5 9113   0.857   2.286  15.441  0.1784 -0.4740  0.4877
  615MPD2     H 9114   0.871   2.224  15.818  1.6670 -2.0340 -0.0728
  615MPD2    H1 9115   0.657   2.256  15.448  1.5369 -2.9300 -3.4367
  615MPD2    H2 9116   1.059   2.318  15.440 -1.2649  5.5769 -1.1453
  615MPD2    H3 9117   0.847   2.289  15.333  0.6663  0.8057  0.4712
  615MPD2     N 9118   0.615   2.211  15.708  0.1239  0.6280 -0.1488
  615MPD2    H5 9119   0.533   2.216  15.650  0.0081 -0.6377 -0.1146
  615MPD2    N1 9120   1.110   2.272  15.702  0.1238  0.6466  0.1599
  615MPD2    H7 9121   1.111   2.232  15.796 -0.7281  2.8341  1.0916
  616TMC3    C1 9122   1.349   2.292  15.730 -0.4306 -0.0764 -0.4958
  616TMC3    C2 9123   1.467   2.299  15.665  0.0956  0.5659 -0.2995
  616TMC3    C3 9124   1.582   2.284  15.739 -0.3160 -0.1808 -0.3091
  616TMC3    C4 9125   1.345   2.246  15.860  0.9230 -0.1442  0.4234
  616TMC3    C5 9126   1.465   2.223  15.926  0.0160 -0.3184 -0.1291
  616TMC3    C6 9127   1.585   2.241  15.866  0.3717 -0.1367 -0.1312
  616TMC3     C 9128   1.227   2.318  15.654  0.0192 -0.5459  0.1292
  616TMC3     O 9129   1.243   2.376  15.547 -0.0958  0.0667 -0.2786
  616TMC3     H 9130   1.474   2.331  15.562 -3.9045 -0.2123 -0.8285
  616TMC3    H1 9131   1.256   2.251  15.921  1.4175 -0.3369  1.1534
  616TMC3    H2 9132   1.682   2.212  15.903 -0.0318  0.3828  1.3272
  616TMC3    C7 9133   1.458   2.185  16.067 -0.4603  0.6234 -0.5409
  616TMC3    C8 9134   1.698   2.369  15.688 -0.0871 -0.4458  0.2941
  616TMC3    O1 9135   1.348   2.167  16.123 -0.3410  0.2483  0.0191
  616TMC3    O2 9136   1.663   2.447  15.601 -0.1227  0.2157  0.0666
  617MPD2     C 9137   4.479   0.559  13.773 -0.5863 -0.0428  0.5272
  617MPD2    C1 9138   4.511   0.490  13.888 -0.1350  0.3211  0.2761
  617MPD2    C2 9139   4.421   0.467  13.984  0.1214 -0.6339 -0.5587
  617MPD2    C3 9140   4.289   0.513  13.962 -0.0822 -0.2792  0.2405
  617MPD2    C4 9141   4.255   0.571  13.845  0.1426 -0.0964  0.7755
  617MPD2    C5 9142   4.351   0.598  13.758  0.1605  0.5907  0.7689
  617MPD2     H 9143   4.441   0.407  14.072 -1.1627  1.0353  0.8832
  617MPD2    H1 9144   4.162   0.626  13.841 -1.7161 -3.2312  1.4849
  617MPD2    H2 9145   4.546   0.584  13.692  1.1623  0.4120  2.0906
  617MPD2    H3 9146   4.322   0.659  13.673 -0.2652 -2.4655 -1.2693
  617MPD2     N 9147   4.190   0.502  14.065 -0.9737  0.0154 -0.0379
  617MPD2    H5 9148   4.097   0.538  14.046 -0.6560 -0.1701 -1.9173
  617MPD2    N1 9149   4.649   0.467  13.912  0.1030  0.0739  0.5353
  617MPD2    H7 9150   4.719   0.521  13.861  1.6237 -1.9378  0.5127
  618TMC3    C1 9151   0.121   0.367  13.997  0.0103 -0.0665  0.5303
  618TMC3    C2 9152   0.160   0.243  13.961 -0.4398 -0.3469 -0.0368
  618TMC3    C3 9153   0.286   0.237  13.906 -0.1529  0.7174 -0.2525
  618TMC3    C4 9154   0.191   0.481  13.969 -0.0977 -0.1694  0.0312
  618TMC3    C5 9155   0.308   0.468  13.907 -0.1094  0.3298 -0.3656
  618TMC3    C6 9156   0.361   0.345  13.876  0.3849  0.4665  0.7972
  618TMC3     C 9157   4.698   0.382  14.007  0.2998 -0.0181 -0.0237
  618TMC3     O 9158   4.651   0.289  14.070  0.0285 -0.2726 -0.6154
  618TMC3     H 9159   0.097   0.157  13.979  0.6311 -1.4570 -1.6009
  618TMC3    H1 9160   0.166   0.581  14.004  1.8217 -0.6958  2.9032
  618TMC3    H2 9161   0.456   0.335  13.824 -1.4033 -2.0751 -1.9775
  618TMC3    C7 9162   0.375   0.588  13.867 -0.5596 -0.9346  0.1335
  618TMC3    C8 9163   0.345   0.109  13.923  0.3481 -0.1835 -0.0976
  618TMC3    O1 9164   0.390   0.670  13.952  0.0305 -0.2697 -0.2391
  618TMC3    O2 9165   0.276   0.008  13.929 -0.4116  0.2586  0.3704
  619MPD2     C 9166   1.199   2.417  13.700 -0.5630 -0.2919  0.0394
  619MPD2    C1 9167   1.077   2.479  13.724 -0.8328  0.4727 -0.1339
  619MPD2    C2 9168   0.958   2.407  13.698  0.6107 -0.2097  0.8173
  619MPD2    C3 9169   0.955   2.276  13.648 -0.0400  0.2937 -0.9000
  619MPD2    C4 9170   1.078   2.218  13.629  0.2958  0.1864  0.1220
  619MPD2    C5 9171   1.199   2.292  13.646 -0.0136  0.1926  0.1319
  619MPD2     H 9172   0.863   2.456  13.719  0.7812 -0.4721  2.2137
  619MPD2    H1 9173   1.088   2.114  13.600 -1.1635  0.0243  0.2277
  619MPD2    H2 9174   1.291   2.467  13.725 -0.2990  0.2822 -2.1473
  619MPD2    H3 9175   1.290   2.234  13.650 -1.2585 -1.8077 -0.4167
  619MPD2     N 9176   0.840   2.200  13.614 -0.2679  0.4597 -0.0252
  619MPD2    H5 9177   0.854   2.106  13.578  1.6943  0.4257  0.8405
  619MPD2    N1 9178   1.073   2.607  13.776 -0.4115 -0.4989 -0.1089
  619MPD2    H7 9179   0.983   2.653  13.786  0.7601  1.9535 -0.7351
  620TMC3    C1 9180   1.157   2.827  13.793 -0.5719 -0.2601  0.1457
  620TMC3    C2 9181   1.063   2.871  13.703 -0.6220 -0.1224  0.2523
  620TMC3    C3 9182   1.012   2.996  13.729  0.0165 -0.6764 -0.1716
  620TMC3    C4 9183   1.210   2.896  13.895 -0.2309  0.3558 -0.0593
  620TMC3    C5 9184   1.148   3.011  13.915 -0.6785  0.8190  0.3290
  620TMC3    C6 9185   1.058   3.064  13.833  0.3169 -0.2371 -0.7461
  620TMC3     C 9186   1.186   2.680  13.809  0.6031  0.2608 -0.1041
  620TMC3     O 9187   1.285   2.646  13.880  0.1648 -0.6931  0.2950
  620TMC3     H 9188   1.016   2.801  13.635 -0.5814  0.1842 -0.0945
  620TMC3    H1 9189   1.291   2.865  13.960 -0.5201 -2.0188 -0.8203
  620TMC3    H2 9190   1.006   3.157  13.853 -0.4020 -0.7992 -0.0135
  620TMC3    C7 9191   1.110   3.030  14.053  0.3401  0.4270 -0.4566
  620TMC3    C8 9192   0.872   3.000  13.715  0.2823  0.6332  0.3511
  620TMC3    O1 9193   1.194   3.008  14.138 -0.4530 -0.3339 -0.2185
  620TMC3    O2 9194   0.816   3.029  13.822 -0.8609 -0.1696 -0.1369
  621MPD2     C 9195   1.255   1.591  10.044 -0.2366 -0.2259 -0.8242
  621MPD2    C1 9196   1.311   1.528  10.148 -0.3673  0.3073  0.2180
  621MPD2    C2 9197   1.426   1.591  10.203  0.2376  0.2798 -0.4391
  621MPD2    C3 9198   1.489   1.697  10.135 -0.0040  0.1150  0.4201
  621MPD2    C4 9199   1.427   1.749  10.019 -0.3397 -0.8047  0.0263
  621MPD2    C5 9200   1.316   1.692   9.976  0.2387  0.1272 -0.3167
  621MPD2     H 9201   1.471   1.560  10.296 -0.7527 -1.2793 -0.4848
  621MPD2    H1 9202   1.466   1.829   9.958  0.2122 -1.6139 -0.6684
  621MPD2    H2 9203   1.168   1.547   9.996 -0.4850 -1.7201  1.0320
  621MPD2    H3 9204   1.271   1.733   9.886 -0.7384  0.3417  0.2728
  621MPD2     N 9205   1.604   1.755  10.192  0.4972 -0.0418  0.3455
  621MPD2    H5 9206   1.639   1.715  10.278 -1.7836  0.8660  1.7049
  621MPD2    N1 9207   1.238   1.426  10.209 -0.0170  0.1105 -0.3162
  621MPD2    H7 9208   1.147   1.402  10.171 -1.5557  2.4697  1.8649
  622TMC3    C1 9209   1.158   1.300  10.381 -0.0020 -0.7729  0.1582
  622TMC3    C2 9210   1.045   1.376  10.394  0.8805 -0.7063  0.2060
  622TMC3    C3 9211   0.931   1.314  10.424 -0.6587 -0.4160 -0.4373
  622TMC3    C4 9212   1.172   1.169  10.428 -0.4521 -0.3628 -0.0749
  622TMC3    C5 9213   1.053   1.106  10.462 -0.7774  0.6614 -0.0726
  622TMC3    C6 9214   0.941   1.186  10.468 -0.3276  0.3343 -0.2191
  622TMC3     C 9215   1.275   1.357  10.321 -0.2913 -0.1283  0.0009
  622TMC3     O 9216   1.387   1.344  10.373  0.3854  1.0703  0.1917
  622TMC3     H 9217   1.054   1.476  10.353 -1.3897 -0.7191 -0.2764
  622TMC3    H1 9218   1.268   1.118  10.424 -0.9413 -1.2502 -0.6251
  622TMC3    H2 9219   0.850   1.137  10.500  1.9508 -1.5384  3.3443
  622TMC3    C7 9220   1.031   0.967  10.449  0.3225 -0.2842 -0.4326
  622TMC3    C8 9221   0.808   1.393  10.462  0.0284  0.1127  0.4474
  622TMC3    O1 9222   0.937   0.917  10.510  0.2986  0.5114  0.2748
  622TMC3    O2 9223   0.695   1.345  10.477 -0.1035  0.1198  0.0323
  623MPD2     C 9224   0.053   1.881  15.713 -0.2474 -0.3678 -0.5469
  623MPD2    C1 9225   4.681   1.921  15.799 -0.3664 -0.5764 -0.0171
  623MPD2    C2 9226   4.712   1.960  15.927 -0.6680 -0.0646  0.0385
  623MPD2    C3 9227   0.119   1.947  15.980  0.3288 -0.1253 -0.6737
  623MPD2    C4 9228   0.211   1.894  15.895  0.1691 -0.1516  0.7355
  623MPD2    C5 9229   0.181   1.862  15.766  0.1074  0.5296  0.3224
  623MPD2     H 9230   4.639   1.991  16.001  0.3534  2.0028  0.1948
  623MPD2    H1 9231   0.315   1.882  15.922  1.3027 -1.2110 -4.0876
  623MPD2    H2 9232   0.034   1.869  15.607  0.3971  1.2587 -0.8406
  623MPD2    H3 9233   0.256   1.830  15.694  1.9088  1.5710  1.7547
  623MPD2     N 9234   0.142   1.985  16.115 -0.2017 -0.0054 -0.0193
  623MPD2    H5 9235   0.061   2.014  16.168 -0.3184 -0.7006  0.1880
  623MPD2    N1 9236   4.549   1.934  15.763  0.5181  0.7179 -0.8359
  623MPD2    H7 9237   4.487   1.970  15.835  1.7151  0.3442  0.3807
  624TMC3    C1 9238   0.329   1.966  16.540  0.0132  0.6154  0.0255
  624TMC3    C2 9239   0.232   2.053  16.582 -0.1953  0.2461 -0.2375
  624TMC3    C3 9240   0.151   2.118  16.497 -0.2488 -0.2321 -0.2593
  624TMC3    C4 9241   0.334   1.931  16.405  0.9511  0.0590  0.0688
  624TMC3    C5 9242   0.239   1.984  16.326 -0.5403 -0.3825 -0.6353
  624TMC3    C6 9243   0.163   2.087  16.364 -0.1426 -0.0325 -0.0932
  624TMC3     C 9244   0.361   1.853  16.630 -0.4297 -0.0536  0.2145
  624TMC3     O 9245   0.342   1.738  16.597  0.1141 -0.7536  0.1687
  624TMC3     H 9246   0.218   2.060  16.689  0.4509  3.5620 -0.3524
  624TMC3    H1 9247   0.390   1.842  16.381 -0.5430 -1.1885  1.1325
  624TMC3    H2 9248   0.113   2.145  16.288  0.9034  0.8160 -0.1330
  624TMC3    C7 9249   0.258   1.965  16.192 -0.1788  0.2121  0.3575
  624TMC3    C8 9250   0.018   2.119  16.543 -0.9019 -0.1125 -0.0636
  624TMC3    O1 9251   0.371   1.939  16.156 -0.2425 -0.0939  0.6056
  624TMC3    O2 9252   4.661   2.047  16.479  0.3128  0.3101 -0.0481
  625MPD2     C 9253   0.334   3.177   0.789 -0.4498 -0.4190  0.3251
  625MPD2    C1 9254   0.419   3.280   0.798  0.0835  0.6794 -0.4498
  625MPD2    C2 9255   0.552   3.264   0.831 -0.6887  0.1931  0.6646
  625MPD2    C3 9256   0.607   3.141   0.871 -0.5325  0.1806 -0.0470
  625MPD2    C4 9257   0.516   3.039   0.888 -0.5968 -0.5798 -0.4912
  625MPD2    C5 9258   0.380   3.060   0.853  0.4988 -0.8852 -0.1763
  625MPD2     H 9259   0.613   3.354   0.837 -2.4382  1.4194 -0.0381
  625MPD2    H1 9260   0.552   2.950   0.938 -0.8360  0.5513  1.6720
  625MPD2    H2 9261   0.229   3.182   0.764  0.1489 -0.5959 -2.2459
  625MPD2    H3 9262   0.310   2.978   0.854  1.5144 -1.7208  1.6805
  625MPD2     N 9263   0.747   3.128   0.911  0.4396  0.3801  0.5593
  625MPD2    H5 9264   0.805   3.203   0.874 -0.9745  0.5770 -1.3030
  625MPD2    N1 9265   0.372   3.409   0.760  0.4972 -0.6296  0.6541
  625MPD2    H7 9266   0.433   3.488   0.777  0.1946 -0.3584  0.4779
  626TMC3    C1 9267   0.242   3.591   0.684  0.9023 -0.3108  0.1428
  626TMC3    C2 9268   0.181   3.651   0.582 -0.9249 -0.2709  0.1288
  626TMC3    C3 9269   0.091   3.752   0.598 -0.0115  0.1641  0.0550
  626TMC3    C4 9270   0.201   3.621   0.808 -0.3292  0.8108 -0.1059
  626TMC3    C5 9271   0.108   3.719   0.825  0.4361 -0.7618  0.0821
  626TMC3    C6 9272   0.052   3.797   0.723  0.0322  0.1881 -0.3805
  626TMC3     C 9273   0.268   3.446   0.677 -0.1767 -0.6915 -0.2046
  626TMC3     O 9274   0.197   3.372   0.606 -0.0046 -0.1917 -0.2249
  626TMC3     H 9275   0.205   3.618   0.482  2.6475  1.9656  0.2508
  626TMC3    H1 9276   0.236   3.566   0.895 -0.7519 -3.1823 -2.4783
  626TMC3    H2 9277   4.686   3.861   0.740  0.8235  1.6403 -1.8610
  626TMC3    C7 9278   0.055   3.713   0.958  0.1095 -1.0694  0.4402
  626TMC3    C8 9279   0.065   3.837   0.481  0.4585 -0.0429  0.6161
  626TMC3    O1 9280   0.041   3.604   1.008  0.4649 -0.4479 -0.3107
  626TMC3    O2 9281   0.123   3.802   0.384 -0.0376  0.1564 -0.0779
  627MPD2     C 9282   3.713   4.511  14.851 -0.4267 -0.8884 -0.1416
  627MPD2    C1 9283   3.774   4.415  14.922 -0.6404 -0.4380 -0.1557
  627MPD2    C2 9284   3.735   4.282  14.908  0.1917  0.2829 -0.4344
  627MPD2    C3 9285   3.651   4.236  14.811  0.0513  0.4224  0.0583
  627MPD2    C4 9286   3.592   4.336  14.734  0.1935 -0.0709  0.3282
  627MPD2    C5 9287   3.621   4.466  14.765 -0.1458 -0.8577  0.1403
  627MPD2     H 9288   3.779   4.209  14.976 -0.7940  1.9745  2.0185
  627MPD2    H1 9289   3.521   4.313  14.655  1.8189  0.3965 -1.2747
  627MPD2    H2 9290   3.731   4.618  14.858 -2.4096 -0.6940  2.3475
  627MPD2    H3 9291   3.574   4.541  14.703  1.1797 -1.1033 -1.1650
  627MPD2     N 9292   3.633   4.099  14.789 -1.1239 -0.3923  0.1467
  627MPD2    H5 9293   3.660   4.035  14.864  0.6919  2.7282  2.1714
  627MPD2    N1 9294   3.883   4.453  15.012 -0.8566  0.3604  0.1674
  627MPD2    H7 9295   3.928   4.376  15.062 -2.3904  0.6987  2.0747
  628TMC3    C1 9296   4.041   4.596  15.128  0.6030 -0.9529  0.5123
  628TMC3    C2 9297   4.134   4.502  15.145  0.2375  0.0452  0.0272
  628TMC3    C3 9298   4.261   4.533  15.203  0.4028  0.0971 -0.1004
  628TMC3    C4 9299   4.078   0.004  15.153  0.2740  0.2867  0.0361
  628TMC3    C5 9300   4.203   0.035  15.205  0.5806  0.0458 -0.0284
  628TMC3    C6 9301   4.297   4.658  15.234  0.1290 -0.0343 -0.0748
  628TMC3     C 9302   3.929   4.580  15.038  0.3804  0.3321  0.3879
  628TMC3     O 9303   3.878   4.691  15.012 -0.3836  0.0974 -0.3761
  628TMC3     H 9304   4.124   4.410  15.090  1.4093 -0.5586  0.8219
  628TMC3    H1 9305   4.007   0.084  15.137 -0.1808 -0.2687 -0.7464
  628TMC3    H2 9306   4.401   4.683  15.217  0.4543  0.4219  2.6752
  628TMC3    C7 9307   4.239   0.168  15.189 -1.0139  0.0665 -0.2750
  628TMC3    C8 9308   4.370   4.453  15.146 -0.4250 -0.7081 -0.0834
  628TMC3    O1 9309   4.303   0.231  15.270 -0.5097  0.1908  0.2541
  628TMC3    O2 9310   4.422   4.377  15.228  0.3566 -0.5166 -0.3835
  629MPD2     C 9311   2.165   2.581  15.704 -0.0902  0.5249  0.1758
  629MPD2    C1 9312   2.162   2.483  15.802 -0.1054 -0.0841 -0.5144
  629MPD2    C2 9313   2.046   2.409  15.814  0.1975  0.0292  0.3392
  629MPD2    C3 9314   1.940   2.440  15.734  0.4843  0.2981  0.2900
  629MPD2    C4 9315   1.944   2.543  15.646  0.2913  0.3128  0.3748
  629MPD2    C5 9316   2.061   2.608  15.619 -0.6966  0.6924  0.0642
  629MPD2     H 9317   2.049   2.326  15.883  1.2886 -0.7411 -0.6345
  629MPD2    H1 9318   1.852   2.556  15.591  0.1071 -1.1058  0.3468
  629MPD2    H2 9319   2.252   2.645  15.708 -1.2181  2.1942 -2.1776
  629MPD2    H3 9320   2.066   2.691  15.550 -1.6423  0.8750  0.2240
  629MPD2     N 9321   1.819   2.359  15.749 -0.3531  0.3627  0.0646
  629MPD2    H5 9322   1.827   2.288  15.821 -1.9217 -1.0251 -1.1657
  629MPD2    N1 9323   2.278   2.458  15.887 -0.4038  0.4879  0.3577
  629MPD2    H7 9324   2.352   2.527  15.884  0.6807 -0.6664  0.7374
  630TMC3    C1 9325   2.431   2.355  16.045  0.1821 -0.5472 -0.4792
  630TMC3    C2 9326   2.540   2.392  15.980 -0.6552 -0.2930  0.3782
  630TMC3    C3 9327   2.659   2.392  16.048  0.7101 -0.1849 -0.5584
  630TMC3    C4 9328   2.441   2.295  16.169 -0.1386  0.0224  0.3795
  630TMC3    C5 9329   2.570   2.295  16.229  0.1494  0.1029 -0.0122
  630TMC3    C6 9330   2.675   2.349  16.172  0.5538 -0.2021  0.2358
  630TMC3     C 9331   2.292   2.369  16.000 -0.0147  0.1953  0.3637
  630TMC3     O 9332   2.211   2.292  16.050 -0.1903 -0.1287  0.2254
  630TMC3     H 9333   2.540   2.446  15.886 -3.4290  1.1112  1.1925
  630TMC3    H1 9334   2.355   2.276  16.232 -0.7195 -0.8033 -0.6614
  630TMC3    H2 9335   2.772   2.345  16.221  0.7071 -0.1362 -0.0588
  630TMC3    C7 9336   2.581   2.230  16.358  0.2004  0.5558 -0.1796
  630TMC3    C8 9337   2.769   2.479  16.005  0.9352  0.1993 -0.1845
  630TMC3    O1 9338   2.674   2.269  16.426 -0.5987  0.0451 -0.0919
  630TMC3    O2 9339   2.827   2.527  16.100 -0.5901  0.1275 -0.1936
  631MPD2     C 9340   0.467   2.862  16.336 -0.1070 -0.0112 -0.5055
  631MPD2    C1 9341   0.518   2.839  16.214 -0.2751  0.3652 -0.0641
  631MPD2    C2 9342   0.505   2.712  16.153  0.4948  0.7746 -0.5230
  631MPD2    C3 9343   0.424   2.616  16.210 -0.7984  0.5386 -0.1786
  631MPD2    C4 9344   0.362   2.639  16.337 -0.3350  0.2579  0.3298
  631MPD2    C5 9345   0.382   2.769  16.394  0.0127  0.3270  0.2613
  631MPD2     H 9346   0.532   2.684  16.052  2.2776 -2.8343  0.9624
  631MPD2    H1 9347   0.295   2.567  16.384 -2.2393  1.0329 -1.1704
  631MPD2    H2 9348   0.477   2.957  16.388 -0.7743  0.3817 -1.1038
  631MPD2    H3 9349   0.342   2.784  16.493  1.6982 -1.4256  1.2041
  631MPD2     N 9350   0.415   2.494  16.144  0.2856 -0.6477  0.4237
  631MPD2    H5 9351   0.455   2.489  16.051  0.2714  0.3668  0.3569
  631MPD2    N1 9352   0.578   2.944  16.142  0.9171  0.4318  0.1118
  631MPD2    H7 9353   0.560   3.040  16.167  0.7632 -0.0134  1.7353
  632TMC3    C1 9354   0.683   3.056  15.960 -0.0026  0.3823  0.5257
  632TMC3    C2 9355   0.611   3.165  15.984 -0.1625 -0.4670  0.0912
  632TMC3    C3 9356   0.618   3.269  15.891  0.7381  0.1917 -0.1375
  632TMC3    C4 9357   0.761   3.046  15.846 -0.1237 -0.3489 -0.4162
  632TMC3    C5 9358   0.772   3.155  15.759 -0.3597  0.2006  0.4998
  632TMC3    C6 9359   0.708   3.272  15.787  0.3186 -0.3898 -0.0249
  632TMC3     C 9360   0.642   2.927  16.017 -0.1270  0.5955  0.3160
  632TMC3     O 9361   0.671   2.831  15.949 -0.0809  0.0189  0.2910
  632TMC3     H 9362   0.529   3.161  16.055 -1.0836  1.0692 -0.8791
  632TMC3    H1 9363   0.810   2.952  15.821  1.1509  0.3094 -0.3996
  632TMC3    H2 9364   0.725   3.360  15.725  0.5380  2.1386  3.6426
  632TMC3    C7 9365   0.784   3.137  15.613  1.1399  0.2332 -0.0608
  632TMC3    C8 9366   0.490   3.331  15.876 -0.1129 -0.0658  0.0767
  632TMC3    O1 9367   0.703   3.203  15.553 -0.7556 -1.5172 -0.2857
  632TMC3    O2 9368   0.409   3.334  15.966 -0.2009 -0.3454  0.4903
  633MPD2     C 9369   0.355   0.358  17.332 -0.3419 -0.5710  0.1737
  633MPD2    C1 9370   0.357   0.311  17.206  0.4989 -1.1405 -0.1339
  633MPD2    C2 9371   0.399   0.183  17.186  0.0477  0.3219  0.2322
  633MPD2    C3 9372   0.438   0.106  17.299  0.0464 -0.0403  0.0815
  633MPD2    C4 9373   0.433   0.152  17.429  0.0180  0.0692 -0.0294
  633MPD2    C5 9374   0.394   0.281  17.439  0.5173  0.1481  0.0406
  633MPD2     H 9375   0.404   0.143  17.086  0.4325  0.9477  0.0036
  633MPD2    H1 9376   0.450   0.089  17.516  3.9493 -0.3266 -1.1018
  633MPD2    H2 9377   0.349   0.463  17.360 -1.9121  0.0866 -2.6043
  633MPD2    H3 9378   0.369   0.332  17.531  0.5424 -2.4016  1.4527
  633MPD2     N 9379   0.476   4.688  17.278  0.9201  0.2034 -0.4868
  633MPD2    H5 9380   0.546   4.661  17.346 -0.5241 -1.0776  0.4865
  633MPD2    N1 9381   0.325   0.385  17.095 -0.1094  0.3123 -0.6566
  633MPD2    H7 9382   0.321   0.335  17.007 -1.8081 -0.9723  0.1345
  634TMC3    C1 9383   0.256   0.558  16.957 -0.1134  0.1990  0.5204
  634TMC3    C2 9384   0.198   0.466  16.877 -0.4866  0.2059  1.0271
  634TMC3    C3 9385   0.152   0.513  16.756 -0.8780 -0.0973 -0.1807
  634TMC3    C4 9386   0.258   0.693  16.936  0.5478 -0.5206  0.5424
  634TMC3    C5 9387   0.196   0.737  16.818  0.1333 -0.8775 -0.2370
  634TMC3    C6 9388   0.146   0.645  16.726 -0.3308  0.3182  0.7285
  634TMC3     C 9389   0.289   0.514  17.092 -0.2931 -0.2139 -0.8616
  634TMC3     O 9390   0.293   0.605  17.179  0.1914  0.3244  0.3551
  634TMC3     H 9391   0.194   0.358  16.885  2.6359 -0.1415 -1.9487
  634TMC3    H1 9392   0.308   0.763  17.002 -1.4255  0.8155  0.6204
  634TMC3    H2 9393   0.097   0.685  16.639  1.7137  0.9865 -0.1216
  634TMC3    C7 9394   0.223   0.872  16.772  0.2542 -0.5973  0.4959
  634TMC3    C8 9395   0.165   0.413  16.647 -0.6564 -0.3951 -0.4337
  634TMC3    O1 9396   0.227   0.878  16.653 -0.3260  0.6262  0.6808
  634TMC3    O2 9397   0.252   0.323  16.652 -0.3879 -0.0103 -0.3832
  635TMC3    C1 9398   1.411   1.457  17.104 -0.6784  0.0344 -0.3331
  635TMC3    C2 9399   1.337   1.346  17.072  0.3760 -0.0700 -0.3713
  635TMC3    C3 9400   1.389   1.251  16.996 -0.6932 -0.0357  0.5949
  635TMC3    C4 9401   1.532   1.484  17.042 -0.4356  0.1086  0.0827
  635TMC3    C5 9402   1.581   1.388  16.959 -0.6232 -1.0223 -0.6418
  635TMC3    C6 9403   1.513   1.272  16.935 -0.0218  0.0682  0.4062
  635TMC3     C 9404   1.359   1.556  17.191 -0.8937 -0.1794  0.1512
  635TMC3     O 9405   1.235   1.563  17.199  0.5172  0.8859 -0.0628
  635TMC3     H 9406   1.240   1.343  17.118  1.1130 -0.4187  1.1399
  635TMC3    H1 9407   1.572   1.584  17.046 -0.2095  0.0630 -1.0644
  635TMC3    H2 9408   1.556   1.189  16.880 -0.9601 -3.0176  4.2879
  635TMC3    C7 9409   1.710   1.411  16.895  0.9047 -0.5648 -0.3399
  635TMC3    C8 9410   1.323   1.119  16.976  0.0918 -0.0149 -0.3723
  635TMC3    O1 9411   1.745   1.338  16.804  0.1731 -0.2792 -0.0643
  635TMC3    O2 9412   1.389   1.026  16.928 -0.5822 -0.3551 -0.2701
  636MPD2     C 9413   1.987   0.520  15.754  0.5683  0.9747 -0.3172
  636MPD2    C1 9414   2.037   0.637  15.808  0.0993 -0.0840 -1.0027
  636MPD2    C2 9415   2.178   0.646  15.798  0.1084 -0.0159  0.5255
  636MPD2    C3 9416   2.262   0.551  15.734 -0.7511 -0.8709  0.4126
  636MPD2    C4 9417   2.201   0.445  15.665  0.7883 -0.1526 -0.7883
  636MPD2    C5 9418   2.064   0.433  15.679 -0.4504 -0.2358 -0.4180
  636MPD2     H 9419   2.228   0.725  15.853  3.0192 -1.6078  0.2030
  636MPD2    H1 9420   2.251   0.364  15.613 -0.6496 -0.6152 -1.4380
  636MPD2    H2 9421   1.882   0.494  15.762  0.8045  0.4724  1.0636
  636MPD2    H3 9422   2.007   0.352  15.634  1.7781 -0.2595 -3.1556
  636MPD2     N 9423   2.402   0.553  15.741  0.3971 -1.0812  0.4732
  636MPD2    H5 9424   2.445   0.635  15.783 -0.2109 -0.4336 -0.1453
  636MPD2    N1 9425   1.967   0.726  15.897 -0.0442 -0.2464  0.4201
  636MPD2    H7 9426   2.017   0.794  15.953  2.0720 -1.2546 -0.2447
  637TMC3    C1 9427   2.625   0.488  15.741 -0.6474  0.4370 -0.1436
  637TMC3    C2 9428   2.676   0.407  15.845 -0.5647 -1.0969  0.0765
  637TMC3    C3 9429   2.760   0.463  15.941  0.4928 -0.0901 -0.1912
  637TMC3    C4 9430   2.679   0.615  15.715 -0.7651 -0.2509  0.6779
  637TMC3    C5 9431   2.785   0.652  15.794 -0.5131  0.3934 -0.0234
  637TMC3    C6 9432   2.824   0.582  15.911 -0.5364 -0.1522  0.3197
  637TMC3     C 9433   2.491   0.453  15.699 -0.1306  0.6587  0.3289
  637TMC3     O 9434   2.462   0.331  15.691 -0.5218 -0.3522  0.1184
  637TMC3     H 9435   2.614   0.320  15.861 -0.7442 -0.9020  0.4342
  637TMC3    H1 9436   2.620   0.677  15.649  0.1672  0.6754  0.7181
  637TMC3    H2 9437   2.904   0.619  15.974 -0.1527 -0.1706 -0.1632
  637TMC3    C7 9438   2.797   0.792  15.816  0.0869 -0.0145  0.2329
  637TMC3    C8 9439   2.717   0.468  16.073  0.0178  0.2912  0.4782
  637TMC3    O1 9440   2.787   0.818  15.935  0.1943 -0.2783 -0.4274
  637TMC3    O2 9441   2.704   0.364  16.136  0.2064 -0.2433 -0.8290
  638MPD2     C 9442   1.795   4.585  15.289 -0.0000  0.1289  0.5231
  638MPD2    C1 9443   1.733   4.529  15.179  0.2723 -0.6789 -0.1845
  638MPD2    C2 9444   1.665   4.412  15.204  0.5458  0.7012 -0.2145
  638MPD2    C3 9445   1.677   4.344  15.325 -0.2863 -0.5345 -0.1622
  638MPD2    C4 9446   1.751   4.392  15.433  0.1919 -0.5284 -0.9809
  638MPD2    C5 9447   1.790   4.523  15.412 -0.0201 -0.4368 -0.1996
  638MPD2     H 9448   1.604   4.357  15.133 -1.5689  1.0927  1.2926
  638MPD2    H1 9449   1.752   4.350  15.533 -0.2907 -0.6161 -1.0133
  638MPD2    H2 9450   1.839   4.684  15.289  0.1676  0.0472 -1.0331
  638MPD2    H3 9451   1.843   4.571  15.494 -2.1939  1.0418  0.3533
  638MPD2     N 9452   1.616   4.214  15.319 -0.4705  0.7000 -0.2829
  638MPD2    H5 9453   1.547   4.196  15.247 -0.2027  2.8461 -1.0754
  638MPD2    N1 9454   1.748   4.591  15.052 -0.5413 -0.0430  0.2270
  638MPD2    H7 9455   1.801   4.677  15.043  0.5594 -0.8603 -1.0048
  639TMC3    C1 9456   1.546   3.992  15.385  0.2210  1.0700 -0.1896
  639TMC3    C2 9457   1.467   3.981  15.275 -0.1583 -0.1248  0.2308
  639TMC3    C3 9458   1.390   3.861  15.281 -0.3976 -0.2237 -0.0955
  639TMC3    C4 9459   1.563   3.892  15.477  0.0663  0.1169  0.4185
  639TMC3    C5 9460   1.500   3.772  15.468 -0.7078  0.2466  0.1273
  639TMC3    C6 9461   1.410   3.759  15.363  0.5296  0.5443  0.0280
  639TMC3     C 9462   1.630   4.111  15.408 -0.7231  0.1978  0.2474
  639TMC3     O 9463   1.695   4.125  15.511  0.4227  0.7830  0.3151
  639TMC3     H 9464   1.475   4.046  15.189  1.0325 -0.4679  0.0814
  639TMC3    H1 9465   1.636   3.909  15.555  1.5023 -0.3701 -0.8308
  639TMC3    H2 9466   1.371   3.660  15.342 -1.6805  1.6477 -1.0091
  639TMC3    C7 9467   1.575   3.657  15.497 -0.0373  0.2347 -0.0173
  639TMC3    C8 9468   1.333   3.821  15.152  0.8452 -0.8867  0.1608
  639TMC3    O1 9469   1.510   3.557  15.521 -0.4942  0.1912 -0.2968
  639TMC3    O2 9470   1.381   3.869  15.047 -0.5172  0.1595 -0.2110
  640MPD2     C 9471   2.569   2.802  10.174 -0.2151  0.4311 -0.2497
  640MPD2    C1 9472   2.519   2.809  10.039  0.3311  0.1464 -0.8032
  640MPD2    C2 9473   2.418   2.912  10.015  0.3053  0.4133  0.2793
  640MPD2    C3 9474   2.357   2.987  10.121 -0.0535 -0.1070 -0.0892
  640MPD2    C4 9475   2.397   2.965  10.247 -0.2766  0.1579 -0.8609
  640MPD2    C5 9476   2.505   2.874  10.274  0.2398  0.3159  0.8125
  640MPD2     H 9477   2.369   2.930   9.920 -0.6794 -0.3310  0.6383
  640MPD2    H1 9478   2.345   3.008  10.332 -1.3162 -0.5887 -1.1222
  640MPD2    H2 9479   2.654   2.740  10.203  0.3735  1.8637  1.0598
  640MPD2    H3 9480   2.529   2.870  10.380  0.5261  0.1682  0.7402
  640MPD2     N 9481   2.250   3.077  10.093 -0.4796 -0.0675 -0.1740
  640MPD2    H5 9482   2.209   3.072  10.000  0.9349  0.6587 -0.8269
  640MPD2    N1 9483   2.573   2.720   9.943  0.1999  0.3550 -0.0796
  640MPD2    H7 9484   2.637   2.657   9.990  1.0669 -0.4746 -2.3624
  641TMC3    C1 9485   2.611   2.606   9.744 -0.3891  0.0192 -0.3116
  641TMC3    C2 9486   2.714   2.535   9.811 -0.2474 -0.2597  0.2085
  641TMC3    C3 9487   2.747   2.416   9.764  0.3453  0.3169  0.0084
  641TMC3    C4 9488   2.562   2.562   9.623  0.0780  0.2064  0.0863
  641TMC3    C5 9489   2.604   2.442   9.576 -0.0490  0.0307  0.0377
  641TMC3    C6 9490   2.696   2.359   9.646  0.1795 -0.0767 -0.2592
  641TMC3     C 9491   2.545   2.715   9.810 -0.2413  0.2712 -0.3095
  641TMC3     O 9492   2.465   2.773   9.743 -0.4786  0.0552  0.0730
  641TMC3     H 9493   2.761   2.565   9.904 -0.9919  2.4960 -0.3050
  641TMC3    H1 9494   2.486   2.621   9.572  0.3805  0.2978 -0.2641
  641TMC3    H2 9495   2.716   2.261   9.603  0.6139 -0.7257  1.3955
  641TMC3    C7 9496   2.538   2.379   9.464  0.1728 -0.3774 -0.3890
  641TMC3    C8 9497   2.850   2.329   9.831  0.0835 -0.0584  0.4846
  641TMC3    O1 9498   2.573   2.266   9.431 -0.4249  0.1584 -0.4357
  641TMC3    O2 9499   2.846   2.213   9.788 -0.7734  0.2878 -0.0614
  642TMC3    C1 9500   3.258   0.062  11.968 -0.0345 -0.0618  0.0528
  642TMC3    C2 9501   3.358   0.073  12.061 -0.1370 -0.4161  0.0823
  642TMC3    C3 9502   3.390   4.682  12.130  0.1507  0.2981  1.0281
  642TMC3    C4 9503   3.181   4.671  11.969 -0.0457 -0.0532 -0.0812
  642TMC3    C5 9504   3.214   4.562  12.040  0.1380  0.3088  0.1210
  642TMC3    C6 9505   3.314   4.565  12.129  0.1027 -0.2022 -0.7107
  642TMC3     C 9506   3.196   0.197  11.955  0.3309 -1.0331 -0.4103
  642TMC3     O 9507   3.268   0.293  11.934  0.1463 -0.7560  0.0147
  642TMC3     H 9508   3.416   0.164  12.066  0.6315 -0.9446  0.7891
  642TMC3    H1 9509   3.097   4.671  11.901  0.7813 -1.3465 -1.1012
  642TMC3    H2 9510   3.344   4.482  12.192 -1.7226 -0.3647 -0.0701
  642TMC3    C7 9511   3.125   4.450  12.031  0.0152 -0.0507 -0.1768
  642TMC3    C8 9512   3.480   4.717  12.243  0.2861  0.8651  0.8976
  642TMC3    O1 9513   3.059   4.433  11.932 -0.1980 -0.4889  0.8959
  642TMC3    O2 9514   3.483   0.114  12.272  0.1613 -0.1477  0.3340
  643TMC3    C1 9515   1.874   3.485   0.027  0.3816 -0.0926 -0.2542
  643TMC3    C2 9516   1.808   3.533  17.595  0.3763 -0.1816 -0.1336
  643TMC3    C3 9517   1.874   3.520  17.476 -0.0365  0.6752 -0.7045
  643TMC3    C4 9518   1.998   3.432   0.023  0.0855 -0.7662  0.2764
  643TMC3    C5 9519   2.065   3.429  17.584 -0.3170 -0.2759  0.3571
  643TMC3    C6 9520   1.996   3.460  17.470 -0.0030  1.0623 -0.5354
  643TMC3     C 9521   1.810   3.524   0.151  0.0038 -0.4298  0.1646
  643TMC3     O 9522   1.709   3.587   0.140  0.5386  0.4603 -0.9092
  643TMC3     H 9523   1.716   3.590  17.591 -0.7993 -2.0706  0.2344
  643TMC3    H1 9524   2.051   3.434   0.118  1.9267  0.0961 -0.7585
  643TMC3    H2 9525   2.040   3.435  17.374  0.1917 -1.3248  0.1723
  643TMC3    C7 9526   2.199   3.483  17.580 -0.3743  0.2113  0.0425
  643TMC3    C8 9527   1.837   3.611  17.368  0.5812 -0.1665 -0.1672
  643TMC3    O1 9528   2.218   3.542  17.477  0.1907 -0.3376  0.6168
  643TMC3    O2 9529   1.719   3.637  17.336  0.0061  0.3664 -0.2503
  644MPD2     C 9530   2.482   3.846  10.079  0.2949 -0.2870  0.4096
  644MPD2    C1 9531   2.443   3.868   9.952  0.0492  0.4131 -0.4733
  644MPD2    C2 9532   2.387   3.987   9.910  0.1836 -1.0604  0.0950
  644MPD2    C3 9533   2.384   4.089  10.002 -0.7955  0.2434 -0.5926
  644MPD2    C4 9534   2.424   4.069  10.131 -0.6047 -0.3160  0.3915
  644MPD2    C5 9535   2.467   3.949  10.168  0.2331 -0.2042  0.4010
  644MPD2     H 9536   2.356   4.002   9.807  1.5602 -2.3137 -0.5140
  644MPD2    H1 9537   2.403   4.133  10.216  1.1915  0.5598  0.1590
  644MPD2    H2 9538   2.517   3.750  10.115 -2.7447 -1.6975 -0.3857
  644MPD2    H3 9539   2.487   3.926  10.272 -2.9262 -1.2544  0.7904
  644MPD2     N 9540   2.334   4.212   9.950 -0.5030 -0.7370  0.1149
  644MPD2    H5 9541   2.285   4.216   9.861 -1.0249  1.0734  0.4935
  644MPD2    N1 9542   2.464   3.762   9.855 -0.4259 -0.1054 -0.1976
  644MPD2    H7 9543   2.504   3.676   9.890 -0.6350  0.3686  1.2120
  645TMC3    C1 9544   2.257   4.434   9.966  0.0295 -0.5306 -0.1235
  645TMC3    C2 9545   2.193   4.512  10.055 -0.4473 -0.3653 -0.3775
  645TMC3    C3 9546   2.107   4.606  10.005  0.1350  0.0905 -0.3518
  645TMC3    C4 9547   2.249   4.451   9.829  0.2851  0.2704 -0.3691
  645TMC3    C5 9548   2.170   4.554   9.783 -0.0114 -0.6701 -0.4804
  645TMC3    C6 9549   2.097   4.633   9.873 -0.2065  0.2419  0.6428
  645TMC3     C 9550   2.319   4.324  10.029  0.2182  0.2313  0.2874
  645TMC3     O 9551   2.357   4.347  10.143 -0.1823 -0.7925  0.0986
  645TMC3     H 9552   2.194   4.489  10.161  0.5202 -1.1291 -0.5458
  645TMC3    H1 9553   2.306   4.396   9.756  4.0585  0.8282  2.1529
  645TMC3    H2 9554   2.030   4.704   9.826  0.4892 -0.4217 -1.3538
  645TMC3    C7 9555   2.158   4.586   9.646 -0.3220 -0.0701 -0.5743
  645TMC3    C8 9556   2.009   4.648  10.099  0.1372  0.0646  0.6854
  645TMC3    O1 9557   2.188   4.697   9.606  0.6306 -0.2776  0.1244
  645TMC3    O2 9558   2.028   4.623  10.217  0.3508  0.3658 -0.2191
  646MPD2     C 9559   1.753   3.298  14.453  0.3045  0.1792 -0.0008
  646MPD2    C1 9560   1.653   3.261  14.543 -0.7068  0.6526  0.5988
  646MPD2    C2 9561   1.543   3.340  14.542  0.0485 -0.6249  0.4039
  646MPD2    C3 9562   1.527   3.439  14.446  0.0536 -0.9941  0.1060
  646MPD2    C4 9563   1.628   3.464  14.354  0.3600  0.6942  0.3465
  646MPD2    C5 9564   1.744   3.400  14.370  0.4610  0.1450  0.5144
  646MPD2     H 9565   1.464   3.334  14.617 -0.1094 -2.3741  0.0926
  646MPD2    H1 9566   1.616   3.533  14.272  0.3638  0.1923 -0.0734
  646MPD2    H2 9567   1.851   3.252  14.465  0.7682  1.1075 -0.2316
  646MPD2    H3 9568   1.831   3.419  14.309  0.8008  0.7575  1.1979
  646MPD2     N 9569   1.402   3.495  14.432 -0.1725  0.2813  1.0718
  646MPD2    H5 9570   1.323   3.444  14.471 -0.5027  0.7074  0.9728
  646MPD2    N1 9571   1.685   3.160  14.634  0.5223  0.4223 -0.2753
  646MPD2    H7 9572   1.784   3.137  14.641  0.9765  1.6344 -2.9078
  647TMC3    C1 9573   1.660   3.006  14.811 -0.1048  0.3333  0.0198
  647TMC3    C2 9574   1.570   2.908  14.849 -0.1401 -0.7546  0.1561
  647TMC3    C3 9575   1.627   2.793  14.897  0.2793  0.0173 -0.8843
  647TMC3    C4 9576   1.797   3.005  14.822 -0.1137  0.5163 -0.1083
  647TMC3    C5 9577   1.846   2.885  14.873 -1.1035 -0.0459  0.1263
  647TMC3    C6 9578   1.765   2.777  14.908  0.3174 -0.3288  0.0420
  647TMC3     C 9579   1.598   3.099  14.722 -0.1890 -0.2479 -0.2643
  647TMC3     O 9580   1.478   3.129  14.741 -0.3167  0.3855  0.1377
  647TMC3     H 9581   1.464   2.911  14.830 -0.1768  0.1997  0.5020
  647TMC3    H1 9582   1.869   3.075  14.781  0.6343  0.6915  1.5144
  647TMC3    H2 9583   1.807   2.684  14.945 -0.5123 -1.0416 -0.7955
  647TMC3    C7 9584   1.989   2.864  14.852  0.3603 -0.3767  0.6020
  647TMC3    C8 9585   1.543   2.682  14.918 -0.1216  0.1981  0.3333
  647TMC3    O1 9586   2.017   2.749  14.827  0.3387 -0.4099 -0.3655
  647TMC3    O2 9587   1.599   2.580  14.941  0.5332 -0.3436  0.1635
  648TMC3    C1 9588   0.776   0.460  16.214  0.3283  0.0399  0.4896
  648TMC3    C2 9589   0.766   0.329  16.184 -0.5902  0.4267 -0.1571
  648TMC3    C3 9590   0.693   0.297  16.071 -0.1935  0.9930  0.4529
  648TMC3    C4 9591   0.735   0.560  16.131  0.0693 -0.6250  0.0677
  648TMC3    C5 9592   0.667   0.525  16.014  0.1168  1.1311 -0.0466
  648TMC3    C6 9593   0.646   0.393  15.987 -0.4625 -0.1066  0.1432
  648TMC3     C 9594   0.811   0.512  16.346  0.1313 -0.2951 -0.4819
  648TMC3     O 9595   0.879   0.614  16.353 -0.2174 -0.6351 -0.0210
  648TMC3     H 9596   0.787   0.249  16.254  2.3082  1.7765  0.5040
  648TMC3    H1 9597   0.766   0.662  16.152  0.7352 -0.8798  0.3048
  648TMC3    H2 9598   0.593   0.365  15.897  3.1040 -2.5005 -1.2071
  648TMC3    C7 9599   0.616   0.622  15.924  0.3664 -0.1149 -0.7295
  648TMC3    C8 9600   0.714   0.175  15.998 -0.0340 -0.2026  0.4999
  648TMC3    O1 9601   0.564   0.596  15.817  0.4210  0.0656  0.7593
  648TMC3    O2 9602   0.624   0.132  15.928 -0.1286 -0.0478  0.6937
  649TMC3    C1 9603   4.201   2.460  12.987  0.2407 -0.1888  0.3103
  649TMC3    C2 9604   4.189   2.421  12.856  0.6667 -0.4426  0.1587
  649TMC3    C3 9605   4.234   2.295  12.830 -0.7750 -0.3755 -0.7715
  649TMC3    C4 9606   4.257   2.381  13.086  0.1127 -0.2099  0.2575
  649TMC3    C5 9607   4.321   2.261  13.049 -0.3402 -0.4859 -0.3353
  649TMC3    C6 9608   4.301   2.216  12.926 -0.0676 -0.3562 -0.0373
  649TMC3     C 9609   4.116   2.574  13.028  0.2977 -0.0364 -0.4669
  649TMC3     O 9610   4.112   2.618  13.142 -0.4181 -0.2189 -0.2574
  649TMC3     H 9611   4.168   2.490  12.775  1.9501  1.1975  1.2373
  649TMC3    H1 9612   4.282   2.424  13.183  3.2911  2.0041 -1.5721
  649TMC3    H2 9613   4.324   2.115  12.895  0.3354  0.1363 -1.3472
  649TMC3    C7 9614   4.344   2.159  13.147 -0.1899  0.6335  0.6141
  649TMC3    C8 9615   4.257   2.252  12.692 -0.0416 -0.5273  0.0078
  649TMC3    O1 9616   4.320   2.184  13.262 -0.2939  0.2255 -0.1091
  649TMC3    O2 9617   4.354   2.184  12.664  0.5220  0.0525  0.5991
  650TMC3    C1 9618   2.712   3.728  12.699 -0.0022 -0.1586 -0.2639
  650TMC3    C2 9619   2.738   3.859  12.709 -0.0791 -0.0826  0.1671
  650TMC3    C3 9620   2.715   3.943  12.604  0.0592 -0.0883  0.0189
  650TMC3    C4 9621   2.668   3.676  12.581 -0.1706  0.1548  0.2583
  650TMC3    C5 9622   2.643   3.762  12.477 -0.4747 -0.6102 -0.0106
  650TMC3    C6 9623   2.661   3.897  12.486  0.7045 -0.2826  0.0948
  650TMC3     C 9624   2.705   3.651  12.825 -0.5969  0.7195 -0.2545
  650TMC3     O 9625   2.684   3.716  12.924 -0.5263  0.5356  0.2781
  650TMC3     H 9626   2.783   3.894  12.801  1.3087 -0.3730 -0.4036
  650TMC3    H1 9627   2.640   3.572  12.564  2.4482 -1.0002  3.0168
  650TMC3    H2 9628   2.634   3.965  12.406  0.9897  0.4992  0.6668
  650TMC3    C7 9629   2.593   3.707  12.355 -0.6012 -0.2561 -0.2780
  650TMC3    C8 9630   2.693   4.093  12.617  0.6784 -0.2787 -0.0292
  650TMC3    O1 9631   2.591   3.585  12.348  0.5059 -0.0991  0.4233
  650TMC3    O2 9632   2.667   4.150  12.511 -0.5382  0.2807 -0.0484
  651MPD2     C 9633   1.412   0.388  10.683 -0.3482  0.6736  0.4006
  651MPD2    C1 9634   1.408   0.504  10.754  0.3954  0.0258 -0.1197
  651MPD2    C2 9635   1.527   0.555  10.802 -0.1601 -0.1257  0.5295
  651MPD2    C3 9636   1.646   0.486  10.789  0.9489  0.7715  0.5869
  651MPD2    C4 9637   1.650   0.370  10.724 -0.0428  0.6466 -0.4405
  651MPD2    C5 9638   1.532   0.325  10.651 -0.4488  0.2848  0.6016
  651MPD2     H 9639   1.527   0.640  10.870 -0.7537  0.8198 -0.6351
  651MPD2    H1 9640   1.745   0.318  10.716 -0.2764  0.2318 -0.5293
  651MPD2    H2 9641   1.320   0.363  10.631 -2.5109  1.7586  3.7216
  651MPD2    H3 9642   1.530   0.240  10.583  0.3483  1.2073 -0.5548
  651MPD2     N 9643   1.752   0.543  10.861 -0.2134  0.2662  0.0657
  651MPD2    H5 9644   1.732   0.619  10.925 -0.1650  1.7889 -1.7341
  651MPD2    N1 9645   1.287   0.575  10.781 -0.0391  0.4576 -0.4893
  651MPD2    H7 9646   1.301   0.666  10.822 -0.1100  0.6411 -0.8701
  652TMC3    C1 9647   2.138   0.776  10.932  0.0797  0.1828  0.3944
  652TMC3    C2 9648   2.077   0.671  10.858 -0.2147 -0.0429  0.1845
  652TMC3    C3 9649   1.965   0.615  10.919 -0.9602  0.0265 -0.3498
  652TMC3    C4 9650   2.095   0.810  11.060 -0.4307 -0.2378 -0.3822
  652TMC3    C5 9651   1.990   0.741  11.114 -0.7843 -0.1375 -0.4177
  652TMC3    C6 9652   1.925   0.649  11.044  0.1187  0.2920  0.1278
  652TMC3     C 9653   2.214   0.876  10.855  0.3499 -0.1707  0.3654
  652TMC3     O 9654   2.190   0.886  10.739  0.3462 -0.9183 -0.6732
  652TMC3     H 9655   2.108   0.652  10.756  2.0604 -1.1065  1.0646
  652TMC3    H1 9656   2.131   0.900  11.109  0.1621 -0.9742  0.5256
  652TMC3    H2 9657   1.837   0.602  11.085 -0.7480  0.4071 -1.5715
  652TMC3    C7 9658   1.917   0.800  11.233 -0.4233 -0.0991 -0.5607
  652TMC3    C8 9659   1.887   0.525  10.840  0.0462 -0.0846 -0.3177
  652TMC3    O1 9660   1.858   0.722  11.310 -0.2548  0.5851 -0.7636
  652TMC3    O2 9661   1.944   0.470  10.742  0.0869  0.1624  0.0894
  653MPD2     C 9662   0.306   0.758   0.073 -0.9642 -0.4805 -0.0020
  653MPD2    C1 9663   0.253   0.865   0.003  0.0207 -0.3005 -0.3917
  653MPD2    C2 9664   0.176   0.842  17.577 -0.2485 -0.3544  0.0907
  653MPD2    C3 9665   0.150   0.715  17.531  0.0586 -0.1582  0.5817
  653MPD2    C4 9666   0.209   0.611  17.598  0.2532  0.9412 -0.5510
  653MPD2    C5 9667   0.278   0.632   0.032  0.0602 -0.1076 -0.1227
  653MPD2     H 9668   0.129   0.924  17.524  0.4499 -0.1221 -0.1714
  653MPD2    H1 9669   0.202   0.505  17.578  1.6847  0.7094  0.1754
  653MPD2    H2 9670   0.359   0.771   0.167 -1.6117 -0.3791  0.3445
  653MPD2    H3 9671   0.318   0.555   0.097 -0.5172  0.3765  0.8024
  653MPD2     N 9672   0.068   0.700  17.420  0.1763  0.2536 -0.0024
  653MPD2    H5 9673   0.048   0.779  17.360 -0.6122  1.5020  1.8991
  653MPD2    N1 9674   0.257   0.997   0.051  0.3027 -0.0522  0.0756
  653MPD2    H7 9675   0.244   1.071  17.664 -0.7567 -0.1557  0.1726
  654TMC3    C1 9676   4.680   0.586  17.256  0.8533 -0.2371  0.5450
  654TMC3    C2 9677   4.634   0.704  17.201  0.3412  0.8740 -0.0616
  654TMC3    C3 9678   4.576   0.696  17.076 -0.0628 -0.0413  0.0345
  654TMC3    C4 9679   4.688   0.469  17.188 -0.3746  0.7885 -0.0784
  654TMC3    C5 9680   4.618   0.463  17.075  0.4613 -0.3646  0.1471
  654TMC3    C6 9681   4.573   0.572  17.010  0.8090 -0.4352 -0.4949
  654TMC3     C 9682   0.013   0.581  17.390 -0.3631 -0.9944 -0.4639
  654TMC3     O 9683   0.001   0.478  17.455 -0.5511  0.5870  0.1671
  654TMC3     H 9684   4.637   0.797  17.256  1.2919  1.1725 -0.6350
  654TMC3    H1 9685   0.002   0.379  17.240 -0.3172  1.1127  0.4445
  654TMC3    H2 9686   4.513   0.553  16.922  0.4620  0.4150 -0.4428
  654TMC3    C7 9687   4.624   0.332  17.005 -0.0972 -0.3345 -0.0836
  654TMC3    C8 9688   4.465   0.780  17.051  0.1525  0.5038  0.3910
  654TMC3    O1 9689   4.627   0.338  16.880  0.2624  0.2498  0.1260
  654TMC3    O2 9690   4.403   0.825  17.145 -0.1492 -0.1104  0.1571
  655MPD2     C 9691   1.334   0.690  15.864 -0.2316  0.1936 -0.8477
  655MPD2    C1 9692   1.320   0.794  15.776 -0.4300 -0.9832  0.0903
  655MPD2    C2 9693   1.362   0.771  15.644 -0.2883 -0.3012 -0.0754
  655MPD2    C3 9694   1.405   0.646  15.596 -0.5546  0.2255  0.2546
  655MPD2    C4 9695   1.406   0.546  15.692  0.6884  0.8041  0.0614
  655MPD2    C5 9696   1.367   0.563  15.819  0.5718 -0.6247  0.3320
  655MPD2     H 9697   1.361   0.861  15.583 -2.1015 -0.7733 -0.7499
  655MPD2    H1 9698   1.421   0.445  15.656  0.4627 -0.0072  2.2661
  655MPD2    H2 9699   1.306   0.694  15.968 -0.1754  1.0805 -0.8644
  655MPD2    H3 9700   1.376   0.486  15.895 -0.2293 -2.1924 -1.1763
  655MPD2     N 9701   1.429   0.606  15.463 -0.1833  0.3235 -0.7327
  655MPD2    H5 9702   1.437   0.506  15.452  1.0376  0.2071  1.2861
  655MPD2    N1 9703   1.259   0.921  15.807 -0.1520  0.3176  0.7511
  655MPD2    H7 9704   1.264   0.995  15.737 -3.2513  0.8002  1.0491
  656TMC3    C1 9705   1.109   1.065  15.929 -0.4043  0.0170  0.0969
  656TMC3    C2 9706   1.053   1.100  16.050  0.0673  0.1555 -0.6346
  656TMC3    C3 9707   0.958   1.194  16.048  0.2300  0.9811  0.4688
  656TMC3    C4 9708   1.075   1.120  15.815  0.4248  0.2885 -0.2355
  656TMC3    C5 9709   0.979   1.222  15.820 -0.3183  0.6247  0.0750
  656TMC3    C6 9710   0.914   1.256  15.935  0.7506 -0.3750 -0.4140
  656TMC3     C 9711   1.200   0.957  15.930 -0.3566  0.7142  0.3974
  656TMC3     O 9712   1.209   0.897  16.033  0.3091 -0.2669 -0.2063
  656TMC3     H 9713   1.118   1.068  16.131  1.1619  0.8911 -1.2198
  656TMC3    H1 9714   1.114   1.087  15.719 -1.2741  0.7560 -1.0902
  656TMC3    H2 9715   0.846   1.340  15.952  1.4036 -0.1918  1.2476
  656TMC3    C7 9716   0.928   1.261  15.696 -0.2485 -0.4594  0.7925
  656TMC3    C8 9717   0.907   1.239  16.179 -0.2385 -0.6366 -0.2912
  656TMC3    O1 9718   0.972   1.199  15.601 -0.1148 -0.4014  0.6256
  656TMC3    O2 9719   0.876   1.355  16.185  0.0511 -0.4823  0.2562
  657TMC3    C1 9720   1.090   0.366  14.641 -0.0402  0.6809 -0.5403
  657TMC3    C2 9721   0.981   0.321  14.708  0.4565  1.0086 -0.4173
  657TMC3    C3 9722   0.862   0.329  14.645  0.0980  0.1843 -0.1383
  657TMC3    C4 9723   1.087   0.436  14.527 -0.3359 -0.9107  0.0728
  657TMC3    C5 9724   0.965   0.462  14.479 -0.6051  0.5074  0.4387
  657TMC3    C6 9725   0.857   0.390  14.522  0.1166  1.1889 -0.1128
  657TMC3     C 9726   1.219   0.369  14.702 -0.1658  0.2117  0.3286
  657TMC3     O 9727   1.296   0.459  14.662  0.0407 -0.1232 -0.2196
  657TMC3     H 9728   0.996   0.278  14.806 -1.6770  1.1173 -0.0434
  657TMC3    H1 9729   1.172   0.471  14.468  0.9580  0.6076  2.8449
  657TMC3    H2 9730   0.770   0.396  14.457 -0.1439  0.5679  0.1820
  657TMC3    C7 9731   0.965   0.528  14.346  0.3651 -0.2371  0.2639
  657TMC3    C8 9732   0.736   0.289  14.707  0.3449  0.4178  0.3545
  657TMC3    O1 9733   1.073   0.530  14.284  0.3360 -0.4901 -0.2689
  657TMC3    O2 9734   0.635   0.317  14.650  0.6936 -0.1818 -0.2392
  658MPD2     C 9735   1.829   0.980  14.947  0.3681 -0.0054  0.1971
  658MPD2    C1 9736   1.708   0.962  14.893  1.2462 -0.5287  0.1728
  658MPD2    C2 9737   1.676   1.031  14.781 -0.5270  0.1651 -0.1630
  658MPD2    C3 9738   1.762   1.136  14.736 -0.5068 -0.2861 -0.2744
  658MPD2    C4 9739   1.875   1.164  14.799 -0.3216  0.3593 -0.2290
  658MPD2    C5 9740   1.911   1.079  14.903 -0.2758  0.0215 -0.3240
  658MPD2     H 9741   1.589   1.006  14.721 -0.6864 -1.4233  0.7422
  658MPD2    H1 9742   1.938   1.246  14.765  0.4650  0.0395  0.4555
  658MPD2    H2 9743   1.866   0.911  15.021  0.0705 -1.9018 -1.4183
  658MPD2    H3 9744   2.009   1.087  14.949 -0.8186  1.0363  0.6607
  658MPD2     N 9745   1.717   1.207  14.623 -0.0356 -0.0409  0.2871
  658MPD2    H5 9746   1.628   1.176  14.587 -0.1205 -0.1549  0.5931
  658MPD2    N1 9747   1.629   0.855  14.943 -0.1794 -0.2574 -0.8191
  658MPD2    H7 9748   1.668   0.800  15.020 -0.3980  0.4634 -0.1934
  659TMC3    C1 9749   1.449   0.715  15.011  0.6216  0.1658  0.2417
  659TMC3    C2 9750   1.502   0.715  15.140  0.2732  0.1507 -0.1162
  659TMC3    C3 9751   1.439   0.639  15.235 -0.6373 -0.4745  0.1539
  659TMC3    C4 9752   1.335   0.645  14.971  0.4610 -0.9789 -0.0629
  659TMC3    C5 9753   1.272   0.575  15.073 -0.7972 -0.5120  0.4800
  659TMC3    C6 9754   1.324   0.570  15.203 -0.0845 -0.1988 -0.2499
  659TMC3     C 9755   1.497   0.820  14.914 -0.0343  0.9172  0.6654
  659TMC3     O 9756   1.422   0.853  14.820 -0.4503  0.2920 -0.1748
  659TMC3     H 9757   1.583   0.783  15.166  1.1552 -0.5629 -1.0195
  659TMC3    H1 9758   1.296   0.641  14.869 -0.9124  1.3178  0.3737
  659TMC3    H2 9759   1.269   0.532  15.288  1.7089 -0.3535  0.8522
  659TMC3    C7 9760   1.135   0.536  15.062  0.6631  0.2612 -0.0264
  659TMC3    C8 9761   1.429   0.699  15.362 -0.4908  0.1917 -0.0166
  659TMC3    O1 9762   1.088   0.455  15.137 -0.0589  0.3044  0.1376
  659TMC3    O2 9763   1.444   0.820  15.370  0.0655 -0.0419 -0.5361
  660MPD2     C 9764   4.447   4.236  12.867 -0.2825 -0.6198 -1.1298
  660MPD2    C1 9765   4.318   4.284  12.843  0.0262  0.1415 -0.4587
  660MPD2    C2 9766   4.210   4.238  12.922  0.0722  0.1944 -0.8804
  660MPD2    C3 9767   4.236   4.158  13.038  0.1945 -0.2513 -0.2712
  660MPD2    C4 9768   4.365   4.107  13.057  0.7778 -1.0016  0.1243
  660MPD2    C5 9769   4.466   4.143  12.973 -0.2425 -0.0795  0.3419
  660MPD2     H 9770   4.109   4.255  12.886 -0.5927 -0.4054  0.7329
  660MPD2    H1 9771   4.398   4.053  13.145  3.0354  1.3057  0.6807
  660MPD2    H2 9772   4.536   4.268  12.814  1.1165 -2.6567 -0.0410
  660MPD2    H3 9773   4.563   4.097  12.991 -0.1133 -0.6191 -1.7292
  660MPD2     N 9774   4.132   4.127  13.131  0.3790 -0.0305  0.2723
  660MPD2    H5 9775   4.169   4.079  13.212  0.7829 -1.4819 -0.7730
  660MPD2    N1 9776   4.301   4.359  12.721 -0.5039  0.2187 -0.0792
  660MPD2    H7 9777   4.387   4.365  12.668 -0.7261 -1.4051 -0.6087
  661TMC3    C1 9778   4.215   4.466  12.539  0.1560 -0.0536  0.0303
  661TMC3    C2 9779   4.301   4.404  12.453 -0.0278 -0.2923 -0.6253
  661TMC3    C3 9780   4.286   4.435  12.323  0.7933 -0.6318  0.0629
  661TMC3    C4 9781   4.126   4.554  12.495 -0.1722  0.7802 -0.1108
  661TMC3    C5 9782   4.093   4.560  12.364 -0.4551 -0.8988  0.3023
  661TMC3    C6 9783   4.181   4.506  12.269 -0.8533  0.0471  0.1019
  661TMC3     C 9784   4.194   4.418  12.675  0.7299  0.1608  0.6516
  661TMC3     O 9785   4.087   4.419  12.729 -0.3231 -0.8886  0.0384
  661TMC3     H 9786   4.375   4.333  12.489 -0.5637 -0.0729  0.9190
  661TMC3    H1 9787   4.071   4.602  12.575 -1.0096 -0.8265  0.2737
  661TMC3    H2 9788   4.174   4.525  12.163  0.4695 -0.3426 -0.0499
  661TMC3    C7 9789   4.007   4.674  12.319  0.2061 -0.2451 -0.0139
  661TMC3    C8 9790   4.399   4.401  12.231  0.1542 -0.8996  0.1258
  661TMC3    O1 9791   4.003   0.050  12.394  0.2128  0.3789  0.5810
  661TMC3    O2 9792   4.371   4.370  12.117 -0.2549  0.1910 -0.3993
  662MPD2     C 9793   4.234   4.502   0.198 -0.2795 -0.3293 -0.3168
  662MPD2    C1 9794   4.251   4.376   0.262 -0.9253  0.4688  0.1829
  662MPD2    C2 9795   4.273   4.382   0.398  0.2378 -0.0012 -0.6778
  662MPD2    C3 9796   4.251   4.499   0.473  0.3174  0.5166  0.7598
  662MPD2    C4 9797   4.224   4.618   0.408  0.0882  0.3001 -0.4539
  662MPD2    C5 9798   4.214   4.616   0.275  0.2722 -0.1082  0.4810
  662MPD2     H 9799   4.289   4.284   0.441  1.7317  0.5210 -0.0492
  662MPD2    H1 9800   4.218   4.715   0.456 -0.1753  0.0712 -0.0268
  662MPD2    H2 9801   4.235   4.522   0.092 -0.5776 -2.5625 -0.7457
  662MPD2    H3 9802   4.193   4.707   0.220  0.0431 -0.4500  0.0086
  662MPD2     N 9803   4.249   4.502   0.613 -0.4390  0.6701 -0.0885
  662MPD2    H5 9804   4.212   4.584   0.659 -0.2578  0.7033 -0.0043
  662MPD2    N1 9805   4.270   4.248   0.202 -0.2691  0.6408  0.4161
  662MPD2    H7 9806   4.290   4.180   0.274 -0.1494  2.2873  1.9392
  663TMC3    C1 9807   4.311   4.077   0.042  0.2162  0.2854 -0.3560
  663TMC3    C2 9808   4.388   4.012   0.134 -0.1774 -0.1559 -0.4886
  663TMC3    C3 9809   4.465   3.900   0.103  0.0556  0.5099 -0.1263
  663TMC3    C4 9810   4.279   4.022  17.602  0.0415  0.0155  0.5645
  663TMC3    C5 9811   4.340   3.905  17.578 -0.6960 -0.0158 -0.1553
  663TMC3    C6 9812   4.435   3.845  17.662 -1.5280  0.3989  0.9188
  663TMC3     C 9813   4.258   4.209   0.069  0.8644  0.2973 -1.1500
  663TMC3     O 9814   4.225   4.271  17.651  0.3766  0.3735 -0.1263
  663TMC3     H 9815   4.429   4.071   0.215 -1.5054  0.6398 -0.3955
  663TMC3    H1 9816   4.219   4.073  17.527  0.6855 -1.2181 -0.7949
  663TMC3    H2 9817   4.477   3.749  17.634  1.9337  2.2150 -0.1892
  663TMC3    C7 9818   4.257   3.827  17.490 -0.4003 -0.2357 -0.2869
  663TMC3    C8 9819   4.477   3.793   0.200  0.2969 -0.3201 -0.2802
  663TMC3    O1 9820   4.243   3.868  17.377  0.0027 -0.2032 -0.4344
  663TMC3    O2 9821   4.552   3.699   0.175  0.1222  0.2042 -0.2967
  664MPD2     C 9822   2.578   1.819  17.568 -0.6027 -0.2249 -0.2808
  664MPD2    C1 9823   2.572   1.959  17.585  0.0325 -0.5598  0.4151
  664MPD2    C2 9824   2.571   2.009   0.032 -1.1050 -0.0878  0.6041
  664MPD2    C3 9825   2.572   1.925   0.142  0.4928  0.2647  0.4311
  664MPD2    C4 9826   2.573   1.792   0.123  0.7115  0.6334 -0.8468
  664MPD2    C5 9827   2.577   1.739  17.676  0.0547  0.3704  0.5302
  664MPD2     H 9828   2.564   2.117   0.036  0.7664  0.1318 -1.7472
  664MPD2    H1 9829   2.564   1.727   0.209  2.2444  1.4864 -0.0366
  664MPD2    H2 9830   2.594   1.766  17.475  1.1404  0.4875 -0.3908
  664MPD2    H3 9831   2.593   1.632  17.666 -0.6459  0.5683 -2.4688
  664MPD2     N 9832   2.577   1.978   0.274  0.4663 -0.5892 -0.2913
  664MPD2    H5 9833   2.560   2.077   0.289 -0.4567 -0.6434 -0.9811
  664MPD2    N1 9834   2.562   2.049  17.475  0.0411 -0.0942  0.3421
  664MPD2    H7 9835   2.548   2.149  17.485  1.8132  0.2909 -1.0527
  665TMC3    C1 9836   2.582   1.988   0.511  0.7438  0.4173  0.7629
  665TMC3    C2 9837   2.595   1.929   0.628 -0.5373 -0.2030  0.7008
  665TMC3    C3 9838   2.521   1.973   0.736  0.2777  0.0320  0.6529
  665TMC3    C4 9839   2.511   2.107   0.498 -0.2532 -0.4571  0.6432
  665TMC3    C5 9840   2.458   2.156   0.611  0.0431 -0.2740 -0.1484
  665TMC3    C6 9841   2.443   2.087   0.730 -0.1130 -0.0948 -0.0836
  665TMC3     C 9842   2.607   1.908   0.389 -0.1164  0.2560  0.7649
  665TMC3     O 9843   2.655   1.796   0.398 -0.2144 -0.3086  0.3881
  665TMC3     H 9844   2.637   1.829   0.634 -0.5338 -0.1032  2.3735
  665TMC3    H1 9845   2.512   2.164   0.406  1.9499  1.5421  1.9091
  665TMC3    H2 9846   2.396   2.122   0.821 -0.3427  2.6144 -1.2426
  665TMC3    C7 9847   2.386   2.281   0.604 -0.4104  0.2880 -0.7295
  665TMC3    C8 9848   2.539   1.909   0.868  0.1559 -0.3335 -0.7244
  665TMC3    O1 9849   2.356   2.325   0.497  0.6186 -0.8881 -0.3134
  665TMC3    O2 9850   2.476   1.947   0.967  0.2431 -0.2333  0.5092
  666TMC3    C1 9851   1.777   1.923  10.218  0.4144  0.8683  0.6693
  666TMC3    C2 9852   1.850   1.859  10.315  0.7122 -0.8472  0.1113
  666TMC3    C3 9853   1.945   1.931  10.380  0.2532  0.3659 -0.1117
  666TMC3    C4 9854   1.793   2.059  10.186 -0.2360 -0.6646 -0.2077
  666TMC3    C5 9855   1.884   2.130  10.259  0.3843  0.3029 -0.1443
  666TMC3    C6 9856   1.964   2.067  10.348  0.0178 -0.7829 -0.8816
  666TMC3     C 9857   1.673   1.860  10.134  0.6602 -0.5526 -0.4799
  666TMC3     O 9858   1.654   1.913  10.028  0.0092  0.2833  0.4444
  666TMC3     H 9859   1.826   1.756  10.339 -0.7998 -0.6426 -0.4757
  666TMC3    H1 9860   1.739   2.114  10.111  2.0763  1.1456 -0.5617
  666TMC3    H2 9861   2.020   2.127  10.419  0.4661  0.7367 -2.5122
  666TMC3    C7 9862   1.879   2.272  10.258  0.1109  0.6213  0.0793
  666TMC3    C8 9863   1.981   1.886  10.510 -1.1019  0.4373 -0.1889
  666TMC3    O1 9864   1.768   2.321  10.244  0.9351  0.1194  0.3083
  666TMC3    O2 9865   1.921   1.794  10.561  0.8030 -0.0247  0.5952
  667MPD2     C 9866   3.169   2.628  14.493 -0.3947  0.2256  0.8576
  667MPD2    C1 9867   3.212   2.498  14.513  0.2757 -0.0281  0.3839
  667MPD2    C2 9868   3.139   2.399  14.446 -0.0708  0.2829  0.1106
  667MPD2    C3 9869   3.043   2.438  14.350 -0.0833  0.0088 -0.4663
  667MPD2    C4 9870   3.002   2.566  14.337 -0.3735  0.3581  0.3486
  667MPD2    C5 9871   3.068   2.661  14.413 -0.8293 -0.3411  0.3168
  667MPD2     H 9872   3.185   2.302  14.455 -3.0766 -1.3174 -1.7674
  667MPD2    H1 9873   2.904   2.597  14.300 -0.0640 -0.2293 -0.9769
  667MPD2    H2 9874   3.207   2.715  14.545 -1.3766  0.1878  1.6247
  667MPD2    H3 9875   3.028   2.761  14.426  1.1375  0.7356 -1.9441
  667MPD2     N 9876   2.962   2.345  14.286 -0.1632 -0.2535  0.0756
  667MPD2    H5 9877   2.878   2.373  14.237  0.5789 -0.5157 -1.3722
  667MPD2    N1 9878   3.311   2.467  14.607  0.1271  0.4000  0.1396
  667MPD2    H7 9879   3.319   2.370  14.636  0.1575  0.0807 -0.9179
  668TMC3    C1 9880   3.477   2.531  14.760 -0.4761 -0.3388 -0.0692
  668TMC3    C2 9881   3.533   2.632  14.836 -1.2687  0.3014  0.6402
  668TMC3    C3 9882   3.610   2.600  14.944 -0.3790 -0.5231  0.2458
  668TMC3    C4 9883   3.498   2.397  14.798 -0.7322  0.2062 -0.2990
  668TMC3    C5 9884   3.566   2.377  14.917  0.0448 -0.3413 -0.0190
  668TMC3    C6 9885   3.632   2.471  14.984 -0.4239 -0.5461 -0.1956
  668TMC3     C 9886   3.399   2.560  14.648 -0.2599 -0.4830  0.1028
  668TMC3     O 9887   3.414   2.676  14.612 -0.6337 -0.0781 -1.0011
  668TMC3     H 9888   3.501   2.734  14.821  3.8891  1.3720 -2.8835
  668TMC3    H1 9889   3.445   2.317  14.748  0.3352  0.1780 -1.3903
  668TMC3    H2 9890   3.685   2.453  15.077 -0.2387  3.3047  0.4336
  668TMC3    C7 9891   3.582   2.238  14.954  0.5883 -0.6255 -0.5796
  668TMC3    C8 9892   3.627   2.705  15.042 -0.6788  1.2284  0.1448
  668TMC3    O1 9893   3.536   2.159  14.875 -0.5456  0.2912  0.6177
  668TMC3    O2 9894   3.614   2.674  15.162 -0.0160  0.2589 -0.0645
  669TMC3    C1 9895   1.449   2.173  14.848 -0.4628 -0.2023  0.5237
  669TMC3    C2 9896   1.331   2.241  14.830  0.4023 -0.5140  0.9299
  669TMC3    C3 9897   1.332   2.336  14.732  0.0177  0.1763  0.2156
  669TMC3    C4 9898   1.572   2.203  14.790  0.4467 -0.6273 -0.4245
  669TMC3    C5 9899   1.570   2.310  14.702 -0.3852  0.0234  0.5747
  669TMC3    C6 9900   1.447   2.379  14.670 -0.8172  0.2761 -0.0813
  669TMC3     C 9901   1.432   2.072  14.949  0.6580 -0.6016  0.1279
  669TMC3     O 9902   1.322   2.022  14.971 -0.2982  0.2504 -0.2126
  669TMC3     H 9903   1.239   2.199  14.871 -0.8507  0.2248 -1.1567
  669TMC3    H1 9904   1.663   2.154  14.822  1.2488  1.4538  0.4415
  669TMC3    H2 9905   1.452   2.466  14.606 -0.6492 -0.6719 -1.3573
  669TMC3    C7 9906   1.694   2.366  14.654  0.7307 -0.2017  0.0455
  669TMC3    C8 9907   1.201   2.386  14.677  0.4130 -0.1356  0.2251
  669TMC3    O1 9908   1.672   2.459  14.576  0.4586 -0.2487 -0.6973
  669TMC3    O2 9909   1.212   2.426  14.561  0.2699 -0.4911  0.2172
  670MPD2     C 9910   4.097   0.125  13.796 -0.0362  0.0986  0.2060
  670MPD2    C1 9911   4.230   0.137  13.826  0.2525  0.3679 -0.3001
  670MPD2    C2 9912   4.270   0.156  13.958 -0.4399  0.0589  0.5670
  670MPD2    C3 9913   4.182   0.147  14.066  0.0758  0.0929  0.5355
  670MPD2    C4 9914   4.051   0.132  14.028 -0.1283  0.1667 -0.9388
  670MPD2    C5 9915   4.008   0.131  13.896  0.5814 -0.0456  0.4588
  670MPD2     H 9916   4.374   0.172  13.983  0.0082 -3.6765  0.9872
  670MPD2    H1 9917   3.973   0.129  14.102  1.0031 -0.2413  0.2286
  670MPD2    H2 9918   4.058   0.112  13.696 -1.2068  1.0319  0.5472
  670MPD2    H3 9919   3.900   0.123  13.883  0.6432  1.0066 -0.7011
  670MPD2     N 9920   4.230   0.155  14.197  0.3729  0.2022  0.7762
  670MPD2    H5 9921   4.331   0.162  14.206  0.6247 -0.4092 -1.6438
  670MPD2    N1 9922   4.330   0.137  13.724  0.2594 -0.5837 -0.0554
  670MPD2    H7 9923   4.428   0.142  13.751  0.5645  1.4177 -1.5126
  671TMC3    C1 9924   4.218   0.119  14.443  0.3195  0.2047 -0.0295
  671TMC3    C2 9925   4.356   0.138  14.459  0.2284  0.6186 -0.0406
  671TMC3    C3 9926   4.406   0.105  14.579  0.1608 -0.5959 -0.9169
  671TMC3    C4 9927   4.133   0.082  14.543  0.5890 -0.2774  0.0570
  671TMC3    C5 9928   4.194   0.059  14.671 -0.0717  0.5625  0.5355
  671TMC3    C6 9929   4.330   0.073  14.684 -0.2670 -0.1486 -0.4557
  671TMC3     C 9930   4.156   0.124  14.314 -0.3631  0.4965  0.1843
  671TMC3     O 9931   4.040   0.083  14.309  0.1260 -0.5198  0.1146
  671TMC3     H 9932   4.413   0.145  14.367  1.6277  1.7301  0.9169
  671TMC3    H1 9933   4.026   0.089  14.530  0.4358 -0.9391  0.9544
  671TMC3    H2 9934   4.380   0.067  14.779  0.1485  2.0118 -0.5355
  671TMC3    C7 9935   4.137   4.667  14.750 -0.4736 -0.1953  0.7722
  671TMC3    C8 9936   4.524   0.018  14.559 -0.5248 -0.7162  0.1775
  671TMC3    O1 9937   4.217   4.628  14.836  0.3815 -0.1698  0.1179
  671TMC3    O2 9938   4.519   4.630  14.613 -0.8514  0.8748  0.1194
  672MPD2     C 9939   0.685   0.500   0.739 -0.0420 -0.4536  0.5337
  672MPD2    C1 9940   0.645   0.411   0.834  0.6038  0.1357 -0.0563
  672MPD2    C2 9941   0.625   0.437   0.969  0.4603 -0.1836  0.0103
  672MPD2    C3 9942   0.668   0.563   1.014 -0.1666  0.3488  0.1183
  672MPD2    C4 9943   0.712   0.651   0.918  0.1133 -0.0561  0.3361
  672MPD2    C5 9944   0.724   0.625   0.786 -0.4659  0.0233  0.0921
  672MPD2     H 9945   0.575   0.365   1.033  0.6778 -0.3187  0.0292
  672MPD2    H1 9946   0.725   0.756   0.945 -0.4949 -0.4003  1.9469
  672MPD2    H2 9947   0.693   0.476   0.634 -0.8531  3.1106 -0.3320
  672MPD2    H3 9948   0.740   0.702   0.712 -0.9978  0.2801  0.2490
  672MPD2     N 9949   0.649   0.601   1.147 -0.5728 -0.0799  0.2521
  672MPD2    H5 9950   0.667   0.699   1.168  1.3645 -0.7800  1.8741
  672MPD2    N1 9951   0.621   0.279   0.777  0.0730  0.3114 -0.6444
  672MPD2    H7 9952   0.658   0.274   0.683  3.3199  1.7279  0.5904
  673TMC3    C1 9953   0.559   0.057   0.757  0.7148 -0.4167 -0.2461
  673TMC3    C2 9954   0.543   4.650   0.821  0.5079  0.2342  0.2505
  673TMC3    C3 9955   0.473   4.550   0.757  0.1735 -0.7904  0.5801
  673TMC3    C4 9956   0.526   0.072   0.623 -0.3320  0.2182  0.1809
  673TMC3    C5 9957   0.458   4.689   0.573 -0.2114 -0.5386 -0.5408
  673TMC3    C6 9958   0.426   4.568   0.631 -0.0265 -0.1960  0.7761
  673TMC3     C 9959   0.594   0.165   0.841  0.8569  0.0506  0.3897
  673TMC3     O 9960   0.563   0.150   0.960  0.0809  0.3075 -0.6165
  673TMC3     H 9961   0.576   4.653   0.924 -0.5520  0.6848  0.5751
  673TMC3    H1 9962   0.541   0.163   0.566  0.1586 -0.2702 -0.4728
  673TMC3    H2 9963   0.355   4.502   0.583  0.7833 -1.5225  1.4128
  673TMC3    C7 9964   0.396   4.713   0.445 -0.0265  0.5114 -0.0526
  673TMC3    C8 9965   0.413   4.435   0.831  0.0116  0.2633 -0.7661
  673TMC3    O1 9966   0.435   4.657   0.343  0.0302 -0.0785  0.2845
  673TMC3    O2 9967   0.319   4.371   0.789  0.3752 -0.2916  0.0795
  674MPD2     C 9968   4.228   0.634   0.332 -0.2258 -0.3657  0.2450
  674MPD2    C1 9969   4.215   0.518   0.404 -1.1782  0.0364 -0.1302
  674MPD2    C2 9970   4.105   0.507   0.480 -0.4436  0.0933  0.7048
  674MPD2    C3 9971   4.005   0.601   0.481 -0.0519  0.1506  0.2087
  674MPD2    C4 9972   4.031   0.726   0.428  0.4200  0.7933 -0.0090
  674MPD2    C5 9973   4.146   0.741   0.358 -0.1759  0.0446  0.0482
  674MPD2     H 9974   4.090   0.420   0.544  0.3395  0.7336  1.7517
  674MPD2    H1 9975   3.954   0.802   0.428  0.1910  0.5536  1.7751
  674MPD2    H2 9976   4.301   0.647   0.253 -0.0988  0.8067  0.5581
  674MPD2    H3 9977   4.161   0.840   0.315  1.5645 -0.2409  0.0129
  674MPD2     N 9978   3.887   0.571   0.560 -0.1571 -0.4750  0.2565
  674MPD2    H5 9979   3.881   0.480   0.605 -0.3061  0.0191  1.2312
  674MPD2    N1 9980   4.297   0.408   0.392  0.0206  0.0625 -0.3719
  674MPD2    H7 9981   4.293   0.342   0.469 -1.7201  0.5392 -0.0632
  675TMC3    C1 9982   4.425   0.241   0.277  0.0609 -0.1265  0.9505
  675TMC3    C2 9983   4.458   0.184   0.399  0.3300  0.1119  1.3426
  675TMC3    C3 9984   4.525   0.067   0.392  0.4052  0.5848 -0.0471
  675TMC3    C4 9985   4.454   0.182   0.158  0.3789 -0.6537 -0.5622
  675TMC3    C5 9986   4.529   0.069   0.157 -0.1432 -0.0208 -0.0038
  675TMC3    C6 9987   4.562   0.005   0.273 -0.4221  0.5086  0.4075
  675TMC3     C 9988   4.353   0.377   0.270  0.2741 -0.2053 -0.3086
  675TMC3     O 9989   4.338   0.435   0.165 -0.3242  1.0765 -0.2059
  675TMC3     H 9990   4.442   0.234   0.494 -3.3131  0.8160  0.3656
  675TMC3    H1 9991   4.436   0.232   0.064  2.4199  0.9131 -0.1383
  675TMC3    H2 9992   4.590   4.619   0.276 -0.3778  0.4516 -2.4752
  675TMC3    C7 9993   4.605   0.035   0.043 -0.3108  0.1259  0.0141
  675TMC3    C8 9994   4.608   0.022   0.507 -0.5938 -0.4836 -0.1012
  675TMC3    O1 9995   4.587   0.093  17.619 -0.6022 -0.0123  0.2623
  675TMC3    O2 9996   4.710   4.677   0.479 -0.1741 -0.0455 -0.0383
  676MPD2     C 9997   2.667   3.501  10.984  0.8727 -0.7663  0.1089
  676MPD2    C1 9998   2.552   3.469  11.055 -0.7238 -0.5794 -0.2086
  676MPD2    C2 9999   2.513   3.337  11.076 -0.0272 -0.5572 -0.4133
  676MPD2    C310000   2.594   3.233  11.022 -0.4714 -0.4726  0.1008
  676MPD2    C410001   2.704   3.268  10.944  0.7057  0.4595  0.1765
  676MPD2    C510002   2.744   3.399  10.937 -0.5267 -0.0195 -1.3003
  676MPD2     H10003   2.430   3.317  11.143  0.7187 -0.0388  0.6599
  676MPD2    H110004   2.770   3.193  10.902 -0.1671  1.1872 -2.4756
  676MPD2    H210005   2.697   3.602  10.957 -2.5732 -0.2164 -1.6113
  676MPD2    H310006   2.832   3.423  10.877 -0.5416  3.7558  0.1752
  676MPD2     N10007   2.556   3.091  11.026  0.0569  0.5963 -0.0756
  676MPD2    H510008   2.623   3.029  10.982  0.1807  0.2754  0.5603
  676MPD2    N110009   2.472   3.568  11.117 -0.3642 -0.2586 -0.6703
  676MPD2    H710010   2.385   3.543  11.163  1.5029 -4.0531  0.7888
  677TMC3    C110011   2.421   3.768  11.207  0.2104 -0.7161 -0.1592
  677TMC3    C210012   2.295   3.720  11.218  0.5783  0.2592 -0.7117
  677TMC3    C310013   2.226   3.759  11.325 -0.1203  0.8196  0.0614
  677TMC3    C410014   2.469   3.860  11.295  0.4976 -1.1934 -0.2978
  677TMC3    C510015   2.387   3.912  11.395  0.5390  0.2380 -0.2581
  677TMC3    C610016   2.267   3.854  11.417  0.9026  0.4861 -0.6457
  677TMC3     C10017   2.513   3.692  11.134  0.0271 -0.5373  0.2631
  677TMC3     O10018   2.626   3.739  11.117 -0.2079  0.1488 -0.2956
  677TMC3     H10019   2.242   3.668  11.139  3.2677 -3.3392 -0.1549
  677TMC3    H110020   2.573   3.892  11.291 -0.2413  1.4343  2.3103
  677TMC3    H210021   2.197   3.896  11.489  1.5102  2.1525 -1.0345
  677TMC3    C710022   2.450   3.935  11.526  0.3044 -0.1563 -0.3508
  677TMC3    C810023   2.111   3.685  11.375  0.1414 -0.4810  0.2794
  677TMC3    O110024   2.415   3.851  11.613 -0.0977 -0.5718  0.1925
  677TMC3    O210025   2.018   3.755  11.408 -0.9342  0.3919  0.3710
  678MPD2     C10026   3.280   3.284   1.713  0.3940  0.0893  0.4146
  678MPD2    C110027   3.332   3.198   1.620  0.6081 -0.0258 -0.2118
  678MPD2    C210028   3.243   3.129   1.529 -0.4412 -0.4364 -0.1410
  678MPD2    C310029   3.110   3.157   1.533 -0.0147 -0.0024 -0.6424
  678MPD2    C410030   3.059   3.251   1.621 -0.0080 -0.0074 -1.3379
  678MPD2    C510031   3.146   3.303   1.714  0.0013  0.7272 -0.6469
  678MPD2     H10032   3.280   3.056   1.458 -2.4955 -0.1994 -1.4613
  678MPD2    H110033   2.956   3.282   1.631  0.1475  0.3923 -0.9822
  678MPD2    H210034   3.333   3.350   1.782 -1.7425  1.2547  0.9318
  678MPD2    H310035   3.104   3.365   1.792 -0.8314  0.5259 -0.9352
  678MPD2     N10036   3.024   3.093   1.441 -0.1285  0.0941  0.7710
  678MPD2    H510037   3.056   3.021   1.377  1.9050  1.1702  0.5700
  678MPD2    N110038   3.465   3.167   1.615 -0.1714  0.3196 -0.4944
  678MPD2    H710039   3.496   3.093   1.553  1.1570 -0.9981  1.7454
  679TMC3    C110040   3.831   3.001   1.624  0.1109  0.0489 -0.2583
  679TMC3    C210041   3.709   3.050   1.641  0.3506  0.6609  0.0579
  679TMC3    C310042   3.696   3.186   1.649 -0.5081  0.9505 -0.1483
  679TMC3    C410043   3.941   3.085   1.611 -0.2026  0.6959  0.2362
  679TMC3    C510044   3.926   3.222   1.630 -0.3638 -0.5356 -0.8232
  679TMC3    C610045   3.802   3.273   1.645 -0.6023 -0.1288 -0.3993
  679TMC3     C10046   3.848   2.853   1.597 -0.2945 -0.4977  0.6518
  679TMC3     O10047   3.961   2.821   1.564  0.3047  0.5139  0.2756
  679TMC3     H10048   3.629   2.980   1.657  0.1521  0.5687 -1.3025
  679TMC3    H110049   4.027   3.035   1.569 -0.2237  2.8902 -2.3367
  679TMC3    H210050   3.786   3.379   1.664 -0.9205 -0.6284  2.1859
  679TMC3    C710051   4.008   3.300   1.541  0.1295  0.3210 -0.4899
  679TMC3    C810052   3.565   3.244   1.669 -0.7613 -0.0105  0.2554
  679TMC3    O110053   3.946   3.384   1.482 -0.0119 -0.2242 -0.7827
  679TMC3    O210054   3.565   3.366   1.692 -0.0272  0.2360 -0.0359
  680MPD2     C10055   3.893   2.183  13.842 -0.3046 -1.3478 -0.0905
  680MPD2    C110056   3.986   2.096  13.887 -0.5414  0.4655 -0.7409
  680MPD2    C210057   4.087   2.143  13.970  0.5806  0.1294 -0.2074
  680MPD2    C310058   4.098   2.275  14.011  0.2481 -0.0202 -0.4631
  680MPD2    C410059   4.002   2.366  13.972  0.5047  0.2268  0.1476
  680MPD2    C510060   3.903   2.313  13.888  0.7445 -0.7755 -0.2685
  680MPD2     H10061   4.165   2.071  13.992 -0.3873 -0.8974 -0.0938
  680MPD2    H110062   4.012   2.473  13.981  0.6351  0.2319 -0.0461
  680MPD2    H210063   3.818   2.154  13.769  0.1125 -0.2970 -0.9347
  680MPD2    H310064   3.829   2.385  13.856 -0.6773 -1.8586  0.5837
  680MPD2     N10065   4.196   2.321  14.100  0.1216  0.3566  1.2754
  680MPD2    H510066   4.199   2.421  14.118 -0.4844  0.8125 -1.2468
  680MPD2    N110067   3.987   1.958  13.848  0.3016 -0.0112 -0.0127
  680MPD2    H710068   4.060   1.909  13.898 -0.4792 -1.0678  0.0966
  681TMC3    C110069   3.942   1.774  13.718  0.0538 -0.5504  0.4089
  681TMC3    C210070   3.894   1.663  13.783 -0.2962  0.4322 -0.9263
  681TMC3    C310071   3.977   1.558  13.783 -0.4725  0.4156 -0.4568
  681TMC3    C410072   4.071   1.784  13.678  0.2168 -0.3742  0.7050
  681TMC3    C510073   4.155   1.678  13.671  0.2893  0.1666 -0.4631
  681TMC3    C610074   4.107   1.567  13.733  0.9174  0.2565 -1.3855
  681TMC3     C10075   3.886   1.897  13.769 -0.2905 -0.1720 -0.2983
  681TMC3     O10076   3.771   1.929  13.745 -0.4202  0.1511  0.2060
  681TMC3     H10077   3.788   1.660  13.807 -0.0599 -0.1393  0.0617
  681TMC3    H110078   4.096   1.883  13.643 -0.0955 -0.0468  1.4046
  681TMC3    H210079   4.176   1.484  13.728  2.3745  1.2702  1.6345
  681TMC3    C710080   4.248   1.652  13.559  0.6812 -0.6365 -0.3892
  681TMC3    C810081   3.964   1.484  13.897  0.2001 -0.1971  1.2226
  681TMC3    O110082   4.311   1.547  13.557  0.0398  0.5309 -0.0918
  681TMC3    O210083   3.846   1.455  13.933 -0.5041 -0.3003 -0.3817
  682MPD2     C10084   1.600   3.507  10.710  0.2082  0.6321 -0.8485
  682MPD2    C110085   1.606   3.378  10.763 -0.7792  0.2485 -0.1593
  682MPD2    C210086   1.573   3.346  10.898 -0.5702 -0.1831  0.2627
  682MPD2    C310087   1.530   3.442  10.984 -0.0077 -0.1173  0.2269
  682MPD2    C410088   1.504   3.566  10.929  0.2164 -0.6781 -0.0403
  682MPD2    C510089   1.542   3.596  10.800  0.1751  0.0529  0.2857
  682MPD2     H10090   1.599   3.249  10.938 -0.3205 -1.0847 -2.0792
  682MPD2    H110091   1.454   3.643  10.987  0.3349 -1.3583  0.9613
  682MPD2    H210092   1.629   3.543  10.612  0.3879  1.5753 -0.4526
  682MPD2    H310093   1.531   3.701  10.774 -3.5395 -0.4586 -0.2416
  682MPD2     N10094   1.496   3.425  11.121  0.3506 -0.0425 -0.3236
  682MPD2    H510095   1.467   3.510  11.168  0.4706 -0.8265  1.1736
  682MPD2    N110096   1.653   3.264  10.689 -0.1144 -0.0882 -0.0635
  682MPD2    H710097   1.635   3.175  10.733 -2.4193  0.3427 -0.1468
  683TMC3    C110098   1.414   3.384  11.535  0.9856 -0.5381 -0.4034
  683TMC3    C210099   1.352   3.266  11.579  0.6583 -0.7981  0.5184
  683TMC3    C310100   1.337   3.168  11.493  0.2180 -0.6901 -0.8200
  683TMC3    C410101   1.448   3.398  11.404  0.1681  0.4365 -0.5036
  683TMC3    C510102   1.417   3.302  11.312 -0.5447  0.4024 -0.3852
  683TMC3    C610103   1.360   3.185  11.356 -0.0582  0.1973 -0.5170
  683TMC3     C10104   1.402   3.506  11.612 -0.0024  0.1376 -0.1180
  683TMC3     O10105   1.478   3.596  11.578  0.0807  0.3855  0.0932
  683TMC3     H10106   1.322   3.243  11.681 -0.8557  0.5914  0.3977
  683TMC3    H110107   1.511   3.484  11.384 -1.5180  1.6474 -0.5146
  683TMC3    H210108   1.327   3.113  11.282 -0.2042 -1.1036  0.8136
  683TMC3    C710109   1.478   3.303  11.180 -0.2388 -0.5848  0.9045
  683TMC3    C810110   1.235   3.079  11.524 -0.2983  0.9030  0.1450
  683TMC3    O110111   1.487   3.194  11.122 -0.1929 -0.2500 -0.4446
  683TMC3    O210112   1.144   3.075  11.441 -0.0180  0.0311 -0.0390
  684MPD2     C10113   4.307   2.097  16.222  0.0462  0.1097 -0.6294
  684MPD2    C110114   4.255   2.188  16.132 -0.1365 -0.3918 -0.7396
  684MPD2    C210115   4.248   2.320  16.160 -0.3454 -0.0203  0.9907
  684MPD2    C310116   4.293   2.363  16.283  0.3746 -0.7990  0.2308
  684MPD2    C410117   4.342   2.272  16.377 -0.0149 -0.4525 -0.9295
  684MPD2    C510118   4.362   2.140  16.342 -0.3702 -0.0819  0.2444
  684MPD2     H10119   4.209   2.391  16.089  0.0516 -0.2635  0.5268
  684MPD2    H110120   4.373   2.301  16.477 -1.4045 -2.6978  0.1596
  684MPD2    H210121   4.306   1.990  16.206  0.7668  0.0495 -0.2623
  684MPD2    H310122   4.408   2.072  16.413 -0.9854 -0.0482  0.6779
  684MPD2     N10123   4.289   2.498  16.322  0.6703 -0.0388  0.4374
  684MPD2    H510124   4.326   2.513  16.415 -1.6149  1.0781  1.1673
  684MPD2    N110125   4.211   2.148  16.007 -0.2424  0.1808  0.4152
  684MPD2    H710126   4.144   2.205  15.955  0.1365 -0.1227 -0.4133
  685TMC3    C110127   4.208   2.004  15.820  0.0640 -0.3880 -0.2847
  685TMC3    C210128   4.163   2.107  15.749 -0.7714 -0.0022 -0.0619
  685TMC3    C310129   4.209   2.127  15.624  0.3146 -0.7092  0.1011
  685TMC3    C410130   4.293   1.912  15.770  0.4894 -0.4076 -0.0372
  685TMC3    C510131   4.347   1.940  15.649  0.1210  0.0616  0.5428
  685TMC3    C610132   4.309   2.052  15.576  0.2499  0.0550  0.2873
  685TMC3     C10133   4.263   2.033  15.951  0.4359  0.4484  0.0079
  685TMC3     O10134   4.359   1.966  15.984 -0.5911  0.5394  0.3330
  685TMC3     H10135   4.082   2.160  15.798  0.4803  0.7072  1.2361
  685TMC3    H110136   4.337   1.832  15.827  0.2723 -1.6159 -1.5707
  685TMC3    H210137   4.363   2.061  15.482 -0.5401  2.2748  0.0347
  685TMC3    C710138   4.496   1.930  15.637 -0.6129  0.0125  0.1780
  685TMC3    C810139   4.124   2.203  15.533  0.3787  0.3524  0.0867
  685TMC3    O110140   4.542   1.926  15.526 -0.2142 -0.3943 -1.0938
  685TMC3    O210141   4.122   2.176  15.412 -0.6446  0.0762  0.0635
  686MPD2     C10142   0.582   2.530  15.503 -0.5841  0.0524  0.6506
  686MPD2    C110143   0.556   2.539  15.633 -0.3124 -1.0559 -1.1266
  686MPD2    C210144   0.429   2.507  15.677 -0.1021 -0.5476 -0.0309
  686MPD2    C310145   0.332   2.454  15.586  0.5616 -0.0760  0.1245
  686MPD2    C410146   0.355   2.457  15.453 -0.2846 -0.2358  0.1477
  686MPD2    C510147   0.482   2.492  15.413 -0.3688 -0.4718  0.2764
  686MPD2     H10148   0.398   2.514  15.781  2.2219  1.1521  0.5311
  686MPD2    H110149   0.282   2.426  15.379 -0.7425 -1.6595  1.2051
  686MPD2    H210150   0.681   2.548  15.463  0.2656  0.3823  2.9189
  686MPD2    H310151   0.508   2.477  15.309 -1.6897  1.1480 -0.2904
  686MPD2     N10152   0.205   2.429  15.638  0.3863  0.3702  0.0582
  686MPD2    H510153   0.136   2.438  15.564  0.5135 -0.2896 -0.1419
  686MPD2    N110154   0.669   2.544  15.716  0.5792 -0.4081  0.8299
  686MPD2    H710155   0.758   2.548  15.666 -2.2504  3.1540 -3.9287
  687TMC3    C110156   0.252   2.309  15.849  0.1809 -0.1421  0.3144
  687TMC3    C210157   0.235   2.339  15.976 -0.4480 -0.5653  0.1281
  687TMC3    C310158   0.332   2.301  16.066  0.0062 -0.2053  0.7577
  687TMC3    C410159   0.359   2.240  15.800 -0.7008  0.0124  0.3069
  687TMC3    C510160   0.460   2.209  15.886 -0.2318 -0.0264 -0.8528
  687TMC3    C610161   0.444   2.231  16.021 -0.6621  0.0124  0.2005
  687TMC3     C10162   0.166   2.379  15.758 -0.0925  0.5235  1.2882
  687TMC3     O10163   0.047   2.379  15.784  0.5678  0.7839 -0.4525
  687TMC3     H10164   0.152   2.399  16.011  0.6569  1.0634 -0.0470
  687TMC3    H110165   0.368   2.222  15.693  1.9090 -1.1506  0.7316
  687TMC3    H210166   0.517   2.205  16.097 -0.2767 -0.7860 -0.4365
  687TMC3    C710167   0.599   2.182  15.843  0.3269  0.4777 -0.1460
  687TMC3    C810168   0.342   2.383  16.179  0.5990  0.2353 -0.7165
  687TMC3    O110169   0.686   2.155  15.920  0.1637  0.3528  0.0368
  687TMC3    O210170   0.262   2.363  16.270 -0.0856  0.2211  0.2451
  688MPD2     C10171   0.667   1.552  17.545 -0.2788 -0.6125  0.7403
  688MPD2    C110172   0.578   1.447  17.515  0.2383 -0.2483 -0.6711
  688MPD2    C210173   0.584   1.382  17.398  0.0252 -0.4055 -0.3386
  688MPD2    C310174   0.671   1.415  17.300  0.3918  0.2077 -0.1411
  688MPD2    C410175   0.765   1.509  17.328 -0.5701 -0.1983 -0.7028
  688MPD2    C510176   0.758   1.581  17.446  0.6006  0.6495  0.1393
  688MPD2     H10177   0.525   1.292  17.383  3.0852 -2.1487 -2.1342
  688MPD2    H110178   0.840   1.531  17.252  0.4449 -1.0063  0.0494
  688MPD2    H210179   0.674   1.610  17.636  2.4364 -0.6142  0.5162
  688MPD2    H310180   0.834   1.655  17.467 -0.8508  2.0265  0.5879
  688MPD2     N10181   0.683   1.346  17.177  0.4501  0.4179  0.3787
  688MPD2    H510182   0.770   1.356  17.126  0.4619  1.9146  0.6813
  688MPD2    N110183   0.482   1.400  17.608  0.1792  1.0885  0.0780
  688MPD2    H710184   0.429   1.318  17.580  1.8144 -0.2092  0.8106
  689TMC3    C110185   0.367   1.372   0.134 -0.3565  0.0871  0.1529
  689TMC3    C210186   0.316   1.425   0.250 -0.4327 -0.3944 -0.0101
  689TMC3    C310187   0.265   1.342   0.351  0.4896 -0.0141 -0.0149
  689TMC3    C410188   0.357   1.237   0.108 -0.2571 -0.5500 -0.1065
  689TMC3    C510189   0.296   1.163   0.209  0.0522  0.4285  0.3198
  689TMC3    C610190   0.243   1.212   0.325 -0.1987 -0.8377 -0.0974
  689TMC3     C10191   0.456   1.455   0.049 -0.1828  0.0409 -0.1159
  689TMC3     O10192   0.493   1.563   0.091 -0.1227 -0.4360  0.2053
  689TMC3     H10193   0.327   1.530   0.272 -1.8694 -0.4966  1.1535
  689TMC3    H110194   0.416   1.192   0.028  1.5038  2.7238 -0.6239
  689TMC3    H210195   0.202   1.137   0.392 -1.2980  1.8256  2.1781
  689TMC3    C710196   0.272   1.026   0.187  0.7419  0.6826  0.3401
  689TMC3    C810197   0.218   1.387   0.479  0.6416  0.2354  0.1471
  689TMC3    O110198   0.287   0.951   0.283 -0.3693  0.3152  0.1787
  689TMC3    O210199   0.111   1.341   0.520 -0.0165 -0.5877 -0.4170
  690MPD2     C10200   2.583   3.180  15.583  0.1929 -0.2276  0.2503
  690MPD2    C110201   2.517   3.218  15.470 -0.0322  0.1249 -0.7083
  690MPD2    C210202   2.554   3.345  15.415 -0.2290  0.2318 -0.0965
  690MPD2    C310203   2.660   3.421  15.462 -0.1456  0.4169 -0.4103
  690MPD2    C410204   2.730   3.374  15.573  0.2987 -0.1437  0.6242
  690MPD2    C510205   2.683   3.258  15.637 -0.3974 -0.4245 -0.5223
  690MPD2     H10206   2.520   3.382  15.319 -0.6320  1.0418  0.3590
  690MPD2    H110207   2.816   3.423  15.617  1.5231 -1.6888 -0.1069
  690MPD2    H210208   2.547   3.095  15.640  1.4814 -0.1927  1.1235
  690MPD2    H310209   2.733   3.242  15.731 -0.8651  1.7991  0.1040
  690MPD2     N10210   2.707   3.528  15.373 -0.1202 -0.5831  0.0545
  690MPD2    H510211   2.657   3.535  15.285  0.3385 -1.8016 -0.3137
  690MPD2    N110212   2.416   3.139  15.401  0.0125  0.0975  0.2197
  690MPD2    H710213   2.377   3.181  15.317  0.2032 -1.1389 -0.4887
  691TMC3    C110214   2.270   2.958  15.341 -0.2870 -0.4046 -0.1196
  691TMC3    C210215   2.150   3.003  15.329  0.8311 -0.4689  0.3280
  691TMC3    C310216   2.062   2.931  15.253 -0.1609 -0.3723 -0.5617
  691TMC3    C410217   2.314   2.839  15.289 -0.0125 -1.1862  0.5092
  691TMC3    C510218   2.225   2.769  15.219 -0.0366 -0.1510  0.6547
  691TMC3    C610219   2.105   2.814  15.193  0.1217 -0.5576 -0.0710
  691TMC3     C10220   2.373   3.016  15.434  0.2552  0.4637 -0.5284
  691TMC3     O10221   2.405   2.950  15.527  0.1154 -0.3221 -0.1163
  691TMC3     H10222   2.123   3.101  15.367 -2.4183 -0.6405 -1.5174
  691TMC3    H110223   2.415   2.803  15.302  1.5865  3.3328  0.3635
  691TMC3    H210224   2.040   2.773  15.117 -0.6803 -1.2882  1.0007
  691TMC3    C710225   2.232   2.629  15.244  0.7272  0.4703  0.7206
  691TMC3    C810226   1.925   2.972  15.252  0.2640  0.4127  0.4295
  691TMC3    O110227   2.342   2.592  15.277  0.3757 -0.1056  0.2849
  691TMC3    O210228   1.856   2.891  15.188 -0.0851 -0.7486  0.6281
  692TMC3    C110229   4.080   3.999  16.349  0.0986 -0.4997 -0.4011
  692TMC3    C210230   4.175   3.982  16.449  0.3984  0.2990 -0.8573
  692TMC3    C310231   4.243   3.861  16.448 -0.0652 -0.5622 -0.1318
  692TMC3    C410232   4.048   3.896  16.258  0.1059  0.0104  1.1523
  692TMC3    C510233   4.106   3.776  16.276  0.5676 -0.5060  0.6597
  692TMC3    C610234   4.206   3.758  16.367  0.4959 -0.2109 -0.4023
  692TMC3     C10235   4.055   4.137  16.310 -0.7646 -0.0702  0.8675
  692TMC3     O10236   3.956   4.150  16.243 -0.2155  0.0444  0.0430
  692TMC3     H10237   4.215   4.070  16.499  0.2840  0.2491 -0.6793
  692TMC3    H110238   3.978   3.911  16.177  0.6488 -0.8866  0.5161
  692TMC3    H210239   4.261   3.664  16.366  2.2779  0.8240  0.3944
  692TMC3    C710240   4.092   3.685  16.165  0.1440  0.7664 -0.1919
  692TMC3    C810241   4.269   3.816  16.578 -1.1849  0.3810 -0.3277
  692TMC3    O110242   4.047   3.730  16.058 -0.4119  0.2120 -0.4156
  692TMC3    O210243   4.284   3.697  16.604 -0.6107 -0.2726  0.3937
  693MPD2     C10244   3.515   2.521  10.438 -0.2346  0.0485 -0.0430
  693MPD2    C110245   3.494   2.386  10.448  0.6563 -0.5785  0.2695
  693MPD2    C210246   3.599   2.301  10.419 -0.9573 -0.3468 -0.7860
  693MPD2    C310247   3.727   2.344  10.436 -0.3580  0.4769 -0.2462
  693MPD2    C410248   3.751   2.482  10.437 -0.5136  0.2681  0.4969
  693MPD2    C510249   3.643   2.569  10.437 -0.2908  0.2156  0.2719
  693MPD2     H10250   3.586   2.193  10.425 -1.0491 -0.2989 -0.0795
  693MPD2    H110251   3.853   2.517  10.436 -0.0455 -1.0963  1.1904
  693MPD2    H210252   3.427   2.585  10.444  0.3517  0.9504 -1.3539
  693MPD2    H310253   3.648   2.677  10.436  1.5274  0.1326  0.6719
  693MPD2     N10254   3.835   2.259  10.457  0.5489  0.7623  0.6100
  693MPD2    H510255   3.927   2.297  10.477 -0.1477  2.7811  0.0181
  693MPD2    N110256   3.363   2.346  10.484  0.9641 -0.4445 -0.1760
  693MPD2    H710257   3.290   2.413  10.505  0.3330 -1.3344  0.4741
  694TMC3    C110258   3.216   2.196  10.575 -0.0423 -0.2601  0.2617
  694TMC3    C210259   3.136   2.089  10.553  0.0346  0.2662  0.0157
  694TMC3    C310260   3.050   2.045  10.654  0.3471 -0.3698  0.3165
  694TMC3    C410261   3.210   2.269  10.692  0.8668  0.5940  0.2621
  694TMC3    C510262   3.129   2.224  10.787  0.2590  0.2270 -0.1960
  694TMC3    C610263   3.046   2.117  10.770 -0.5466 -0.9702  0.1742
  694TMC3     C10264   3.325   2.213  10.493 -0.0803 -0.4058  0.9092
  694TMC3     O10265   3.381   2.112  10.450 -0.3235 -0.3040 -0.7468
  694TMC3     H10266   3.159   2.030  10.465 -1.3380  4.1715 -2.9255
  694TMC3    H110267   3.285   2.341  10.726  1.1293  0.7662 -0.6874
  694TMC3    H210268   2.983   2.074  10.847 -0.7367 -0.5126  0.2726
  694TMC3    C710269   3.150   2.280  10.924 -0.3698  0.6075 -0.2111
  694TMC3    C810270   2.950   1.942  10.631 -0.0531 -0.1307  0.4284
  694TMC3    O110271   3.196   2.389  10.934 -0.0202  0.4534  0.1573
  694TMC3    O210272   2.875   1.903  10.722  0.0058 -0.1811  0.2154
  695MPD2     C10273   4.326   3.802  14.103 -0.7273 -0.0615  0.5189
  695MPD2    C110274   4.363   3.931  14.142  0.6269 -0.3873  0.1695
  695MPD2    C210275   4.279   4.037  14.100  0.3427 -0.0418 -0.2746
  695MPD2    C310276   4.144   4.015  14.057  0.2662  0.8432 -0.5013
  695MPD2    C410277   4.115   3.888  14.026  0.5859  0.1881 -0.1884
  695MPD2    C510278   4.200   3.787  14.045 -0.1923 -0.2269  0.1557
  695MPD2     H10279   4.307   4.139  14.123 -0.8818  0.1428  0.3876
  695MPD2    H110280   4.021   3.855  13.983  0.1406  0.0872  0.8735
  695MPD2    H210281   4.388   3.715  14.121  0.3186  0.8982  1.5982
  695MPD2    H310282   4.178   3.687  14.008  0.6925 -0.4397  0.2208
  695MPD2     N10283   4.049   4.113  14.048 -0.0488 -0.4700 -0.5759
  695MPD2    H510284   4.074   4.201  14.092  0.4324 -0.6980 -0.3890
  695MPD2    N110285   4.494   3.963  14.194  0.7065  0.8604  0.3289
  695MPD2    H710286   4.510   4.062  14.212  0.3860  1.0715 -0.5039
  696TMC3    C110287   3.832   4.189  14.051 -0.3191 -0.4382 -0.2287
  696TMC3    C210288   3.831   4.205  14.187  0.1670 -0.1789  0.1451
  696TMC3    C310289   3.733   4.282  14.245 -0.0615 -0.0952  0.1174
  696TMC3    C410290   3.746   4.252  13.970 -0.1230 -0.3866  0.2746
  696TMC3    C510291   3.660   4.339  14.030  0.1673 -0.0925  0.0113
  696TMC3    C610292   3.651   4.352  14.162 -0.2288 -0.0359  0.5822
  696TMC3     C10293   3.926   4.096  13.995 -0.6574  0.0008 -0.2661
  696TMC3     O10294   3.886   4.023  13.908 -0.0203 -0.1863 -0.0176
  696TMC3     H10295   3.902   4.143  14.240  0.0352  0.8206  1.5133
  696TMC3    H110296   3.755   4.253  13.862 -0.1791 -2.7858  0.2538
  696TMC3    H210297   3.571   4.409  14.208 -0.0601 -0.8656  1.9203
  696TMC3    C710298   3.608   4.448  13.956  0.7852 -0.1718 -0.0659
  696TMC3    C810299   3.757   4.344  14.372 -0.4224 -0.0553 -0.2847
  696TMC3    O110300   3.612   4.429  13.833  0.2243  0.4780  0.3897
  696TMC3    O210301   3.729   4.463  14.370  0.2263  0.0128  0.1391
  697MPD2     C10302   3.419   1.149  15.632 -0.1121  0.4945 -0.3062
  697MPD2    C110303   3.527   1.069  15.590 -0.7821 -0.5840  0.2834
  697MPD2    C210304   3.618   1.121  15.508  0.3919 -0.0771  0.0363
  697MPD2    C310305   3.599   1.249  15.457  0.3082 -0.2757  0.1887
  697MPD2    C410306   3.493   1.326  15.490  0.2227 -0.1843 -0.1403
  697MPD2    C510307   3.405   1.278  15.587  0.3643  0.3729 -0.4403
  697MPD2     H10308   3.700   1.054  15.483  0.0620  0.7090 -3.1520
  697MPD2    H110309   3.470   1.425  15.452 -1.7008 -0.7706 -0.5460
  697MPD2    H210310   3.349   1.116  15.707  0.7153  1.8210  1.0505
  697MPD2    H310311   3.322   1.341  15.618 -0.2518 -1.0036  0.6954
  697MPD2     N10312   3.699   1.283  15.368 -0.5059 -0.1223 -0.1489
  697MPD2    H510313   3.779   1.221  15.357 -2.1537 -2.2848  0.2547
  697MPD2    N110314   3.561   0.939  15.629 -0.1065  0.4608 -0.0038
  697MPD2    H710315   3.640   0.900  15.579  2.8277  3.7881  2.0078
  698TMC3    C110316   3.820   1.353  15.198 -0.2373 -0.7780  0.4874
  698TMC3    C210317   3.928   1.295  15.255  0.2218  0.8513  0.0744
  698TMC3    C310318   4.033   1.265  15.177  0.0966  0.3944  0.6428
  698TMC3    C410319   3.817   1.373  15.065  0.4749 -0.2364 -0.1211
  698TMC3    C510320   3.926   1.345  14.986  0.0505 -0.1213  0.0621
  698TMC3    C610321   4.033   1.287  15.045  0.1796  0.1373  0.0765
  698TMC3     C10322   3.706   1.384  15.274 -0.5661  0.9147  0.0248
  698TMC3     O10323   3.613   1.448  15.231 -0.3646 -0.2637  0.2213
  698TMC3     H10324   3.943   1.293  15.363  0.1276 -1.7334  0.0396
  698TMC3    H110325   3.732   1.422  15.019  1.5673 -0.1558 -2.0908
  698TMC3    H210326   4.130   1.280  14.995 -0.5145  1.1563 -1.4122
  698TMC3    C710327   3.932   1.426  14.860 -0.0875 -1.2107  0.2326
  698TMC3    C810328   4.155   1.232  15.246  0.1208 -0.2597  0.1651
  698TMC3    O110329   3.822   1.451  14.815 -0.5647 -0.2594 -0.5980
  698TMC3    O210330   4.142   1.180  15.358  0.5374 -0.0162  0.1494
  699TMC3    C110331   3.942   4.176  13.249 -0.0751 -0.0885  0.1466
  699TMC3    C210332   3.984   4.096  13.347  0.1073 -0.0934  0.1002
  699TMC3    C310333   3.930   4.106  13.472  0.0680 -0.2961 -0.1906
  699TMC3    C410334   3.853   4.278  13.275 -0.4738  0.9442 -0.2317
  699TMC3    C510335   3.799   4.279  13.400 -0.4310 -0.8141 -0.2714
  699TMC3    C610336   3.837   4.202  13.500  0.0049  0.1500 -0.4401
  699TMC3     C10337   4.010   4.183  13.118 -0.2598  0.3992 -0.4009
  699TMC3     O10338   3.967   4.274  13.044 -0.0710  0.4577  0.7244
  699TMC3     H10339   4.040   4.007  13.320 -1.6815 -0.8291 -1.2350
  699TMC3    H110340   3.810   4.331  13.191  0.1240 -0.1028 -1.1966
  699TMC3    H210341   3.792   4.206  13.598 -2.4209  1.2224 -1.6143
  699TMC3    C710342   3.692   4.364  13.438 -0.2109 -0.1547 -0.0212
  699TMC3    C810343   3.901   3.982  13.549 -0.5391 -0.3667 -0.2750
  699TMC3    O110344   3.598   4.325  13.509 -0.0633 -0.5729  0.1501
  699TMC3    O210345   3.803   3.973  13.616 -0.0428 -0.3523 -0.3827
  700TMC3    C110346   2.935   1.818  17.301 -0.6676 -0.0737  0.2286
  700TMC3    C210347   3.015   1.711  17.296 -0.0175 -0.2053  0.3696
  700TMC3    C310348   3.074   1.663  17.418  0.1131 -0.5322  0.1797
  700TMC3    C410349   2.915   1.876  17.423  0.2359  0.2874  0.4652
  700TMC3    C510350   2.978   1.828  17.539  0.8914  0.3339 -0.1361
  700TMC3    C610351   3.058   1.720  17.539  0.0114 -0.2014 -0.1540
  700TMC3     C10352   2.912   1.885  17.174  0.1431 -0.3224  0.0885
  700TMC3     O10353   2.887   1.816  17.077  0.5257  0.2389  0.7198
  700TMC3     H10354   3.026   1.655  17.204  1.7928  0.2395  0.3209
  700TMC3    H110355   2.840   1.954  17.419 -0.3651 -0.3890 -1.3598
  700TMC3    H210356   3.106   1.689  17.632 -1.4027  2.5594  1.4840
  700TMC3    C710357   2.958   1.899  17.665  0.2751  0.5160 -0.0674
  700TMC3    C810358   3.191   1.574  17.409  0.1229  0.3777  0.5664
  700TMC3    O110359   2.979   1.830   0.085  0.2714  0.1860 -0.4327
  700TMC3    O210360   3.211   1.526  17.301 -0.1759  0.0157  0.6660
  701TMC3    C110361   3.046   4.698  16.041 -0.4572  0.1471 -0.1825
  701TMC3    C210362   3.043   4.599  15.948 -1.0397  0.1415  0.1379
  701TMC3    C310363   3.095   4.614  15.823 -0.2388  0.0228  0.8974
  701TMC3    C410364   3.097   0.103  16.008  0.6256  0.5420 -0.0784
  701TMC3    C510365   3.153   0.112  15.883  0.2427  0.3103  0.5943
  701TMC3    C610366   3.152   0.010  15.788  0.5494 -0.6901  0.0654
  701TMC3     C10367   2.992   4.683  16.176 -0.7430  0.2391  0.7783
  701TMC3     O10368   2.991   0.066  16.239  0.3057  0.1309  0.0321
  701TMC3     H10369   2.995   4.503  15.963  2.5465 -1.4217  1.5924
  701TMC3    H110370   3.105   0.182  16.081 -0.9313  1.5385 -0.9829
  701TMC3    H210371   3.192   0.023  15.688  0.8733 -1.3141  0.1087
  701TMC3    C710372   3.181   0.246  15.831  0.2996  0.4190 -0.1685
  701TMC3    C810373   3.110   4.497  15.740  0.1983  0.0225 -0.3622
  701TMC3    O110374   3.211   0.257  15.715 -0.0936 -0.4642 -1.0456
  701TMC3    O210375   3.133   4.392  15.796 -0.1630 -1.0157 -0.7310
  702MPD2     C10376   2.745   2.745  10.551  0.2251 -0.5496  0.6992
  702MPD2    C110377   2.694   2.840  10.636 -0.1001  0.0746 -0.0167
  702MPD2    C210378   2.726   2.971  10.610 -0.1593  0.1198 -0.2761
  702MPD2    C310379   2.814   3.012  10.512 -0.0395 -1.0946  1.2011
  702MPD2    C410380   2.869   2.917  10.437 -0.4474  0.0067  0.0388
  702MPD2    C510381   2.831   2.787  10.452 -0.1947  0.0325 -0.7639
  702MPD2     H10382   2.676   3.034  10.683  0.0470 -1.0238  0.8561
  702MPD2    H110383   2.946   2.932  10.362 -0.1358 -1.9751 -0.0380
  702MPD2    H210384   2.711   2.643  10.567 -1.8164 -0.2466 -1.6381
  702MPD2    H310385   2.876   2.711  10.389 -0.8260 -0.2908 -0.8194
  702MPD2     N10386   2.850   3.140  10.490  0.0199  0.2703 -0.3729
  702MPD2    H510387   2.916   3.152  10.414  1.8805  1.7942  1.4970
  702MPD2    N110388   2.600   2.812  10.736 -0.2943 -0.7551  0.3435
  702MPD2    H710389   2.581   2.899  10.786  1.4081  0.8515 -1.7898
  703TMC3    C110390   2.836   3.376  10.500 -0.9714  0.4639 -0.4175
  703TMC3    C210391   2.760   3.468  10.566  0.0944  0.1478 -0.8211
  703TMC3    C310392   2.826   3.566  10.640  0.2424 -0.2066  0.1444
  703TMC3    C410393   2.974   3.388  10.498 -0.2139 -0.4778 -0.3225
  703TMC3    C510394   3.031   3.479  10.582  0.2664  0.1531 -0.1728
  703TMC3    C610395   2.959   3.572  10.646 -0.9113  0.4292 -0.7163
  703TMC3     C10396   2.781   3.248  10.539 -0.0930 -0.7014  0.0173
  703TMC3     O10397   2.677   3.248  10.601  0.0364 -0.6844  0.0226
  703TMC3     H10398   2.653   3.470  10.551  0.0091  0.3582 -0.1882
  703TMC3    H110399   3.031   3.311  10.448 -0.0387 -0.4987 -0.0920
  703TMC3    H210400   3.011   3.651  10.699 -0.0723 -0.2017 -0.5919
  703TMC3    C710401   3.169   3.456  10.607 -0.1545  0.1005 -0.3064
  703TMC3    C810402   2.739   3.669  10.700 -0.6186 -0.0371 -0.1910
  703TMC3    O110403   3.224   3.371  10.532  0.2095 -0.8150  0.2449
  703TMC3    O210404   2.802   3.769  10.731  0.7683 -0.1501  0.8563
  704TMC3    C110405   0.086   1.183  12.463  0.1667 -0.0891 -0.0364
  704TMC3    C210406   0.199   1.259  12.452 -0.4523  0.1494  0.0330
  704TMC3    C310407   0.276   1.275  12.565  0.7418 -0.0038  0.3299
  704TMC3    C410408   0.040   1.124  12.577 -0.1022 -0.8942  0.0087
  704TMC3    C510409   0.128   1.132  12.683 -0.3628 -0.1933 -0.9058
  704TMC3    C610410   0.241   1.213  12.682 -0.7659  0.1198 -0.1487
  704TMC3     C10411   4.714   1.177  12.355 -0.3503  0.9174  0.2406
  704TMC3     O10412   4.592   1.173  12.373 -0.3992  0.4180 -0.4045
  704TMC3     H10413   0.228   1.306  12.359 -2.8957 -1.2593 -1.4156
  704TMC3    H110414   4.664   1.072  12.572 -0.0275 -0.9987 -0.2879
  704TMC3    H210415   0.308   1.193  12.765  1.2758 -0.2877 -1.8841
  704TMC3    C710416   0.163   1.010  12.729 -0.4711  0.5118 -0.2134
  704TMC3    C810417   0.421   1.277  12.533  0.2610  0.2414  0.1109
  704TMC3    O110418   0.275   0.974  12.710  0.4195 -0.4956  0.5199
  704TMC3    O210419   0.457   1.268  12.418 -0.1736  0.1270  0.0283
  705MPD2     C10420   0.272   3.402  16.485 -0.7402  0.0308  0.9254
  705MPD2    C110421   0.227   3.528  16.454 -0.3130 -0.6053 -0.1142
  705MPD2    C210422   0.143   3.596  16.539 -0.6780  0.1569 -0.1995
  705MPD2    C310423   0.095   3.537  16.660 -0.1394 -0.5279 -0.5032
  705MPD2    C410424   0.137   3.403  16.682 -0.4021 -0.3371 -0.1197
  705MPD2    C510425   0.215   3.335  16.594 -1.0141  0.1370  0.5568
  705MPD2     H10426   0.106   3.696  16.520 -1.0569  0.0439 -0.0582
  705MPD2    H110427   0.082   3.349  16.758 -0.1229 -1.1776 -0.5120
  705MPD2    H210428   0.354   3.363  16.426 -1.2350 -0.5402  0.6159
  705MPD2    H310429   0.247   3.235  16.617 -0.7402  0.2296  0.5784
  705MPD2     N10430   4.717   3.590  16.754 -0.2711 -0.0631  0.4579
  705MPD2    H510431   4.700   3.537  16.839 -0.8444 -2.5076 -1.2031
  705MPD2    N110432   0.268   3.600  16.339 -0.2796 -0.2801 -0.1259
  705MPD2    H710433   0.239   3.697  16.336  1.6252  0.3280  1.0295
  706TMC3    C110434   0.423   3.703  15.917  0.6454  0.3804 -0.8025
  706TMC3    C210435   0.303   3.762  15.887  0.1546  0.4362 -0.7234
  706TMC3    C310436   0.203   3.763  15.988  0.2904  0.9506 -0.2608
  706TMC3    C410437   0.432   3.633  16.033  0.5814 -0.2202  0.5819
  706TMC3    C510438   0.332   3.643  16.129 -0.0792 -0.6385 -0.1979
  706TMC3    C610439   0.220   3.719  16.115  0.1026 -0.3527  0.0300
  706TMC3     C10440   0.525   3.700  15.818  0.6336  0.5345  0.3977
  706TMC3     O10441   0.641   3.699  15.854 -0.0350 -0.4722 -0.2170
  706TMC3     H10442   0.280   3.809  15.793 -1.4236 -0.3328 -0.7219
  706TMC3    H110443   0.528   3.589  16.057  2.1605  1.8702 -1.9131
  706TMC3    H210444   0.142   3.736  16.189 -0.3765  0.1158 -0.5918
  706TMC3    C710445   0.340   3.549  16.239  0.0238  0.2121  0.0949
  706TMC3    C810446   0.085   3.843  15.950 -0.1063 -0.4245 -1.2666
  706TMC3    O110447   0.427   3.463  16.230 -0.1526  0.2566 -0.3306
  706TMC3    O210448   0.093   3.922  15.855  0.0835 -0.4555  0.2506
  707TMC3    C110449   1.586   2.168   1.709 -0.0687  0.3559 -0.2090
  707TMC3    C210450   1.656   2.109   1.809 -0.0807 -0.5578  0.0810
  707TMC3    C310451   1.623   1.983   1.848  0.2175  0.6460  0.6111
  707TMC3    C410452   1.470   2.114   1.666 -0.0453 -0.5485  0.5795
  707TMC3    C510453   1.429   1.997   1.715  0.3090 -0.4699 -0.3098
  707TMC3    C610454   1.505   1.928   1.807  1.0319 -0.4262 -0.2928
  707TMC3     C10455   1.622   2.306   1.662  0.1299  0.0960  0.5847
  707TMC3     O10456   1.551   2.349   1.566  0.4858  0.0100 -0.4663
  707TMC3     H10457   1.759   2.138   1.830 -0.0656 -0.1819 -0.5121
  707TMC3    H110458   1.414   2.173   1.595  1.7753  1.9412  1.2450
  707TMC3    H210459   1.479   1.827   1.839  2.5275 -0.1929  1.6619
  707TMC3    C710460   1.321   1.942   1.647 -0.2210 -0.6158  0.1543
  707TMC3    C810461   1.713   1.899   1.929 -0.9194 -0.2513  0.4148
  707TMC3    O110462   1.274   2.003   1.552 -0.0150  0.2911 -0.4020
  707TMC3    O210463   1.666   1.805   1.989 -0.1806 -0.2985  0.6041
  708MPD2     C10464   2.567   2.852  13.785 -0.7533 -0.1021  1.0180
  708MPD2    C110465   2.647   2.765  13.710 -0.2561  0.1859  0.0733
  708MPD2    C210466   2.778   2.808  13.686 -0.5821  0.2298  0.4658
  708MPD2    C310467   2.834   2.923  13.757  0.3857  0.4809 -0.6249
  708MPD2    C410468   2.748   2.991  13.842 -0.5308  0.4485  0.4938
  708MPD2    C510469   2.617   2.950  13.860 -0.0384 -0.1140 -0.0461
  708MPD2     H10470   2.843   2.740  13.633  0.0277  0.6128  0.7216
  708MPD2    H110471   2.783   3.078  13.896  1.5600 -1.1288  1.6755
  708MPD2    H210472   2.469   2.819  13.819 -0.9793 -0.6986 -0.2104
  708MPD2    H310473   2.557   2.999  13.936 -2.3751  0.4037 -2.1876
  708MPD2     N10474   2.969   2.968  13.753 -0.1230 -0.4515  0.1962
  708MPD2    H510475   2.999   3.037  13.822  0.6461 -0.6584  0.0714
  708MPD2    N110476   2.601   2.641  13.676  0.1838  0.2070 -0.8144
  708MPD2    H710477   2.666   2.579  13.629  2.1844  1.6596  0.0573
  709TMC3    C110478   2.517   2.428  13.715  0.8438  0.0463  0.1138
  709TMC3    C210479   2.567   2.389  13.597  0.0264 -0.3511  0.0209
  709TMC3    C310480   2.635   2.266  13.608 -0.4982  0.1182 -0.3279
  709TMC3    C410481   2.544   2.374  13.840  0.2593  0.0910  0.4039
  709TMC3    C510482   2.619   2.263  13.854  0.4576 -0.0412 -0.3362
  709TMC3    C610483   2.649   2.196  13.728  0.3196  0.4541  0.7611
  709TMC3     C10484   2.488   2.570  13.722  0.0605 -0.2504  0.4499
  709TMC3     O10485   2.394   2.588  13.801  0.3177  0.1017 -0.1248
  709TMC3     H10486   2.557   2.450  13.509  1.0249  0.9078  0.7785
  709TMC3    H110487   2.529   2.434  13.929  0.8446  3.3425 -1.6951
  709TMC3    H210488   2.696   2.099  13.727  1.5230  1.0320 -0.3661
  709TMC3    C710489   2.725   2.273  13.950  0.3807  0.2426  0.2452
  709TMC3    C810490   2.688   2.204  13.490  0.2104 -0.1310 -0.1968
  709TMC3    O110491   2.739   2.386  13.989  0.2007  0.7918  0.0529
  709TMC3    O210492   2.727   2.091  13.501  0.0980  0.2161  0.1805
  710TMC3    C110493   4.183   4.048   1.159  0.5899 -0.4255  0.5234
  710TMC3    C210494   4.241   4.027   1.034 -0.1137 -0.7561 -0.2871
  710TMC3    C310495   4.283   3.902   0.990 -0.2225  0.0130  0.1973
  710TMC3    C410496   4.175   3.950   1.251 -0.1409  0.2609 -0.0417
  710TMC3    C510497   4.233   3.834   1.214  0.3614  0.0726 -0.2040
  710TMC3    C610498   4.277   3.803   1.087 -0.3611  0.6198 -0.6224
  710TMC3     C10499   4.144   4.189   1.193 -0.3990 -0.6936 -0.0979
  710TMC3     O10500   4.200   4.276   1.125 -0.4052 -0.1792  0.0206
  710TMC3     H10501   4.264   4.106   0.963  0.2816  0.4113  1.1317
  710TMC3    H110502   4.153   3.977   1.354 -1.0901 -0.6517  0.0018
  710TMC3    H210503   4.289   3.701   1.051 -1.7771 -0.0913  0.9407
  710TMC3    C710504   4.227   3.728   1.308 -0.2423 -0.0479 -0.5488
  710TMC3    C810505   4.307   3.874   0.846 -0.1348  0.6612  0.2998
  710TMC3    O110506   4.149   3.738   1.404 -0.3112  0.0378 -0.5342
  710TMC3    O210507   4.260   3.958   0.768  0.0937 -0.3994  0.3677
  711TMC3    C110508   3.422   4.435  15.107 -0.0637  0.4052 -0.2637
  711TMC3    C210509   3.464   4.550  15.178 -0.6845  0.4414  0.2689
  711TMC3    C310510   3.549   4.531  15.287 -0.1400 -0.4229  0.2467
  711TMC3    C410511   3.457   4.310  15.140  0.4830 -0.3464  0.0213
  711TMC3    C510512   3.550   4.302  15.242 -0.5893 -0.4888  0.1208
  711TMC3    C610513   3.590   4.407  15.324  0.1821 -0.9989  0.5948
  711TMC3     C10514   3.357   4.450  14.987  0.7409 -0.3159 -0.5081
  711TMC3     O10515   3.315   4.347  14.931 -0.1238 -0.1657  0.3196
  711TMC3     H10516   3.416   4.645  15.162 -3.8735 -1.1877  0.1669
  711TMC3    H110517   3.440   4.226  15.074  0.0052 -2.3708  2.6852
  711TMC3    H210518   3.634   4.379  15.419  1.4074  0.2269  0.3956
  711TMC3    C710519   3.624   4.183  15.265 -0.3126 -0.0711 -0.3390
  711TMC3    C810520   3.609   4.651  15.348 -0.1047  0.3248 -0.3110
  711TMC3    O110521   3.732   4.212  15.314  0.4936 -0.2786  0.5147
  711TMC3    O210522   3.564   0.043  15.324 -0.5423 -0.5698 -0.4643
  712MPD2     C10523   0.875   1.387  13.423 -0.6011 -0.0557 -0.7821
  712MPD2    C110524   0.736   1.402  13.434 -0.0343 -0.2020  0.1268
  712MPD2    C210525   0.690   1.515  13.495 -0.9753 -0.5796  0.2000
  712MPD2    C310526   0.774   1.614  13.532  0.1769  0.4945  0.4526
  712MPD2    C410527   0.907   1.601  13.510  0.1276 -0.0483  0.5081
  712MPD2    C510528   0.958   1.480  13.466 -0.8803  0.6453  0.6867
  712MPD2     H10529   0.585   1.527  13.518 -0.7626  0.7781  0.4566
  712MPD2    H110530   0.977   1.681  13.527  0.2461  0.0546 -0.4190
  712MPD2    H210531   0.919   1.306  13.366  1.1149  0.3583 -0.0577
  712MPD2    H310532   1.065   1.473  13.452 -1.4950 -0.2957 -3.4284
  712MPD2     N10533   0.725   1.739  13.584  0.2712 -0.4330  0.2259
  712MPD2    H510534   0.792   1.813  13.566 -1.8657  1.2820 -0.7573
  712MPD2    N110535   0.645   1.312  13.388  0.5399  0.4107  0.0651
  712MPD2    H710536   0.549   1.345  13.390  0.3519 -0.2087  0.9673
  713TMC3    C110537   0.563   1.905  13.630 -0.4448 -0.1420  0.2669
  713TMC3    C210538   0.663   2.004  13.643  0.0440 -0.2065  0.8346
  713TMC3    C310539   0.617   2.132  13.622  0.2031 -0.0042 -1.6123
  713TMC3    C410540   0.428   1.924  13.623  0.0955 -0.1059  0.7921
  713TMC3    C510541   0.390   2.059  13.620  0.7942 -0.1105  0.0739
  713TMC3    C610542   0.478   2.164  13.615  0.4554  0.2825  0.3640
  713TMC3     C10543   0.600   1.766  13.632  0.0513  0.5205 -0.2204
  713TMC3     O10544   0.520   1.685  13.674 -0.2759 -0.1920  0.4643
  713TMC3     H10545   0.769   1.982  13.655  0.2242 -1.3032 -2.6770
  713TMC3    H110546   0.361   1.839  13.628  0.3554 -0.2253  2.0761
  713TMC3    H210547   0.447   2.267  13.606 -1.8119 -0.5231 -1.4579
  713TMC3    C710548   0.250   2.088  13.633 -0.1814 -0.0019  0.4977
  713TMC3    C810549   0.710   2.240  13.623 -0.7550  0.1774  0.7457
  713TMC3    O110550   0.201   2.188  13.580  0.3488  0.1207 -0.2699
  713TMC3    O210551   0.672   2.355  13.642  0.0058  0.3591 -0.0783
  714MPD2     C10552   1.279   4.456   1.461 -0.1533  0.5588 -0.3802
  714MPD2    C110553   1.338   4.334   1.429  0.0781 -0.4195  0.3663
  714MPD2    C210554   1.254   4.239   1.374 -0.4623  0.8695 -0.3872
  714MPD2    C310555   1.120   4.258   1.351  0.2195 -0.0630 -0.6336
  714MPD2    C410556   1.065   4.382   1.377  0.3961 -0.0216  0.4838
  714MPD2    C510557   1.142   4.471   1.444 -0.8056 -0.3517  0.1601
  714MPD2     H10558   1.302   4.142   1.366  0.4767  1.4582 -1.8101
  714MPD2    H110559   0.959   4.402   1.368  0.6838  1.3627  0.2270
  714MPD2    H210560   1.345   4.533   1.501  0.0580 -1.2136  2.6517
  714MPD2    H310561   1.095   4.561   1.480  0.9303  0.2691  0.8752
  714MPD2     N10562   1.050   4.156   1.276 -0.0864  0.0663  0.0815
  714MPD2    H510563   1.090   4.063   1.279 -1.2775 -0.4930 -2.1170
  714MPD2    N110564   1.477   4.323   1.454  0.1165 -0.5984  0.2781
  714MPD2    H710565   1.513   4.408   1.496  2.6522 -1.6157  0.1758
  715TMC3    C110566   1.700   4.214   1.462 -0.0807 -0.5114 -0.3098
  715TMC3    C210567   1.790   4.132   1.401  0.0047 -0.3436 -0.6125
  715TMC3    C310568   1.920   4.168   1.395  0.3764 -0.0592 -0.5734
  715TMC3    C410569   1.748   4.324   1.528 -0.7408 -0.5681 -0.1426
  715TMC3    C510570   1.879   4.357   1.522 -1.0915  0.1536  0.4837
  715TMC3    C610571   1.974   4.275   1.467 -0.3476 -0.3316 -0.5178
  715TMC3     C10572   1.562   4.211   1.414  0.4984 -0.1822 -0.4765
  715TMC3     O10573   1.525   4.112   1.355 -0.5351 -0.5799 -0.0123
  715TMC3     H10574   1.740   4.059   1.338  1.5409 -0.1544 -2.0297
  715TMC3    H110575   1.671   4.392   1.561  0.0350 -0.6544  1.8194
  715TMC3    H210576   2.078   4.305   1.470 -0.7118  0.8352  0.4470
  715TMC3    C710577   1.928   4.449   1.616  0.4730  0.2623 -0.6824
  715TMC3    C810578   2.001   4.097   1.305  0.1053  0.9384  0.5111
  715TMC3    O110579   2.042   4.431   1.656  0.1419 -0.2509  1.0757
  715TMC3    O210580   1.953   3.985   1.282  0.3765  0.5435  0.3719
  716MPD2     C10581   3.116   2.382  10.073 -0.2828 -0.5566 -0.2862
  716MPD2    C110582   3.023   2.318  10.000 -0.5183 -0.2651 -0.7046
  716MPD2    C210583   3.027   2.179  10.010 -0.2875 -0.6382 -0.3962
  716MPD2    C310584   3.118   2.102  10.083  0.3312 -0.3727 -0.2882
  716MPD2    C410585   3.214   2.173  10.159 -0.0652  0.3920  0.0277
  716MPD2    C510586   3.208   2.314  10.149 -0.6883 -0.5666  0.4290
  716MPD2     H10587   2.949   2.122   9.961 -2.3599  0.5249  1.5923
  716MPD2    H110588   3.294   2.126  10.215 -1.6591 -2.5656 -0.1784
  716MPD2    H210589   3.115   2.490  10.080  0.8355 -0.6868  1.6949
  716MPD2    H310590   3.287   2.367  10.201 -1.6984  0.8945  0.4555
  716MPD2     N10591   3.109   1.963  10.079 -0.6157  0.2539  0.2313
  716MPD2    H510592   3.041   1.920  10.017  1.2753 -2.7347  0.2435
  716MPD2    N110593   2.928   2.392   9.925 -0.0902  0.6980 -0.0716
  716MPD2    H710594   2.942   2.493   9.926 -3.1993  1.0915  1.5446
  717TMC3    C110595   3.129   1.743  10.134 -0.2904 -0.3115  0.7372
  717TMC3    C210596   3.102   1.709  10.003 -0.1376 -0.4672  0.0422
  717TMC3    C310597   3.063   1.578   9.986 -0.0393 -0.3945 -0.6085
  717TMC3    C410598   3.110   1.663  10.238 -0.6490  0.2145  0.0741
  717TMC3    C510599   3.051   1.538  10.214  0.2731  0.1491  0.9330
  717TMC3    C610600   3.029   1.494  10.089  0.7407  0.0918  0.3814
  717TMC3     C10601   3.173   1.876  10.167  0.1394  0.3044  0.0922
  717TMC3     O10602   3.243   1.904  10.266 -0.1037 -0.3559 -0.4232
  717TMC3     H10603   3.146   1.767   9.922 -0.3748 -1.2475 -0.6469
  717TMC3    H110604   3.143   1.697  10.336 -0.8041 -2.2732  1.0103
  717TMC3    H210605   2.972   1.403  10.071  0.5128  0.3752 -0.3136
  717TMC3    C710606   3.018   1.457  10.329  0.2210  0.0201  0.8654
  717TMC3    C810607   3.036   1.528   9.851 -0.0711  0.0271  0.4235
  717TMC3    O110608   3.047   1.342  10.309 -0.2056  0.6722  0.3868
  717TMC3    O210609   3.059   1.409   9.837 -0.2073  0.8389  0.1370
  718MPD2     C10610   1.974   2.004  13.082 -0.5183  0.1734 -0.3173
  718MPD2    C110611   1.909   2.013  12.969  0.2426 -0.7569  0.2450
  718MPD2    C210612   1.772   1.993  12.964 -0.5520  0.1007  0.0601
  718MPD2    C310613   1.710   1.928  13.069 -0.1357  0.4062  0.2661
  718MPD2    C410614   1.787   1.890  13.176 -0.2050  0.2526 -0.1186
  718MPD2    C510615   1.917   1.931  13.185  0.5440  0.2183 -0.7690
  718MPD2     H10616   1.707   2.009  12.879 -1.4230  0.5106  0.8054
  718MPD2    H110617   1.742   1.834  13.257 -2.2259  0.7402 -0.9020
  718MPD2    H210618   2.078   2.033  13.090  0.2240 -2.5394 -0.0586
  718MPD2    H310619   1.977   1.910  13.273  0.4831 -3.3860 -1.5725
  718MPD2     N10620   1.574   1.891  13.053 -0.3164 -0.0308  0.3527
  718MPD2    H510621   1.524   1.925  12.971 -0.4633  0.5987  0.7032
  718MPD2    N110622   1.980   2.049  12.854 -0.1547  0.6245 -0.0698
  718MPD2    H710623   2.067   2.099  12.869 -1.4946  3.2672 -1.2014
  719TMC3    C110624   1.996   2.060  12.616 -0.1220 -0.3760  0.0638
  719TMC3    C210625   1.952   1.998  12.496  0.4758 -0.0747 -0.2381
  719TMC3    C310626   1.929   2.068  12.385  0.6613 -0.4585  0.2796
  719TMC3    C410627   2.016   2.199  12.609 -0.3832 -0.7234  0.1797
  719TMC3    C510628   2.014   2.263  12.491  0.1115  0.0036  0.0401
  719TMC3    C610629   1.965   2.196  12.380  0.4147 -0.2104  0.0875
  719TMC3     C10630   1.927   2.015  12.729  0.0034 -0.5841 -0.1591
  719TMC3     O10631   1.830   1.946  12.702  0.6421 -0.2414  0.7232
  719TMC3     H10632   1.936   1.891  12.491 -1.5939  0.3104 -1.8508
  719TMC3    H110633   2.057   2.259  12.690 -0.7772 -0.0036 -0.1554
  719TMC3    H210634   1.949   2.242  12.283 -1.5618 -1.4035 -0.1512
  719TMC3    C710635   2.113   2.368  12.452  0.2246 -0.3557 -0.6058
  719TMC3    C810636   1.796   2.040  12.329  0.1020 -0.2113 -0.4593
  719TMC3    O110637   2.159   2.346  12.340 -0.4021 -0.1281  0.1473
  719TMC3    O210638   1.758   2.090  12.223  0.0896 -0.0826 -0.2732
  720MPD2     C10639   0.080   3.206  14.404  0.6005  0.4349 -0.3329
  720MPD2    C110640   0.187   3.248  14.327  0.0960  0.1298  0.0722
  720MPD2    C210641   0.312   3.249  14.385  0.1261 -0.4265 -0.1278
  720MPD2    C310642   0.336   3.203  14.510  0.5931 -0.0182 -0.4585
  720MPD2    C410643   0.235   3.157  14.587 -0.5145 -0.0760  0.5311
  720MPD2    C510644   0.105   3.165  14.537 -0.4171 -0.1557 -0.3126
  720MPD2     H10645   0.397   3.269  14.321  0.1181  0.6590  0.2145
  720MPD2    H110646   0.241   3.126  14.691 -0.2368  1.0464  0.8517
  720MPD2    H210647   4.692   3.205  14.385  0.0519  0.8632  2.6667
  720MPD2    H310648   0.015   3.153  14.595  1.2613 -1.1217  2.0600
  720MPD2     N10649   0.466   3.208  14.566  0.2444 -0.4000 -0.0490
  720MPD2    H510650   0.545   3.242  14.512 -1.3581  2.9862 -0.2792
  720MPD2    N110651   0.171   3.304  14.197  0.1431 -0.1489 -0.4854
  720MPD2    H710652   0.252   3.350  14.156  0.3233  0.3873  0.4748
  721TMC3    C110653   0.658   3.158  14.709  0.1344 -0.0370 -0.7401
  721TMC3    C210654   0.704   3.133  14.836  0.8319 -0.2714  0.4608
  721TMC3    C310655   0.838   3.152  14.868 -0.3222  0.1306  0.3198
  721TMC3    C410656   0.740   3.212  14.612 -0.7016  0.4065  0.0521
  721TMC3    C510657   0.870   3.229  14.642 -1.0789  0.4207  0.7843
  721TMC3    C610658   0.921   3.195  14.769 -0.2957 -0.2969 -0.0048
  721TMC3     C10659   0.512   3.155  14.687  0.4212  0.2807 -0.0060
  721TMC3     O10660   0.453   3.106  14.780 -0.2222  0.3846 -0.3483
  721TMC3     H10661   0.625   3.092  14.897 -0.2735 -0.2184 -0.9331
  721TMC3    H110662   0.703   3.225  14.511  0.4251 -0.7788 -0.5114
  721TMC3    H210663   1.026   3.200  14.792  0.0993 -0.8664 -1.6975
  721TMC3    C710664   0.960   3.282  14.545  0.8423  0.2330  0.0457
  721TMC3    C810665   0.897   3.066  14.966  0.1263  0.0099 -0.2757
  721TMC3    O110666   1.081   3.286  14.583 -0.3557  0.1508  0.5480
  721TMC3    O210667   1.000   3.014  14.927  0.3156 -0.2459 -0.1789
  722MPD2     C10668   4.028   2.077  13.090  0.3749 -0.7395 -0.6112
  722MPD2    C110669   3.972   2.177  13.162  0.0776 -0.1787  0.9141
  722MPD2    C210670   3.872   2.251  13.109  0.1464 -0.3536  0.1262
  722MPD2    C310671   3.832   2.224  12.977 -0.1253  0.6544  0.2170
  722MPD2    C410672   3.887   2.125  12.908  0.1923 -0.0401 -0.3589
  722MPD2    C510673   3.988   2.050  12.967  0.1330  0.6253 -0.4775
  722MPD2     H10674   3.834   2.336  13.164  1.8645  1.6118 -1.7273
  722MPD2    H110675   3.848   2.093  12.812 -0.1317 -4.7706  1.3621
  722MPD2    H210676   4.095   2.014  13.146 -1.5938 -2.4691 -0.1912
  722MPD2    H310677   4.022   1.961  12.916 -3.3847 -0.2861 -1.2121
  722MPD2     N10678   3.720   2.286  12.914 -0.0617 -0.8336 -0.4869
  722MPD2    H510679   3.691   2.244  12.826 -2.0429 -1.9717  0.7154
  722MPD2    N110680   4.026   2.211  13.285 -0.0609  0.4087  0.7012
  722MPD2    H710681   4.116   2.170  13.309 -0.0693 -0.9546 -1.5794
  723TMC3    C110682   3.552   2.443  12.869  0.1235 -0.0072  0.2926
  723TMC3    C210683   3.459   2.349  12.824 -0.2938 -0.4884 -0.3662
  723TMC3    C310684   3.349   2.387  12.750 -0.1695  0.1113  0.1883
  723TMC3    C410685   3.536   2.575  12.842  0.0025  0.0339 -0.1731
  723TMC3    C510686   3.423   2.613  12.773  0.1627  0.6637 -0.4063
  723TMC3    C610687   3.325   2.521  12.735  0.0698  0.0738 -0.0953
  723TMC3     C10688   3.658   2.401  12.960  0.8032 -0.2952  0.3309
  723TMC3     O10689   3.687   2.471  13.058 -0.3351 -0.2825  0.1467
  723TMC3     H10690   3.477   2.243  12.837 -0.8330 -0.2188  2.5925
  723TMC3    H110691   3.606   2.651  12.875  2.2412 -0.9597 -2.6331
  723TMC3    H210692   3.235   2.544  12.679 -0.3174 -0.4182  0.3307
  723TMC3    C710693   3.411   2.753  12.754  0.2763  0.6554  0.0114
  723TMC3    C810694   3.238   2.290  12.746 -0.7779  0.1201 -0.6203
  723TMC3    O110695   3.462   2.824  12.838 -0.5419 -0.3425  0.0264
  723TMC3    O210696   3.123   2.336  12.763  0.5285 -0.5703 -0.2575
  724TMC3    C110697   4.354   4.479   9.666  0.3406  0.2308 -0.3144
  724TMC3    C210698   4.322   4.603   9.607 -0.2737  0.2384  0.2094
  724TMC3    C310699   4.421   4.698   9.612 -0.4055 -0.8000  0.2583
  724TMC3    C410700   4.486   4.446   9.701  0.4219 -0.2034 -0.1676
  724TMC3    C510701   4.580   4.547   9.705 -0.0124  0.0214  0.3168
  724TMC3    C610702   4.545   4.670   9.663  0.0025 -0.2191  0.0483
  724TMC3     C10703   4.251   4.377   9.680 -0.0202  0.0911 -0.1640
  724TMC3     O10704   4.144   4.402   9.624 -0.6565  0.0765  0.6468
  724TMC3     H10705   4.216   4.625   9.600 -0.3034  0.7258  2.2129
  724TMC3    H110706   4.518   4.344   9.714 -0.8380 -0.6316 -0.4886
  724TMC3    H210707   4.623   0.019   9.633  0.7671 -1.5535 -1.0221
  724TMC3    C710708   0.002   4.497   9.713 -0.0324  0.2901  0.0633
  724TMC3    C810709   4.376   0.115   9.573  0.5660  0.1218  0.9831
  724TMC3    O110710   0.018   4.373   9.708  0.4443 -0.4564 -0.0688
  724TMC3    O210711   4.259   0.144   9.548 -0.3184 -0.1402 -0.1054
  725TMC3    C110712   0.723   3.500  12.923 -0.8234 -0.4375 -0.4164
  725TMC3    C210713   0.671   3.515  12.800  0.4952 -0.4550 -0.1319
  725TMC3    C310714   0.555   3.446  12.771  0.0268  0.6549 -0.1265
  725TMC3    C410715   0.669   3.408  13.013  0.2467  0.1408  0.6631
  725TMC3    C510716   0.560   3.335  12.976 -0.2938  0.3972 -0.2683
  725TMC3    C610717   0.490   3.364  12.861 -0.3375  0.1644  0.4368
  725TMC3     C10718   0.824   3.595  12.971 -0.6399  0.4062  0.3584
  725TMC3     O10719   0.885   3.661  12.888 -0.0091  0.1125 -0.0266
  725TMC3     H10720   0.740   3.560  12.729 -1.7825  2.3512 -0.5708
  725TMC3    H110721   0.712   3.387  13.110 -1.1402 -1.9988  0.8082
  725TMC3    H210722   0.412   3.293  12.833  0.5409 -0.3081 -0.7879
  725TMC3    C710723   0.555   3.201  13.032  1.0260  0.2810  0.5964
  725TMC3    C810724   0.508   3.421  12.635  0.0532  1.0195 -0.0719
  725TMC3    O110725   0.447   3.140  13.015  0.0489  0.4167  0.0056
  725TMC3    O210726   0.433   3.327  12.616  0.2606  0.4623 -0.0717
  726MPD2     C10727   3.576   4.519  10.127  0.0563  0.2991 -0.1199
  726MPD2    C110728   3.609   4.641  10.197  0.5429  0.4764  0.4400
  726MPD2    C210729   3.522   4.717  10.268 -0.2734  0.0979  0.0872
  726MPD2    C310730   3.399   4.660  10.298 -0.6869  1.1800 -0.3193
  726MPD2    C410731   3.360   4.543  10.226  0.3834 -0.0513  0.0613
  726MPD2    C510732   3.446   4.479  10.137  0.1299 -0.1247 -0.1292
  726MPD2     H10733   3.559   0.093  10.303  1.2226  0.2678 -1.9719
  726MPD2    H110734   3.260   4.505  10.241 -0.6248  2.6572  0.2691
  726MPD2    H210735   3.639   4.465  10.058 -1.4768 -2.0258  0.3131
  726MPD2    H310736   3.411   4.394  10.080 -3.1425 -0.2292  2.0231
  726MPD2     N10737   3.305   0.008  10.375 -0.4239  0.3946  0.4119
  726MPD2    H510738   3.214   4.683  10.387 -0.7003  1.1145  0.9719
  726MPD2    N110739   3.736   4.697  10.180  0.2372  0.4844 -0.2423
  726MPD2    H710740   3.749   0.072  10.216  0.6741 -0.3816  1.8800
  727TMC3    C110741   3.957   0.016  10.160 -0.9455 -0.3635 -0.1657
  727TMC3    C210742   4.040   4.696  10.257  0.4708  0.3448  0.4180
  727TMC3    C310743   4.134   0.066  10.305  0.1794 -0.3215  0.3541
  727TMC3    C410744   3.943   0.149  10.127  0.0959  0.9341  0.4120
  727TMC3    C510745   4.039   0.242  10.174 -0.0242 -0.0334  0.4118
  727TMC3    C610746   4.140   0.196  10.259 -0.5919 -0.4597 -0.2910
  727TMC3     C10747   3.849   4.641  10.132  0.6181 -0.2716 -0.3136
  727TMC3     O10748   3.867   4.517  10.114  0.3022  0.0556  0.5918
  727TMC3     H10749   4.044   4.591  10.284 -0.3156  0.2184  0.0350
  727TMC3    H110750   3.873   0.185  10.052  0.7637  1.1066 -0.1232
  727TMC3    H210751   4.220   0.257  10.299  0.8650 -2.9466  0.5264
  727TMC3    C710752   4.038   0.375  10.115  0.4322 -0.3901  0.2548
  727TMC3    C810753   4.195   0.045  10.438 -0.5064  0.4596  0.2288
  727TMC3    O110754   3.980   0.388  10.012 -0.4223 -0.2458  0.2579
  727TMC3    O210755   4.307   0.090  10.452  0.6144  0.1174 -0.2215
  728TMC3    C110756   2.858   3.686  15.287 -0.2423 -0.6134  0.0526
  728TMC3    C210757   2.885   3.819  15.320 -0.2273  0.5608  0.4802
  728TMC3    C310758   2.877   3.915  15.224  0.4550  0.1545  0.4722
  728TMC3    C410759   2.822   3.648  15.157 -0.3696  1.0749  0.5567
  728TMC3    C510760   2.802   3.757  15.071 -0.3677  1.0907  0.8665
  728TMC3    C610761   2.834   3.883  15.101  0.1197  0.1572  0.1742
  728TMC3     C10762   2.818   3.602  15.402 -0.4138  0.0984 -0.3236
  728TMC3     O10763   2.883   3.615  15.503 -0.9939 -0.4707 -0.0791
  728TMC3     H10764   2.906   3.847  15.422 -2.9218 -1.2061  1.5303
  728TMC3    H110765   2.797   3.544  15.139 -1.2091  0.7808  3.3487
  728TMC3    H210766   2.819   3.961  15.027  0.1350  0.5613  0.5896
  728TMC3    C710767   2.744   3.718  14.943  0.2222 -0.6813 -0.0772
  728TMC3    C810768   2.886   4.058  15.248  0.2693 -0.3600 -0.5042
  728TMC3    O110769   2.674   3.618  14.938  0.1399  0.0223 -0.5864
  728TMC3    O210770   2.858   4.138  15.157 -0.3743 -0.3457 -0.3587
  729MPD2     C10771   0.067   4.212  16.562 -0.5550 -0.6238  0.5605
  729MPD2    C110772   0.186   4.276  16.526 -0.2263 -0.3845 -0.1906
  729MPD2    C210773   0.275   4.309  16.627 -0.3213  0.0777 -0.2340
  729MPD2    C310774   0.246   4.274  16.758 -0.0743 -0.0223  0.0294
  729MPD2    C410775   0.121   4.226  16.792  0.5478 -0.0171 -0.2206
  729MPD2    C510776   0.032   4.196  16.693 -0.1293  0.5903 -0.5828
  729MPD2     H10777   0.366   4.365  16.605  0.8295 -2.0255 -0.8437
  729MPD2    H110778   0.094   4.190  16.891  3.2634 -1.1726  0.1079
  729MPD2    H210779   4.717   4.173  16.488  1.1127  0.8907 -1.8101
  729MPD2    H310780   4.660   4.139  16.707  1.1383 -1.3439 -0.2809
  729MPD2     N10781   0.336   4.304  16.865 -0.1064  1.3898  0.2156
  729MPD2    H510782   0.297   4.297  16.959  1.8481 -0.7031  0.8470
  729MPD2    N110783   0.199   4.305  16.391  0.4063  0.5495 -0.0696
  729MPD2    H710784   0.117   4.313  16.331 -0.2102 -1.4749  0.5055
  730TMC3    C110785   0.537   4.344  16.979 -0.2180  0.3883  0.9080
  730TMC3    C210786   0.673   4.358  16.976 -0.0700 -0.6322  0.3182
  730TMC3    C310787   0.744   4.448  17.056 -0.2700  0.0109  0.0951
  730TMC3    C410788   0.465   4.391  17.090  0.8095  0.8076 -0.7114
  730TMC3    C510789   0.535   4.499  17.152  0.5126 -0.3847 -0.5303
  730TMC3    C610790   0.672   4.524  17.147  0.1752  0.4272  0.2553
  730TMC3     C10791   0.472   4.310  16.853 -0.1601 -0.0682  0.2964
  730TMC3     O10792   0.536   4.294  16.749  0.2125  0.6105  0.3163
  730TMC3     H10793   0.723   4.320  16.887 -2.9223 -1.2684 -1.0251
  730TMC3    H110794   0.359   4.413  17.090  0.8237  0.8256  1.2825
  730TMC3    H210795   0.718   4.613  17.190  1.4068 -0.4251  0.6889
  730TMC3    C710796   0.453   4.618  17.161 -0.2130 -0.2766 -0.5252
  730TMC3    C810797   0.878   4.493  17.009 -0.6409 -0.1679 -0.3955
  730TMC3    O110798   0.359   4.633  17.085 -0.1197 -0.2449 -0.2860
  730TMC3    O210799   0.913   4.446  16.898  0.1017  0.0507  0.9038
  731MPD2     C10800   0.839   2.366  12.936 -0.2246 -0.2924  0.9377
  731MPD2    C110801   0.725   2.375  12.860 -0.1329  0.4142  0.0143
  731MPD2    C210802   0.603   2.412  12.923 -0.1376 -0.4425  0.5830
  731MPD2    C310803   0.597   2.413  13.061  0.2209  0.3445 -0.2043
  731MPD2    C410804   0.709   2.384  13.138 -0.0087 -0.1286  0.0281
  731MPD2    C510805   0.832   2.366  13.075 -0.6180  0.2888 -0.6538
  731MPD2     H10806   0.512   2.420  12.866  0.0014 -0.8430  0.3051
  731MPD2    H110807   0.704   2.383  13.247 -0.7348  0.8173  0.0036
  731MPD2    H210808   0.937   2.344  12.896 -1.0700  0.1656 -1.3606
  731MPD2    H310809   0.915   2.355  13.143 -0.6518  1.7065 -0.3671
  731MPD2     N10810   0.467   2.441  13.120  0.0067  0.1846  0.0026
  731MPD2    H510811   0.386   2.467  13.065  0.7165  1.1259 -0.6106
  731MPD2    N110812   0.742   2.376  12.717  0.1982  0.3581 -0.1728
  731MPD2    H710813   0.838   2.368  12.683 -0.3635  0.9484 -1.9246
  732TMC3    C110814   0.686   2.367  12.491  0.3186  1.1979 -0.3082
  732TMC3    C210815   0.606   2.304  12.398 -0.2455 -0.5474 -1.0559
  732TMC3    C310816   0.653   2.294  12.271 -0.5824  0.5855  0.1332
  732TMC3    C410817   0.809   2.404  12.465  0.0160 -0.2257  0.6065
  732TMC3    C510818   0.851   2.392  12.332  0.3085  0.3647  0.8261
  732TMC3    C610819   0.777   2.341  12.237 -0.3014 -0.8041  0.9875
  732TMC3     C10820   0.639   2.368  12.626  0.2344  0.4532 -0.0763
  732TMC3     O10821   0.517   2.364  12.650 -0.5755 -0.5356  0.5130
  732TMC3     H10822   0.506   2.276  12.431 -0.2312  1.0017  0.2724
  732TMC3    H110823   0.852   2.476  12.535  2.5532 -0.4508 -0.7317
  732TMC3    H210824   0.815   2.339  12.136 -0.2004  0.3802  1.0018
  732TMC3    C710825   0.936   2.503  12.297 -0.2101 -0.0393 -0.6215
  732TMC3    C810826   0.561   2.273  12.163 -0.0592 -0.1968  0.0922
  732TMC3    O110827   0.914   2.535  12.182  0.0359 -0.0822 -0.0927
  732TMC3    O210828   0.611   2.241  12.051 -0.2971  0.1116  0.1341
  733TMC3    C110829   1.152   1.761  13.075  0.5978  0.0288  0.3247
  733TMC3    C210830   1.264   1.771  13.146 -0.4689 -0.8380  0.0809
  733TMC3    C310831   1.379   1.770  13.069 -0.2187 -0.0557  0.4862
  733TMC3    C410832   1.137   1.737  12.939 -0.3176 -0.2200  0.7964
  733TMC3    C510833   1.253   1.750  12.865 -0.6861  0.4843 -0.3334
  733TMC3    C610834   1.374   1.761  12.935  0.3209  0.5570 -0.0485
  733TMC3     C10835   1.031   1.756  13.148  0.1635  0.5151  0.7724
  733TMC3     O10836   1.009   1.854  13.214  0.0079  0.5475  0.6715
  733TMC3     H10837   1.266   1.776  13.254  1.9498 -0.4657  0.0122
  733TMC3    H110838   1.038   1.749  12.896 -0.0598 -0.7904  0.0355
  733TMC3    H210839   1.463   1.722  12.885  0.3055  0.0407  0.3250
  733TMC3    C710840   1.242   1.777  12.722 -0.1821  0.3016  0.4581
  733TMC3    C810841   1.503   1.812  13.134  0.0755  0.0958  0.3593
  733TMC3    O110842   1.144   1.753  12.650  0.1425 -0.5086  0.1247
  733TMC3    O210843   1.523   1.781  13.248 -0.1859  0.1289 -0.3803
  734MPD2     C10844   3.725   4.262  11.757  0.1089  0.5260 -0.5597
  734MPD2    C110845   3.646   4.146  11.764 -0.3804 -0.0400 -0.1747
  734MPD2    C210846   3.592   4.099  11.649 -0.2539 -0.2837  0.2031
  734MPD2    C310847   3.624   4.154  11.522  0.9510  0.4170 -0.1702
  734MPD2    C410848   3.709   4.264  11.517 -0.1449 -0.3482  0.0489
  734MPD2    C510849   3.759   4.315  11.634 -0.1738  0.4889 -0.0919
  734MPD2     H10850   3.532   4.009  11.642  0.4409 -0.7802  0.6887
  734MPD2    H110851   3.746   4.303  11.423  0.0954 -0.0637  0.2620
  734MPD2    H210852   3.780   4.305  11.840 -1.2758 -0.5051  0.9058
  734MPD2    H310853   3.835   4.391  11.617 -1.1530  1.7658  1.2211
  734MPD2     N10854   3.554   4.099  11.413 -1.1155 -0.4060 -0.0011
  734MPD2    H510855   3.514   4.010  11.441 -3.0799  0.9034  1.3979
  734MPD2    N110856   3.599   4.091  11.888  1.1441 -0.2743  0.0028
  734MPD2    H710857   3.647   4.119  11.973  0.3929 -1.3166  0.7642
  735TMC3    C110858   3.432   3.966  12.016  0.1942 -1.2427 -1.1050
  735TMC3    C210859   3.295   3.938  12.013 -0.0969 -0.9360  0.5313
  735TMC3    C310860   3.258   3.817  12.067  0.0144 -0.7373 -0.5483
  735TMC3    C410861   3.522   3.898  12.094 -0.2706  0.4556  0.2379
  735TMC3    C510862   3.472   3.795  12.166 -0.2628 -0.5971  0.7744
  735TMC3    C610863   3.344   3.752  12.149 -0.0899  0.2896  0.1329
  735TMC3     C10864   3.482   4.023  11.894  0.2609  0.4594 -0.0228
  735TMC3     O10865   3.395   3.995  11.813 -0.4635  0.7150  0.1186
  735TMC3     H10866   3.223   3.987  11.949 -2.1353 -2.1916  1.8953
  735TMC3    H110867   3.629   3.919  12.093 -0.1706 -0.0715 -0.7471
  735TMC3    H210868   3.303   3.670  12.208  1.0513  0.4006  1.0708
  735TMC3    C710869   3.562   3.705  12.224  0.0500  0.1370 -0.0730
  735TMC3    C810870   3.196   3.719  11.981  1.3405  0.0967 -0.2471
  735TMC3    O110871   3.680   3.715  12.191  0.6202  0.6943 -0.4858
  735TMC3    O210872   3.150   3.621  12.030 -0.1030  0.0656  0.6722
  736MPD2     C10873   3.502   3.468  12.496  0.1857 -0.3346 -0.2586
  736MPD2    C110874   3.577   3.525  12.399  0.5786  0.1643  0.6294
  736MPD2    C210875   3.704   3.469  12.366  0.9692 -0.2866 -0.5626
  736MPD2    C310876   3.747   3.347  12.428 -0.3911 -0.3351 -0.0879
  736MPD2    C410877   3.657   3.290  12.511  0.3847  0.0564 -0.0155
  736MPD2    C510878   3.541   3.353  12.546 -0.6865  0.2220  0.1081
  736MPD2     H10879   3.764   3.526  12.296  1.6955  0.8986  1.0033
  736MPD2    H110880   3.674   3.201  12.571 -1.4101  0.9377  1.8087
  736MPD2    H210881   3.398   3.493  12.516 -0.7660 -1.7447 -3.4824
  736MPD2    H310882   3.475   3.305  12.616  0.5764 -0.2815  0.9560
  736MPD2     N10883   3.878   3.289  12.411 -0.2830 -0.0518  0.3382
  736MPD2    H510884   3.893   3.202  12.461 -0.0761 -1.5201 -2.2636
  736MPD2    N110885   3.509   3.630  12.332  0.2140  0.1084 -0.1556
  736MPD2    H710886   3.419   3.660  12.368 -0.6094  0.7715 -2.7593
  737TMC3    C110887   4.106   3.276  12.327  0.1719 -0.7321 -0.4928
  737TMC3    C210888   4.214   3.352  12.284  0.1322  0.2167 -0.3010
  737TMC3    C310889   4.305   3.280  12.212 -0.1883  0.3948  0.1234
  737TMC3    C410890   4.098   3.141  12.308  0.6558  0.3596  0.0082
  737TMC3    C510891   4.194   3.075  12.238  0.1190  0.4755  0.1507
  737TMC3    C610892   4.305   3.140  12.193 -0.4053  0.5649  0.3307
  737TMC3     C10893   3.979   3.349  12.347 -0.4133  0.3852  0.2125
  737TMC3     O10894   3.979   3.458  12.293 -0.0794  0.8384  0.0719
  737TMC3     H10895   4.225   3.459  12.296 -3.3413  0.5849 -0.5222
  737TMC3    H110896   4.013   3.083  12.342  0.2817  0.2358 -1.1284
  737TMC3    H210897   4.385   3.081  12.151 -1.3201 -0.8350  0.5435
  737TMC3    C710898   4.187   2.935  12.207  0.0939  0.0400  0.3327
  737TMC3    C810899   4.403   3.360  12.137  0.4757  0.0225 -0.3764
  737TMC3    O110900   4.125   2.856  12.279  0.8850 -0.2382 -0.0392
  737TMC3    O210901   4.412   3.477  12.170  0.0599  0.2105  0.3398
  738MPD2     C10902   4.442   1.180  15.323 -0.3511 -0.2458  0.2133
  738MPD2    C110903   4.402   1.283  15.234  0.1924  0.3093 -0.4910
  738MPD2    C210904   4.512   1.354  15.182 -0.2259  0.3164 -0.4406
  738MPD2    C310905   4.642   1.342  15.215 -0.3776 -0.5055  0.0206
  738MPD2    C410906   4.668   1.253  15.321  0.5229 -0.6440  0.0585
  738MPD2    C510907   4.578   1.163  15.366 -0.3977  0.9204  1.0668
  738MPD2     H10908   4.487   1.441  15.123 -0.2768 -0.8693 -2.1598
  738MPD2    H110909   0.049   1.242  15.358  1.0557  0.5180 -1.0408
  738MPD2    H210910   4.368   1.110  15.358 -0.8822  0.2428  0.0658
  738MPD2    H310911   4.601   1.091  15.444 -2.6336  0.7081  1.5245
  738MPD2     N10912   0.032   1.420  15.158 -0.1232 -0.8281  0.4748
  738MPD2    H510913   0.122   1.421  15.205  0.4116 -1.6436 -0.5248
  738MPD2    N110914   4.263   1.292  15.186 -0.3111  0.1971 -0.3809
  738MPD2    H710915   4.253   1.324  15.090  3.5625 -2.6976 -1.7311
  739TMC3    C110916   0.132   1.574  15.011 -0.2736  0.0661  0.0253
  739TMC3    C210917   0.104   1.680  14.940  0.7496  0.9365 -0.1220
  739TMC3    C310918   0.203   1.765  14.901 -0.4059  0.4275  0.3376
  739TMC3    C410919   0.260   1.544  15.049 -0.0657 -0.1096 -0.2592
  739TMC3    C510920   0.360   1.633  15.022  1.1686  0.1177  0.4226
  739TMC3    C610921   0.334   1.739  14.942  0.1608  0.6014 -0.3419
  739TMC3     C10922   0.018   1.498  15.050 -0.0880 -0.1735  0.6665
  739TMC3     O10923   4.641   1.523  14.980  0.4112  0.3286 -0.6134
  739TMC3     H10924   0.006   1.704  14.900  1.2494  1.3577 -1.0994
  739TMC3    H110925   0.270   1.458  15.115 -0.5589 -0.6479 -0.8827
  739TMC3    H210926   0.421   1.798  14.917  1.3951 -0.5285  1.2322
  739TMC3    C710927   0.495   1.597  15.039 -0.7219  0.1009 -0.4306
  739TMC3    C810928   0.152   1.879  14.835  0.0909  0.0668 -0.6717
  739TMC3    O110929   0.569   1.693  15.031  0.2069  0.3784  0.3608
  739TMC3    O210930   0.036   1.884  14.796 -0.0328  0.3005 -0.2448
  740TMC3    C110931   0.237   3.550  14.558  1.3553  0.3806  0.1658
  740TMC3    C210932   0.277   3.516  14.690  0.3497 -0.2077  0.2318
  740TMC3    C310933   0.411   3.507  14.707 -0.0549 -0.6501  0.4214
  740TMC3    C410934   0.325   3.587  14.459  0.1948  0.5033 -0.0388
  740TMC3    C510935   0.457   3.575  14.480 -0.5744  0.2853 -0.0984
  740TMC3    C610936   0.503   3.538  14.604  0.1733  0.3987 -0.0277
  740TMC3     C10937   0.103   3.600  14.537 -0.6011 -0.5102 -0.1857
  740TMC3     O10938   0.096   3.718  14.496 -0.2329  0.2409  0.1850
  740TMC3     H10939   0.213   3.474  14.765 -1.3304  2.2940  0.1986
  740TMC3    H110940   0.283   3.591  14.360  1.5963  2.8261 -0.5250
  740TMC3    H210941   0.609   3.534  14.623 -0.2502 -0.1507  2.1658
  740TMC3    C710942   0.531   3.503  14.366  0.2051  0.1980 -0.2986
  740TMC3    C810943   0.466   3.472  14.839 -0.3231 -0.2171  0.4550
  740TMC3    O110944   0.614   3.421  14.393 -0.5883 -0.6996 -0.2993
  740TMC3    O210945   0.583   3.494  14.858 -0.2341 -0.2742  0.2837
  741TMC3    C110946   0.069   2.663  15.085  0.0885 -0.4970  0.4339
  741TMC3    C210947   4.668   2.663  15.010 -0.0481 -0.1463 -0.3783
  741TMC3    C310948   4.626   2.544  14.952 -0.5163 -0.4399  0.0807
  741TMC3    C410949   0.136   2.541  15.103 -0.1019  0.2039  0.5001
  741TMC3    C510950   0.077   2.427  15.057  0.6653 -0.1512  0.3079
  741TMC3    C610951   4.682   2.421  14.979 -0.2947  0.0382 -0.1714
  741TMC3     C10952   0.092   2.774  15.177 -0.6824 -0.7608 -0.4298
  741TMC3     O10953   4.714   2.849  15.195 -0.1370 -0.8241  0.0556
  741TMC3     H10954   4.607   2.753  15.004  0.4301  0.1594 -0.6340
  741TMC3    H110955   0.230   2.534  15.155  0.5468 -1.4391 -0.8964
  741TMC3    H210956   4.651   2.328  14.932 -2.2119 -0.9260  2.9867
  741TMC3    C710957   0.137   2.302  15.106  0.3273 -0.1802 -0.4029
  741TMC3    C810958   4.501   2.558  14.882  0.5742 -1.2613 -0.3576
  741TMC3    O110959   0.247   2.316  15.160 -0.2376  0.4190  0.6620
  741TMC3    O210960   4.456   2.672  14.854 -0.1077 -0.2976 -0.0162
  742TMC3    C110961   4.182   0.632  15.645  0.5118  0.1965  0.5686
  742TMC3    C210962   4.101   0.664  15.538  0.8318  0.2580 -0.6414
  742TMC3    C310963   4.167   0.739  15.441 -1.3722  0.5215  0.6395
  742TMC3    C410964   4.305   0.673  15.664  0.4282  0.5030 -0.2474
  742TMC3    C510965   4.368   0.736  15.560 -0.0399  0.4141  0.5831
  742TMC3    C610966   4.300   0.766  15.448  0.0825 -0.3709 -0.0689
  742TMC3     C10967   4.146   0.535  15.744  0.3543 -0.1802 -0.1662
  742TMC3     O10968   4.200   0.532  15.852 -0.7334 -0.9143 -0.1553
  742TMC3     H10969   4.002   0.627  15.514  0.8181 -1.4858  2.0884
  742TMC3    H110970   4.368   0.647  15.749  1.8918  0.1318 -1.4469
  742TMC3    H210971   4.357   0.806  15.364 -0.0115 -0.3493 -0.1225
  742TMC3    C710972   4.514   0.742  15.559  0.3177  0.3023  0.3790
  742TMC3    C810973   4.107   0.785  15.314 -0.6625 -0.1776 -0.4410
  742TMC3    O110974   4.568   0.695  15.462 -0.2097  0.2921  0.1797
  742TMC3    O210975   4.177   0.803  15.215  0.6259 -0.6292 -0.2206
  743MPD2     C10976   2.775   1.471   2.119 -0.3557  0.0824  0.1699
  743MPD2    C110977   2.828   1.552   2.021 -0.0624  0.1784 -0.2835
  743MPD2    C210978   2.959   1.572   2.017  0.2789 -0.3968  0.2898
  743MPD2    C310979   3.042   1.520   2.114 -0.3135  0.2249  0.0487
  743MPD2    C410980   2.998   1.451   2.220 -0.2494  0.7306 -0.0294
  743MPD2    C510981   2.861   1.423   2.222  0.3330 -0.4502 -0.3517
  743MPD2     H10982   3.003   1.629   1.936 -0.3961  1.4231  1.1927
  743MPD2    H110983   3.069   1.401   2.285 -0.4518  1.6627  0.9107
  743MPD2    H210984   2.673   1.435   2.123 -0.0055 -0.7073  2.2966
  743MPD2    H310985   2.825   1.357   2.301 -1.3261  0.2882 -0.4801
  743MPD2     N10986   3.184   1.541   2.101 -0.0107 -0.0999  0.3171
  743MPD2    H510987   3.202   1.606   2.025 -1.7012 -0.9100 -0.7820
  743MPD2    N110988   2.734   1.597   1.924 -0.6874  0.1862 -0.3933
  743MPD2    H710989   2.635   1.579   1.939  0.1144 -2.5667  1.6625
  744TMC3    C110990   2.660   1.679   1.713 -0.6419  0.6032 -0.7111
  744TMC3    C210991   2.548   1.728   1.770  0.6390  0.1914  0.4948
  744TMC3    C310992   2.465   1.800   1.690  0.3261  0.5908 -0.5628
  744TMC3    C410993   2.686   1.688   1.576 -0.0196  0.2166 -0.2176
  744TMC3    C510994   2.603   1.765   1.499 -0.4830  0.0425  0.0056
  744TMC3    C610995   2.489   1.827   1.554 -0.0389 -0.0441 -1.0197
  744TMC3     C10996   2.771   1.640   1.799  0.1911  0.1654  0.7466
  744TMC3     O10997   2.882   1.645   1.748  0.0498 -0.0976  0.4617
  744TMC3     H10998   2.536   1.726   1.877 -1.3485  1.6922  0.2834
  744TMC3    H110999   2.782   1.653   1.540  0.7157  0.7111  1.2690
  744TMC3    H211000   2.425   1.890   1.495 -1.0596  1.6897  1.9665
  744TMC3    C711001   2.627   1.792   1.362  0.5210 -0.2279  1.2046
  744TMC3    C811002   2.332   1.830   1.736 -0.5814  0.2763 -0.0091
  744TMC3    O111003   2.537   1.853   1.304 -0.3047 -0.5239 -0.0043
  744TMC3    O211004   2.254   1.885   1.657  0.3237  0.2110  0.2305
  745TMC3    C111005   0.565   1.106  13.293 -0.3178 -1.1813 -0.7156
  745TMC3    C211006   0.560   0.981  13.352 -0.8114 -0.3559 -0.4139
  745TMC3    C311007   0.437   0.927  13.379 -0.8148  0.0066  0.0381
  745TMC3    C411008   0.455   1.170  13.253 -0.7109  0.1998 -0.5470
  745TMC3    C511009   0.338   1.102  13.262  0.2325  0.2862  0.0085
  745TMC3    C611010   0.325   0.986  13.327 -0.5034 -0.2150  0.5899
  745TMC3     C11011   0.680   1.190  13.343  0.7246 -0.3424 -0.4499
  745TMC3     O11012   0.780   1.123  13.354  0.3024  0.2364  0.0912
  745TMC3     H11013   0.649   0.920  13.363 -0.3438  0.1821 -1.1477
  745TMC3    H111014   0.463   1.270  13.213  0.0290  0.3853  0.0666
  745TMC3    H211015   0.227   0.942  13.332 -1.5963  2.0565 -0.9070
  745TMC3    C711016   0.230   1.155  13.185 -0.1550  0.0461 -0.0574
  745TMC3    C811017   0.419   0.920  13.521 -0.3864 -0.3324 -0.3356
  745TMC3    O111018   0.180   1.086  13.099 -0.3110  0.1762 -0.4606
  745TMC3    O211019   0.305   0.930  13.562  0.3270  0.6764  0.4183
  746TMC3    C111020   2.431   2.892  11.063  0.1175 -0.0026 -0.1339
  746TMC3    C211021   2.528   2.824  10.988 -0.2145 -0.2034 -0.0464
  746TMC3    C311022   2.478   2.724  10.905  0.0859 -0.1282 -0.4434
  746TMC3    C411023   2.297   2.861  11.055 -0.5071 -0.5622  0.1635
  746TMC3    C511024   2.261   2.757  10.973 -0.0944 -0.2173  0.7431
  746TMC3    C611025   2.357   2.679  10.907 -0.5587  0.1937  0.1269
  746TMC3     C11026   2.447   3.035  11.089 -0.2771 -0.9031 -0.1229
  746TMC3     O11027   2.376   3.082  11.172  0.3263 -0.4129  0.0732
  746TMC3     H11028   2.633   2.853  10.988 -0.3402  0.2508 -1.1088
  746TMC3    H111029   2.222   2.917  11.109 -0.0402 -1.0212  1.2861
  746TMC3    H211030   2.331   2.592  10.846  0.4514 -0.1076  0.1219
  746TMC3    C711031   2.128   2.697  10.989  0.5534  0.3999  0.1555
  746TMC3    C811032   2.546   2.695  10.774 -0.0915  0.4963 -0.1455
  746TMC3    O111033   2.089   2.629  10.892 -0.4246  0.5143  0.3904
  746TMC3    O211034   2.562   2.582  10.726 -0.6009 -0.2593  0.0140
  747TMC3    C111035   4.517   2.610  11.227  0.7309  0.7189 -0.5959
  747TMC3    C211036   4.411   2.602  11.327  1.3324  0.2160 -0.2739
  747TMC3    C311037   4.428   2.667  11.447 -0.0952 -0.2191  0.0412
  747TMC3    C411038   4.635   2.665  11.259  0.1504 -0.3097 -0.7543
  747TMC3    C511039   4.642   2.734  11.384  0.5082 -0.1238 -0.6054
  747TMC3    C611040   4.542   2.738  11.478  0.7475 -0.4121 -0.1446
  747TMC3     C11041   4.488   2.559  11.091  0.6486  0.2516  0.1958
  747TMC3     O11042   4.374   2.542  11.057 -0.3793  0.3636  0.6962
  747TMC3     H11043   4.334   2.529  11.308 -0.1357  1.1833  1.9290
  747TMC3    H111044   4.706   2.678  11.177  0.2664  0.8035 -0.4750
  747TMC3    H211045   4.568   2.767  11.580 -1.8423  1.2999  0.0232
  747TMC3    C711046   0.046   2.795  11.428 -0.6574  0.7106  0.2383
  747TMC3    C811047   4.345   2.619  11.555 -0.5486  0.4748  0.2700
  747TMC3    O111048   0.037   2.885  11.512  0.1243 -0.6810  0.2788
  747TMC3    O211049   4.279   2.518  11.534 -0.2014 -0.0276 -1.5254
  748MPD2     C11050   1.407   2.633   1.428  0.2434 -0.0691  0.2697
  748MPD2    C111051   1.464   2.722   1.518 -0.6649  0.0465 -0.1889
  748MPD2    C211052   1.475   2.856   1.487 -0.0335  0.4160  0.0635
  748MPD2    C311053   1.424   2.914   1.368  0.3834  0.3850  0.1925
  748MPD2    C411054   1.375   2.835   1.271  0.6304 -0.2165 -1.4720
  748MPD2    C511055   1.373   2.693   1.307  0.0039 -0.3512 -0.5652
  748MPD2     H11056   1.522   2.921   1.560 -0.0656  3.0551 -2.2234
  748MPD2    H111057   1.345   2.861   1.170  0.1494  0.1179 -1.2405
  748MPD2    H211058   1.388   2.528   1.447  0.5062  0.1966  2.0684
  748MPD2    H311059   1.332   2.628   1.230  2.3736 -1.8570 -0.5494
  748MPD2     N11060   1.421   3.057   1.364  0.5117  0.0248  1.0391
  748MPD2    H511061   1.468   3.105   1.441 -1.1463  1.3479  1.2260
  748MPD2    N111062   1.505   2.674   1.647  0.4004  0.2640 -0.1201
  748MPD2    H711063   1.485   2.575   1.660  1.6151  0.2394  1.5916
  749TMC3    C111064   1.428   3.269   1.261  0.7157 -0.7841 -0.3826
  749TMC3    C211065   1.528   3.294   1.345 -1.0821  0.0513  0.2082
  749TMC3    C311066   1.565   3.425   1.361  0.3626  0.4646 -0.4966
  749TMC3    C411067   1.357   3.374   1.204 -0.5404 -0.3125 -0.2164
  749TMC3    C511068   1.393   3.502   1.233  1.2172  0.0376  0.4392
  749TMC3    C611069   1.499   3.528   1.310 -0.2863 -0.3109 -0.5812
  749TMC3     C11070   1.376   3.136   1.255  0.0858  0.7639  0.9004
  749TMC3     O11071   1.299   3.113   1.160 -0.0231  0.6941 -0.1392
  749TMC3     H11072   1.595   3.213   1.370  0.4171  1.6768  1.4159
  749TMC3    H111073   1.261   3.352   1.158 -1.9236  3.2957  0.9725
  749TMC3    H211074   1.544   3.627   1.304  1.1429 -0.8434  1.2998
  749TMC3    C711075   1.325   3.620   1.178 -0.5209  0.3427  0.8557
  749TMC3    C811076   1.691   3.456   1.425 -0.3580  0.0821  0.0469
  749TMC3    O111077   1.371   3.728   1.209  0.3805 -0.5510  0.2786
  749TMC3    O211078   1.712   3.574   1.445 -0.3146 -0.3440 -0.1634
  750MPD2     C11079   2.725   0.386  11.019 -0.2693  0.1782 -0.5285
  750MPD2    C111080   2.647   0.316  11.111 -0.2832  0.8459  0.0452
  750MPD2    C211081   2.574   0.200  11.079  0.5000 -0.8087  0.8861
  750MPD2    C311082   2.570   0.151  10.955  0.0391  0.7793  0.1994
  750MPD2    C411083   2.652   0.220  10.872  0.0131  0.6463 -0.4018
  750MPD2    C511084   2.732   0.329  10.894 -0.5124  0.4038  0.6789
  750MPD2     H11085   2.520   0.151  11.159 -0.2003  0.1452  0.9860
  750MPD2    H111086   2.656   0.185  10.769  0.0396 -1.1692  0.2199
  750MPD2    H211087   2.780   0.475  11.044  1.0453 -0.7284 -0.1646
  750MPD2    H311088   2.779   0.376  10.809  0.9777 -0.2281  1.1358
  750MPD2     N11089   2.506   0.036  10.914  0.4076  0.5912  0.2260
  750MPD2    H511090   2.524   4.719  10.821  0.3049  1.3537 -0.0930
  750MPD2    N111091   2.656   0.372  11.240  0.0584 -0.1760 -0.7194
  750MPD2    H711092   2.724   0.446  11.250  2.3716 -2.5812  1.5507
  751TMC3    C111093   2.391   4.561  10.925 -0.4997 -0.0055  0.7618
  751TMC3    C211094   2.263   4.510  10.917  0.1434 -0.0901  0.4542
  751TMC3    C311095   2.236   4.410  10.830 -0.2567 -0.0369 -0.4887
  751TMC3    C411096   2.497   4.515  10.851  0.7929  0.2023 -0.0753
  751TMC3    C511097   2.462   4.413  10.759 -0.2985  0.0085 -0.0986
  751TMC3    C611098   2.332   4.367  10.746 -0.3482 -1.1155  0.0394
  751TMC3     C11099   2.414   4.688  10.991  0.0765  0.1875  0.0542
  751TMC3     O11100   2.354   4.707  11.095  0.1328 -0.5351  0.6716
  751TMC3     H11101   2.191   4.553  10.986  0.9855  1.7256  0.2083
  751TMC3    H111102   2.599   4.533  10.882  0.7680 -2.3895  1.4942
  751TMC3    H211103   2.315   4.285  10.677  0.0224 -1.2557  0.1167
  751TMC3    C711104   2.568   4.319  10.714  0.7417  0.4096  0.3469
  751TMC3    C811105   2.122   4.322  10.856 -0.5034  0.2433 -0.2958
  751TMC3    O111106   2.670   4.322  10.779  0.7031  0.0845 -0.1497
  751TMC3    O211107   2.119   4.219  10.790  0.1032 -0.0262  0.0822
  752TMC3    C111108   0.871   3.997  16.734 -0.5605  0.5523 -0.0758
  752TMC3    C211109   0.918   3.880  16.678 -0.5124 -0.7480 -0.2936
  752TMC3    C311110   0.887   3.759  16.733 -0.6308 -0.2469 -0.5097
  752TMC3    C411111   0.768   3.991  16.823  0.0809  0.6885 -0.4437
  752TMC3    C511112   0.732   3.864  16.864 -0.2831  0.0080 -0.1995
  752TMC3    C611113   0.791   3.744  16.824 -0.2814  0.0778  0.5479
  752TMC3     C11114   0.922   4.121  16.682 -0.2167  0.3850  0.1954
  752TMC3     O11115   1.043   4.122  16.646  0.0742  0.5555 -0.1625
  752TMC3     H11116   1.012   3.886  16.625  0.1046  2.7173  1.1855
  752TMC3    H111117   0.716   4.080  16.856 -3.5176 -1.6760  0.2852
  752TMC3    H211118   0.762   3.646  16.857 -0.1408 -0.3974 -0.7339
  752TMC3    C711119   0.658   3.864  16.989  0.5114 -0.0308 -0.4774
  752TMC3    C811120   0.971   3.650  16.708 -0.3407 -0.5479 -0.7966
  752TMC3    O111121   0.584   3.957  17.010  0.1475  0.0216  0.1269
  752TMC3    O211122   0.972   3.573  16.800 -0.8220 -0.0078 -0.6942
  753TMC3    C111123   3.140   1.452  13.406 -0.3173 -0.4420  0.1228
  753TMC3    C211124   3.150   1.413  13.543 -0.0534 -0.0228  0.2398
  753TMC3    C311125   3.129   1.282  13.571 -0.0119 -0.1925 -0.1095
  753TMC3    C411126   3.108   1.368  13.308 -0.3272 -0.0361  0.5760
  753TMC3    C511127   3.070   1.243  13.348  0.7788 -0.3428 -0.3432
  753TMC3    C611128   3.089   1.192  13.477  0.5994 -0.1459 -0.2752
  753TMC3     C11129   3.171   1.594  13.386  0.8203  0.6912 -0.0993
  753TMC3     O11130   3.159   1.668  13.480 -0.2936 -0.0538 -0.2409
  753TMC3     H11131   3.156   1.491  13.617 -1.3056 -0.6750  1.0193
  753TMC3    H111132   3.101   1.401  13.205  1.1908  1.4383  0.9522
  753TMC3    H211133   3.071   1.089  13.503  1.3640 -0.5373 -1.3221
  753TMC3    C711134   3.034   1.157  13.235  0.2738 -0.1795 -0.4809
  753TMC3    C811135   3.179   1.235  13.701  0.1491 -0.3385  0.0051
  753TMC3    O111136   3.082   1.180  13.125 -0.4811 -0.2120  0.3545
  753TMC3    O211137   3.142   1.123  13.746  0.4349  0.2831 -0.6843
  754MPD2     C11138   1.822   3.649  12.595 -0.5954 -0.0077  0.0791
  754MPD2    C111139   1.840   3.689  12.722  0.5119  0.0830  0.3145
  754MPD2    C211140   1.777   3.799  12.767  0.0319  0.1881  0.5171
  754MPD2    C311141   1.691   3.871  12.688  0.1830  0.0591 -0.4901
  754MPD2    C411142   1.659   3.815  12.566  0.2368  0.1143  0.6938
  754MPD2    C511143   1.740   3.721  12.511  0.3967 -0.3612  0.4532
  754MPD2     H11144   1.799   3.835  12.867  0.4578 -0.4254  0.6458
  754MPD2    H111145   1.593   3.870  12.500  3.4086  3.6277  0.4993
  754MPD2    H211146   1.884   3.569  12.555  1.1397  0.7738  1.2189
  754MPD2    H311147   1.734   3.695  12.406 -0.3915 -1.5974  0.8121
  754MPD2     N11148   1.604   3.961  12.750 -0.1319 -0.3188 -0.7737
  754MPD2    H511149   1.514   3.978  12.705 -0.4297 -0.1977 -0.1407
  754MPD2    N111150   1.926   3.617  12.811 -0.4112  0.2292  0.3632
  754MPD2    H711151   1.937   3.649  12.907 -1.1243  0.5414  0.3419
  755MPD2     C11152   1.510   0.112  13.281 -0.3859 -0.6642  0.2506
  755MPD2    C111153   1.472   0.013  13.374  0.0145 -0.1537 -0.2995
  755MPD2    C211154   1.489   4.601  13.330  0.8137 -0.0815 -0.1902
  755MPD2    C311155   1.521   4.569  13.194  0.8111 -0.1049 -0.6617
  755MPD2    C411156   1.558   4.672  13.109  0.0518 -0.4872  0.1987
  755MPD2    C511157   1.563   0.087  13.156  0.1844  0.1577  0.7211
  755MPD2     H11158   1.460   4.521  13.398 -2.4993  0.7621 -0.6509
  755MPD2    H111159   1.589   4.647  13.008 -0.0415 -0.8288  0.2565
  755MPD2    H211160   1.504   0.215  13.313 -1.0904 -0.0003 -2.0181
  755MPD2    H311161   1.592   0.165  13.086  1.5528 -1.3299 -0.3467
  755MPD2     N11162   1.511   4.436  13.139  0.0285 -0.3160  0.4393
  755MPD2    H511163   1.512   4.423  13.038  0.3184 -2.5285  0.7096
  755MPD2    N111164   1.434   0.030  13.515 -0.2094 -0.1246 -0.5366
  755MPD2    H711165   1.447   4.660  13.561 -2.0215  1.2735  2.6529
  756MPD2     C11166   2.585   0.184   9.350  0.1543  0.8678 -0.9667
  756MPD2    C111167   2.511   0.214   9.462  0.0542 -0.1352  0.3430
  756MPD2    C211168   2.375   0.220   9.445  1.2943 -0.0786 -0.1524
  756MPD2    C311169   2.313   0.201   9.321 -0.7607  0.4384 -0.2931
  756MPD2    C411170   2.392   0.182   9.210 -0.6294 -0.2006  0.0599
  756MPD2    C511171   2.524   0.159   9.228  0.2512  0.5420  0.7421
  756MPD2     H11172   2.306   0.223   9.528 -0.4683 -0.6181 -1.6102
  756MPD2    H111173   2.352   0.160   9.111 -0.5912 -2.9798  0.6665
  756MPD2    H211174   2.693   0.189   9.361 -0.1774  0.9253  2.3577
  756MPD2    H311175   2.585   0.151   9.139 -0.7419  0.1057  0.0998
  756MPD2     N11176   2.173   0.184   9.328  0.3621 -0.1046 -0.3875
  756MPD2    H511177   2.137   0.170   9.422  0.5959 -0.4860 -0.3565
  756MPD2    N111178   2.559   0.241   9.592 -0.0725  0.2434  0.1811
  756MPD2    H711179   2.484   0.261   9.658 -0.8278 -1.5749 -0.1331
  757MPD2     C11180   1.716   4.285   9.880 -0.0585  0.7207 -0.1083
  757MPD2    C111181   1.719   4.225   9.759  0.0700 -0.7047 -0.3704
  757MPD2    C211182   1.729   4.304   9.642 -0.0815  0.0811 -0.2021
  757MPD2    C311183   1.736   4.442   9.663  0.4795 -0.4066  0.0244
  757MPD2    C411184   1.733   4.499   9.791  0.0318 -0.0724 -0.4171
  757MPD2    C511185   1.718   4.422   9.901 -0.5805  1.5608 -0.1949
  757MPD2     H11186   1.726   4.267   9.540 -1.0628 -1.0663  0.2498
  757MPD2    H111187   1.736   4.604   9.819 -4.3311  0.0571 -0.5837
  757MPD2    H211188   1.693   4.231   9.971  0.1639 -4.6416 -3.2387
  757MPD2    H311189   1.715   4.458  10.003 -1.1296  1.0517 -0.0319
  757MPD2     N11190   1.754   4.515   9.544 -0.0056  0.5016  0.2641
  757MPD2    H511191   1.754   4.466   9.455 -1.6139 -0.3603  0.7449
  757MPD2    N111192   1.707   4.092   9.761 -0.5079 -0.2481  0.3468
  757MPD2    H711193   1.704   4.043   9.850 -0.1642 -0.2020  0.3834
  758MPD2     C11194   1.983   3.114  16.051 -0.0934 -0.4329 -0.0805
  758MPD2    C111195   2.086   3.138  16.143 -0.0055 -0.3089 -0.6053
  758MPD2    C211196   2.075   3.243  16.227 -0.9893  0.8750  0.0668
  758MPD2    C311197   1.956   3.327  16.228 -0.8101 -0.4220 -0.3971
  758MPD2    C411198   1.847   3.291  16.152 -0.5066 -0.0772 -0.3723
  758MPD2    C511199   1.863   3.182  16.070  0.1629  0.6518 -0.3231
  758MPD2     H11200   2.159   3.267  16.291 -1.0249  0.5299  0.2407
  758MPD2    H111201   1.755   3.347  16.157 -1.3332 -1.4822  0.0176
  758MPD2    H211202   1.993   3.025  15.990 -2.0672  0.0320 -1.0604
  758MPD2    H311203   1.790   3.153  15.996 -0.0333 -1.3950  0.6722
  758MPD2     N11204   1.932   3.444  16.305  0.2699 -0.5345  0.5986
  758MPD2    H511205   1.850   3.501  16.289  0.6846 -0.1727 -0.2016
  758MPD2    N111206   2.202   3.053  16.147  0.3160  0.1761 -0.4943
  758MPD2    H711207   2.222   2.992  16.068 -1.0300 -1.3902  0.3860
  759MPD2     C11208   1.112   2.708  10.262 -0.7643 -0.1485  0.5981
  759MPD2    C111209   1.102   2.641  10.141  0.9167 -0.3255 -0.0532
  759MPD2    C211210   1.189   2.676  10.035 -0.1475  0.0890  0.6241
  759MPD2    C311211   1.282   2.771  10.043 -0.3695 -0.5361  0.0270
  759MPD2    C411212   1.286   2.841  10.164 -0.7390  0.0670  0.0078
  759MPD2    C511213   1.210   2.801  10.271 -0.5433  0.5618  0.5814
  759MPD2     H11214   1.198   2.618   9.944  0.2283 -1.8592  1.8922
  759MPD2    H111215   1.350   2.927  10.180 -0.1086 -0.2363 -0.8861
  759MPD2    H211216   1.044   2.699  10.347 -0.5017  0.1066  0.8357
  759MPD2    H311217   1.215   2.867  10.357 -0.2094  0.2413  0.8093
  759MPD2     N11218   1.379   2.781   9.941 -0.0060 -0.0708 -0.6539
  759MPD2    H511219   1.364   2.719   9.862 -0.0268  1.9024 -2.2107
  759MPD2    N111220   1.040   2.520  10.129  0.3954  0.0176 -0.1871
  759MPD2    H711221   1.043   2.483  10.034  1.1488  2.1832 -1.0061
  760MPD2     C11222   0.537   4.483  12.295  0.1045 -0.3133 -0.3086
  760MPD2    C111223   0.596   4.502  12.169 -0.1839 -0.3310  0.2792
  760MPD2    C211224   0.644   4.395  12.105  0.1496 -0.2858  0.4729
  760MPD2    C311225   0.626   4.264  12.144  0.2127 -0.7199  0.4973
  760MPD2    C411226   0.562   4.250  12.264 -0.0124 -0.3294  0.5140
  760MPD2    C511227   0.513   4.352  12.332 -0.0379  0.2004 -0.7859
  760MPD2     H11228   0.704   4.411  12.017 -0.7406  1.9787  0.2887
  760MPD2    H111229   0.540   4.156  12.314 -0.4263 -0.0692  0.8288
  760MPD2    H211230   0.514   4.565  12.362  3.5486  0.8455 -0.5119
  760MPD2    H311231   0.472   4.331  12.430  0.9419 -0.5448 -0.5414
  760MPD2     N11232   0.671   4.151  12.076  0.4778 -0.4643  0.0725
  760MPD2    H511233   0.683   4.070  12.135  1.0258  1.4729  2.5968
  760MPD2    N111234   0.616   4.631  12.109 -0.0342  0.0788  0.8056
  760MPD2    H711235   0.643   4.622  12.011 -1.0615  1.7588  0.3551
  761MPD2     C11236   1.673   4.178  11.071 -0.6409  0.8187  0.0382
  761MPD2    C111237   1.769   4.112  11.005 -0.1581  0.0467 -0.6781
  761MPD2    C211238   1.887   4.177  10.962  0.3634 -0.2249 -0.1631
  761MPD2    C311239   1.909   4.307  10.987  0.4916 -0.2695  0.5278
  761MPD2    C411240   1.805   4.377  11.057  0.0388  0.5841  0.2076
  761MPD2    C511241   1.696   4.312  11.098 -0.3637  0.5811  0.6470
  761MPD2     H11242   1.956   4.118  10.902 -0.3747 -0.5347 -0.7117
  761MPD2    H111243   1.802   4.483  11.078  2.7462  0.5497  0.7151
  761MPD2    H211244   1.576   4.133  11.088  0.1568 -0.0068  2.4035
  761MPD2    H311245   1.617   4.371  11.142 -0.9169  0.5579 -0.2933
  761MPD2     N11246   2.024   4.376  10.940 -0.7444 -0.1484  0.2820
  761MPD2    H511247   2.048   4.465  10.982  0.6109  0.1480 -1.1082
  761MPD2    N111248   1.751   3.972  10.990 -0.0682  0.1120  0.0183
  761MPD2    H711249   1.655   3.940  10.996 -0.0438 -0.0332 -0.3655
  762MPD2     C11250   2.289   3.890  10.819 -0.3282 -0.3460  0.2504
  762MPD2    C111251   2.272   3.756  10.820  0.0320 -0.2706  0.1352
  762MPD2    C211252   2.374   3.680  10.769 -0.1926 -0.4784  0.6627
  762MPD2    C311253   2.501   3.727  10.748  0.5456  0.7799  0.3157
  762MPD2    C411254   2.514   3.861  10.754  0.1478 -0.0256 -0.2222
  762MPD2    C511255   2.411   3.943  10.789 -0.3736  0.0973  0.1973
  762MPD2     H11256   2.361   3.573  10.751  1.1835 -0.3849 -0.8590
  762MPD2    H111257   2.608   3.903  10.719  1.8435 -2.0610  1.9271
  762MPD2    H211258   2.213   3.951  10.867  0.1122  0.9253 -0.6877
  762MPD2    H311259   2.442   4.046  10.801 -1.8525  0.4365  1.1418
  762MPD2     N11260   2.603   3.638  10.718 -0.4162 -0.5961  0.1954
  762MPD2    H511261   2.578   3.542  10.697  0.8887 -0.7231 -0.7572
  762MPD2    N111262   2.146   3.704  10.854  0.1138 -0.6569 -0.2643
  762MPD2    H711263   2.080   3.772  10.890 -2.0500 -1.6954 -2.2629
  763MPD2     C11264   3.896   3.626  16.578  0.4322  0.3786 -0.3411
  763MPD2    C111265   3.816   3.714  16.511  0.4566 -0.2370 -0.7813
  763MPD2    C211266   3.787   3.837  16.570  0.0981 -0.2466 -0.2458
  763MPD2    C311267   3.826   3.863  16.706  0.0605 -0.5909 -0.2226
  763MPD2    C411268   3.903   3.766  16.774 -0.5486  0.6707 -0.3154
  763MPD2    C511269   3.940   3.659  16.702  1.0285 -0.0102 -0.6059
  763MPD2     H11270   3.717   3.905  16.522  0.1313 -0.9372 -1.2640
  763MPD2    H111271   3.926   3.779  16.879  2.5526 -0.9209 -0.8062
  763MPD2    H211272   3.934   3.536  16.532  0.0198  0.4994 -0.9214
  763MPD2    H311273   3.996   3.593  16.767  2.8064  1.9131 -0.1750
  763MPD2     N11274   3.796   3.972  16.789  0.3114 -0.2189  0.5150
  763MPD2    H511275   3.829   3.956  16.883  2.6300 -2.8452 -0.7631
  763MPD2    N111276   3.762   3.689  16.384 -0.3669  0.0894 -0.0715
  763MPD2    H711277   3.730   3.770  16.331  1.3076  0.3005 -0.7602
  764MPD2     C11278   0.854   4.092  17.229  1.0600  1.2522 -0.5068
  764MPD2    C111279   0.946   4.188  17.260  0.2213  0.2082 -0.5914
  764MPD2    C211280   0.927   4.253  17.382 -0.5312 -0.3294 -0.5064
  764MPD2    C311281   0.820   4.233  17.467  0.3510  0.5589 -0.4166
  764MPD2    C411282   0.728   4.140  17.425  0.0074  0.4567  0.3403
  764MPD2    C511283   0.748   4.067  17.308  0.5914 -0.8658  0.1247
  764MPD2     H11284   1.005   4.323  17.404 -2.6477  0.8201  3.3755
  764MPD2    H111285   0.639   4.116  17.483  0.5737  1.4795  1.6134
  764MPD2    H211286   0.841   4.057  17.127  0.0282 -0.6380  0.2723
  764MPD2    H311287   0.678   3.992  17.274  0.1503 -0.1259 -0.6057
  764MPD2     N11288   0.817   4.305  17.586  0.6446  0.3043  0.0512
  764MPD2    H511289   0.875   4.388  17.591  0.6578  0.3454 -0.9051
  764MPD2    N111290   1.056   4.222  17.176  0.2063  0.0084 -0.4070
  764MPD2    H711291   1.127   4.287  17.210  0.2460 -1.0504  1.5151
  765MPD2     C11292   1.474   3.126  15.396 -0.0054  0.3698 -0.4871
  765MPD2    C111293   1.553   3.135  15.502 -0.5847  0.7023  0.1716
  765MPD2    C211294   1.691   3.122  15.490  0.6700  0.2663 -0.1266
  765MPD2    C311295   1.743   3.072  15.374 -0.2860 -0.0334  0.4937
  765MPD2    C411296   1.660   3.072  15.262 -0.0899  0.9545  0.2441
  765MPD2    C511297   1.532   3.107  15.270  0.0469  0.1005 -0.2090
  765MPD2     H11298   1.755   3.129  15.578  0.4127 -0.7534  0.1399
  765MPD2    H111299   1.698   3.058  15.161  1.3076 -2.8706  1.3067
  765MPD2    H211300   1.366   3.129  15.403  0.0849 -0.5704  1.2125
  765MPD2    H311301   1.483   3.123  15.174 -1.1706  1.7446  0.7052
  765MPD2     N11302   1.879   3.036  15.363  0.1833 -0.0984  0.0452
  765MPD2    H511303   1.937   3.057  15.443 -0.6913  0.0375  0.6391
  765MPD2    N111304   1.484   3.186  15.617 -0.3751  0.0640 -0.0830
  765MPD2    H711305   1.382   3.179  15.612 -0.3630 -0.3765  0.2655
  766MPD2     C11306   1.083   3.359  15.379 -0.3443 -0.3944  0.2118
  766MPD2    C111307   1.215   3.394  15.407 -0.8370 -0.4823 -0.1861
  766MPD2    C211308   1.299   3.403  15.298 -0.0470  0.0890  0.7983
  766MPD2    C311309   1.256   3.397  15.168  0.0592  0.8834  0.1554
  766MPD2    C411310   1.122   3.367  15.145  0.1636  0.1415  0.2478
  766MPD2    C511311   1.035   3.345  15.249 -1.0335 -0.3131 -0.1654
  766MPD2     H11312   1.404   3.420  15.318 -0.1974 -0.2301  1.8508
  766MPD2    H111313   1.077   3.361  15.046 -1.1693 -1.4211  0.9479
  766MPD2    H211314   1.018   3.344  15.464 -1.0286 -2.1118 -0.6238
  766MPD2    H311315   0.931   3.321  15.231 -0.9787  0.5606 -1.7036
  766MPD2     N11316   1.341   3.412  15.054 -0.4053 -0.7199  0.4911
  766MPD2    H511317   1.303   3.386  14.964 -1.9744  0.7909  0.7173
  766MPD2    N111318   1.260   3.408  15.535 -0.5789  0.1178  0.2717
  766MPD2    H711319   1.361   3.400  15.542 -0.1488  3.9370 -1.3582
  767MPD2     C11320   1.001   3.663  15.129  0.8585 -0.1010 -0.1710
  767MPD2    C111321   1.126   3.708  15.081 -0.0543 -0.2082 -0.5220
  767MPD2    C211322   1.141   3.720  14.942  0.2847 -0.5786 -0.3949
  767MPD2    C311323   1.042   3.675  14.855 -0.1063 -0.1548  0.2858
  767MPD2    C411324   0.921   3.639  14.909 -0.3207 -0.1821  0.2077
  767MPD2    C511325   0.900   3.627  15.044  0.7960 -0.1928  0.0819
  767MPD2     H11326   1.234   3.761  14.905  0.8568 -0.1044  1.5788
  767MPD2    H111327   0.839   3.606  14.846 -0.7082  0.3244  0.4425
  767MPD2    H211328   0.987   3.643  15.235  0.1221 -0.4005 -0.3213
  767MPD2    H311329   0.801   3.598  15.077  0.7990 -0.7361 -0.4069
  767MPD2     N11330   1.069   3.683  14.718 -0.2589  0.4173 -0.3146
  767MPD2    H511331   1.165   3.704  14.692 -0.0115  0.6008  0.7459
  767MPD2    N111332   1.227   3.744  15.177 -0.3233 -0.2398 -0.4511
  767MPD2    H711333   1.202   3.735  15.276  2.1685  0.1567  0.2106
  768MPD2     C11334   2.084   2.318  10.607  0.2340 -0.3535 -0.3103
  768MPD2    C111335   2.060   2.266  10.734 -0.0550  0.5326 -0.2205
  768MPD2    C211336   2.162   2.275  10.830 -0.3564 -0.1235  0.1157
  768MPD2    C311337   2.293   2.305  10.794 -0.2796 -0.1205  0.2494
  768MPD2    C411338   2.314   2.346  10.664  0.4204  0.7018  0.2551
  768MPD2    C511339   2.206   2.368  10.582  0.0817 -0.3160  0.7634
  768MPD2     H11340   2.139   2.247  10.932 -1.5510 -0.0699 -0.1405
  768MPD2    H111341   2.415   2.377  10.638  0.7096 -1.9666 -1.7454
  768MPD2    H211342   2.013   2.316  10.526 -0.9895 -0.2239  0.7660
  768MPD2    H311343   2.222   2.417  10.486 -1.9000 -2.2727 -0.5714
  768MPD2     N11344   2.402   2.323  10.882 -0.6024  0.0746 -0.1866
  768MPD2    H511345   2.486   2.345  10.829 -0.7283 -0.9460 -0.7950
  768MPD2    N111346   1.939   2.205  10.772 -0.3911  0.4107  0.5957
  768MPD2    H711347   1.932   2.160  10.863 -0.4768 -2.0333 -0.6260
  769MPD2     C11348   3.183   4.248  15.305 -0.1693 -0.8238  0.1518
  769MPD2    C111349   3.123   4.371  15.273 -0.3321 -0.2537  0.1871
  769MPD2    C211350   3.116   4.470  15.371  0.1269  1.1096  0.1390
  769MPD2    C311351   3.150   4.443  15.507  0.1564  0.9898 -0.1410
  769MPD2    C411352   3.215   4.318  15.528 -0.5160 -0.4481 -0.1893
  769MPD2    C511353   3.226   4.217  15.432  0.0574 -0.4383 -0.5103
  769MPD2     H11354   3.068   4.564  15.347  2.3087  2.2667  0.2276
  769MPD2    H111355   3.252   4.287  15.625 -0.6952 -1.2295 -0.3687
  769MPD2    H211356   3.188   4.171  15.228  1.6838  1.2366 -1.8126
  769MPD2    H311357   3.260   4.116  15.450  1.7892 -0.0692 -1.7802
  769MPD2     N11358   3.116   4.530  15.614 -0.3901 -0.3253  0.3241
  769MPD2    H511359   3.099   4.629  15.598 -0.6678 -0.6792 -1.5319
  769MPD2    N111360   3.073   4.378  15.138  0.6290 -0.2627  0.3553
  769MPD2    H711361   3.074   4.285  15.097 -3.0417 -1.0016  1.9510
  770MPD2     C11362   2.407   3.887  14.959  0.1556 -0.7134 -0.3336
  770MPD2    C111363   2.472   3.941  15.068  0.9117  0.2269 -0.3000
  770MPD2    C211364   2.564   4.038  15.037  0.5005  0.0576  0.1143
  770MPD2    C311365   2.588   4.085  14.907 -0.3215  0.0243  0.0325
  770MPD2    C411366   2.513   4.036  14.804  0.6500 -0.3395 -0.0468
  770MPD2    C511367   2.431   3.929  14.833 -0.2316  0.0512  0.7943
  770MPD2     H11368   2.625   4.086  15.113 -1.0305  0.8995  0.7960
  770MPD2    H111369   2.537   4.062  14.701 -1.9401  0.1648 -0.5220
  770MPD2    H211370   2.347   3.796  14.960 -0.4285 -0.2794  3.5866
  770MPD2    H311371   2.388   3.874  14.750 -5.4035  0.5117  3.1920
  770MPD2     N11372   2.699   4.168  14.897 -0.1948  0.7973  0.0224
  770MPD2    H511373   2.748   4.202  14.979  1.6143 -1.1443 -0.2545
  770MPD2    N111374   2.456   3.895  15.199  0.3025 -0.1373 -0.0626
  770MPD2    H711375   2.396   3.814  15.202  0.4701 -0.1930  2.2122
  771MPD2     C11376   3.482   3.001  13.707  0.2753 -0.4266 -0.0354
  771MPD2    C111377   3.428   3.124  13.745  0.0712  0.3357  0.0622
  771MPD2    C211378   3.340   3.187  13.657 -0.2574  0.3461  0.0833
  771MPD2    C311379   3.292   3.120  13.543 -0.1001  0.5054 -1.1044
  771MPD2    C411380   3.351   2.994  13.511 -0.2842 -0.5217 -0.7079
  771MPD2    C511381   3.443   2.942  13.594 -0.0061  0.3037  0.0118
  771MPD2     H11382   3.310   3.289  13.680 -1.5328  0.2872 -1.3321
  771MPD2    H111383   3.336   2.935  13.421  1.4215 -1.6223 -0.2604
  771MPD2    H211384   3.570   2.959  13.754  2.0207 -0.9531 -3.7936
  771MPD2    H311385   3.486   2.844  13.577  0.0909  0.5053 -0.9034
  771MPD2     N11386   3.202   3.195  13.459  0.0222 -0.3150  0.1741
  771MPD2    H511387   3.176   3.289  13.486 -0.0768 -0.1955 -0.3460
  771MPD2    N111388   3.469   3.190  13.859 -1.0237  0.3012  0.4496
  771MPD2    H711389   3.418   3.275  13.882  0.6498  2.2771 -3.0010
  772MPD2     C11390   3.220   3.766  14.193 -0.1070 -0.9639 -0.1547
  772MPD2    C111391   3.209   3.653  14.112  0.1512  0.1827 -0.7279
  772MPD2    C211392   3.083   3.622  14.062  0.5387  0.0432 -0.1930
  772MPD2    C311393   2.971   3.678  14.120 -0.3333  0.1795  0.4474
  772MPD2    C411394   2.988   3.791  14.198 -0.5078 -0.7404 -0.2580
  772MPD2    C511395   3.110   3.839  14.227 -0.7584  0.0833  0.3945
  772MPD2     H11396   3.072   3.547  13.985  0.0692 -0.0547 -0.0316
  772MPD2    H111397   2.901   3.836  14.246 -0.3693  0.5391 -1.2188
  772MPD2    H211398   3.312   3.807  14.233 -0.2227 -1.9674  1.1581
  772MPD2    H311399   3.132   3.935  14.271 -0.2633 -0.4198  1.2455
  772MPD2     N11400   2.835   3.643  14.112 -0.3466 -0.2343 -0.1829
  772MPD2    H511401   2.772   3.707  14.160  1.1591 -0.7728  2.5062
  772MPD2    N111402   3.317   3.570  14.072 -0.1000 -0.3355 -0.6285
  772MPD2    H711403   3.303   3.491  14.010 -1.9088  0.6994 -1.5601
  773MPD2     C11404   2.421   4.581  17.525 -0.6975  0.2783 -0.7677
  773MPD2    C111405   2.439   4.445  17.530  0.1584 -0.2748  0.8087
  773MPD2    C211406   2.449   4.378  17.650 -0.1239  0.0404 -0.1713
  773MPD2    C311407   2.465   4.444   0.089 -0.0395  0.1950 -0.3143
  773MPD2    C411408   2.453   4.584   0.078 -0.4193  0.3144  0.5571
  773MPD2    C511409   2.436   4.647  17.644  0.1166 -0.3702  0.3935
  773MPD2     H11410   2.451   4.270  17.640 -0.6455  0.1391 -1.2724
  773MPD2    H111411   2.454   4.641   0.170 -1.8870  1.9420 -0.4496
  773MPD2    H211412   2.391   4.639  17.439  0.4883  1.3903 -0.4338
  773MPD2    H311413   2.420   0.035  17.644  1.1632 -0.2177 -0.3453
  773MPD2     N11414   2.488   4.374   0.213  0.3404  0.1112  0.0611
  773MPD2    H511415   2.488   4.273   0.208 -0.7289  0.0621  1.1093
  773MPD2    N111416   2.457   4.380  17.404  0.1360 -0.5798  0.6660
  773MPD2    H711417   2.466   4.279  17.407  0.3584 -0.5225  1.8767
  774MPD2     C11418   1.787   2.824  13.502  0.3558 -0.0739 -0.2103
  774MPD2    C111419   1.738   2.951  13.542  0.2400  0.2414 -0.6590
  774MPD2    C211420   1.748   3.048  13.444  0.5965 -0.0016 -0.5415
  774MPD2    C311421   1.810   3.023  13.322 -0.1436 -0.6572 -0.3533
  774MPD2    C411422   1.860   2.899  13.283 -0.8136  0.2127  0.0922
  774MPD2    C511423   1.853   2.799  13.381  0.0194 -0.0889 -0.2431
  774MPD2     H11424   1.730   3.151  13.470  0.2736 -0.7197  2.0947
  774MPD2    H111425   1.901   2.875  13.185  1.1956  1.1893  0.6951
  774MPD2    H211426   1.789   2.742  13.573 -0.1445  1.1881  1.2676
  774MPD2    H311427   1.896   2.701  13.361 -2.5234 -0.4080 -4.0949
  774MPD2     N11428   1.840   3.136  13.242  0.4573 -0.4410 -0.3392
  774MPD2    H511429   1.809   3.223  13.284 -1.9570 -0.4610 -2.1120
  774MPD2    N111430   1.687   2.967  13.678 -0.3248  0.6050 -0.2677
  774MPD2    H711431   1.697   2.886  13.739  0.3991  1.6038  0.9478
  775MPD2     C11432   3.449   4.669  16.093 -0.5580  0.1759 -0.3107
  775MPD2    C111433   3.418   0.074  16.146  0.4505  0.6415  0.4817
  775MPD2    C211434   3.467   0.185  16.079 -0.2153 -0.0819  0.3056
  775MPD2    C311435   3.519   0.177  15.949  0.3746  0.4617  0.7838
  775MPD2    C411436   3.537   0.053  15.898  0.1267  0.3568  0.0558
  775MPD2    C511437   3.499   4.668  15.965 -0.5544 -1.2017 -0.2405
  775MPD2     H11438   3.449   0.286  16.117  0.1507 -0.4177  1.3852
  775MPD2    H111439   3.558   0.033  15.793  0.3914 -0.9520  0.3691
  775MPD2    H211440   3.428   4.579  16.149 -0.4302  1.0418  1.1302
  775MPD2    H311441   3.525   4.571  15.923  0.9060 -1.9753  2.4503
  775MPD2     N11442   3.539   0.290  15.868  0.1806  0.1528 -0.0412
  775MPD2    H511443   3.555   0.272  15.769 -1.2194 -1.1575 -0.0323
  775MPD2    N111444   3.342   0.078  16.265  0.6174 -0.3869 -0.2450
  775MPD2    H711445   3.298   4.713  16.299 -0.7437  0.6720  0.5947
  776MPD2     C11446   3.052   0.822  11.726  0.0403 -0.1416 -0.0565
  776MPD2    C111447   2.920   0.809  11.762 -0.5570  0.1669 -0.0527
  776MPD2    C211448   2.858   0.923  11.819 -0.2183  0.5249  0.0878
  776MPD2    C311449   2.927   1.036  11.840 -0.7311 -0.0981  0.4364
  776MPD2    C411450   3.057   1.046  11.807 -0.0292  0.1670 -0.3858
  776MPD2    C511451   3.116   0.936  11.750 -0.6187 -0.4796  0.0337
  776MPD2     H11452   2.751   0.923  11.836 -0.3657  2.8155 -0.7352
  776MPD2    H111453   3.123   1.131  11.823  0.0117  0.3875 -1.7220
  776MPD2    H211454   3.112   0.744  11.681  0.4003  0.7727 -1.1561
  776MPD2    H311455   3.220   0.935  11.720 -0.2135  2.6106  1.3291
  776MPD2     N11456   2.857   1.164  11.861 -0.1236  0.7591  0.5918
  776MPD2    H511457   2.916   1.245  11.878 -1.6396  1.9294  0.3437
  776MPD2    N111458   2.845   0.692  11.730 -0.0847  0.2597 -0.2175
  776MPD2    H711459   2.752   0.698  11.771  0.4996  0.6652  1.0406
  777MPD2     C11460   2.209   2.700   0.848  0.1553  0.3301 -0.1317
  777MPD2    C111461   2.289   2.631   0.934 -0.2235  0.2007  0.3858
  777MPD2    C211462   2.364   2.521   0.889 -0.4390 -0.8643  0.3641
  777MPD2    C311463   2.347   2.478   0.760 -0.0600  0.3789 -0.6585
  777MPD2    C411464   2.261   2.543   0.683 -0.1598 -0.7218 -0.2455
  777MPD2    C511465   2.196   2.658   0.718 -0.9853 -0.2758 -0.4043
  777MPD2     H11466   2.419   2.457   0.958  2.6820  0.9923 -0.4020
  777MPD2    H111467   2.232   2.519   0.581  2.1756 -0.0833 -1.0632
  777MPD2    H211468   2.144   2.783   0.875 -3.6050 -1.6181 -3.1996
  777MPD2    H311469   2.117   2.705   0.661 -1.0567  0.4296  0.2820
  777MPD2     N11470   2.396   2.349   0.725  0.5378  0.0632  0.7366
  777MPD2    H511471   2.458   2.313   0.796  1.9134 -1.2573 -1.1384
  777MPD2    N111472   2.292   2.682   1.065 -0.4964 -0.3851 -0.2460
  777MPD2    H711473   2.248   2.770   1.092 -0.1397 -0.5946  1.0244
  778MPD2     C11474   3.582   2.957  15.183  0.0111  0.0266  0.1000
  778MPD2    C111475   3.632   2.947  15.059  0.2962  0.1697 -0.2131
  778MPD2    C211476   3.682   3.055  14.986  0.0035  0.6886  0.0806
  778MPD2    C311477   3.691   3.177  15.043 -0.1203 -0.2259 -0.2049
  778MPD2    C411478   3.646   3.196  15.173 -0.3141 -0.1031 -0.2275
  778MPD2    C511479   3.599   3.084  15.237 -0.7707  0.3585 -0.8137
  778MPD2     H11480   3.723   3.041  14.887 -0.9577 -0.4628 -0.1712
  778MPD2    H111481   3.659   3.290  15.225 -2.1916 -0.6372  1.2291
  778MPD2    H211482   3.555   2.872  15.245 -1.1514 -0.4847 -1.1025
  778MPD2    H311483   3.554   3.101  15.334  0.1935 -0.0193 -0.3102
  778MPD2     N11484   3.741   3.285  14.963  0.0902  0.6072  0.3118
  778MPD2    H511485   3.783   3.266  14.872 -0.7699  1.3443 -0.2339
  778MPD2    N111486   3.638   2.825  14.989  0.3467 -0.0139 -0.0801
  778MPD2    H711487   3.677   2.836  14.896  0.9722  0.0746  0.1916
  779MPD2     C11488   3.429   2.310  14.139 -0.8325  0.2599  0.3329
  779MPD2    C111489   3.558   2.276  14.138  0.0938  0.2578 -0.2703
  779MPD2    C211490   3.652   2.367  14.167  0.1422  0.4569 -0.2249
  779MPD2    C311491   3.626   2.497  14.201 -0.2711 -0.3973 -0.0939
  779MPD2    C411492   3.493   2.529  14.211  0.1819  0.1358  0.6425
  779MPD2    C511493   3.394   2.432  14.179  0.0530 -0.4444 -0.9668
  779MPD2     H11494   3.755   2.338  14.147  0.2286  0.3923  0.2992
  779MPD2    H111495   3.462   2.629  14.238  0.9764  0.6236 -0.2692
  779MPD2    H211496   3.349   2.240  14.121 -0.1185 -0.2516 -0.8785
  779MPD2    H311497   3.287   2.452  14.181  0.0273 -0.6979 -0.0988
  779MPD2     N11498   3.735   2.582  14.242  0.0933 -0.9299 -0.3356
  779MPD2    H511499   3.827   2.539  14.241  0.2106 -0.6647 -1.5764
  779MPD2    N111500   3.601   2.144  14.106 -0.2126 -0.4031 -0.2359
  779MPD2    H711501   3.535   2.078  14.066 -0.5992  0.1667 -0.5574
  780MPD2     C11502   2.710   0.933   1.395  0.3037  0.2695  0.2805
  780MPD2    C111503   2.673   1.018   1.285 -0.5638 -0.0925 -0.9191
  780MPD2    C211504   2.769   1.041   1.187 -0.1879  0.1975 -0.9690
  780MPD2    C311505   2.896   0.982   1.196  0.1076  0.2429  0.8445
  780MPD2    C411506   2.929   0.902   1.302 -0.2623 -0.0091  0.2393
  780MPD2    C511507   2.834   0.876   1.396 -0.5693 -0.4450 -0.1099
  780MPD2     H11508   2.750   1.103   1.100  0.5338 -0.7250 -1.7839
  780MPD2    H111509   3.025   0.853   1.310  0.0418  0.6980  0.8429
  780MPD2    H211510   2.643   0.913   1.478 -0.6099  0.4917 -0.4024
  780MPD2    H311511   2.858   0.808   1.476  1.9740  0.9320  0.2952
  780MPD2     N11512   2.997   1.008   1.093  0.3551  0.2626 -0.5012
  780MPD2    H511513   2.957   1.063   1.017  0.4836 -0.9440 -1.4342
  780MPD2    N111514   2.538   1.073   1.284 -0.8456 -0.3458 -0.0593
  780MPD2    H711515   2.481   1.057   1.366 -0.3429 -1.0789  0.1494
  781MPD2     C11516   0.162   3.784  12.097  0.3586  0.8390  0.1144
  781MPD2    C111517   0.233   3.667  12.123 -0.4711  0.6826 -0.1315
  781MPD2    C211518   0.289   3.587  12.021  0.0077 -0.4951 -0.7444
  781MPD2    C311519   0.307   3.639  11.898 -0.0185  0.0013 -0.2575
  781MPD2    C411520   0.256   3.764  11.869 -0.2381 -0.2057 -0.5295
  781MPD2    C511521   0.175   3.826  11.962 -0.1908 -0.7617 -0.4435
  781MPD2     H11522   0.344   3.498  12.049  2.3542  0.7944 -1.2008
  781MPD2    H111523   0.250   3.799  11.767 -0.3281  0.7393 -0.1985
  781MPD2    H211524   0.103   3.840  12.169 -2.1616 -1.5142 -0.1352
  781MPD2    H311525   0.132   3.923  11.942  2.9753  0.7873  0.2723
  781MPD2     N11526   0.384   3.576  11.795  0.0372  0.2224  0.5821
  781MPD2    H511527   0.406   3.637  11.717 -1.1140 -1.1125 -0.7659
  781MPD2    N111528   0.247   3.613  12.249  0.4328  0.6333  0.3858
  781MPD2    H711529   0.284   3.518  12.250 -3.7793 -0.9876  2.4973
  782MPD2     C11530   2.543   4.717  10.124 -0.7796  0.5106  0.0865
  782MPD2    C111531   2.671   4.677  10.089  0.1169 -0.0122  0.0015
  782MPD2    C211532   2.777   4.706  10.171 -0.3383 -0.5204 -0.4318
  782MPD2    C311533   2.753   0.070  10.278 -0.2837  0.1594 -0.5203
  782MPD2    C411534   2.627   0.117  10.312 -1.0291  0.7986  0.6232
  782MPD2    C511535   2.525   0.077  10.232 -0.5327 -0.0177 -0.2899
  782MPD2     H11536   2.878   4.676  10.145 -0.2259 -0.3563 -0.1832
  782MPD2    H111537   2.598   0.166  10.404  1.2410  1.5443  0.9339
  782MPD2    H211538   2.454   4.693  10.067 -0.1706  2.9178 -1.8743
  782MPD2    H311539   2.421   0.102  10.255 -0.3498 -0.0418  0.5790
  782MPD2     N11540   2.866   0.092  10.368 -0.0002  0.0899 -0.7680
  782MPD2    H511541   2.949   0.033  10.367 -0.9173 -1.2556  0.6199
  782MPD2    N111542   2.690   4.595   9.974  0.4378 -0.3411  0.6348
  782MPD2    H711543   2.605   4.576   9.922  0.3132  0.5905  0.5038
  783MPD2     C11544   2.731   4.121  10.559  0.2580 -0.6423  0.0894
  783MPD2    C111545   2.640   4.211  10.504  0.2820  0.2803 -0.5538
  783MPD2    C211546   2.634   4.219  10.366 -0.5322  0.4335 -0.5453
  783MPD2    C311547   2.735   4.170  10.280 -0.2089 -0.2313  0.1933
  783MPD2    C411548   2.828   4.087  10.335  0.7690  0.5115 -0.3883
  783MPD2    C511549   2.822   4.066  10.471 -0.5724  0.2564 -0.2663
  783MPD2     H11550   2.563   4.287  10.322  0.6143  0.1153 -2.8736
  783MPD2    H111551   2.914   4.055  10.277 -1.0112 -2.2335 -1.5503
  783MPD2    H211552   2.746   4.088  10.661  1.0953  1.6369  0.6956
  783MPD2    H311553   2.895   3.996  10.510  0.4242  0.1007 -2.4380
  783MPD2     N11554   2.727   4.202  10.141  0.9928  0.0952  0.1696
  783MPD2    H511555   2.668   4.279  10.111  0.9464 -0.6904 -1.8005
  783MPD2    N111556   2.550   4.285  10.585  0.1407  0.3997 -0.4365
  783MPD2    H711557   2.478   4.340  10.539 -0.6740  1.0676  1.6278
  784MPD2     C11558   0.447   4.127   1.250 -0.1166  0.5213 -0.3377
  784MPD2    C111559   0.526   4.236   1.265  0.3049  0.5596 -0.0937
  784MPD2    C211560   0.521   4.327   1.163  0.1870  0.2121  0.4602
  784MPD2    C311561   0.458   4.315   1.043 -0.1086 -0.2160 -0.0451
  784MPD2    C411562   0.370   4.207   1.036 -0.6657  0.3003  0.3812
  784MPD2    C511563   0.365   4.119   1.138  0.0406 -0.4056 -0.8297
  784MPD2     H11564   0.583   4.415   1.174  2.0659 -0.8055 -1.9955
  784MPD2    H111565   0.301   4.196   0.953 -0.3913 -0.0061  0.1965
  784MPD2    H211566   0.445   4.043   1.318 -3.0491  1.2968  0.5405
  784MPD2    H311567   0.308   4.028   1.122 -0.2633  0.4059 -4.1807
  784MPD2     N11568   0.479   4.418   0.947  0.1453 -0.3193 -0.6536
  784MPD2    H511569   0.558   4.482   0.953  0.1062 -0.4031  0.6790
  784MPD2    N111570   0.605   4.275   1.374 -0.5621 -0.9264 -0.0065
  784MPD2    H711571   0.638   4.371   1.380 -2.3635 -0.3110 -0.1207
  785MPD2     C11572   0.956   2.569  11.070  0.1026 -0.3072 -0.5541
  785MPD2    C111573   0.852   2.656  11.043 -0.5416 -0.8065  0.4829
  785MPD2    C211574   0.727   2.601  11.011 -0.1409 -0.1313 -0.6440
  785MPD2    C311575   0.717   2.459  10.988 -0.4073  0.0631  0.3498
  785MPD2    C411576   0.828   2.381  11.003 -0.1235  0.1252 -0.0071
  785MPD2    C511577   0.945   2.435  11.043 -0.1058  0.0247 -0.3547
  785MPD2     H11578   0.641   2.665  10.999  0.4733  0.8031 -0.0174
  785MPD2    H111579   0.821   2.273  11.000 -0.2728  0.1264  0.2865
  785MPD2    H211580   1.061   2.590  11.087  0.3243  0.1757 -2.5512
  785MPD2    H311581   1.036   2.376  11.042  1.7001  2.8298 -0.7576
  785MPD2     N11582   0.595   2.407  10.941 -0.3971 -0.4367 -0.4091
  785MPD2    H511583   0.517   2.467  10.918 -1.5126 -2.1267 -0.9844
  785MPD2    N111584   0.853   2.793  11.055 -0.5151  0.6607 -0.3545
  785MPD2    H711585   0.765   2.843  11.067 -0.7504 -0.4590  2.6381
  786MPD2     C11586   3.729   0.996  15.027  0.1118 -0.2175 -0.5363
  786MPD2    C111587   3.854   0.957  14.994  0.6994 -0.0823 -0.4123
  786MPD2    C211588   3.926   0.881  15.086 -0.2702 -0.4092 -0.2316
  786MPD2    C311589   3.882   0.856  15.220  0.6927  0.4384 -0.0289
  786MPD2    C411590   3.753   0.892  15.249  0.0824  0.1803 -0.3645
  786MPD2    C511591   3.687   0.960  15.151  0.6395  0.0825 -0.3234
  786MPD2     H11592   4.028   0.852  15.062 -0.3097  0.2108 -1.1860
  786MPD2    H111593   3.701   0.846  15.332  1.2787 -0.2123  0.1678
  786MPD2    H211594   3.667   1.050  14.956 -2.1549 -0.3824  1.3280
  786MPD2    H311595   3.580   0.975  15.153  0.9612  2.2485  1.7964
  786MPD2     N11596   3.973   0.802  15.323  0.3342  0.2886 -0.1826
  786MPD2    H511597   3.930   0.777  15.411 -0.6940 -1.4451 -1.1632
  786MPD2    N111598   3.915   0.977  14.871 -0.0149  0.4733  0.6438
  786MPD2    H711599   4.007   0.935  14.867 -0.9602 -1.2454 -3.3158
  787MPD2     C11600   4.477   0.936  14.951  0.2239  0.1810 -0.8625
  787MPD2    C111601   4.451   0.858  14.840 -0.9387  0.4308 -0.5481
  787MPD2    C211602   4.522   0.740  14.823 -0.7111  0.0633  0.5866
  787MPD2    C311603   4.595   0.687  14.929 -0.1591 -0.4085 -0.4293
  787MPD2    C411604   4.612   0.765  15.040 -0.4807  0.1322 -0.4938
  787MPD2    C511605   4.561   0.890  15.045 -0.1801  0.6025 -0.3360
  787MPD2     H11606   4.508   0.673  14.739  1.2615  0.5748 -0.1513
  787MPD2    H111607   4.652   0.723  15.131 -0.6972  0.2604 -0.3387
  787MPD2    H211608   4.431   1.033  14.967 -1.5131 -0.9118  0.8665
  787MPD2    H311609   4.590   0.960  15.122  2.1323  0.4111 -1.0345
  787MPD2     N11610   4.644   0.554  14.917 -0.6885  0.1850 -0.2701
  787MPD2    H511611   4.637   0.513  14.824 -0.3613  0.9582 -0.6352
  787MPD2    N111612   4.352   0.912  14.749 -0.0042  0.0557  0.0838
  787MPD2    H711613   4.317   1.003  14.776 -1.1916 -0.2097 -0.5803
  788MPD2     C11614   1.350   3.511   0.773 -0.7271  0.8324  0.0236
  788MPD2    C111615   1.336   3.397   0.698 -0.0593  0.4346 -0.5542
  788MPD2    C211616   1.359   3.404   0.559 -0.4821  0.1398 -0.0974
  788MPD2    C311617   1.375   3.524   0.499 -0.7241  0.0203 -0.5115
  788MPD2    C411618   1.381   3.639   0.576  0.6260  0.4468  0.1956
  788MPD2    C511619   1.370   3.633   0.712 -0.5896  0.0859  0.1066
  788MPD2     H11620   1.347   3.311   0.505 -1.2169 -1.2038  2.3894
  788MPD2    H111621   1.387   3.735   0.526  1.6019  0.7589  0.9162
  788MPD2    H211622   1.340   3.505   0.881 -1.0473  1.3280  0.0200
  788MPD2    H311623   1.376   3.720   0.777 -1.2464  0.8362 -0.8340
  788MPD2     N11624   1.393   3.535   0.364 -0.3068  0.0694  0.1242
  788MPD2    H511625   1.404   3.630   0.331 -2.7591  0.3502  0.0911
  788MPD2    N111626   1.302   3.270   0.750  0.1687  0.2972  0.2630
  788MPD2    H711627   1.303   3.186   0.693  0.3408  2.5526 -3.0934
  789MPD2     C11628   1.016   3.180  16.058  0.4454 -0.8716 -1.0742
  789MPD2    C111629   0.961   3.128  16.180 -0.4154  0.2429 -0.1400
  789MPD2    C211630   0.892   3.212  16.264  1.0914 -0.5664 -0.5188
  789MPD2    C311631   0.870   3.342  16.227  0.4086 -0.5318  0.0353
  789MPD2    C411632   0.913   3.378  16.103  1.4697 -0.5923 -0.0735
  789MPD2    C511633   0.981   3.301  16.018  0.1465  0.1124  0.1871
  789MPD2     H11634   0.853   3.183  16.361  2.4063 -0.8575 -0.0767
  789MPD2    H111635   0.890   3.481  16.077  0.4338 -1.1391 -1.4068
  789MPD2    H211636   1.069   3.122  15.983  1.8796 -0.0257 -0.7276
  789MPD2    H311637   1.010   3.332  15.919  1.6568  0.3061  0.6972
  789MPD2     N11638   0.812   3.439  16.308  0.3348 -0.6480 -0.4058
  789MPD2    H511639   0.800   3.533  16.271 -2.1767 -0.8186 -0.0007
  789MPD2    N111640   0.972   2.997  16.219 -1.0172  0.1311  0.0141
  789MPD2    H711641   0.935   2.968  16.309 -2.0006  0.4981 -0.2798
  790MPD2     C11642   2.795   1.283  13.546  0.0921  0.0975 -0.7641
  790MPD2    C111643   2.717   1.160  13.544  1.0147 -0.0153 -0.0573
  790MPD2    C211644   2.627   1.133  13.442  0.0417 -0.1742 -0.4618
  790MPD2    C311645   2.613   1.222  13.334 -0.7386  0.9763 -0.5183
  790MPD2    C411646   2.686   1.338  13.335  0.2546  0.6246  0.5303
  790MPD2    C511647   2.776   1.368  13.433  0.3309 -0.1118  0.1398
  790MPD2     H11648   2.574   1.039  13.433 -2.6658  1.3066 -0.2062
  790MPD2    H111649   2.692   1.405  13.250 -1.4526  1.1113  0.7922
  790MPD2    H211650   2.878   1.295  13.615 -0.0257  0.8581 -0.7502
  790MPD2    H311651   2.830   1.462  13.426  2.8724 -1.5891 -0.0880
  790MPD2     N11652   2.537   1.190  13.215 -0.2107 -0.0142 -0.3468
  790MPD2    H511653   2.564   1.230  13.126 -1.2079  4.6376  1.4840
  790MPD2    N111654   2.741   1.065  13.647  0.0053 -0.8800 -0.2756
  790MPD2    H711655   2.793   1.104  13.724 -0.2291  3.6295 -2.4133
  791MPD2     C11656   1.814   0.868  13.118  0.1396 -0.7196  0.2750
  791MPD2    C111657   1.888   0.868  13.002 -0.2797  0.1655  0.1304
  791MPD2    C211658   1.825   0.832  12.887  0.7760 -1.1838 -0.5183
  791MPD2    C311659   1.691   0.792  12.884 -0.0528  0.0089  0.1600
  791MPD2    C411660   1.632   0.782  13.009  0.4723  0.3330  0.1854
  791MPD2    C511661   1.691   0.816  13.124 -0.2206  0.1713  0.2427
  791MPD2     H11662   1.882   0.820  12.796  2.9609 -1.9241  0.9487
  791MPD2    H111663   1.535   0.736  13.027  1.3886 -1.8769 -0.5204
  791MPD2    H211664   1.866   0.914  13.201  3.6939  0.7260 -2.7664
  791MPD2    H311665   1.636   0.801  13.216  0.9478 -2.3113  0.5350
  791MPD2     N11666   1.635   0.738  12.765 -0.5003 -0.1114 -0.8235
  791MPD2    H511667   1.702   0.731  12.688 -1.7883 -0.2426 -1.9438
  791MPD2    N111668   2.024   0.911  13.010 -0.5164 -0.4433 -0.1297
  791MPD2    H711669   2.069   0.922  13.100 -1.5792 -1.0667  0.4700
  792MPD2     C11670   2.485   0.873  11.664  0.0913 -0.0558  0.1164
  792MPD2    C111671   2.495   0.929  11.543 -0.5338 -0.1026 -0.2346
  792MPD2    C211672   2.455   0.866  11.428  0.4869 -0.0789 -0.0565
  792MPD2    C311673   2.392   0.736  11.439  0.3107 -0.3882  0.0121
  792MPD2    C411674   2.369   0.685  11.567  0.2319 -0.4157  0.3827
  792MPD2    C511675   2.415   0.747  11.678  0.0979 -0.2711 -0.2466
  792MPD2     H11676   2.482   0.903  11.329 -2.4778 -0.6054 -1.0623
  792MPD2    H111677   2.330   0.585  11.584  0.9302 -0.8857 -0.7435
  792MPD2    H211678   2.521   0.934  11.746  0.5753  1.0620 -0.9291
  792MPD2    H311679   2.387   0.709  11.776 -1.7623  0.9395 -0.3154
  792MPD2     N11680   2.365   0.650  11.320  0.0824 -0.0521 -0.0130
  792MPD2    H511681   2.321   0.561  11.340 -1.0137  0.1113 -1.7015
  792MPD2    N111682   2.557   1.061  11.544 -0.0315  0.2780 -0.1097
  792MPD2    H711683   2.592   1.087  11.635 -1.8806  1.9381  0.1108
  793MPD2     C11684   2.488   0.655  10.250 -0.4814  0.5057 -0.2583
  793MPD2    C111685   2.488   0.518  10.268  0.3363  0.5362  0.2453
  793MPD2    C211686   2.466   0.471  10.398 -0.0559  0.8416  0.1913
  793MPD2    C311687   2.460   0.554  10.508 -0.0753 -0.7121 -0.8011
  793MPD2    C411688   2.460   0.691  10.483 -0.1729  1.1844  0.2399
  793MPD2    C511689   2.472   0.738  10.353 -0.5372 -0.2945 -0.0256
  793MPD2     H11690   2.455   0.364  10.413  0.2316  0.4622 -2.2899
  793MPD2    H111691   2.451   0.761  10.565  0.7563  0.5784  0.8775
  793MPD2    H211692   2.498   0.695  10.149 -1.0044  1.3056  0.0086
  793MPD2    H311693   2.471   0.846  10.338  1.6466 -0.2644 -0.0504
  793MPD2     N11694   2.458   0.501  10.640 -0.0481  0.6730 -0.6591
  793MPD2    H511695   2.453   0.399  10.637 -0.9427  0.6767  0.8966
  793MPD2    N111696   2.509   0.428  10.168 -0.3637 -0.1601 -0.6512
  793MPD2    H711697   2.516   0.332  10.198  1.1654 -0.2298 -1.2315
  794MPD2     C11698   2.358   4.591  16.628  0.4609 -0.2190 -0.1837
  794MPD2    C111699   2.356   4.456  16.644 -0.4176 -0.0899 -0.0333
  794MPD2    C211700   2.284   4.375  16.559 -0.7998  0.5472  0.7726
  794MPD2    C311701   2.217   4.434  16.446 -0.2365 -0.1283  0.4585
  794MPD2    C411702   2.209   4.570  16.438  0.0011 -0.1843 -0.3976
  794MPD2    C511703   2.276   4.648  16.531 -0.4109 -0.2045  0.1772
  794MPD2     H11704   2.270   4.269  16.577  0.4997  0.6089  2.1305
  794MPD2    H111705   2.156   4.621  16.358 -0.5932 -0.9917 -0.5198
  794MPD2    H211706   2.412   4.659  16.693  1.4961 -2.3477  1.1595
  794MPD2    H311707   2.289   0.036  16.520  0.0258 -0.2591  0.1759
  794MPD2     N11708   2.148   4.349  16.351 -0.2281  0.0056  0.2917
  794MPD2    H511709   2.080   4.390  16.289 -0.0439 -1.2269 -0.7367
  794MPD2    N111710   2.419   4.384  16.744  0.4015  0.2658  0.3812
  794MPD2    H711711   2.390   4.287  16.752  0.7906  0.0593 -0.8105
  795MPD2     C11712   4.511   1.952  13.820 -0.2911  0.4282  0.4507
  795MPD2    C111713   4.545   2.068  13.745  0.0047 -0.2276 -0.2324
  795MPD2    C211714   4.681   2.088  13.710 -0.3077  0.5732  0.0738
  795MPD2    C311715   0.053   1.996  13.748 -0.0560  0.0572 -0.2963
  795MPD2    C411716   0.024   1.893  13.832 -0.2910 -0.0579  0.0287
  795MPD2    C511717   4.613   1.869  13.862  0.4436 -0.2614 -0.7052
  795MPD2     H11718   4.701   2.179  13.655  0.3494  1.0488  1.0974
  795MPD2    H111719   0.105   1.835  13.875 -0.5065 -0.4978 -0.1603
  795MPD2    H211720   4.410   1.923  13.847 -0.2080  1.3260  1.7408
  795MPD2    H311721   4.606   1.797  13.943  2.6001  0.8988  0.5031
  795MPD2     N11722   0.185   1.997  13.712 -0.1408 -0.1671 -0.3016
  795MPD2    H511723   0.243   1.926  13.755 -0.4200 -0.5049 -0.4761
  795MPD2    N111724   4.451   2.167  13.709 -0.0194  0.3158 -0.2732
  795MPD2    H711725   4.483   2.258  13.680 -1.2822  1.6460  2.5501
  796MPD2     C11726   4.089   3.223  15.971 -0.4148  0.3013 -0.2741
  796MPD2    C111727   4.087   3.213  16.110  0.0928  0.8687  0.5823
  796MPD2    C211728   4.082   3.326  16.186  0.1571  0.1996 -0.1519
  796MPD2    C311729   4.093   3.443  16.119 -0.6483 -0.3845 -0.6223
  796MPD2    C411730   4.090   3.453  15.980  0.2430 -0.8009  0.5254
  796MPD2    C511731   4.085   3.339  15.909 -0.1151  0.5814  0.0278
  796MPD2     H11732   4.086   3.327  16.295  3.0477  0.3747 -0.2692
  796MPD2    H111733   4.101   3.543  15.921  3.1062 -0.7701  1.0607
  796MPD2    H211734   4.089   3.136  15.905  0.2251  0.3059 -0.2802
  796MPD2    H311735   4.078   3.330  15.802  0.5769  0.5106 -0.0137
  796MPD2     N11736   4.111   3.554  16.200 -0.2031 -0.1023 -0.5090
  796MPD2    H511737   4.122   3.533  16.298 -3.4669 -1.1401 -0.3755
  796MPD2    N111738   4.108   3.080  16.168  0.0086 -0.1906 -0.1081
  796MPD2    H711739   4.129   3.000  16.109  0.6277  1.8502 -2.6840
  797MPD2     C11740   0.154   2.630   0.295 -0.1887 -0.4322  1.2100
  797MPD2    C111741   0.170   2.762   0.254  0.0764 -0.5185 -0.1834
  797MPD2    C211742   0.067   2.832   0.192 -0.0830 -0.5764  0.0549
  797MPD2    C311743   4.666   2.769   0.163  0.3332  0.1285  0.3781
  797MPD2    C411744   4.643   2.643   0.216 -0.2755 -0.1960  0.0421
  797MPD2    C511745   0.028   2.580   0.279 -0.0894 -0.3566  0.4778
  797MPD2     H11746   0.094   2.930   0.155 -0.0618 -0.1003  1.3215
  797MPD2    H111747   4.543   2.600   0.215 -0.0735 -0.6579 -0.6327
  797MPD2    H211748   0.232   2.575   0.346  1.4024  0.2204 -0.5397
  797MPD2    H311749   0.009   2.482   0.322  0.6292 -2.4023 -3.9215
  797MPD2     N11750   4.571   2.837   0.078 -0.0392 -0.3363  0.1430
  797MPD2    H511751   4.612   2.924   0.048 -0.8953  0.5238  1.4788
  797MPD2    N111752   0.296   2.822   0.248 -0.6212  0.3080 -0.0644
  797MPD2    H711753   0.294   2.922   0.230  1.1105  0.7021  2.0408
  798MPD2     C11754   0.184   3.309  17.371  0.3266  0.1363  0.4335
  798MPD2    C111755   0.130   3.230  17.474  1.0435 -0.1747  0.0305
  798MPD2    C211756   0.204   3.213  17.587  0.2035  0.8370  0.1135
  798MPD2    C311757   0.337   3.241  17.587  0.3070  0.4503  0.1951
  798MPD2    C411758   0.391   3.317  17.479 -0.2475  0.1692  0.5129
  798MPD2    C511759   0.307   3.356  17.376 -0.4453  0.0933  0.3983
  798MPD2     H11760   0.156   3.176  17.677 -0.0424  0.5352 -0.1439
  798MPD2    H111761   0.497   3.334  17.467 -0.1344 -0.2146  0.9409
  798MPD2    H211762   0.121   3.351  17.294  0.4811 -0.8497 -0.2279
  798MPD2    H311763   0.346   3.420  17.298 -1.6186 -0.3598 -0.5629
  798MPD2     N11764   0.412   3.189   0.013  0.2925 -0.2345  0.6176
  798MPD2    H511765   0.363   3.138   0.086 -0.0228  0.0472  0.6045
  798MPD2    N111766   4.716   3.178  17.457  0.0588  0.0081  0.6728
  798MPD2    H711767   4.669   3.220  17.377 -0.3988 -2.4670 -0.3770
  799MPD2     C11768   4.288   0.436  15.062 -0.0565 -0.3920 -0.1438
  799MPD2    C111769   4.229   0.330  14.997  0.2996  0.6323 -0.3792
  799MPD2    C211770   4.166   0.347  14.873  0.3429  0.9058  0.0947
  799MPD2    C311771   4.164   0.474  14.813  0.0603  0.5867  0.6847
  799MPD2    C411772   4.224   0.581  14.880  0.1311 -0.2123 -0.5252
  799MPD2    C511773   4.288   0.562  15.002 -0.7612  0.3997  0.0121
  799MPD2     H11774   4.123   0.261  14.823  2.4092 -0.2922  0.3458
  799MPD2    H111775   4.230   0.684  14.849  1.1098 -0.8513 -2.4412
  799MPD2    H211776   4.340   0.420  15.155  0.9973 -0.3252 -0.7190
  799MPD2    H311777   4.335   0.644  15.054  2.3049 -0.8800 -0.7274
  799MPD2     N11778   4.092   0.501  14.693  1.0357 -0.1735 -0.1220
  799MPD2    H511779   4.088   0.598  14.664  1.6255 -0.1137  0.0057
  799MPD2    N111780   4.220   0.198  15.055 -0.2314  0.1806  0.0231
  799MPD2    H711781   4.172   0.128  14.999  0.4904 -1.8006  1.8820
  800MPD2     C11782   0.565   1.126  13.970  0.8720  0.0747  0.3847
  800MPD2    C111783   0.636   1.177  13.872 -0.1211  0.4669  0.1250
  800MPD2    C211784   0.630   1.118  13.746 -0.0706 -0.7935  0.1469
  800MPD2    C311785   0.535   1.025  13.715 -0.7110  0.5574  0.4504
  800MPD2    C411786   0.442   0.991  13.815 -0.0754  0.0102 -0.2613
  800MPD2    C511787   0.476   1.026  13.940  0.5735 -0.3800  0.6237
  800MPD2     H11788   0.696   1.170  13.678 -0.3409  0.7099  1.0436
  800MPD2    H111789   0.368   0.913  13.799  0.5466 -0.5629 -0.3461
  800MPD2    H211790   0.570   1.166  14.070  2.4821  0.1433  0.2698
  800MPD2    H311791   0.414   0.982  14.017 -0.4850  0.1541  0.0768
  800MPD2     N11792   0.530   0.974  13.584 -0.5589 -0.1348 -1.1549
  800MPD2    H511793   0.608   0.990  13.520  0.6377 -0.2516  0.2587
  800MPD2    N111794   0.711   1.289  13.907  0.6025  0.3775  0.4173
  800MPD2    H711795   0.681   1.330  13.995  1.4020 -0.8743  1.2819
  801MPD2     C11796   0.318   1.764  14.057  0.9302  0.1096  0.3419
  801MPD2    C111797   0.387   1.651  14.087 -0.7368 -0.4678 -0.5791
  801MPD2    C211798   0.327   1.553  14.168 -0.2032  0.8889  0.4573
  801MPD2    C311799   0.199   1.567  14.212 -0.9080 -0.3449  0.4992
  801MPD2    C411800   0.131   1.691  14.198  0.3018  0.5956 -0.0996
  801MPD2    C511801   0.188   1.784  14.114 -0.1741 -0.5676 -0.0838
  801MPD2     H11802   0.382   1.460  14.170 -1.6209  0.0434 -0.6832
  801MPD2    H111803   0.032   1.710  14.239  0.1019  0.9351 -0.7345
  801MPD2    H211804   0.359   1.836  13.987 -0.5779  0.4566 -0.1803
  801MPD2    H311805   0.129   1.872  14.090  1.0344  0.8235  2.0873
  801MPD2     N11806   0.124   1.466  14.278 -0.8104  0.1694 -0.2323
  801MPD2    H511807   0.033   1.489  14.319 -0.5286 -1.8345  1.5357
  801MPD2    N111808   0.515   1.632  14.042  0.5184  0.7017 -0.0909
  801MPD2    H711809   0.552   1.538  14.050  1.4402  1.0586 -0.2213
  802MPD2     C11810   4.307   1.064  17.577 -0.0449  0.2668 -0.3126
  802MPD2    C111811   4.289   1.196  17.619 -0.4978 -1.5161  0.2473
  802MPD2    C211812   4.269   1.286  17.510  0.0528  0.8794  0.3671
  802MPD2    C311813   4.246   1.246  17.381 -0.4908  0.2301 -0.0026
  802MPD2    C411814   4.254   1.111  17.347  0.0136 -0.2770  0.2460
  802MPD2    C511815   4.278   1.026  17.449  0.3946 -0.3542  0.0414
  802MPD2     H11816   4.257   1.390  17.541 -0.5964  0.5755  1.1342
  802MPD2    H111817   4.244   1.060  17.252 -0.7306 -0.9177  0.6658
  802MPD2    H211818   4.317   0.979  17.643  1.4805  0.5771 -0.1449
  802MPD2    H311819   4.274   0.921  17.422  0.6142 -0.9051  2.0800
  802MPD2     N11820   4.205   1.343  17.279  1.3670  0.2342  0.0597
  802MPD2    H511821   4.198   1.440  17.307 -1.2935 -0.1456  0.7233
  802MPD2    N111822   4.314   1.240   0.065  1.1600  0.1090 -0.1989
  802MPD2    H711823   4.314   1.341   0.077  2.9387  0.1638 -0.6331
  803MPD2     C11824   0.633   0.722  12.008 -0.5358 -0.2278 -0.6931
  803MPD2    C111825   0.696   0.724  12.127  0.6153  0.4671  0.6192
  803MPD2    C211826   0.654   0.647  12.233  0.4619 -0.6433  0.1204
  803MPD2    C311827   0.544   0.565  12.213 -0.3255 -0.4280 -0.6398
  803MPD2    C411828   0.481   0.561  12.089  0.6083 -0.2112 -0.0155
  803MPD2    C511829   0.520   0.643  11.984 -0.2577  0.1916  0.6774
  803MPD2     H11830   0.711   0.647  12.325  0.5589 -2.8144  0.0677
  803MPD2    H111831   0.394   0.497  12.075 -0.6314  0.8681  2.7324
  803MPD2    H211832   0.677   0.781  11.929 -1.4603  0.5814 -0.6072
  803MPD2    H311833   0.466   0.638  11.890 -0.8387 -1.3624  1.0982
  803MPD2     N11834   0.496   0.472  12.309 -0.3003  0.0238  0.0472
  803MPD2    H511835   0.409   0.425  12.288 -0.9982  1.3060  0.0699
  803MPD2    N111836   0.810   0.799  12.155  0.0246 -0.1363  0.7121
  803MPD2    H711837   0.834   0.790  12.253 -2.4663 -0.7096  1.2606
  804MPD2     C11838   4.427   1.783  17.079 -0.7995 -0.3529 -0.2299
  804MPD2    C111839   4.517   1.737  17.173  0.0945 -0.0358 -0.2640
  804MPD2    C211840   4.583   1.821  17.255  0.1995 -0.2274  0.6062
  804MPD2    C311841   4.559   1.951  17.248  0.0667  0.6002  0.4821
  804MPD2    C411842   4.467   2.002  17.156 -0.0415  0.1299  0.4239
  804MPD2    C511843   4.395   1.916  17.083  0.3563 -0.1684 -0.0958
  804MPD2     H11844   4.646   1.775  17.331  0.1414  1.7975  1.8804
  804MPD2    H111845   4.451   2.109  17.162  2.8606  0.6478 -0.8039
  804MPD2    H211846   4.366   1.720  17.016 -1.2288  0.0728 -0.2436
  804MPD2    H311847   4.309   1.943  17.023 -0.8063 -1.6681  0.8780
  804MPD2     N11848   4.618   2.041  17.335 -0.1199 -0.0532 -0.0370
  804MPD2    H511849   4.574   2.131  17.357  0.4843  0.5753 -1.4040
  804MPD2    N111850   4.547   1.599  17.185  0.5293  0.3816  0.1939
  804MPD2    H711851   4.605   1.574  17.264 -1.2377  0.4455  1.5022
  805MPD2     C11852   3.833   0.113  15.408  0.4102 -0.2539 -0.6017
  805MPD2    C111853   3.826   4.708  15.458 -0.0226  0.0006 -0.0970
  805MPD2    C211854   3.937   4.652  15.523  0.4000  0.2155  0.3507
  805MPD2    C311855   4.055   0.002  15.540 -0.1253 -0.0992 -0.0841
  805MPD2    C411856   4.065   0.132  15.485  0.4312 -0.3246  0.2229
  805MPD2    C511857   3.958   0.182  15.419 -0.5531  0.1542 -0.6202
  805MPD2     H11858   3.927   4.552  15.565  1.3954  0.1102  0.3331
  805MPD2    H111859   4.151   0.195  15.506  0.0612  1.1810 -2.7969
  805MPD2    H211860   3.761   0.177  15.358  1.8534  2.9077  1.4136
  805MPD2    H311861   3.960   0.286  15.390  1.0672  0.3032  0.0230
  805MPD2     N11862   4.166   4.658  15.604  0.1416 -0.6465  0.0139
  805MPD2    H511863   4.142   4.569  15.647 -0.4274 -1.1871 -1.4214
  805MPD2    N111864   3.724   4.617  15.419  0.5188  0.3180 -0.2465
  805MPD2    H711865   3.743   4.522  15.448 -1.4733 -0.0070 -0.0176
  806MPD2     C11866   0.001   4.643   0.989  0.2839 -0.8960 -0.8782
  806MPD2    C111867   4.590   4.663   0.978  0.3075 -0.2316 -0.2026
  806MPD2    C211868   4.525   4.695   0.861 -0.4632  0.4303 -0.4420
  806MPD2    C311869   4.611   4.712   0.754 -0.4392  0.2083  0.0598
  806MPD2    C411870   0.030   4.685   0.761 -1.3668  0.2057 -0.1747
  806MPD2    C511871   0.084   4.658   0.884  0.4139 -0.5895 -0.4589
  806MPD2     H11872   4.420   0.001   0.854 -1.3744 -3.4309 -1.1148
  806MPD2    H111873   0.101   4.681   0.679 -0.3715  0.1192  0.6929
  806MPD2    H211874   0.047   4.638   1.087 -1.8434  2.9841  0.3414
  806MPD2    H311875   0.188   4.646   0.912  0.2580  2.1769  1.3391
  806MPD2     N11876   4.549   0.037   0.626  0.2896  0.6438 -0.5006
  806MPD2    H511877   4.457   0.079   0.634  0.2519  0.3623  0.5134
  806MPD2    N111878   4.524   4.633   1.096 -0.1061 -0.5130  0.1213
  806MPD2    H711879   4.586   4.593   1.166 -1.5924 -2.7245  0.1804
  807MPD2     C11880   4.089   4.631   1.818  0.5353  0.1659  0.2901
  807MPD2    C111881   4.060   4.522   1.747  0.7491  0.1087  0.6441
  807MPD2    C211882   3.978   4.431   1.807 -0.1433  0.9957 -1.0459
  807MPD2    C311883   3.914   4.460   1.923 -0.3647  0.1270  0.2232
  807MPD2    C411884   3.941   4.578   1.991 -0.7299 -0.1636  0.5848
  807MPD2    C511885   4.037   4.659   1.940  0.9138 -0.6932  0.1242
  807MPD2     H11886   3.947   4.347   1.746 -1.6492  0.4636  0.4657
  807MPD2    H111887   3.893   4.606   2.084 -1.4344 -0.4875  0.3210
  807MPD2    H211888   4.169   4.694   1.780  1.0999 -1.0522 -0.5298
  807MPD2    H311889   4.074   0.027   1.993 -0.1434  1.5567 -2.8626
  807MPD2     N11890   3.824   4.364   1.972 -0.5352  0.3835  0.2873
  807MPD2    H511891   3.820   4.275   1.922 -4.1064  1.5107 -1.4293
  807MPD2    N111892   4.132   4.484   1.631  0.6077  0.4617  0.6641
  807MPD2    H711893   4.134   4.386   1.603 -0.7318  1.2836 -2.3589
  808MPD2     C11894   0.340   1.290   9.301 -0.2348 -0.2472  0.2390
  808MPD2    C111895   0.448   1.210   9.344 -0.4081 -0.0832 -0.4903
  808MPD2    C211896   0.576   1.255   9.334  0.3697 -0.4451 -0.2492
  808MPD2    C311897   0.602   1.386   9.302 -0.5020 -1.0373 -0.1603
  808MPD2    C411898   0.490   1.470   9.273 -0.2983 -0.1065 -0.9793
  808MPD2    C511899   0.364   1.423   9.270  0.4865 -0.7986  0.1706
  808MPD2     H11900   0.661   1.193   9.360  1.2984  1.3107  0.8804
  808MPD2    H111901   0.501   1.570   9.234  0.9888  0.6000  1.2411
  808MPD2    H211902   0.238   1.256   9.289 -0.5096  0.6763 -0.0795
  808MPD2    H311903   0.282   1.489   9.241  1.1793 -0.7131 -1.5863
  808MPD2     N11904   0.733   1.443   9.300 -0.1894  0.0613  0.4346
  808MPD2    H511905   0.740   1.542   9.278  1.8082  0.0048  0.7534
  808MPD2    N111906   0.426   1.084   9.402 -0.6174  0.1368  0.1655
  808MPD2    H711907   0.505   1.032   9.439 -0.0946  0.4114 -0.5835
  809MPD2     C11908   1.648   1.047   9.632  0.5805  0.7883 -1.5567
  809MPD2    C111909   1.527   1.011   9.581  0.2456 -0.3622 -0.4705
  809MPD2    C211910   1.443   1.110   9.521  0.5410  0.6456  0.0526
  809MPD2    C311911   1.484   1.242   9.511 -0.5475  0.1418  0.7122
  809MPD2    C411912   1.606   1.276   9.568 -0.6860 -0.0052 -0.4174
  809MPD2    C511913   1.687   1.178   9.616 -0.2641  0.7445 -0.3426
  809MPD2     H11914   1.347   1.077   9.484  0.5101  1.8918 -0.9659
  809MPD2    H111915   1.644   1.377   9.573  1.9581 -1.0005 -0.3704
  809MPD2    H211916   1.711   0.973   9.680  2.1351  1.3728 -2.7246
  809MPD2    H311917   1.782   1.217   9.651  1.1586 -2.2652 -0.7786
  809MPD2     N11918   1.413   1.342   9.452 -0.0353 -0.5046 -0.3298
  809MPD2    H511919   1.440   1.439   9.463 -1.4678  0.0207 -1.3929
  809MPD2    N111920   1.474   0.885   9.583 -0.1282 -0.1646  0.1768
  809MPD2    H711921   1.388   0.878   9.530 -0.0469  2.6538 -0.3214
  810MPD2     C11922   4.703   0.756  10.305 -0.3337 -0.5378  0.4247
  810MPD2    C111923   4.624   0.638  10.314  0.2464  0.5411 -0.5839
  810MPD2    C211924   4.615   0.580  10.444 -0.5547 -0.1779 -0.0518
  810MPD2    C311925   4.683   0.630  10.556 -0.2976 -0.1235  0.0262
  810MPD2    C411926   0.035   0.752  10.542  1.0365 -0.1356  0.1440
  810MPD2    C511927   0.047   0.811  10.422 -0.3948 -0.2908 -0.0291
  810MPD2     H11928   4.558   0.489  10.454  0.8875 -1.0471  0.2304
  810MPD2    H111929   0.087   0.801  10.624  0.4140  0.3468  0.2466
  810MPD2    H211930   4.719   0.801  10.208  1.1146  1.8250  1.7559
  810MPD2    H311931   0.093   0.909  10.417 -0.4953 -0.2786 -0.7313
  810MPD2     N11932   4.672   0.570  10.685  0.7156 -0.8201  0.2970
  810MPD2    H511933   0.016   0.611  10.753 -0.7294 -1.9558  2.3206
  810MPD2    N111934   4.571   0.579  10.199  0.4356  0.0536 -0.2506
  810MPD2    H711935   4.590   0.621  10.108  1.1555  1.2102  0.4435
  811MPD2     C11936   3.914   0.619   9.639 -0.2440 -0.3249  0.2848
  811MPD2    C111937   4.027   0.669   9.706  0.6162  0.2159 -0.0965
  811MPD2    C211938   4.051   0.809   9.717  0.7491 -0.3318  0.2584
  811MPD2    C311939   3.965   0.896   9.666  0.2522 -0.5269  0.3017
  811MPD2    C411940   3.857   0.844   9.603  0.0147  0.2242  0.3529
  811MPD2    C511941   3.839   0.713   9.578  0.2966 -0.0700  0.3012
  811MPD2     H11942   4.133   0.845   9.778  0.7579 -1.0549  0.6758
  811MPD2    H111943   3.777   0.908   9.567 -0.0943 -0.7421 -1.1341
  811MPD2    H211944   3.884   0.516   9.622  0.4515 -0.9604  3.0915
  811MPD2    H311945   3.765   0.687   9.504 -1.8361  2.5101  1.5195
  811MPD2     N11946   4.001   1.033   9.689  0.3851  0.1623  0.1838
  811MPD2    H511947   4.089   1.052   9.737 -0.1188 -0.7833  1.4884
  811MPD2    N111948   4.119   0.568   9.744  0.3416 -0.5434  0.6175
  811MPD2    H711949   4.088   0.472   9.733 -0.5668 -0.2883  0.9287
  812MPD2     C11950   3.724   1.149  12.231  0.3000  0.7092  1.0029
  812MPD2    C111951   3.609   1.196  12.287 -0.1305  0.6974  0.3477
  812MPD2    C211952   3.535   1.109  12.369  0.2456 -0.2352  0.3385
  812MPD2    C311953   3.579   0.973  12.389 -0.4852 -0.0269  0.2781
  812MPD2    C411954   3.694   0.929  12.328  1.0461 -0.5511 -0.2297
  812MPD2    C511955   3.764   1.018  12.246  0.1366  0.1220 -0.1683
  812MPD2     H11956   3.434   1.134  12.399 -0.2211 -0.1992 -1.2634
  812MPD2    H111957   3.733   0.830  12.352  2.7013  0.1293 -0.1645
  812MPD2    H211958   3.773   1.213  12.159 -1.4515  1.1732  0.2027
  812MPD2    H311959   3.860   0.987  12.206  0.6454  0.5693  0.7036
  812MPD2     N11960   3.496   0.903  12.481 -0.6656  0.3696 -0.5351
  812MPD2    H511961   3.411   0.946  12.516 -1.3979 -2.1213  0.7216
  812MPD2    N111962   3.569   1.329  12.251  0.0405 -0.1978 -0.0339
  812MPD2    H711963   3.626   1.382  12.185 -0.5102  1.3649  0.7472
  813MPD2     C11964   2.561   2.368  12.582  0.0652 -0.4349  0.6003
  813MPD2    C111965   2.573   2.473  12.676  0.1232  0.3353  0.5824
  813MPD2    C211966   2.482   2.482  12.778  0.4221 -0.0965  1.0588
  813MPD2    C311967   2.385   2.392  12.793 -0.2206 -0.0535 -0.2215
  813MPD2    C411968   2.375   2.285  12.710 -0.1246  0.3039  0.3039
  813MPD2    C511969   2.467   2.270  12.603  0.3716 -0.1241  0.4761
  813MPD2     H11970   2.490   2.571  12.839  2.9731  0.6452 -0.3543
  813MPD2    H111971   2.298   2.209  12.714 -0.2847  0.4569  0.1268
  813MPD2    H211972   2.626   2.356  12.495  0.2007  0.3187  0.6012
  813MPD2    H311973   2.447   2.200  12.523 -2.5066  0.5716  0.5781
  813MPD2     N11974   2.287   2.423  12.890  0.5757  0.1072 -0.0417
  813MPD2    H511975   2.296   2.509  12.942  0.2810  0.2000 -0.1418
  813MPD2    N111976   2.664   2.578  12.668 -0.0973  0.1399 -0.4070
  813MPD2    H711977   2.658   2.662  12.725  0.6041 -0.1779  0.1175
  814MPD2     C11978   2.914   4.027  12.199  0.5977  0.4520 -0.0766
  814MPD2    C111979   2.945   4.061  12.067  0.3570  0.4139 -0.0098
  814MPD2    C211980   3.014   4.174  12.053 -0.6521 -0.6873 -0.4178
  814MPD2    C311981   3.040   4.257  12.162  0.1811 -0.0414  0.9565
  814MPD2    C411982   3.027   4.211  12.289 -0.0033 -0.3260 -0.1670
  814MPD2    C511983   2.959   4.098  12.307  1.1227 -0.0001 -0.1033
  814MPD2     H11984   3.027   4.207  11.950 -0.0578 -0.6649 -0.3354
  814MPD2    H111985   3.064   4.274  12.368  0.5363 -0.5814 -0.2143
  814MPD2    H211986   2.859   3.935  12.215  0.6284  0.2856 -0.9112
  814MPD2    H311987   2.938   4.069  12.409 -1.8979  2.2375 -0.1127
  814MPD2     N11988   3.123   4.372  12.144  0.0376  0.0864 -0.7024
  814MPD2    H511989   3.174   4.408  12.224  0.4957  0.1246 -1.0137
  814MPD2    N111990   2.908   3.991  11.950 -0.2717  1.1251 -0.0853
  814MPD2    H711991   2.929   4.031  11.860 -1.4635  0.2636 -0.7424
  815MPD2     C11992   3.490   2.709  11.830 -0.3663  0.2215  0.6656
  815MPD2    C111993   3.442   2.580  11.813 -0.7275  0.6036  0.5464
  815MPD2    C211994   3.334   2.542  11.892 -0.2305  0.0328  0.6175
  815MPD2    C311995   3.274   2.627  11.984 -0.5136 -0.1317 -0.2526
  815MPD2    C411996   3.321   2.760  11.998 -0.3230 -0.1731  0.1028
  815MPD2    C511997   3.433   2.793  11.921 -0.3503 -0.1015 -0.6874
  815MPD2     H11998   3.291   2.442  11.888 -3.1885  1.3279 -0.1945
  815MPD2    H111999   3.276   2.832  12.065  2.8255  0.1838  1.8018
  815MPD2    H212000   3.575   2.737  11.769  1.1567  1.2304  3.2552
  815MPD2    H312001   3.465   2.897  11.923 -0.9749  0.0989 -1.1018
  815MPD2     N12002   3.160   2.573  12.049  0.4233  0.0495 -0.4336
  815MPD2    H512003   3.120   2.487  12.012 -1.2337  1.0022 -0.8436
  815MPD2    N112004   3.493   2.485  11.727  0.0362  0.1503 -0.7246
  815MPD2    H712005   3.454   2.391  11.733 -0.8106  0.6970  2.2640
  816MPD2     C12006   3.446   1.439  17.631  0.7092  0.5089  0.7962
  816MPD2    C112007   3.394   1.479  17.512  0.3968 -0.1853  0.4022
  816MPD2    C212008   3.463   1.445  17.396 -0.1059  0.3445  0.0872
  816MPD2    C312009   3.586   1.382  17.405  0.1613  0.1927  0.0792
  816MPD2    C412010   3.637   1.340  17.527 -0.2899 -0.2404  0.2802
  816MPD2    C512011   3.576   1.379  17.639 -0.0382  0.0313 -0.3558
  816MPD2     H12012   3.437   1.477  17.296 -2.2610  0.8468  0.8255
  816MPD2    H112013   3.735   1.295  17.538 -1.7133 -2.4344  3.7807
  816MPD2    H212014   3.396   1.457   0.045 -2.1429 -2.7338 -0.0986
  816MPD2    H312015   3.605   1.332   0.051 -0.1365 -1.0101 -0.8501
  816MPD2     N12016   3.659   1.367  17.286  0.0748 -0.2496  0.3345
  816MPD2    H512017   3.596   1.376  17.207 -1.2562 -0.6842  1.3443
  816MPD2    N112018   3.267   1.548  17.522  0.5799  0.6531 -0.3553
  816MPD2    H712019   3.236   1.577  17.614 -1.3310 -0.7943 -0.5508
  817MPD2     C12020   2.876   2.924   9.934 -0.2044  1.2333 -0.0638
  817MPD2    C112021   2.870   2.914   9.795  0.9838  0.2528  0.4569
  817MPD2    C212022   2.817   3.028   9.724  0.6527 -0.2256 -0.1159
  817MPD2    C312023   2.744   3.117   9.797  0.0078  0.0604 -0.5084
  817MPD2    C412024   2.722   3.095   9.932  0.6181 -0.0099 -0.3675
  817MPD2    C512025   2.806   3.014  10.006 -0.8937  0.7147 -0.2681
  817MPD2     H12026   2.823   3.034   9.616  0.6805  1.0991 -0.0375
  817MPD2    H112027   2.660   3.164   9.988  2.4249  1.3420 -0.0423
  817MPD2    H212028   2.932   2.853   9.995 -0.2982  1.8302  0.7234
  817MPD2    H312029   2.800   3.008  10.114 -0.2476  0.5805 -0.2391
  817MPD2     N12030   2.704   3.229   9.728 -0.0597 -0.4737 -0.1693
  817MPD2    H512031   2.720   3.242   9.629  0.4422 -0.9984 -0.1590
  817MPD2    N112032   2.937   2.809   9.729  0.4310  0.6901  0.2365
  817MPD2    H712033   2.938   2.821   9.628  0.5953 -0.9785  0.0389
  818MPD2     C12034   2.122   2.724  10.218  0.4445 -0.1858  0.3218
  818MPD2    C112035   1.990   2.690  10.260 -0.0173  0.4853  0.1129
  818MPD2    C212036   1.947   2.560  10.257 -0.0124  0.5031  0.5939
  818MPD2    C312037   2.036   2.456  10.239 -0.2226  0.3198 -0.3043
  818MPD2    C412038   2.168   2.496  10.214  0.7583 -0.7457 -0.5282
  818MPD2    C512039   2.207   2.623  10.193 -0.0970  0.1956 -0.4269
  818MPD2     H12040   1.842   2.543  10.279 -0.7498  1.0962 -2.5075
  818MPD2    H112041   2.247   2.422  10.213  1.9114  0.4547  1.2492
  818MPD2    H212042   2.147   2.829  10.211 -1.5651  0.3607  1.3493
  818MPD2    H312043   2.312   2.647  10.176  0.2203 -0.5327  0.5183
  818MPD2     N12044   2.007   2.323  10.263 -0.3762 -0.1375  0.7368
  818MPD2    H512045   2.079   2.253  10.243 -2.0664 -1.8232  0.5984
  818MPD2    N112046   1.889   2.788  10.297  0.3558  0.2059  0.5942
  818MPD2    H712047   1.798   2.759  10.332  1.1090 -1.1733  1.4003
  819MPD2     C12048   4.351   4.127  15.576 -0.1276  0.7181 -1.0738
  819MPD2    C112049   4.401   4.015  15.632 -1.2135  0.8181 -0.2301
  819MPD2    C212050   4.536   4.007  15.644  0.6002 -0.5215 -0.3205
  819MPD2    C312051   4.628   4.103  15.595  0.0692 -0.8265  0.6057
  819MPD2    C412052   4.578   4.209  15.529 -0.4324  0.1463  0.4325
  819MPD2    C512053   4.438   4.222  15.529  0.6130  0.2055 -0.5148
  819MPD2     H12054   4.583   3.922  15.692  2.1122 -0.7525 -2.2426
  819MPD2    H112055   4.642   4.286  15.488 -2.9110  1.9863  0.0659
  819MPD2    H212056   4.245   4.145  15.560  0.2966  1.4455 -3.1611
  819MPD2    H312057   4.401   4.317  15.492  0.4570 -0.1296 -1.2188
  819MPD2     N12058   0.048   4.069  15.613 -0.6826  0.0424 -0.4025
  819MPD2    H512059   0.062   4.001  15.686  1.2953 -2.2311 -2.9218
  819MPD2    N112060   4.308   3.917  15.678  0.7823 -0.2542 -0.5526
  819MPD2    H712061   4.209   3.940  15.669  0.2542 -1.7073  1.4815
  820MPD2     C12062   3.524   3.836  15.237  0.2552  0.4720 -0.5023
  820MPD2    C112063   3.605   3.936  15.291 -0.1487  0.2671  0.2836
  820MPD2    C212064   3.723   3.902  15.353 -0.0100  0.6977 -0.1982
  820MPD2    C312065   3.771   3.773  15.351  0.8801  0.0003 -0.3502
  820MPD2    C412066   3.693   3.680  15.296 -0.1868 -0.2781 -0.6800
  820MPD2    C512067   3.569   3.708  15.243  0.2328 -0.1414  0.4698
  820MPD2     H12068   3.786   3.981  15.392  0.3824  0.8536 -1.1513
  820MPD2    H112069   3.713   3.573  15.301  1.7789  0.0330 -1.8219
  820MPD2    H212070   3.429   3.858  15.191  1.1395 -1.3786 -3.2027
  820MPD2    H312071   3.508   3.624  15.210 -0.3463 -0.0339  1.2567
  820MPD2     N12072   3.893   3.724  15.404  0.4118  0.8126 -0.4556
  820MPD2    H512073   3.912   3.626  15.385 -0.2492  0.7144 -0.6082
  820MPD2    N112074   3.555   4.066  15.259 -0.3149  0.1262 -0.4517
  820MPD2    H712075   3.476   4.062  15.195 -1.0968  1.7389  0.4308
  821MPD2     C12076   0.065   1.334  13.024  0.0204  0.5187 -0.0676
  821MPD2    C112077   0.146   1.374  13.129  0.0432  0.2757 -0.6179
  821MPD2    C212078   0.138   1.514  13.167 -0.0439  0.1289  0.2656
  821MPD2    C312079   0.080   1.614  13.090 -0.1435  0.7204 -0.5167
  821MPD2    C412080   0.015   1.562  12.974  0.3160  0.3140  0.3479
  821MPD2    C512081   0.005   1.426  12.952 -0.4331  0.0008 -0.3150
  821MPD2     H12082   0.196   1.530  13.257 -0.6139  0.5048  0.5659
  821MPD2    H112083   4.681   1.632  12.912 -0.1450 -1.1280 -0.8620
  821MPD2    H212084   0.048   1.234  12.987  1.7950  0.2666 -0.1907
  821MPD2    H312085   4.662   1.384  12.874 -1.2115  0.7796 -0.1212
  821MPD2     N12086   0.096   1.756  13.109  0.4210  0.0531 -0.0689
  821MPD2    H512087   0.054   1.814  13.038  0.4089 -1.0789 -0.9894
  821MPD2    N112088   0.215   1.282  13.217 -0.3273  0.8214 -0.1694
  821MPD2    H712089   0.259   1.314  13.303 -2.5430  1.6419  0.6924
  822MPD2     C12090   0.554   0.890  15.796  0.4449  0.5334 -0.2260
  822MPD2    C112091   0.550   0.862  15.934  0.0182 -0.3073  0.7137
  822MPD2    C212092   0.539   0.970  16.023 -0.1479  0.4302  0.6133
  822MPD2    C312093   0.546   1.100  15.983 -0.3941 -0.8996 -0.2413
  822MPD2    C412094   0.568   1.121  15.850  0.4223  1.1714  0.1748
  822MPD2    C512095   0.553   1.022  15.758  0.0945 -0.5899 -0.2580
  822MPD2     H12096   0.547   0.963  16.131  1.9027  1.5108  0.5338
  822MPD2    H112097   0.560   1.224  15.817 -2.4805  0.6414 -0.7464
  822MPD2    H212098   0.562   0.812  15.721 -2.5939  1.1851 -1.2184
  822MPD2    H312099   0.563   1.036  15.651 -0.9848 -3.6549 -0.7677
  822MPD2     N12100   0.538   1.205  16.078  0.0407  0.5821 -0.2185
  822MPD2    H512101   0.508   1.181  16.172  0.2311 -0.5237 -0.4411
  822MPD2    N112102   0.594   0.737  15.993 -0.4741  0.0471 -0.1575
  822MPD2    H712103   0.614   0.742  16.092 -0.0761  0.5382 -0.2664
  823MPD2     C12104   0.257   1.382  16.813 -0.5578 -0.5142 -0.0978
  823MPD2    C112105   0.268   1.303  16.701 -0.6416  0.1180  0.2408
  823MPD2    C212106   0.255   1.168  16.710 -0.5528  0.4612 -0.2254
  823MPD2    C312107   0.252   1.105  16.835  0.0194  0.3264  0.8724
  823MPD2    C412108   0.236   1.188  16.942 -0.0801  0.1605 -0.0418
  823MPD2    C512109   0.234   1.325  16.934  0.2359  0.5132  0.0249
  823MPD2     H12110   0.260   1.100  16.625 -1.0840  1.5016 -1.0921
  823MPD2    H112111   0.226   1.142  17.039  1.3481  0.2380  0.1403
  823MPD2    H212112   0.274   1.489  16.808 -1.4771 -0.2882  1.4694
  823MPD2    H312113   0.226   1.383  17.025  1.4067 -0.0765  0.5009
  823MPD2     N12114   0.239   0.972  16.865  0.1570  0.0956 -0.2773
  823MPD2    H512115   0.234   0.953  16.964  0.3932  0.6322 -0.1616
  823MPD2    N112116   0.300   1.375  16.586  0.1203  0.1479 -0.7448
  823MPD2    H712117   0.321   1.474  16.593  1.7615 -0.0601 -2.6061
  824MPD2     C12118   0.821   4.655  15.864 -0.8399 -0.2825  0.0495
  824MPD2    C112119   0.903   0.023  15.931  0.3665  0.5901  0.1466
  824MPD2    C212120   1.037   0.006  15.939 -0.6879  0.0480 -0.4536
  824MPD2    C312121   1.094   4.615  15.877  0.1447  0.4567 -0.1716
  824MPD2    C412122   1.012   4.535  15.801 -0.2163 -0.4506  0.1606
  824MPD2    C512123   0.879   4.552  15.801 -0.6503  0.0400 -1.0600
  824MPD2     H12124   1.089   0.084  15.994  0.9540  0.6146 -2.7933
  824MPD2    H112125   1.044   4.442  15.757 -0.7108 -0.6792  0.2840
  824MPD2    H212126   0.714   4.668  15.852 -1.1022 -1.4647  1.1512
  824MPD2    H312127   0.818   4.486  15.740 -1.6623 -0.7023  0.7276
  824MPD2     N12128   1.232   4.604  15.875  0.3099 -0.1665 -0.5769
  824MPD2    H512129   1.291   4.675  15.918 -1.9840  1.0896  0.5161
  824MPD2    N112130   0.851   0.136  15.999 -0.3911  0.1078 -0.0973
  824MPD2    H712131   0.914   0.180  16.064 -0.1508 -0.6860  0.2107
  825MPD2     C12132   1.742   0.161  15.520 -0.1597 -0.8421 -0.1691
  825MPD2    C112133   1.704   0.214  15.641  0.3476 -0.5992  0.2303
  825MPD2    C212134   1.697   0.353  15.651  0.8862  0.3830 -0.4755
  825MPD2    C312135   1.723   0.433  15.541 -0.1053 -0.0379 -0.5509
  825MPD2    C412136   1.761   0.382  15.424 -0.0799  0.0779  0.0851
  825MPD2    C512137   1.767   0.244  15.417  0.2319 -0.4466 -0.0669
  825MPD2     H12138   1.668   0.399  15.745  1.3978  3.7239 -1.9574
  825MPD2    H112139   1.770   0.443  15.334 -1.2184 -1.3926 -1.0166
  825MPD2    H212140   1.735   0.057  15.491 -1.7330 -1.2418  1.6329
  825MPD2    H312141   1.802   0.199  15.325  1.0897  0.0958 -0.0113
  825MPD2     N12142   1.734   0.578  15.563 -0.6479 -0.6202  0.6185
  825MPD2    H512143   1.705   0.606  15.656 -0.9624  0.7138  0.1080
  825MPD2    N112144   1.668   0.129  15.755 -0.0637  0.0304 -0.3712
  825MPD2    H712145   1.603   0.162  15.825  1.3274  2.6751 -0.3011
  826MPD2     C12146   1.898   4.610  13.681 -0.1578 -0.3855 -0.4732
  826MPD2    C112147   1.854   4.681  13.571  0.2019  0.2940  0.2960
  826MPD2    C212148   1.783   0.078  13.590 -0.4234 -0.0464 -0.0923
  826MPD2    C312149   1.748   0.126  13.717 -0.2201  0.9339  0.6752
  826MPD2    C412150   1.776   0.044  13.826  0.2281  0.3528 -0.4584
  826MPD2    C512151   1.849   4.646  13.803  0.3351  0.8936 -0.2487
  826MPD2     H12152   1.742   0.121  13.499  1.3609 -3.1410 -2.3888
  826MPD2    H112153   1.748   0.077  13.925  0.1306 -2.1235  0.3445
  826MPD2    H212154   1.960   4.522  13.665 -0.4344 -0.9746  1.6486
  826MPD2    H312155   1.863   4.587  13.893  1.0401 -2.0059 -2.2428
  826MPD2     N12156   1.675   0.247  13.738 -0.1533  0.3216  0.0118
  826MPD2    H512157   1.668   0.273  13.836 -1.3312  1.1462 -0.2835
  826MPD2    N112158   1.876   4.620  13.442 -0.0334  0.2370  0.9011
  826MPD2    H712159   1.912   4.525  13.452 -0.1191  0.0905 -0.2465
  827MPD2     C12160   2.045   1.656  10.111  0.1418  0.4859 -0.3001
  827MPD2    C112161   1.993   1.578  10.214  0.9860  0.9046  0.1420
  827MPD2    C212162   1.879   1.498  10.192  0.7131 -0.0087 -0.2051
  827MPD2    C312163   1.823   1.501  10.068 -0.5091 -0.7228  0.0181
  827MPD2    C412164   1.880   1.570   9.970  0.7124 -0.0297  0.1100
  827MPD2    C512165   1.991   1.648   9.983  0.0858 -0.6531 -0.2064
  827MPD2     H12166   1.837   1.428  10.263  0.6285 -0.9852 -1.2297
  827MPD2    H112167   1.838   1.560   9.871  3.9550 -3.4434 -0.9440
  827MPD2    H212168   2.126   1.725  10.129  0.8374 -0.1142 -1.1305
  827MPD2    H312169   2.021   1.703   9.895  2.1331  0.9787  1.5293
  827MPD2     N12170   1.717   1.412  10.033 -0.1798  0.4416  0.3624
  827MPD2    H512171   1.692   1.347  10.107  0.7442  0.7855  0.9743
  827MPD2    N112172   2.065   1.586  10.334 -0.2038  0.2083 -0.3663
  827MPD2    H712173   2.153   1.636  10.329 -0.6630  1.2292  1.5654
  828MPD2     C12174   0.580   1.675  12.732  0.1677 -0.0642  0.1216
  828MPD2    C112175   0.568   1.642  12.602 -0.5011  0.0817  0.5013
  828MPD2    C212176   0.676   1.622  12.521  0.1927  0.2348  0.9147
  828MPD2    C312177   0.803   1.634  12.569 -0.7436  0.5633 -0.1596
  828MPD2    C412178   0.817   1.667  12.705 -0.3719  0.3208  0.5057
  828MPD2    C512179   0.704   1.685  12.787  0.0155  0.2471  0.4942
  828MPD2     H12180   0.656   1.601  12.417  1.7761 -0.4469  0.7435
  828MPD2    H112181   0.914   1.667  12.753 -0.7901 -1.7314  1.3503
  828MPD2    H212182   0.496   1.709  12.792 -0.3460 -1.1049 -0.0139
  828MPD2    H312183   0.725   1.714  12.889 -1.1770  0.5086  0.6612
  828MPD2     N12184   0.916   1.602  12.491 -0.5611  0.3593  0.3634
  828MPD2    H512185   1.005   1.606  12.540 -0.7539  0.7252  0.6817
  828MPD2    N112186   0.442   1.624  12.539  0.0604  0.1823 -0.8271
  828MPD2    H712187   0.446   1.598  12.441 -1.8476  1.7984 -1.3334
  829MPD2     C12188   0.385   1.621  11.719  0.0275  0.1480 -0.1910
  829MPD2    C112189   0.252   1.624  11.745 -0.1055  0.4863 -0.5498
  829MPD2    C212190   0.200   1.597  11.866 -0.0084  0.7453 -0.3032
  829MPD2    C312191   0.290   1.584  11.972 -0.8010 -0.5794 -0.1456
  829MPD2    C412192   0.428   1.597  11.953 -0.0579  0.2860 -0.2945
  829MPD2    C512193   0.468   1.618  11.828 -0.1382 -0.2534 -0.2238
  829MPD2     H12194   0.096   1.613  11.892 -0.3346 -2.4620  0.3631
  829MPD2    H112195   0.494   1.603  12.039  0.5113  1.2735 -0.7930
  829MPD2    H212196   0.434   1.634  11.623  0.3935 -2.8109 -0.3767
  829MPD2    H312197   0.574   1.641  11.817 -0.3229  0.2007 -1.0885
  829MPD2     N12198   0.244   1.568  12.110 -0.2426  0.2215 -0.0668
  829MPD2    H512199   0.314   1.553  12.182  0.6692 -0.9368 -1.1818
  829MPD2    N112200   0.165   1.645  11.633  0.5611  0.0311 -0.0734
  829MPD2    H712201   0.210   1.649  11.542 -0.2749 -0.1290 -0.4922
  830MPD2     C12202   0.598   4.311  15.122 -0.1651 -0.7728 -0.4266
  830MPD2    C112203   0.645   4.260  15.239  0.3258 -0.4129  0.0216
  830MPD2    C212204   0.781   4.302  15.273 -0.4845 -0.5895  0.1931
  830MPD2    C312205   0.841   4.404  15.197 -0.0608  0.7255  0.0818
  830MPD2    C412206   0.784   4.464  15.083  0.1722 -0.0949 -0.9245
  830MPD2    C512207   0.666   4.403  15.043 -0.1864 -0.0698  0.0557
  830MPD2     H12208   0.828   4.258  15.360 -0.0125  0.4054  0.4436
  830MPD2    H112209   0.838   4.530  15.017 -1.7980  3.6267  1.1713
  830MPD2    H212210   0.496   4.284  15.097 -0.5529 -1.0917  1.4593
  830MPD2    H312211   0.624   4.446  14.953 -1.3592  0.2191  0.7418
  830MPD2     N12212   0.970   4.446  15.231  0.2929  0.2838  0.4242
  830MPD2    H512213   1.030   4.499  15.168 -0.1863  1.8958  1.3127
  830MPD2    N112214   0.574   4.171  15.321 -0.0764 -0.0251 -0.5997
  830MPD2    H712215   0.477   4.154  15.299 -0.2667  0.3044 -0.0216
  831MPD2     C12216   0.744   1.248  16.437  0.4356  0.1060  0.4924
  831MPD2    C112217   0.783   1.141  16.359  0.2596  0.3232 -0.0931
  831MPD2    C212218   0.702   1.026  16.372 -0.3801  0.4818 -0.4333
  831MPD2    C312219   0.605   1.008  16.473 -0.1910 -0.5184  0.1956
  831MPD2    C412220   0.577   1.120  16.552  0.8835  0.5208  0.1682
  831MPD2    C512221   0.650   1.237  16.535  0.3042 -0.0456 -0.8738
  831MPD2     H12222   0.713   0.949  16.297  0.4758  2.5809 -2.4557
  831MPD2    H112223   0.502   1.115  16.630 -2.0190  0.6719 -2.6273
  831MPD2    H212224   0.791   1.345  16.423  1.0521 -0.3931 -0.8861
  831MPD2    H312225   0.622   1.326  16.590  3.8785  1.0647 -0.8740
  831MPD2     N12226   0.518   0.900  16.469 -0.0705 -0.0075  0.0880
  831MPD2    H512227   0.444   0.896  16.539  1.3237 -0.4638  1.5470
  831MPD2    N112228   0.882   1.133  16.260  0.0221  0.1527 -0.0829
  831MPD2    H712229   0.896   1.043  16.214  0.3704 -1.0377  2.3478
  832MPD2     C12230   3.222   2.937   0.170 -0.1544 -0.2964 -0.4658
  832MPD2    C112231   3.263   3.024   0.077 -0.2696  0.7220  0.4592
  832MPD2    C212232   3.271   2.985  17.623  0.2810  0.0981 -0.0882
  832MPD2    C312233   3.222   2.864  17.582 -0.2064  0.2594 -0.5029
  832MPD2    C412234   3.183   2.779  17.679 -0.2377  0.2991  0.0166
  832MPD2    C512235   3.178   2.811   0.130  0.7935  0.4240 -0.4045
  832MPD2     H12236   3.297   3.053  17.542 -1.0625 -0.3281 -0.8752
  832MPD2    H112237   3.143   2.683  17.648  0.5625 -0.3864  1.1295
  832MPD2    H212238   3.214   2.956   0.276  0.0005  0.5326 -0.6105
  832MPD2    H312239   3.130   2.747   0.203 -1.5029  1.7730 -0.6970
  832MPD2     N12240   3.236   2.818  17.448  0.2062  0.4963  0.0497
  832MPD2    H512241   3.216   2.721  17.423  2.4670 -0.3227  1.3827
  832MPD2    N112242   3.300   3.157   0.117 -0.3613  0.3478 -0.0388
  832MPD2    H712243   3.311   3.184   0.214 -0.5381 -1.6126  0.5417
  833MPD2     C12244   0.995   4.675  12.175 -0.4091  0.1585  0.4157
  833MPD2    C112245   1.110   4.641  12.243 -0.0272  1.4463 -0.0999
  833MPD2    C212246   1.219   4.586  12.176 -0.5313  0.6892 -0.3485
  833MPD2    C312247   1.217   4.579  12.033 -0.3880 -0.3321 -0.2267
  833MPD2    C412248   1.102   4.619  11.965  0.5441 -0.6042  0.7583
  833MPD2    C512249   0.994   4.666  12.036 -0.2551 -0.6214  0.0131
  833MPD2     H12250   1.308   4.559  12.232 -0.8667  0.4098  0.0496
  833MPD2    H112251   1.096   4.617  11.857 -1.5548 -0.8796  0.8793
  833MPD2    H212252   0.915   0.001  12.231  0.8831  1.1732  1.4512
  833MPD2    H312253   0.904   4.689  11.981  0.8013  2.6878 -0.3196
  833MPD2     N12254   1.326   4.522  11.956  0.0591 -0.6765 -0.2262
  833MPD2    H512255   1.320   4.507  11.856 -0.8964 -1.0551 -0.1133
  833MPD2    N112256   1.118   4.672  12.378  0.2524 -0.4895 -1.0773
  833MPD2    H712257   1.036   4.707  12.427  1.9038  1.1721  0.4863
  834MPD2     C12258   1.168   3.585  11.885  0.8067 -0.7921  0.2199
  834MPD2    C112259   1.275   3.597  11.799  1.1447 -1.2042 -0.0006
  834MPD2    C212260   1.357   3.709  11.819  0.0263  1.7261 -0.5257
  834MPD2    C312261   1.323   3.821  11.896 -0.0331  0.4648 -0.4525
  834MPD2    C412262   1.219   3.805  11.991  0.8181  0.6007 -0.1871
  834MPD2    C512263   1.150   3.684  11.983 -0.0561 -0.4501  0.5301
  834MPD2     H12264   1.441   3.713  11.752  0.4771 -0.1686 -0.0934
  834MPD2    H112265   1.191   3.887  12.056  0.9729  2.4701 -2.5013
  834MPD2    H212266   1.084   3.518  11.874  0.7374 -1.0642  2.4291
  834MPD2    H312267   1.061   3.680  12.044 -1.2732  1.1051 -1.1232
  834MPD2     N12268   1.395   3.941  11.877 -0.3332 -0.3328 -0.4609
  834MPD2    H512269   1.473   3.932  11.813 -0.8776 -1.5597 -0.9399
  834MPD2    N112270   1.307   3.492  11.708 -0.5700 -0.2720 -0.4019
  834MPD2    H712271   1.240   3.418  11.693 -2.4285  1.2257  0.4532
  835MPD2     C12272   1.709   1.879  11.034 -0.1062  0.6527  0.7581
  835MPD2    C112273   1.584   1.833  11.020  0.2347 -0.0720  0.0881
  835MPD2    C212274   1.492   1.811  11.121  0.2628  0.3993  0.0749
  835MPD2    C312275   1.526   1.856  11.244 -0.5753  0.8037 -0.5487
  835MPD2    C412276   1.651   1.916  11.269 -0.7939 -0.4855  0.6288
  835MPD2    C512277   1.738   1.923  11.159  0.4359  0.9556  0.7885
  835MPD2     H12278   1.413   1.739  11.103  0.2353  0.8916 -1.8242
  835MPD2    H112279   1.687   1.958  11.362  0.4018 -0.3525  0.1056
  835MPD2    H212280   1.783   1.894  10.957 -0.6988 -3.4538 -0.6215
  835MPD2    H312281   1.834   1.973  11.170  1.4253 -0.7421 -0.2503
  835MPD2     N12282   1.440   1.821  11.351  0.5134  0.2607 -0.5093
  835MPD2    H512283   1.468   1.853  11.443  1.3691 -1.1121 -0.3094
  835MPD2    N112284   1.533   1.809  10.892  0.2045  0.2790 -0.2824
  835MPD2    H712285   1.435   1.783  10.894 -0.0401  1.2019  0.1077
  836MPD2     C12286   0.677   1.887  11.411 -0.0467 -0.5793 -0.0412
  836MPD2    C112287   0.723   1.881  11.541  0.2218  0.0476  0.9771
  836MPD2    C212288   0.634   1.900  11.644 -0.1890  0.4484  0.6251
  836MPD2    C312289   0.497   1.928  11.622  0.1943  0.3491  0.3139
  836MPD2    C412290   0.451   1.928  11.492 -0.3277 -0.1497  0.2922
  836MPD2    C512291   0.541   1.911  11.392 -0.3971 -0.5537 -0.2978
  836MPD2     H12292   0.674   1.898  11.745 -0.6762 -1.2563  0.7780
  836MPD2    H112293   0.344   1.938  11.478 -0.5244 -0.2026  1.7558
  836MPD2    H212294   0.732   1.879  11.318 -2.6142 -1.6677 -1.4638
  836MPD2    H312295   0.514   1.925  11.288  0.6658  0.2313 -0.4634
  836MPD2     N12296   0.399   1.945  11.725 -0.6104  0.4904  0.4557
  836MPD2    H512297   0.303   1.935  11.695  0.5391 -1.6642 -2.5933
  836MPD2    N112298   0.865   1.869  11.546  0.1093  0.3002  0.3171
  836MPD2    H712299   0.912   1.835  11.463  1.0141 -0.4588  1.1421
  837MPD2     C12300   4.604   1.488   9.881 -0.3230 -0.0557 -0.3003
  837MPD2    C112301   4.483   1.543   9.934 -1.0772 -0.1565  0.4750
  837MPD2    C212302   4.487   1.654  10.015  0.2387 -0.0994  0.1824
  837MPD2    C312303   4.598   1.728  10.045  1.1165  0.4688 -0.9532
  837MPD2    C412304   4.708   1.670   9.990 -0.0744 -0.8628 -0.0025
  837MPD2    C512305   0.001   1.565   9.901 -0.0842 -0.2511  0.0985
  837MPD2     H12306   4.399   1.701  10.058  0.4270  0.4567 -0.0425
  837MPD2    H112307   0.076   1.735   9.991 -0.6545 -0.0793 -0.4507
  837MPD2    H212308   4.604   1.402   9.815  1.3071  1.3820 -2.1910
  837MPD2    H312309   0.093   1.545   9.849  0.6016  1.5383  0.6205
  837MPD2     N12310   4.585   1.853  10.092  0.5343 -0.0936 -0.3549
  837MPD2    H512311   4.508   1.883  10.152 -1.9321 -0.9132 -3.1395
  837MPD2    N112312   4.359   1.493   9.903  0.3809 -0.0483 -0.0839
  837MPD2    H712313   4.278   1.531   9.951  2.1575  3.4367  0.1376
  838MPD2     C12314   2.635   4.679  11.416 -0.2002  0.0179  0.5900
  838MPD2    C112315   2.625   4.676  11.557  0.7316 -0.4006 -0.6991
  838MPD2    C212316   2.530   4.586  11.610  0.1883  0.3252  0.2631
  838MPD2    C312317   2.450   4.502  11.538  1.2106  0.2176  0.2599
  838MPD2    C412318   2.460   4.507  11.404  0.1990  0.1354 -0.0375
  838MPD2    C512319   2.552   4.595  11.348 -0.2652  0.6290 -0.1439
  838MPD2     H12320   2.520   4.591  11.718  1.1186  2.7532  0.2418
  838MPD2    H112321   2.399   4.446  11.338  0.8495 -1.4447  0.8213
  838MPD2    H212322   2.708   0.008  11.353 -0.4765  0.0172  0.2640
  838MPD2    H312323   2.562   4.606  11.241 -0.4030 -0.4382 -0.2689
  838MPD2     N12324   2.365   4.412  11.608 -0.0375 -0.2771 -0.4512
  838MPD2    H512325   2.369   4.419  11.709 -2.3553 -1.4150 -0.2934
  838MPD2    N112326   2.706   0.024  11.651 -0.0922 -0.1418  0.6118
  838MPD2    H712327   2.702   4.707  11.746 -0.3862 -1.2698  0.1647
  839MPD2     C12328   2.571   4.054  11.769  0.0230  0.2988  0.0656
  839MPD2    C112329   2.607   4.090  11.644 -0.3112  0.4902  0.6620
  839MPD2    C212330   2.695   4.201  11.633 -0.0696 -0.2850 -0.4344
  839MPD2    C312331   2.744   4.271  11.748  0.7886  0.2236  0.6956
  839MPD2    C412332   2.716   4.221  11.872  0.6327  0.2047  0.7945
  839MPD2    C512333   2.623   4.123  11.877  0.0899 -0.2612 -0.4622
  839MPD2     H12334   2.720   4.236  11.534  0.9468 -1.0221 -0.4391
  839MPD2    H112335   2.761   4.264  11.961  0.2736  0.0262  1.0644
  839MPD2    H212336   2.506   3.971  11.795  2.2692 -0.9421  1.7739
  839MPD2    H312337   2.594   4.080  11.972 -2.7684 -0.6681 -1.5181
  839MPD2     N12338   2.834   4.374  11.736 -0.1373  0.1146  0.2652
  839MPD2    H512339   2.883   4.397  11.822  1.0088 -3.3605  0.5371
  839MPD2    N112340   2.554   4.029  11.525  0.1028 -0.0410 -0.0828
  839MPD2    H712341   2.571   4.071  11.435  2.8402 -0.1229  0.3827
  840MPD2     C12342   2.631   1.737  10.270 -0.3521  0.2539 -0.3668
  840MPD2    C112343   2.628   1.728  10.409  0.4079  1.1631 -0.1469
  840MPD2    C212344   2.736   1.779  10.486 -0.3977  0.3370 -0.8064
  840MPD2    C312345   2.842   1.848  10.421 -0.1217 -0.1452 -0.1639
  840MPD2    C412346   2.842   1.857  10.283 -0.1683 -0.0790  0.6536
  840MPD2    C512347   2.741   1.802  10.210  0.9518 -0.3646  0.2618
  840MPD2     H12348   2.731   1.771  10.594  2.0365  1.1764 -0.6388
  840MPD2    H112349   2.908   1.914  10.219 -0.3782  1.1379  1.5359
  840MPD2    H212350   2.566   1.690  10.197 -0.0904  1.0387 -1.1206
  840MPD2    H312351   2.741   1.806  10.101 -0.5599  1.0634  0.3121
  840MPD2     N12352   2.944   1.916  10.495 -0.1759  0.6425  0.5111
  840MPD2    H512353   3.011   1.950  10.427 -2.2520  2.7333 -0.5445
  840MPD2    N112354   2.518   1.660  10.463 -0.7527  0.6115  0.2060
  840MPD2    H712355   2.446   1.632  10.397 -0.0128  0.1495 -0.4028
  841MPD2     C12356   2.490   1.770  14.798 -0.1466  0.1795  0.3599
  841MPD2    C112357   2.443   1.714  14.675  0.2685 -0.0078  0.0473
  841MPD2    C212358   2.448   1.783  14.554 -0.0398 -0.6545  0.0679
  841MPD2    C312359   2.506   1.908  14.559  0.1108 -0.1508 -0.0581
  841MPD2    C412360   2.549   1.968  14.678  0.4380  0.6148  0.8905
  841MPD2    C512361   2.536   1.898  14.794 -0.6669  0.0610 -0.7001
  841MPD2     H12362   2.427   1.738  14.458 -1.2327  0.4260 -0.1756
  841MPD2    H112363   2.569   2.075  14.677  1.5795  0.3905 -0.3053
  841MPD2    H212364   2.487   1.719  14.894  0.5498 -0.2295  0.1666
  841MPD2    H312365   2.554   1.953  14.885 -2.2336  1.3695 -1.1836
  841MPD2     N12366   2.518   1.976  14.434  0.4193 -0.2451 -0.0973
  841MPD2    H512367   2.480   1.934  14.350 -0.1156 -0.1374  0.0909
  841MPD2    N112368   2.395   1.584  14.676 -0.0209 -0.5653  0.0089
  841MPD2    H712369   2.362   1.545  14.588 -0.0384  0.2150 -0.3337
  842MPD2     C12370   2.400   1.934  16.489 -0.8537  0.6616 -0.4486
  842MPD2    C112371   2.482   2.047  16.496 -0.5509  0.1104  0.1448
  842MPD2    C212372   2.525   2.095  16.619 -0.0617  0.1979  0.0006
  842MPD2    C312373   2.497   2.022  16.733 -0.0706  0.8235  0.0590
  842MPD2    C412374   2.428   1.909  16.724  0.0064 -0.1583 -0.0717
  842MPD2    C512375   2.374   1.865  16.608 -0.2854  0.6012 -0.1837
  842MPD2     H12376   2.597   2.176  16.624  1.7788 -1.3449 -1.6004
  842MPD2    H112377   2.413   1.848  16.812  1.4906 -0.6122 -0.1254
  842MPD2    H212378   2.351   1.899  16.400 -0.0037  0.8201 -0.9818
  842MPD2    H312379   2.299   1.787  16.601 -2.5767  2.6231  2.1976
  842MPD2     N12380   2.527   2.062  16.868 -0.9024  0.1216  0.7783
  842MPD2    H512381   2.495   1.994  16.936  1.2919 -1.0599  0.6076
  842MPD2    N112382   2.496   2.125  16.378  0.0566  0.5625  0.2680
  842MPD2    H712383   2.449   2.098  16.293 -1.5885 -0.2999  1.4631
  843MPD2     C12384   4.468   3.147   0.386 -0.6359 -0.3455 -0.2241
  843MPD2    C112385   4.578   3.072   0.429 -0.6665 -0.0540  0.0529
  843MPD2    C212386   4.702   3.120   0.390 -0.2167  0.0867  0.2746
  843MPD2    C312387   4.719   3.235   0.315  0.0575 -0.9876 -0.4511
  843MPD2    C412388   4.606   3.305   0.273 -0.5290  0.6090  0.4887
  843MPD2    C512389   4.484   3.263   0.313  0.1309  0.2858  0.7387
  843MPD2     H12390   0.067   3.058   0.419 -0.5259 -1.5040 -2.2795
  843MPD2    H112391   4.614   3.386   0.201 -0.8418 -1.0452 -1.4202
  843MPD2    H212392   4.367   3.119   0.416 -1.0586 -0.3198 -1.5909
  843MPD2    H312393   4.391   3.313   0.289 -0.0841 -0.6450 -0.3250
  843MPD2     N12394   0.126   3.285   0.278 -0.0648  0.5224 -0.4329
  843MPD2    H512395   0.122   3.387   0.275 -0.9796  0.4329 -1.9022
  843MPD2    N112396   4.550   2.949   0.493  0.3725 -0.1036 -0.5012
  843MPD2    H712397   4.450   2.931   0.501  0.5835 -0.4629  1.4465
  844MPD2     C12398   3.426   2.351  16.511 -0.0243 -0.3634  1.0152
  844MPD2    C112399   3.378   2.297  16.625  0.7299  0.4855  0.1472
  844MPD2    C212400   3.444   2.319  16.743 -0.3675 -0.9078  0.2375
  844MPD2    C312401   3.553   2.405  16.746 -0.6570 -0.4360  0.0154
  844MPD2    C412402   3.593   2.459  16.628  0.5484 -0.2520  0.1842
  844MPD2    C512403   3.540   2.421  16.515 -0.0021 -0.1949  0.0548
  844MPD2     H12404   3.412   2.276  16.838  2.7649 -0.7118  1.3850
  844MPD2    H112405   3.670   2.535  16.627 -1.1692  1.4745 -0.2359
  844MPD2    H212406   3.386   2.344  16.410  1.7470  1.3188  0.1886
  844MPD2    H312407   3.575   2.470  16.425  0.0503 -0.0176  0.1738
  844MPD2     N12408   3.616   2.442  16.864 -0.6374  0.2159  0.0839
  844MPD2    H512409   3.574   2.405  16.949  0.7263  0.2807  0.7842
  844MPD2    N112410   3.269   2.201  16.634 -0.5210  0.5529  0.5347
  844MPD2    H712411   3.248   2.152  16.721  1.1392  2.2306  1.8864
  845MPD2     C12412   3.957   3.240  17.176 -0.1849  0.5982 -0.3169
  845MPD2    C112413   3.840   3.191  17.135 -0.3695 -0.5434  0.1341
  845MPD2    C212414   3.811   3.061  17.162  0.8948 -0.8576 -0.4730
  845MPD2    C312415   3.912   2.980  17.209  0.2503  0.4139 -0.0499
  845MPD2    C412416   4.039   3.026  17.234  0.4791  0.7206  0.7673
  845MPD2    C512417   4.060   3.159  17.225 -0.4837  0.4101 -0.0572
  845MPD2     H12418   3.716   3.018  17.134  1.8576 -1.6823 -2.4875
  845MPD2    H112419   4.116   2.965  17.279 -0.3616  0.9874  2.5320
  845MPD2    H212420   3.981   3.345  17.161  2.6617 -0.0819 -0.5270
  845MPD2    H312421   4.153   3.206  17.257 -0.0533  0.2577 -1.0571
  845MPD2     N12422   3.880   2.843  17.202  0.7744  0.9275 -0.6239
  845MPD2    H512423   3.787   2.811  17.180  0.9441 -0.4448  0.7101
  845MPD2    N112424   3.734   3.263  17.072 -0.8381  0.0010  0.3431
  845MPD2    H712425   3.653   3.214  17.034  0.1410 -2.1732  1.0875
  846MPD2     C12426   0.660   3.464  13.881  0.1719  0.0243  0.1128
  846MPD2    C112427   0.613   3.588  13.900 -0.2807 -0.5612  0.7182
  846MPD2    C212428   0.564   3.623  14.029  0.0845 -0.3569 -0.0615
  846MPD2    C312429   0.568   3.525  14.124  0.2090 -0.5804  0.0959
  846MPD2    C412430   0.607   3.398  14.099 -0.2105 -0.2520 -0.0796
  846MPD2    C512431   0.664   3.366  13.977  0.3141 -0.3042  1.0418
  846MPD2     H12432   0.537   3.725  14.052  0.2775 -0.6542  1.5079
  846MPD2    H112433   0.585   3.322  14.172  1.6050  2.9756  3.8228
  846MPD2    H212434   0.707   3.443  13.786 -1.0468  2.4637 -1.0037
  846MPD2    H312435   0.707   3.270  13.951  0.5108  0.1042 -0.1011
  846MPD2     N12436   0.511   3.571  14.247 -0.4445 -0.3270  0.3975
  846MPD2    H512437   0.467   3.662  14.250  0.1750 -0.1178  2.7639
  846MPD2    N112438   0.605   3.690  13.802 -0.0081  0.8826 -0.5094
  846MPD2    H712439   0.579   3.781  13.839  0.1514 -0.1755  2.2116
  847MPD2     C12440   0.751   4.213  14.415 -0.3821 -0.7502 -0.0724
  847MPD2    C112441   0.866   4.293  14.420 -0.3132 -0.0581 -0.1870
  847MPD2    C212442   0.965   4.250  14.496  0.5223 -0.3134  0.4362
  847MPD2    C312443   0.959   4.133  14.571 -0.2347  0.8075 -0.2658
  847MPD2    C412444   0.849   4.054  14.562  0.2971  0.4780  0.5392
  847MPD2    C512445   0.736   4.100  14.488  0.4339  0.2185  0.0325
  847MPD2     H12446   1.051   4.314  14.510  0.9085 -0.3783 -1.7327
  847MPD2    H112447   0.846   3.960  14.615 -0.6200  0.8728  1.1895
  847MPD2    H212448   0.669   4.236  14.347  0.7645  1.8124 -0.5988
  847MPD2    H312449   0.646   4.041  14.487  0.0437  0.8296 -0.8162
  847MPD2     N12450   1.075   4.101  14.645 -0.5318 -0.0138  0.6452
  847MPD2    H512451   1.159   4.157  14.630  0.1557 -1.1883  0.0588
  847MPD2    N112452   0.877   4.412  14.347 -0.4103 -0.3013 -0.7024
  847MPD2    H712453   0.968   4.457  14.352 -0.3670 -0.3601 -0.9210
  848MPD2     C12454   3.697   2.831  16.731 -0.8122 -1.0593 -0.0289
  848MPD2    C112455   3.569   2.792  16.696  0.3742  0.0127 -0.0980
  848MPD2    C212456   3.529   2.800  16.561  0.1195 -0.7600  0.2126
  848MPD2    C312457   3.607   2.877  16.473 -0.6083 -0.9229 -0.0069
  848MPD2    C412458   3.733   2.907  16.510  0.4973  0.2783 -0.0547
  848MPD2    C512459   3.775   2.880  16.636  0.0078  0.1455  0.3419
  848MPD2     H12460   3.430   2.769  16.530  1.5892 -0.7977 -4.4683
  848MPD2    H112461   3.784   2.971  16.439 -0.0674  1.7312  0.8368
  848MPD2    H212462   3.739   2.804  16.827  0.2409 -1.3479 -0.5674
  848MPD2    H312463   3.871   2.918  16.670  0.6596 -1.1097 -0.0850
  848MPD2     N12464   3.557   2.936  16.354  0.1944 -0.0519 -0.1919
  848MPD2    H512465   3.608   3.016  16.318 -0.2301  0.3252  0.0472
  848MPD2    N112466   3.470   2.757  16.791  0.9702  0.5068  0.4413
  848MPD2    H712467   3.385   2.712  16.758  1.5287  0.1156 -0.4601
  849MPD2     C12468   3.036   2.095  13.902 -0.2533 -0.4874 -0.2074
  849MPD2    C112469   2.957   2.206  13.909  0.5633  0.0778  0.3026
  849MPD2    C212470   3.014   2.334  13.916 -0.0239  0.1265  0.6329
  849MPD2    C312471   3.151   2.350  13.889 -0.0740  0.5589 -0.0674
  849MPD2    C412472   3.227   2.236  13.870 -0.3023  0.2006  0.6244
  849MPD2    C512473   3.170   2.114  13.876  1.0887 -1.3041 -0.0038
  849MPD2     H12474   2.955   2.423  13.931 -0.6739 -0.4044  1.1861
  849MPD2    H112475   3.333   2.240  13.848 -0.4112 -3.2061 -0.4665
  849MPD2    H212476   3.000   1.993  13.902  0.9011 -0.8947 -0.3780
  849MPD2    H312477   3.232   2.025  13.868 -0.2165 -2.2459  0.2394
  849MPD2     N12478   3.216   2.470  13.888 -0.1294  0.2826 -1.0111
  849MPD2    H512479   3.315   2.482  13.866 -0.1061  0.1982 -0.9518
  849MPD2    N112480   2.821   2.180  13.913 -0.0732 -0.8004  0.0920
  849MPD2    H712481   2.791   2.091  13.876 -2.0456  0.6348 -1.7264
  850MPD2     C12482   0.646   0.615  14.941 -0.7081 -0.3462 -0.0882
  850MPD2    C112483   0.699   0.563  15.056  0.1500 -0.2203  0.1929
  850MPD2    C212484   0.839   0.554  15.060 -0.3182  0.0703  0.3222
  850MPD2    C312485   0.924   0.596  14.956 -0.1863  0.1509  0.3449
  850MPD2    C412486   0.861   0.648  14.849 -0.2021  0.2849  0.3932
  850MPD2    C512487   0.726   0.654  14.840 -0.2161  0.0669 -0.7168
  850MPD2     H12488   0.883   0.523  15.154 -0.1634  1.6983  0.7948
  850MPD2    H112489   0.915   0.690  14.765 -2.3553  1.4197 -0.4259
  850MPD2    H212490   0.539   0.619  14.927 -0.4400  0.8052 -1.8699
  850MPD2    H312491   0.668   0.678  14.751  2.0435  0.2153 -2.1245
  850MPD2     N12492   1.067   0.597  14.960  0.6129 -0.7734  0.0828
  850MPD2    H512493   1.119   0.657  14.896  0.6535 -1.0745 -0.1687
  850MPD2    N112494   0.609   0.520  15.153  0.3716 -0.5916  0.5888
  850MPD2    H712495   0.513   0.538  15.126  0.5680 -2.3786 -1.3631
  851MPD2     C12496   0.928   0.414  15.733 -0.6509  0.1966 -0.1972
  851MPD2    C112497   0.860   0.306  15.686  0.0382  0.3105 -0.2828
  851MPD2    C212498   0.928   0.193  15.638  1.1004 -0.2336  0.2468
  851MPD2    C312499   1.065   0.205  15.628  0.5175 -0.5086 -0.2228
  851MPD2    C412500   1.126   0.321  15.656  0.0532  0.8030  0.7144
  851MPD2    C512501   1.057   0.427  15.709  0.1660  0.7371  0.3171
  851MPD2     H12502   0.881   0.105  15.595  1.9885 -0.3956 -0.3942
  851MPD2    H112503   1.228   0.339  15.624 -0.1665  0.4233 -0.1881
  851MPD2    H212504   0.874   0.504  15.763 -2.7635 -0.7892 -1.0279
  851MPD2    H312505   1.103   0.523  15.728  4.0180 -1.2840  1.1304
  851MPD2     N12506   1.131   0.082  15.585 -0.3491 -0.5301 -0.0042
  851MPD2    H512507   1.061   0.011  15.568 -0.8229 -0.2169  0.6457
  851MPD2    N112508   0.721   0.323  15.670  0.0744  0.4715  0.4753
  851MPD2    H712509   0.690   0.419  15.677  0.4779  0.5125  1.6498
  852MPD2     C12510   0.552   2.352  10.194 -0.2593  0.2165 -0.1928
  852MPD2    C112511   0.560   2.453  10.279  0.1155  0.3094 -0.3955
  852MPD2    C212512   0.611   2.571  10.239 -0.0658 -0.4587  0.7015
  852MPD2    C312513   0.655   2.592  10.110 -0.2742 -0.5734 -0.4326
  852MPD2    C412514   0.641   2.489  10.021  0.0396 -0.0619  1.1704
  852MPD2    C512515   0.582   2.369  10.058 -0.5425 -0.2086  0.4643
  852MPD2     H12516   0.616   2.648  10.316  2.8987 -0.1295  0.1759
  852MPD2    H112517   0.669   2.493   9.917  0.5185  2.5849  1.3998
  852MPD2    H212518   0.512   2.259  10.232  2.5140 -1.6802 -1.9443
  852MPD2    H312519   0.568   2.283   9.994 -0.6174  0.4734 -0.4237
  852MPD2     N12520   0.707   2.716  10.076  0.1086  0.1299 -0.2844
  852MPD2    H512521   0.692   2.789  10.145 -0.9374 -0.8183  0.4864
  852MPD2    N112522   0.535   2.442  10.419  0.9471 -0.8978  0.2499
  852MPD2    H712523   0.539   2.527  10.473  3.1024 -0.0834 -1.1865
  853MPD2     C12524   2.706   3.367  12.089  0.1628  0.0683 -0.4094
  853MPD2    C112525   2.614   3.279  12.132  0.1188 -0.4422  0.7105
  853MPD2    C212526   2.562   3.178  12.045  0.4477 -0.5542 -0.3557
  853MPD2    C312527   2.613   3.166  11.913 -0.2768 -1.0308  0.0141
  853MPD2    C412528   2.709   3.251  11.873  0.4493  0.2833 -0.1876
  853MPD2    C512529   2.747   3.350  11.958 -0.7118  0.5311 -0.1136
  853MPD2     H12530   2.486   3.106  12.073  1.2000 -1.1371  0.1803
  853MPD2    H112531   2.756   3.252  11.775 -2.9718  0.2274 -1.8338
  853MPD2    H212532   2.729   3.458  12.143  2.1857 -1.1835  0.8252
  853MPD2    H312533   2.807   3.423  11.904  1.1531  0.4359  1.8395
  853MPD2     N12534   2.569   3.072  11.820 -0.2424  0.6043  0.1536
  853MPD2    H512535   2.624   3.061  11.736  0.4846 -1.3223  0.8814
  853MPD2    N112536   2.561   3.297  12.263  0.2650  0.2528  0.6548
  853MPD2    H712537   2.581   3.385  12.308  0.1575  0.1108  0.9789
  854MPD2     C12538   3.918   3.439  13.293  0.0034 -0.5755 -0.3261
  854MPD2    C112539   3.945   3.347  13.195  0.1456 -0.0234 -0.9268
  854MPD2    C212540   4.014   3.231  13.227 -0.2795 -0.2459 -0.0636
  854MPD2    C312541   4.063   3.205  13.355 -0.7656  0.7844  0.4271
  854MPD2    C412542   4.040   3.298  13.453 -0.2718 -0.4887 -0.1719
  854MPD2    C512543   3.963   3.407  13.422  0.7049  0.0419  0.2121
  854MPD2     H12544   4.030   3.154  13.153 -0.1460  0.5112 -0.8148
  854MPD2    H112545   4.064   3.281  13.557  0.1580 -1.4163 -0.4170
  854MPD2    H212546   3.847   3.521  13.289 -0.5733 -0.9288  2.3690
  854MPD2    H312547   3.945   3.483  13.498  1.3623 -0.4139  0.8176
  854MPD2     N12548   4.135   3.091  13.397  0.3407  0.2136  0.2970
  854MPD2    H512549   4.165   3.094  13.494 -1.4531  0.6140  0.8445
  854MPD2    N112550   3.904   3.380  13.064  0.2968 -0.2205 -1.2016
  854MPD2    H712551   3.834   3.452  13.052 -0.7871 -1.0705  0.0043
  855MPD2     C12552   4.459   2.928  14.171 -0.4939 -0.6459  0.3116
  855MPD2    C112553   4.466   2.803  14.109  0.7011  0.4634 -0.4286
  855MPD2    C212554   4.446   2.798  13.968 -0.2758  0.4162  0.0496
  855MPD2    C312555   4.431   2.907  13.889  0.5375 -0.1012  0.1784
  855MPD2    C412556   4.423   3.025  13.954 -0.1028  0.2338  0.0284
  855MPD2    C512557   4.434   3.038  14.092 -0.5386 -0.5037 -0.1186
  855MPD2     H12558   4.455   2.696  13.933 -1.7926 -0.1542  1.3155
  855MPD2    H112559   4.408   3.114  13.895  1.5524 -0.3091 -1.2156
  855MPD2    H212560   4.469   2.943  14.278  1.6387 -0.3742  0.0673
  855MPD2    H312561   4.437   3.138  14.134  1.4828  0.1141 -1.7223
  855MPD2     N12562   4.409   2.900  13.750  0.6320  0.2482  0.2522
  855MPD2    H512563   4.390   2.987  13.702  0.5455  1.0752  1.7828
  855MPD2    N112564   4.474   2.679  14.175  0.2537  0.7502 -0.4209
  855MPD2    H712565   4.460   2.599  14.115 -2.5088  0.1614  1.0234
  856MPD2     C12566   2.229   3.911  13.396  0.1448 -0.6572  0.0466
  856MPD2    C112567   2.206   4.049  13.381 -0.0969  0.1113 -0.6634
  856MPD2    C212568   2.122   4.111  13.462 -0.8839 -0.1806 -0.2224
  856MPD2    C312569   2.064   4.047  13.570 -0.4163  0.4207  0.0886
  856MPD2    C412570   2.097   3.913  13.594  0.1726 -0.8522  0.1753
  856MPD2    C512571   2.186   3.852  13.514 -0.1802  0.6446  0.2348
  856MPD2     H12572   2.103   4.217  13.452  1.2419  0.2427  0.2772
  856MPD2    H112573   2.047   3.855  13.671  0.3401 -2.0735 -0.6367
  856MPD2    H212574   2.300   3.858  13.334  1.0881 -0.7390  1.1998
  856MPD2    H312575   2.210   3.748  13.527  0.2498  0.3269 -2.8932
  856MPD2     N12576   1.977   4.108  13.660  0.1939 -0.4326 -0.1646
  856MPD2    H512577   1.949   4.052  13.740  3.8500  1.3006  2.3054
  856MPD2    N112578   2.254   4.116  13.263  0.2260  0.0127  0.4332
  856MPD2    H712579   2.242   4.217  13.269  1.8240  0.2977 -1.1586
  857MPD2     C12580   3.062   1.811  12.808 -0.3045 -0.1416 -0.2327
  857MPD2    C112581   3.189   1.801  12.758 -0.1500 -0.8687  0.1621
  857MPD2    C212582   3.261   1.920  12.738  0.1885 -0.5371  0.3790
  857MPD2    C312583   3.201   2.048  12.744  0.3384 -0.0415  0.8870
  857MPD2    C412584   3.071   2.053  12.788  0.0473 -0.0444 -0.2095
  857MPD2    C512585   3.004   1.936  12.820  0.5770  0.0640 -0.2032
  857MPD2     H12586   3.366   1.907  12.711  0.7759  3.2160  0.9226
  857MPD2    H112587   3.009   2.138  12.816 -2.0735 -0.8706 -2.3710
  857MPD2    H212588   2.999   1.726  12.833  0.2083 -0.2736  0.6217
  857MPD2    H312589   2.904   1.935  12.862  0.6682 -0.2816  0.0046
  857MPD2     N12590   3.282   2.160  12.716 -0.8693 -0.3561  0.3127
  857MPD2    H512591   3.380   2.139  12.699 -0.3581 -0.3276  3.1951
  857MPD2    N112592   3.243   1.668  12.733 -0.9314 -0.0945  0.5194
  857MPD2    H712593   3.177   1.592  12.744  0.0537 -0.6367  2.8280
  858MPD2     C12594   3.864   0.106  16.819 -0.1117 -0.5000 -0.7244
  858MPD2    C112595   3.859   0.034  16.938 -0.0127 -0.3927 -0.5738
  858MPD2    C212596   3.889   0.091  17.060  0.3200  0.1286  0.5339
  858MPD2    C312597   3.920   0.229  17.064 -0.8470  0.5271  0.2177
  858MPD2    C412598   3.919   0.303  16.945 -0.2216 -0.7872 -0.7083
  858MPD2    C512599   3.880   0.243  16.830  0.4823 -0.5466 -0.0804
  858MPD2     H12600   3.884   0.037  17.153 -2.9733 -1.8403 -0.7681
  858MPD2    H112601   3.947   0.408  16.948 -0.8048 -0.6288 -0.7445
  858MPD2    H212602   3.838   0.060  16.724 -2.6037  0.2121 -0.3866
  858MPD2    H312603   3.884   0.304  16.740  0.5014  1.3928  1.2182
  858MPD2     N12604   3.963   0.300  17.179 -0.7607  0.3934  0.4550
  858MPD2    H512605   3.981   0.398  17.164  3.4539 -0.6867 -1.5810
  858MPD2    N112606   3.814   4.616  16.942 -0.0359 -0.4957 -0.2733
  858MPD2    H712607   3.787   4.570  17.028 -0.5785 -2.9194 -1.7381
  859MPD2     C12608   2.537   2.156  15.215  0.1702 -0.2978 -0.4685
  859MPD2    C112609   2.621   2.137  15.106 -0.6344 -0.7157 -0.1368
  859MPD2    C212610   2.671   2.011  15.090 -0.2249 -0.1496 -0.6444
  859MPD2    C312611   2.640   1.908  15.173 -0.1400  0.0217 -0.2524
  859MPD2    C412612   2.559   1.933  15.280 -0.9439  0.0279 -0.1983
  859MPD2    C512613   2.503   2.056  15.302 -0.4073  0.1040  0.4208
  859MPD2     H12614   2.749   1.995  15.017 -0.6112  2.6986 -1.6886
  859MPD2    H112615   2.528   1.848  15.340 -1.7802  0.6089  0.2101
  859MPD2    H212616   2.485   2.251  15.213 -0.2110 -0.5296 -1.6444
  859MPD2    H312617   2.429   2.071  15.379  0.8908  0.3329  1.6342
  859MPD2     N12618   2.694   1.779  15.164 -0.1748 -0.5279 -0.6669
  859MPD2    H512619   2.649   1.707  15.219  0.7131 -0.3053  0.3413
  859MPD2    N112620   2.629   2.244  15.017 -0.0391 -0.2985 -0.7748
  859MPD2    H712621   2.589   2.332  15.050 -1.2020 -0.7132 -1.0836
  860MPD2     C12622   0.344   2.324  11.973  0.6887 -0.1652 -0.0742
  860MPD2    C112623   0.331   2.345  12.111  0.2294  0.0091  0.6485
  860MPD2    C212624   0.207   2.372  12.161  0.2122 -1.1372 -0.1683
  860MPD2    C312625   0.096   2.388  12.087 -0.4119 -0.3191  0.0262
  860MPD2    C412626   0.109   2.376  11.954  0.2446  0.0904 -0.1606
  860MPD2    C512627   0.230   2.339  11.899  0.8889  0.2612 -1.1034
  860MPD2     H12628   0.203   2.396  12.267  3.3644  0.6016 -0.4193
  860MPD2    H112629   0.026   2.384  11.885 -0.4102  1.3868  0.7624
  860MPD2    H212630   0.431   2.294  11.916  0.8062 -1.3924  0.7429
  860MPD2    H312631   0.247   2.320  11.794  2.5978 -1.0984 -0.5662
  860MPD2     N12632   4.700   2.445  12.151 -0.3017 -0.3876  0.7476
  860MPD2    H512633   4.704   2.449  12.252  0.8263 -1.5820  0.7452
  860MPD2    N112634   0.435   2.311  12.200  0.0049 -0.4502 -0.2645
  860MPD2    H712635   0.422   2.336  12.297  1.1457  0.8675 -0.4471
  861MPD2     C12636   3.930   1.270  11.176 -0.0946 -0.5159 -0.6593
  861MPD2    C112637   3.817   1.307  11.250  0.2506 -0.1014  0.9590
  861MPD2    C212638   3.712   1.351  11.176 -0.2471 -0.2980 -0.1725
  861MPD2    C312639   3.710   1.347  11.029  0.2370 -0.3894  0.4281
  861MPD2    C412640   3.823   1.299  10.965 -0.4365  0.1694  0.7036
  861MPD2    C512641   3.932   1.270  11.044 -0.6929  0.4284  0.4428
  861MPD2     H12642   3.620   1.371  11.231 -0.2940  2.0726 -1.0925
  861MPD2    H112643   3.832   1.286  10.858 -1.6709 -1.8524  0.8528
  861MPD2    H212644   4.018   1.229  11.224 -0.4866  0.2332  0.6776
  861MPD2    H312645   4.024   1.247  10.993 -0.4274  1.0810  0.6301
  861MPD2     N12646   3.606   1.393  10.941  0.2057 -1.0216 -0.0225
  861MPD2    H512647   3.625   1.386  10.841  0.9012  0.4523  0.0036
  861MPD2    N112648   3.801   1.291  11.390  0.1197  0.1328 -0.0203
  861MPD2    H712649   3.722   1.335  11.437 -0.3547 -0.8415  0.1180
  862MPD2     C12650   3.375   1.373  10.246 -0.2245  0.2723  0.2240
  862MPD2    C112651   3.434   1.325  10.366 -0.1566  0.7975  0.4641
  862MPD2    C212652   3.490   1.198  10.366  0.2176 -0.4270 -0.0430
  862MPD2    C312653   3.477   1.115  10.252 -0.0601  0.0091 -0.0787
  862MPD2    C412654   3.434   1.170  10.137 -0.7060  0.0928 -0.0853
  862MPD2    C512655   3.386   1.299  10.131 -0.4166 -0.0129 -0.0514
  862MPD2     H12656   3.534   1.164  10.459  2.2299 -0.5119 -1.0378
  862MPD2    H112657   3.437   1.112  10.045 -1.0840  1.4398 -0.9483
  862MPD2    H212658   3.331   1.470  10.230  1.0884  0.6812 -0.8757
  862MPD2    H312659   3.345   1.348  10.044  2.8591  0.4836 -1.3032
  862MPD2     N12660   3.531   0.980  10.267 -0.3386 -0.8490 -0.2901
  862MPD2    H512661   3.568   0.961  10.359 -0.8344  1.7081  0.4396
  862MPD2    N112662   3.447   1.397  10.488  0.1911  0.2988  0.0746
  862MPD2    H712663   3.495   1.342  10.559  1.3256  1.7196  0.4111
  863MPD2     C12664   2.505   3.937  16.538 -0.1542  0.0578  0.3725
  863MPD2    C112665   2.421   3.889  16.637  0.2047  0.2336  0.9491
  863MPD2    C212666   2.474   3.871  16.761  0.6075  0.1418  0.0125
  863MPD2    C312667   2.600   3.918  16.792  0.3670 -0.1665 -1.0806
  863MPD2    C412668   2.672   3.990  16.697  0.8950 -0.5971 -0.2074
  863MPD2    C512669   2.627   3.990  16.567 -0.2393  0.6114 -0.5182
  863MPD2     H12670   2.413   3.830  16.841  0.5039 -1.4734 -0.8938
  863MPD2    H112671   2.770   4.033  16.714  0.9003 -0.2992 -0.9690
  863MPD2    H212672   2.461   3.971  16.445  1.3954  0.1095 -0.3480
  863MPD2    H312673   2.695   4.035  16.495  1.7232 -1.4932  0.0402
  863MPD2     N12674   2.637   3.893  16.929  0.1222  0.0488  0.1767
  863MPD2    H512675   2.584   3.823  16.979 -0.6178  0.6162  0.1960
  863MPD2    N112676   2.287   3.859  16.596 -0.2926 -0.3385 -0.1904
  863MPD2    H712677   2.263   3.876  16.499 -1.0074 -3.9546 -0.6516
  864MPD2     C12678   2.732   0.310  17.601  0.8110 -0.1678  0.5612
  864MPD2    C112679   2.821   0.246  17.514  0.0096 -0.5642 -0.5080
  864MPD2    C212680   2.881   0.328  17.414 -0.2674 -0.3306 -0.4165
  864MPD2    C312681   2.844   0.458  17.396  0.2204 -0.6592 -0.3624
  864MPD2    C412682   2.757   0.517  17.480  0.3419  0.1842 -0.2273
  864MPD2    C512683   2.713   0.449  17.587  0.2873 -0.5156 -0.2375
  864MPD2     H12684   2.947   0.277  17.346  1.9512  1.0566  0.7125
  864MPD2    H112685   2.729   0.621  17.468  0.9815  0.0909 -2.5038
  864MPD2    H212686   2.693   0.265   0.011 -0.0385 -1.4253 -0.4238
  864MPD2    H312687   2.661   0.498  17.668 -0.2240 -1.5923  0.0901
  864MPD2     N12688   2.879   0.530  17.281 -0.7848 -0.9562  0.2554
  864MPD2    H512689   2.832   0.619  17.268 -1.4438 -1.3798 -0.2746
  864MPD2    N112690   2.853   0.105  17.521  0.0940  0.8603 -0.3928
  864MPD2    H712691   2.903   0.064  17.443 -2.3310  0.5515 -1.8094
  865MPD2     C12692   2.883   0.645  16.417 -0.9285 -0.6287  0.3945
  865MPD2    C112693   2.894   0.578  16.540 -0.5585  0.2598  0.6558
  865MPD2    C212694   2.852   0.640  16.657  0.2798  0.3713  0.2248
  865MPD2    C312695   2.803   0.772  16.650 -0.6158  0.0659  0.0921
  865MPD2    C412696   2.803   0.838  16.531 -0.0541  0.3271 -0.6732
  865MPD2    C512697   2.828   0.770  16.417  1.0244 -0.0910  0.4079
  865MPD2     H12698   2.850   0.584  16.750 -1.4559 -0.4918 -0.3364
  865MPD2    H112699   2.768   0.941  16.528  1.5657  0.9136 -0.1008
  865MPD2    H212700   2.920   0.617  16.320  2.3147  0.3309  1.3564
  865MPD2    H312701   2.851   0.826  16.327 -4.6894  1.5473 -0.0720
  865MPD2     N12702   2.762   0.854  16.752 -0.2448 -0.3662  0.6113
  865MPD2    H512703   2.725   0.946  16.731  0.5182 -0.0320  0.7318
  865MPD2    N112704   2.954   0.451  16.542 -0.0419 -0.1145  0.6618
  865MPD2    H712705   2.962   0.412  16.449  1.9630 -2.2683  1.7266
  866MPD2     C12706   4.335   1.300  11.365  0.3072  0.6087 -0.3549
  866MPD2    C112707   4.296   1.333  11.238  0.6597  0.1518  0.0220
  866MPD2    C212708   4.199   1.420  11.222 -0.3448 -0.1034  0.1895
  866MPD2    C312709   4.151   1.488  11.335 -0.0456  0.5641 -0.8417
  866MPD2    C412710   4.188   1.456  11.456 -0.1490  0.7495  0.2490
  866MPD2    C512711   4.289   1.363  11.476 -0.3167  0.3479  0.3393
  866MPD2     H12712   4.153   1.439  11.125 -1.5298 -1.5495  0.4777
  866MPD2    H112713   4.148   1.511  11.541  0.3858  2.5221 -0.6452
  866MPD2    H212714   4.420   1.233  11.369  0.6879  1.1396  0.3791
  866MPD2    H312715   4.333   1.340  11.572  0.0405 -0.3484  0.0139
  866MPD2     N12716   4.050   1.593  11.327 -0.2722  0.3740 -0.1025
  866MPD2    H512717   4.012   1.618  11.417  1.7534  2.5353  0.1651
  866MPD2    N112718   4.356   1.267  11.127 -0.0101  0.3381 -0.7051
  866MPD2    H712719   4.434   1.205  11.149 -0.6411 -0.3101 -0.3283
  867MPD2     C12720   1.503   3.770  16.407  0.6819  0.1405  0.0777
  867MPD2    C112721   1.571   3.892  16.416 -0.1862 -0.8494 -0.1727
  867MPD2    C212722   1.537   3.979  16.512 -0.2733  0.1123  0.2489
  867MPD2    C312723   1.430   3.953  16.595 -0.4956  0.4890 -0.9651
  867MPD2    C412724   1.374   3.829  16.593  0.2813  0.2588  0.7082
  867MPD2    C512725   1.407   3.745  16.488  0.9151 -0.4885  0.1037
  867MPD2     H12726   1.585   4.076  16.515 -0.2853  0.0867  1.2258
  867MPD2    H112727   1.286   3.813  16.653  0.4181  0.3002  0.9218
  867MPD2    H212728   1.533   3.692  16.338 -0.9427 -1.4954  1.2053
  867MPD2    H312729   1.352   3.652  16.485  0.6315 -0.3639  1.3454
  867MPD2     N12730   1.379   4.039  16.695  0.3938  0.3733 -0.2267
  867MPD2    H512731   1.304   3.999  16.751 -0.2786  0.6984 -0.8997
  867MPD2    N112732   1.677   3.916  16.322 -0.0161 -0.1589  0.0573
  867MPD2    H712733   1.702   3.835  16.267  2.1197 -0.0090  0.8412
  868MPD2     C12734   3.695   0.003  13.364 -0.1378  0.0772  0.0464
  868MPD2    C112735   3.640   4.604  13.403  0.1751  0.5608 -0.1281
  868MPD2    C212736   3.516   4.610  13.469  0.2445  0.0604  0.1346
  868MPD2    C312737   3.456   0.009  13.497  0.5726 -0.1590 -0.3167
  868MPD2    C412738   3.515   0.125  13.458  0.3783 -0.4741  0.3510
  868MPD2    C512739   3.633   0.115  13.395 -0.0275  1.0684  0.6110
  868MPD2     H12740   3.473   4.512  13.483  1.1408 -0.7080 -2.4739
  868MPD2    H112741   3.480   0.226  13.476 -0.4074 -0.8728  1.0877
  868MPD2    H212742   3.788   0.016  13.311 -0.5616 -0.3114 -0.7826
  868MPD2    H312743   3.681   0.200  13.348  0.3996 -0.3442 -1.4899
  868MPD2     N12744   3.334   0.005  13.574  0.1896 -0.0950 -0.2814
  868MPD2    H512745   3.293   4.633  13.591  0.3745 -0.2687 -0.7691
  868MPD2    N112746   3.711   4.484  13.374 -0.0295  0.0512 -0.1421
  868MPD2    H712747   3.792   4.500  13.314  0.5568 -0.3737  0.5394
  869MPD2     C12748   4.668   1.769   2.013 -0.8322  0.2337  0.1390
  869MPD2    C112749   4.533   1.776   2.017 -0.2980  0.0591  0.2675
  869MPD2    C212750   4.468   1.844   1.922 -0.2027  0.0631 -1.2258
  869MPD2    C312751   4.529   1.918   1.822 -0.2283 -0.0721  0.0497
  869MPD2    C412752   4.662   1.911   1.812 -0.2759  0.2305 -0.4243
  869MPD2    C512753   0.008   1.830   1.899 -0.0436 -0.0678 -0.1973
  869MPD2     H12754   4.362   1.829   1.908 -0.4324 -1.3420  2.0061
  869MPD2    H112755   0.001   1.964   1.738 -0.2367  0.3673 -0.2957
  869MPD2    H212756   0.008   1.713   2.084  1.5598  0.7936 -1.4466
  869MPD2    H312757   0.114   1.815   1.886 -0.0098 -1.0449  1.1723
  869MPD2     N12758   4.458   2.004   1.738  0.3088 -0.3769  0.0077
  869MPD2    H512759   4.518   2.055   1.674  1.2540 -2.1647 -0.5170
  869MPD2    N112760   4.460   1.702   2.116 -0.2142 -0.2073  0.1207
  869MPD2    H712761   4.513   1.650   2.185  0.9035 -0.1019 -0.6797
  870MPD2     C12762   3.427   1.072   1.599  0.5316 -0.6158 -0.1442
  870MPD2    C112763   3.559   1.093   1.630 -0.1448 -0.2996  0.3150
  870MPD2    C212764   3.646   1.147   1.536 -0.6689  0.0816 -0.5451
  870MPD2    C312765   3.599   1.181   1.411 -0.2054 -0.2784 -0.5011
  870MPD2    C412766   3.459   1.166   1.386 -0.4046 -0.1917  0.3653
  870MPD2    C512767   3.380   1.107   1.480 -0.2059  0.6376  0.0134
  870MPD2     H12768   3.752   1.134   1.553 -0.8649 -0.1923  0.4499
  870MPD2    H112769   3.412   1.178   1.289  1.2034  1.2988 -0.2287
  870MPD2    H212770   3.370   1.006   1.663  0.8156 -0.3551  0.3775
  870MPD2    H312771   3.277   1.078   1.463  0.3288 -1.2777  0.0121
  870MPD2     N12772   3.693   1.226   1.311  0.4624  0.1536 -0.0515
  870MPD2    H512773   3.787   1.238   1.347  0.8249  1.2097 -1.3426
  870MPD2    N112774   3.598   1.042   1.755 -0.0890 -0.2626 -0.1029
  870MPD2    H712775   3.525   1.005   1.815  1.0332 -2.3814 -0.0249
  871MPD2     C12776   4.645   0.370  16.374 -0.1823 -0.6382 -0.8091
  871MPD2    C112777   0.046   0.358  16.436 -0.2749  0.0959 -0.4172
  871MPD2    C212778   0.137   0.266  16.388  0.3671 -0.0980  1.0112
  871MPD2    C312779   0.110   0.186  16.278  0.0652  0.0033  0.3334
  871MPD2    C412780   4.710   0.213  16.207  0.8715 -0.8439  0.5685
  871MPD2    C512781   4.613   0.290  16.264 -0.4672  0.0888  0.4031
  871MPD2     H12782   0.234   0.252  16.435  2.0667 -1.6968 -2.9282
  871MPD2    H112783   4.691   0.163  16.113  1.1772  0.9979 -0.4721
  871MPD2    H212784   4.564   0.431  16.413  1.4015  0.1475  1.1804
  871MPD2    H312785   4.511   0.290  16.227 -2.0846 -0.9828  4.8751
  871MPD2     N12786   0.210   0.094  16.230  1.3065  0.6635 -0.0155
  871MPD2    H512787   0.295   0.087  16.285  2.3822  0.2409 -1.7408
  871MPD2    N112788   0.063   0.434  16.556 -0.0344  0.1804 -0.2171
  871MPD2    H712789   4.708   0.500  16.578 -1.8106 -1.9782  0.1933
  872MPD2     C12790   1.056   3.437  14.066  0.0610  1.2911  0.4390
  872MPD2    C112791   1.133   3.356  14.152  0.0257 -0.8183  0.2694
  872MPD2    C212792   1.086   3.322  14.283  0.2588 -0.7867  0.1838
  872MPD2    C312793   0.964   3.369  14.317  0.3715  0.7669 -0.1647
  872MPD2    C412794   0.904   3.465  14.239 -0.4203 -0.5605 -0.1246
  872MPD2    C512795   0.949   3.496  14.116 -0.0394 -1.0361  0.2017
  872MPD2     H12796   1.141   3.250  14.344  0.7027  0.9401  1.8508
  872MPD2    H112797   0.813   3.512  14.274  0.7765  1.0302  0.8626
  872MPD2    H212798   1.097   3.474  13.973 -0.0535  2.2067  0.7482
  872MPD2    H312799   0.894   3.572  14.061  0.0486  0.3257  1.9783
  872MPD2     N12800   0.896   3.329  14.432 -0.2612 -0.8102  0.4144
  872MPD2    H512801   0.797   3.349  14.432 -0.4333 -1.7439 -1.9880
  872MPD2    N112802   1.262   3.305  14.110 -0.0744  0.4881 -0.0025
  872MPD2    H712803   1.309   3.258  14.187 -1.7004  0.9838  1.2800
  873MPD2     C12804   2.770   2.589   0.788  0.0738  0.0189  0.5242
  873MPD2    C112805   2.846   2.607   0.898 -0.0007  0.5309  0.5761
  873MPD2    C212806   2.960   2.530   0.925  0.4009  0.2766 -0.1383
  873MPD2    C312807   2.992   2.428   0.834  0.0302  0.0608  0.5373
  873MPD2    C412808   2.915   2.411   0.722  0.1768 -0.0673 -0.0156
  873MPD2    C512809   2.799   2.485   0.705  0.0773  0.4733 -0.2354
  873MPD2     H12810   3.026   2.551   1.008  1.2250 -1.5319 -0.3306
  873MPD2    H112811   2.935   2.325   0.659  1.0199 -1.0174  1.5446
  873MPD2    H212812   2.674   2.637   0.776 -1.0139 -2.6029 -1.2011
  873MPD2    H312813   2.735   2.463   0.620 -1.5426  1.1750  0.8024
  873MPD2     N12814   3.098   2.333   0.847  0.4711  0.2330 -0.5079
  873MPD2    H512815   3.124   2.270   0.773  1.6516 -1.3954  1.3054
  873MPD2    N112816   2.800   2.712   0.978 -0.0168 -0.5942 -0.0878
  873MPD2    H712817   2.721   2.760   0.936  1.8717  1.1238 -1.6208
  874MPD2     C12818   2.909   2.579  15.687  0.1604  0.1116 -0.4347
  874MPD2    C112819   2.884   2.589  15.819 -0.4946  0.6939  0.6103
  874MPD2    C212820   2.958   2.683  15.898 -0.0135  0.3771 -0.1031
  874MPD2    C312821   3.064   2.753  15.843 -0.5268  0.4248 -0.4403
  874MPD2    C412822   3.091   2.725  15.709 -0.2319  0.4803  0.7518
  874MPD2    C512823   3.018   2.643  15.629 -0.2078 -0.0637  0.2185
  874MPD2     H12824   2.932   2.698  16.002 -0.3521  1.5981 -0.3668
  874MPD2    H112825   3.168   2.780  15.655 -1.2662  0.8182 -0.3912
  874MPD2    H212826   2.834   2.517  15.640 -0.7606  0.8722  0.0183
  874MPD2    H312827   3.043   2.637  15.523  1.3658 -1.4050  0.6815
  874MPD2     N12828   3.135   2.846  15.922  0.5285  0.4613  0.1304
  874MPD2    H512829   3.103   2.854  16.018 -1.8920  2.0219 -0.8087
  874MPD2    N112830   2.787   2.502  15.868 -0.1467  0.3190  0.0735
  874MPD2    H712831   2.728   2.461  15.796 -1.9428  1.3880  0.9063
  875MPD2     C12832   4.149   1.555  14.408 -0.3300  0.5377 -0.5247
  875MPD2    C112833   4.018   1.568  14.450 -0.3601  0.9287 -0.0890
  875MPD2    C212834   3.985   1.527  14.575  0.0955  0.2161  0.3092
  875MPD2    C312835   4.083   1.482  14.668 -0.0205  0.0883 -0.3569
  875MPD2    C412836   4.212   1.479  14.626 -0.3706 -0.1226  0.0160
  875MPD2    C512837   4.241   1.517  14.504 -0.2747  0.0022 -0.5847
  875MPD2     H12838   3.883   1.537  14.611 -0.1776 -1.6769  0.0456
  875MPD2    H112839   4.297   1.460  14.691  0.1392  0.0483 -0.5935
  875MPD2    H212840   4.183   1.594  14.313  2.8081  0.7960  0.6988
  875MPD2    H312841   4.338   1.492  14.465 -0.4524  1.0259 -1.7031
  875MPD2     N12842   4.059   1.437  14.802 -0.1137 -0.0072  0.5554
  875MPD2    H512843   4.135   1.395  14.854  0.8981 -1.8460 -2.4309
  875MPD2    N112844   3.921   1.619  14.357  0.4378 -0.5485  0.3076
  875MPD2    H712845   3.826   1.583  14.362  0.7029 -1.5182 -1.6900
  876MPD2     C12846   2.549   2.459  15.526  0.2274  0.5416  0.4080
  876MPD2    C112847   2.668   2.390  15.487 -0.8393 -0.0757 -0.7519
  876MPD2    C212848   2.689   2.267  15.541  0.1070  0.0032 -0.1912
  876MPD2    C312849   2.611   2.201  15.624 -0.0294 -0.6930  0.2707
  876MPD2    C412850   2.490   2.266  15.648 -0.0863  0.7725  0.0674
  876MPD2    C512851   2.458   2.384  15.602  0.3657 -0.4741  0.1901
  876MPD2     H12852   2.778   2.216  15.509 -0.3001 -0.2709 -0.8897
  876MPD2    H112853   2.413   2.223  15.711 -1.4782 -0.5397 -2.5074
  876MPD2    H212854   2.519   2.552  15.481 -2.3907 -0.5474 -0.1015
  876MPD2    H312855   2.356   2.420  15.610  0.4466 -0.7039  2.2554
  876MPD2     N12856   2.644   2.074  15.674  0.5618  0.2385 -0.1709
  876MPD2    H512857   2.730   2.032  15.642 -0.3355 -1.5076 -0.2960
  876MPD2    N112858   2.742   2.450  15.387 -0.1665  0.0075  0.1407
  876MPD2    H712859   2.725   2.547  15.360  2.1700  1.1109  2.5517
  877MPD2     C12860   2.707   3.098  15.141 -0.5339 -0.4021  0.7867
  877MPD2    C112861   2.827   3.066  15.078 -0.3890 -0.4216 -0.3525
  877MPD2    C212862   2.888   3.157  14.992 -0.2815  0.4248 -0.0248
  877MPD2    C312863   2.824   3.278  14.972 -0.5624 -1.1536 -0.1255
  877MPD2    C412864   2.704   3.302  15.031 -0.2873 -0.5517 -0.4777
  877MPD2    C512865   2.642   3.214  15.116  0.0406  0.6162 -0.1237
  877MPD2     H12866   2.971   3.116  14.936 -0.2750  0.5543 -0.1103
  877MPD2    H112867   2.650   3.392  15.004  0.4650  0.0050 -0.1144
  877MPD2    H212868   2.658   3.022  15.201  0.3867 -0.2126  1.7817
  877MPD2    H312869   2.541   3.241  15.146  0.4394  1.2216  0.6731
  877MPD2     N12870   2.879   3.384  14.877  0.2826 -0.2876 -0.3534
  877MPD2    H512871   2.819   3.465  14.866  0.4504 -0.4568 -2.6021
  877MPD2    N112872   2.876   2.936  15.089 -0.0172  0.2806  0.1369
  877MPD2    H712873   2.962   2.907  15.045 -0.3198  0.0648 -0.3224
  878MPD2     C12874   3.004   2.239  13.076 -0.4069  0.7149  0.2533
  878MPD2    C112875   2.946   2.358  13.088 -0.0267 -0.2551 -0.6815
  878MPD2    C212876   2.850   2.375  13.193 -0.0148 -0.0916  0.4065
  878MPD2    C312877   2.806   2.270  13.277 -0.1959 -0.9999 -0.2993
  878MPD2    C412878   2.860   2.146  13.252 -0.5572  0.6147  0.0506
  878MPD2    C512879   2.968   2.142  13.163 -0.1914 -0.1170  0.4663
  878MPD2     H12880   2.806   2.472  13.215  1.9750  1.2870 -1.7471
  878MPD2    H112881   2.844   2.060  13.316 -0.1027  1.0047  0.6869
  878MPD2    H212882   3.080   2.213  13.003 -1.2778 -0.1947 -0.3279
  878MPD2    H312883   3.025   2.050  13.156  1.3402  0.9063 -0.5778
  878MPD2     N12884   2.714   2.293  13.385  0.4357  0.1064  0.0920
  878MPD2    H512885   2.679   2.388  13.395 -1.2567 -0.4814 -0.3077
  878MPD2    N112886   2.966   2.448  12.985  0.1532  0.0661  0.0890
  878MPD2    H712887   3.024   2.414  12.910  0.1648  1.9996 -0.7928
  879MPD2     C12888   3.331   3.731  17.274 -0.2963  0.6135  0.0445
  879MPD2    C112889   3.269   3.685  17.389 -0.7579  0.2691  0.2355
  879MPD2    C212890   3.151   3.610  17.375 -0.7141  0.1500  0.4155
  879MPD2    C312891   3.092   3.582  17.253 -0.0137  0.0708 -0.0362
  879MPD2    C412892   3.159   3.635  17.144 -0.6672  0.2436  0.2307
  879MPD2    C512893   3.275   3.705  17.157  0.5342  0.0127 -0.4106
  879MPD2     H12894   3.110   3.568  17.466  2.5422  1.4231  2.4504
  879MPD2    H112895   3.123   3.613  17.045 -3.7059  2.3958  0.8532
  879MPD2    H212896   3.428   3.779  17.267  1.3509 -2.7488  0.1630
  879MPD2    H312897   3.326   3.761  17.079  2.3300 -1.4000 -0.2534
  879MPD2     N12898   2.973   3.505  17.233  0.3424  0.5794 -0.2070
  879MPD2    H512899   2.952   3.484  17.136 -0.1422  0.9284 -0.1804
  879MPD2    N112900   3.314   3.741  17.512  0.3832 -0.0599  0.4874
  879MPD2    H712901   3.399   3.795  17.511 -0.5154  1.3066 -1.1031
  880MPD2     C12902   0.087   0.316   0.160  0.2790  0.4703  0.0333
  880MPD2    C112903   0.080   0.344   0.293 -0.7066 -0.3190 -1.2308
  880MPD2    C212904   0.146   0.274   0.391  0.7030 -0.2924  0.2466
  880MPD2    C312905   0.229   0.167   0.353 -0.0268 -0.2398  0.0065
  880MPD2    C412906   0.242   0.137   0.216  0.2488 -0.5649  0.4745
  880MPD2    C512907   0.167   0.209   0.122 -0.9532 -0.0790  0.0447
  880MPD2     H12908   0.152   0.300   0.496 -0.0607 -2.0912  0.7442
  880MPD2    H112909   0.307   0.059   0.178 -0.0232  0.0748 -1.3020
  880MPD2    H212910   0.018   0.373   0.099  0.3168  2.0125  1.4146
  880MPD2    H312911   0.180   0.187   0.017 -0.3717 -1.9879  0.5131
  880MPD2     N12912   0.298   0.095   0.457  0.3853  0.3143 -0.3735
  880MPD2    H512913   0.296   0.136   0.550 -2.0179  0.8523 -0.6607
  880MPD2    N112914   4.715   0.456   0.320 -0.3883  0.0150 -0.4499
  880MPD2    H712915   4.690   0.511   0.238 -0.7526  0.9399  0.2868
  881MPD2     C12916   4.695   1.374   0.007  0.3134 -0.7013 -0.9033
  881MPD2    C112917   4.697   1.248  17.627 -0.8552  0.1157 -0.3127
  881MPD2    C212918   4.668   1.133   0.032  0.4354  0.1383  0.1197
  881MPD2    C312919   4.659   1.153   0.174  0.1272  0.4547  0.3296
  881MPD2    C412920   4.666   1.284   0.225  0.3566  0.2306  0.7083
  881MPD2    C512921   4.686   1.393   0.144  0.1379  0.7884 -0.5104
  881MPD2     H12922   4.670   1.035  17.667 -0.3068 -0.7246  1.9385
  881MPD2    H112923   4.659   1.302   0.332 -1.0024 -1.1656  0.8570
  881MPD2    H212924   4.697   1.463  17.626 -1.8608 -1.5102 -2.1596
  881MPD2    H312925   4.677   1.497   0.173 -0.3308  0.2102  1.4901
  881MPD2     N12926   4.646   1.050   0.273 -0.6108  0.4320 -0.2223
  881MPD2    H512927   4.641   1.075   0.372  0.6079  0.2819 -0.1282
  881MPD2    N112928   4.674   1.246  17.490 -0.5262  0.4701 -0.4878
  881MPD2    H712929   4.680   1.332  17.437  2.1874 -0.3058 -1.4136
  882MPD2     C12930   2.965   3.213  14.196 -1.0672  0.3126 -0.0991
  882MPD2    C112931   2.876   3.268  14.279 -0.7395  0.1582 -0.0352
  882MPD2    C212932   2.749   3.213  14.302 -0.1403  0.1714 -0.0666
  882MPD2    C312933   2.719   3.088  14.244  0.4821 -0.0081  0.1386
  882MPD2    C412934   2.806   3.040  14.158  1.1685 -0.6610 -0.2194
  882MPD2    C512935   2.923   3.097  14.134  1.3365 -0.5032  0.0770
  882MPD2     H12936   2.673   3.264  14.360  0.4912  0.8119  0.1957
  882MPD2    H112937   2.791   2.955  14.092  1.1740 -0.6843 -0.1909
  882MPD2    H212938   3.064   3.256  14.184 -2.1248  2.5720 -0.6794
  882MPD2    H312939   2.997   3.046  14.073 -0.0141 -1.6051 -0.6341
  882MPD2     N12940   2.612   3.013  14.281  0.3928  0.6023 -0.2198
  882MPD2    H512941   2.603   2.924  14.234 -0.2198  1.2305 -1.3151
  882MPD2    N112942   2.927   3.378  14.345 -0.1498  0.0004 -0.2783
  882MPD2    H712943   3.024   3.398  14.325  1.0886 -3.1836  2.5766
  883MPD2     C12944   4.404   3.361  16.517  0.3317 -0.3527  0.0909
  883MPD2    C112945   4.495   3.281  16.454 -0.0662  0.2742  0.0862
  883MPD2    C212946   4.579   3.208  16.531  0.1745  0.5280  0.2150
  883MPD2    C312947   4.577   3.213  16.671 -0.2450  0.0166  0.5590
  883MPD2    C412948   4.489   3.299  16.733  0.4079 -0.2892  0.3736
  883MPD2    C512949   4.401   3.370  16.657 -0.4999  0.8971  0.6094
  883MPD2     H12950   4.646   3.140  16.481  0.0453  0.6936 -0.1847
  883MPD2    H112951   4.482   3.317  16.840 -2.1776  0.1666  0.1275
  883MPD2    H212952   4.334   3.415  16.455 -0.5463  0.3325  1.6562
  883MPD2    H312953   4.329   3.435  16.708  0.6205  2.0064  0.7715
  883MPD2     N12954   4.668   3.132  16.740  0.0168 -0.2776  0.1920
  883MPD2    H512955   0.007   3.066  16.691  0.5913 -1.0972  1.9975
  883MPD2    N112956   4.507   3.269  16.310  0.2463  0.2883  0.2672
  883MPD2    H712957   4.572   3.198  16.280 -0.8635  0.5644 -2.7278
  884MPD2     C12958   2.019   3.484  15.643 -0.2764  0.4428 -0.5272
  884MPD2    C112959   2.043   3.585  15.551  0.3148 -0.0361 -0.5358
  884MPD2    C212960   1.931   3.637  15.492  0.1718 -0.7515 -0.4007
  884MPD2    C312961   1.807   3.597  15.521  0.0869  0.1503  0.5177
  884MPD2    C412962   1.784   3.488  15.604  0.0142 -0.3169  0.1061
  884MPD2    C512963   1.892   3.425  15.661  0.7010 -0.4374 -0.6079
  884MPD2     H12964   1.941   3.712  15.414 -1.4715 -0.5192 -0.3760
  884MPD2    H112965   1.687   3.445  15.621 -0.0321 -0.4179 -0.4428
  884MPD2    H212966   2.099   3.433  15.696 -1.3347  1.3994  1.9871
  884MPD2    H312967   1.884   3.347  15.735  1.6094 -0.8635 -0.9619
  884MPD2     N12968   1.704   3.671  15.464  0.0826 -0.3122  0.4057
  884MPD2    H512969   1.731   3.758  15.419  1.4695 -0.2819  1.2734
  884MPD2    N112970   2.169   3.642  15.531 -0.1678  0.2164 -0.3912
  884MPD2    H712971   2.159   3.731  15.484 -3.1973  0.3281  0.4596
  885MPD2     C12972   4.621   4.166   0.467 -0.0281  0.3343  0.6102
  885MPD2    C112973   4.679   4.057   0.414  0.2349  0.0989 -0.1905
  885MPD2    C212974   4.716   4.047   0.277  0.3739 -0.2766  0.3755
  885MPD2    C312975   4.683   4.152   0.192 -0.6599 -0.5831  0.1312
  885MPD2    C412976   4.617   4.265   0.240  0.4068 -0.2613  0.1816
  885MPD2    C512977   4.590   4.270   0.379 -0.4917 -0.5392 -0.6805
  885MPD2     H12978   0.053   3.962   0.239 -2.3552 -1.9365  0.0801
  885MPD2    H112979   4.566   4.343   0.185  0.3793 -2.6006 -3.0899
  885MPD2    H212980   4.591   4.168   0.571 -0.7687 -0.6959  0.4172
  885MPD2    H312981   4.540   4.354   0.427 -0.6325 -0.1925 -1.4289
  885MPD2     N12982   4.718   4.136   0.053  0.6615  0.7004  0.2886
  885MPD2    H512983   0.049   4.053   0.025 -0.4645 -0.2534  1.1132
  885MPD2    N112984   4.710   3.953   0.506  0.2477 -0.3511 -0.4821
  885MPD2    H712985   4.685   3.970   0.603 -0.8562  2.0477 -1.1997
  886MPD2     C12986   1.159   2.419  15.123  0.1110  0.0503 -0.1556
  886MPD2    C112987   1.296   2.413  15.141  0.2332 -0.1495 -0.0775
  886MPD2    C212988   1.375   2.513  15.094  0.0068 -1.0102  0.4309
  886MPD2    C312989   1.333   2.622  15.026  0.6458 -0.7535 -0.0708
  886MPD2    C412990   1.202   2.642  15.028 -0.1381 -0.0321 -0.2435
  886MPD2    C512991   1.116   2.544  15.076 -0.2299 -0.5844  0.1159
  886MPD2     H12992   1.477   2.503  15.126  0.2786 -0.6395 -0.3102
  886MPD2    H112993   1.170   2.743  15.006 -1.8380 -0.9171 -1.9056
  886MPD2    H212994   1.086   2.351  15.165  1.4679 -0.7817  0.8591
  886MPD2    H312995   1.011   2.567  15.078 -0.5099 -1.5293 -3.3189
  886MPD2     N12996   1.418   2.715  14.954 -0.2267 -0.3803  0.3298
  886MPD2    H512997   1.376   2.804  14.928 -0.5599 -0.5544  0.2846
  886MPD2    N112998   1.363   2.312  15.217  0.0420  0.2667  0.3810
  886MPD2    H712999   1.459   2.333  15.242 -0.2051  2.9649 -0.8514
  887MPD2     C13000   2.035   2.191  15.415  0.0624  0.9116 -0.7515
  887MPD2    C113001   1.930   2.265  15.376 -0.2539  0.9974  0.2543
  887MPD2    C213002   1.964   2.394  15.338  1.0687 -0.4725 -0.3724
  887MPD2    C313003   2.097   2.440  15.328 -0.3868 -0.0191  0.0027
  887MPD2    C413004   2.201   2.352  15.362 -0.5236  0.1915 -0.0963
  887MPD2    C513005   2.168   2.229  15.407 -0.1101  0.1151  0.5569
  887MPD2     H13006   1.884   2.455  15.297  2.6898  0.5835 -1.9614
  887MPD2    H113007   2.306   2.372  15.348 -0.9097  0.0523 -3.0444
  887MPD2    H213008   2.021   2.087  15.444 -0.4883  0.4205 -2.7443
  887MPD2    H313009   2.234   2.146  15.431 -0.6676  0.0311  1.8213
  887MPD2     N13010   2.111   2.574  15.279  0.3857 -0.0892  0.3114
  887MPD2    H513011   2.029   2.627  15.254 -0.8784 -0.7945  2.9638
  887MPD2    N113012   1.794   2.227  15.388  0.1511  0.0442  0.3217
  887MPD2    H713013   1.724   2.288  15.346 -1.9165 -1.1643  2.0355
  888MPD2     C13014   3.803   2.692  14.632  0.2887 -0.7470  0.1378
  888MPD2    C113015   3.885   2.632  14.721 -0.2047  0.5173 -0.0972
  888MPD2    C213016   3.951   2.715  14.810  0.3379 -0.1766  0.0203
  888MPD2    C313017   3.947   2.852  14.802 -1.3096  0.2872  0.1790
  888MPD2    C413018   3.864   2.910  14.704  0.5609  0.2528  0.6753
  888MPD2    C513019   3.784   2.825  14.631  0.0440  0.2343 -0.4261
  888MPD2     H13020   4.019   2.670  14.882  1.1059  0.7729 -0.1154
  888MPD2    H113021   3.841   3.015  14.688  2.7020  0.2554 -2.4630
  888MPD2    H213022   3.730   2.630  14.580 -1.3626  1.6102 -0.3145
  888MPD2    H313023   3.708   2.863  14.563 -0.3955  1.0113  0.4934
  888MPD2     N13024   4.029   2.935  14.888 -0.0498  0.4817  0.7339
  888MPD2    H513025   4.090   2.887  14.953 -1.1130 -0.0809  1.3116
  888MPD2    N113026   3.899   2.492  14.727  0.2527 -0.1637 -0.1971
  888MPD2    H713027   3.957   2.453  14.800  0.2719 -0.9197 -0.6197
  889MPD2     C13028   3.207   2.945  12.523 -0.2538  0.0865 -0.2912
  889MPD2    C113029   3.268   2.912  12.639  0.0631 -0.4069  0.1139
  889MPD2    C213030   3.237   2.985  12.751 -0.2296  0.3990  0.5381
  889MPD2    C313031   3.158   3.101  12.749 -0.3746  0.2666  0.4790
  889MPD2    C413032   3.109   3.141  12.626  0.3437  0.7451  0.0290
  889MPD2    C513033   3.128   3.064  12.512  0.7551 -0.3990  0.1293
  889MPD2     H13034   3.263   2.940  12.847  0.1100 -1.1252 -0.2834
  889MPD2    H113035   3.056   3.233  12.603 -2.0932 -0.7023 -0.1212
  889MPD2    H213036   3.232   2.887  12.435 -1.8872  2.3448 -2.2706
  889MPD2    H313037   3.082   3.108  12.425  1.4229 -2.1573 -1.1143
  889MPD2     N13038   3.135   3.161  12.875  0.4125  0.2986  1.0671
  889MPD2    H513039   3.170   3.107  12.954 -1.8718 -0.7547  1.3404
  889MPD2    N113040   3.329   2.789  12.649 -0.2594 -0.1408  0.6116
  889MPD2    H713041   3.302   2.729  12.572 -0.0757 -3.1118  2.8522
  890MPD2     C13042   2.666   3.828  14.442 -0.2782 -0.1358 -0.2172
  890MPD2    C113043   2.760   3.920  14.486 -0.2145  0.2925 -0.0436
  890MPD2    C213044   2.810   3.901  14.619 -0.5743  0.3767 -0.1283
  890MPD2    C313045   2.760   3.806  14.704 -0.3683 -0.1255 -0.3115
  890MPD2    C413046   2.658   3.726  14.655  0.2780  0.0761 -0.4123
  890MPD2    C513047   2.621   3.733  14.523  0.9862  0.0762 -0.1812
  890MPD2     H13048   2.878   3.975  14.659 -2.2954  1.6724  0.4187
  890MPD2    H113049   2.603   3.649  14.708 -0.6569  1.7799  1.0945
  890MPD2    H213050   2.622   3.833  14.344  1.2657  1.3283 -0.8342
  890MPD2    H313051   2.555   3.659  14.478  1.7227 -0.7419  0.0951
  890MPD2     N13052   2.801   3.794  14.837 -0.5685 -0.1192 -0.0311
  890MPD2    H513053   2.872   3.858  14.870 -1.0648  0.0024  0.7961
  890MPD2    N113054   2.798   4.021  14.399 -0.4668  0.1222 -0.1466
  890MPD2    H713055   2.740   4.025  14.315 -0.6786  0.7480  0.0367
  891MPD2     C13056   0.539   1.682  16.788 -0.3598 -0.0881  0.1907
  891MPD2    C113057   0.537   1.815  16.801  0.1514 -0.1943 -0.1856
  891MPD2    C213058   0.629   1.877  16.881 -0.1653 -0.1518  0.5617
  891MPD2    C313059   0.727   1.808  16.945  0.0925  0.0091  0.2419
  891MPD2    C413060   0.732   1.667  16.927 -0.1228 -0.5650  0.4870
  891MPD2    C513061   0.642   1.612  16.850 -0.2183 -0.0166  0.2338
  891MPD2     H13062   0.624   1.985  16.878  2.7354 -0.0168  1.0217
  891MPD2    H113063   0.804   1.600  16.974 -1.1294 -0.1634  2.6174
  891MPD2    H213064   0.466   1.621  16.736 -0.2037 -0.6179  0.5937
  891MPD2    H313065   0.639   1.504  16.852  0.3487 -0.0725 -1.3485
  891MPD2     N13066   0.824   1.881  17.016  0.0921  0.0146  0.2665
  891MPD2    H513067   0.808   1.981  17.019 -0.7270 -0.1536  1.3905
  891MPD2    N113068   0.450   1.897  16.733 -0.0420 -0.5401  0.1294
  891MPD2    H713069   0.465   1.997  16.738 -1.1939 -0.3867  0.3453
  892MPD2     C13070   2.136   3.618  14.605  0.1903 -0.0584  0.5118
  892MPD2    C113071   2.059   3.522  14.663 -0.0117  0.2775  0.1729
  892MPD2    C213072   2.077   3.391  14.615  0.4412 -0.1636  0.2195
  892MPD2    C313073   2.195   3.358  14.547 -0.2519  0.2269  0.1278
  892MPD2    C413074   2.290   3.450  14.526  0.2286  0.3614 -0.3781
  892MPD2    C513075   2.257   3.583  14.552 -0.0089  0.1180  0.7127
  892MPD2     H13076   2.006   3.314  14.643 -1.4098  1.7420  0.7313
  892MPD2    H113077   2.382   3.422  14.474  1.0761  2.7539 -0.1470
  892MPD2    H213078   2.123   3.724  14.619 -1.1926  0.0617 -1.6311
  892MPD2    H313079   2.317   3.657  14.499  0.7380 -1.8816 -1.2555
  892MPD2     N13080   2.218   3.227  14.487  0.1012  0.3817 -0.0840
  892MPD2    H513081   2.310   3.203  14.454 -0.2727 -0.3025 -0.6300
  892MPD2    N113082   1.940   3.565  14.722  0.2300  0.2151  0.3969
  892MPD2    H713083   1.904   3.659  14.713 -0.4916  0.2404  3.3604
  893MPD2     C13084   3.182   1.346   1.091 -0.2598 -0.8720  0.7607
  893MPD2    C113085   3.148   1.396   1.215 -0.2852  0.0584  0.1031
  893MPD2    C213086   3.019   1.408   1.247  0.3567 -0.3632 -0.8664
  893MPD2    C313087   2.920   1.388   1.153  0.2699  0.0878  0.0819
  893MPD2    C413088   2.958   1.345   1.032  0.2435  0.1137 -0.2749
  893MPD2    C513089   3.086   1.351   0.995 -0.3654 -0.2123 -0.4131
  893MPD2     H13090   2.999   1.456   1.342  0.9531  0.2769 -1.0655
  893MPD2    H113091   2.885   1.329   0.954  0.8255  2.4047 -1.2912
  893MPD2    H213092   3.285   1.335   1.059  0.0768  2.8398  0.5175
  893MPD2    H313093   3.105   1.336   0.890  0.4661  1.3126 -0.4780
  893MPD2     N13094   2.782   1.412   1.174 -0.5938  0.1173  0.3890
  893MPD2    H513095   2.720   1.421   1.094 -0.8766 -0.0060  0.5920
  893MPD2    N113096   3.262   1.412   1.301 -0.3194  0.4323  0.0469
  893MPD2    H713097   3.349   1.376   1.263  0.3331  2.3167 -0.2305
  894MPD2     C13098   1.191   3.393   1.527  0.0584 -0.0148 -0.3138
  894MPD2    C113099   1.232   3.524   1.540 -0.1579  0.7820  0.1825
  894MPD2    C213100   1.159   3.620   1.478 -0.5311  0.5280  0.5186
  894MPD2    C313101   1.054   3.591   1.395  0.3706 -0.6314 -0.9889
  894MPD2    C413102   1.015   3.461   1.379  0.4079 -0.8667 -0.0610
  894MPD2    C513103   1.088   3.364   1.446 -0.1349 -0.1084 -0.0953
  894MPD2     H13104   1.179   3.726   1.493  3.0850  0.0215 -0.5635
  894MPD2    H113105   0.923   3.433   1.329 -0.0999 -0.6386  0.7474
  894MPD2    H213106   1.245   3.314   1.577 -0.0471  0.7870  1.0746
  894MPD2    H313107   1.043   3.265   1.456 -1.3129  0.3544 -0.7625
  894MPD2     N13108   0.984   3.703   1.340 -0.4030  0.1291 -0.3561
  894MPD2    H513109   1.024   3.796   1.340  1.2496 -0.5694 -0.1198
  894MPD2    N113110   1.335   3.570   1.627  0.2668 -0.0810  0.4800
  894MPD2    H713111   1.354   3.669   1.617  0.8249 -0.3786 -1.3249
  895MPD2     C13112   0.710   2.956  14.394 -0.2409  0.6338 -0.3250
  895MPD2    C113113   0.664   2.964  14.263 -0.0631  0.1460  0.5148
  895MPD2    C213114   0.753   2.999  14.165  0.5668 -0.3370 -0.3746
  895MPD2    C313115   0.887   3.024  14.177 -0.3312  0.2416  0.1400
  895MPD2    C413116   0.930   3.007  14.311  0.3147  0.5820  0.4135
  895MPD2    C513117   0.842   2.978  14.415 -0.5136  1.4963  0.3257
  895MPD2     H13118   0.714   2.987  14.065 -1.5911 -1.2697  0.5716
  895MPD2    H113119   1.034   3.022  14.338  0.1067  2.2256  0.2999
  895MPD2    H213120   0.647   2.938  14.481 -0.1823  0.4915 -0.3125
  895MPD2    H313121   0.876   2.963  14.517  0.3528  1.4710  0.0365
  895MPD2     N13122   0.971   3.040  14.062  0.0208  0.6496  0.3522
  895MPD2    H513123   0.927   3.059  13.972 -0.4790 -0.0682  0.4494
  895MPD2    N113124   0.533   2.949  14.231  0.6771 -0.4948 -0.2173
  895MPD2    H713125   0.515   2.957  14.131 -0.2225  1.1251  0.0741
  896MPD2     C13126   2.737   4.677   1.725 -0.3031 -0.0702 -0.5368
  896MPD2    C113127   2.682   0.084   1.705  0.0858  0.1014 -0.4073
  896MPD2    C213128   2.543   0.090   1.692  0.3578  0.1540 -0.0632
  896MPD2    C313129   2.468   4.690   1.682 -0.4234 -0.0805 -0.4434
  896MPD2    C413130   2.526   4.567   1.708 -0.4226  1.0263  0.1953
  896MPD2    C513131   2.664   4.560   1.722 -0.6973 -0.1714  0.4855
  896MPD2     H13132   2.505   0.189   1.671 -1.6449 -1.2126 -2.7976
  896MPD2    H113133   2.467   4.477   1.710  0.9855  0.0035 -2.9892
  896MPD2    H213134   2.845   4.667   1.736 -0.2073 -0.3737 -1.7104
  896MPD2    H313135   2.715   4.466   1.739  1.3749  0.6900 -1.0259
  896MPD2     N13136   2.334   4.697   1.651  0.1012  0.0684  0.5001
  896MPD2    H513137   2.302   4.615   1.599 -1.0339  0.4780  0.5455
  896MPD2    N113138   2.764   0.197   1.684  0.1106  0.0757 -0.0011
  896MPD2    H713139   2.861   0.192   1.711 -0.3504 -2.3218  1.2236
  897MPD2     C13140   4.573   1.556  10.351 -1.2202  0.6833 -0.2808
  897MPD2    C113141   4.600   1.665  10.431  0.6618  0.7018  0.1309
  897MPD2    C213142   4.499   1.736  10.485  1.0134 -0.2096 -0.6364
  897MPD2    C313143   4.371   1.693  10.464 -0.1148 -0.1891 -0.1938
  897MPD2    C413144   4.343   1.587  10.378  0.0011  0.0568  0.1090
  897MPD2    C513145   4.445   1.522  10.312  0.3938 -0.4649 -0.1367
  897MPD2     H13146   4.521   1.834  10.525  1.0954 -0.7061  0.5343
  897MPD2    H113147   4.246   1.538  10.379 -1.0627  2.1097 -4.2313
  897MPD2    H213148   4.657   1.502  10.309 -2.0267  0.1218 -1.1597
  897MPD2    H313149   4.423   1.446  10.238  2.4156 -1.4448  0.2688
  897MPD2     N13150   4.267   1.772  10.520  0.4391  0.8603 -0.0018
  897MPD2    H513151   4.297   1.837  10.591 -0.8127  0.1590  1.1669
  897MPD2    N113152   0.012   1.709  10.446  0.0003  0.4313  0.3758
  897MPD2    H713153   0.073   1.686  10.368  0.9267  1.1840  0.8799
  898MPD2     C13154   2.220   2.117  17.426  0.0578 -0.0599 -0.4408
  898MPD2    C113155   2.185   2.242  17.374 -0.0331 -0.4534 -0.7233
  898MPD2    C213156   2.172   2.263  17.244 -0.3055  0.0128 -0.1791
  898MPD2    C313157   2.195   2.154  17.159  0.1224 -0.1519 -0.8803
  898MPD2    C413158   2.217   2.027  17.213  0.1723 -0.1552  0.7446
  898MPD2    C513159   2.224   2.013  17.344 -0.2371  0.4417 -0.0365
  898MPD2     H13160   2.145   2.362  17.208 -1.4294 -0.3281 -0.2756
  898MPD2    H113161   2.220   1.939  17.149  1.5137  0.0646  0.5082
  898MPD2    H213162   2.242   2.099  17.531 -0.3704 -1.6051 -0.6248
  898MPD2    H313163   2.232   1.914  17.388 -0.6818  0.5452  0.2745
  898MPD2     N13164   2.185   2.178  17.024 -0.5581  0.0102  0.5974
  898MPD2    H513165   2.163   2.274  17.000  0.3269  0.8723  3.3003
  898MPD2    N113166   2.155   2.346  17.456 -0.9302 -0.1818 -0.4637
  898MPD2    H713167   2.126   2.432  17.410 -0.6831 -1.1735 -2.4683
  899MPD2     C13168   2.675   3.526   0.047  0.3917  0.5146  0.1528
  899MPD2    C113169   2.610   3.577  17.618  0.0032 -0.1755  0.1337
  899MPD2    C213170   2.478   3.554  17.608 -0.6270 -0.0209 -0.3061
  899MPD2    C313171   2.415   3.462   0.004  0.2981 -0.1326  0.2747
  899MPD2    C413172   2.481   3.403   0.105 -0.1970 -0.3736  0.4665
  899MPD2    C513173   2.609   3.436   0.133 -0.0857  1.2508 -0.2303
  899MPD2     H13174   2.409   3.606  17.542  1.6466  1.7082 -1.2893
  899MPD2    H113175   2.433   3.331   0.171 -1.0797  0.5434  0.8098
  899MPD2    H213176   2.783   3.534   0.057  0.5113  1.5331 -1.9559
  899MPD2    H313177   2.662   3.391   0.215 -1.3284 -0.4347 -0.3414
  899MPD2     N13178   2.277   3.441  17.678  0.0482  0.2463 -0.5332
  899MPD2    H513179   2.236   3.375   0.062 -1.7146  3.4391  1.6094
  899MPD2    N113180   2.676   3.659  17.524  0.0441  0.0149  0.4594
  899MPD2    H713181   2.774   3.675  17.544  0.4245 -2.7658  0.7711
  900MPD2     C13182   2.349   0.763  12.459  0.2649  0.4643  0.0810
  900MPD2    C113183   2.285   0.645  12.435  0.2119  0.0816  0.1212
  900MPD2    C213184   2.166   0.646  12.365  0.2783  0.1232 -0.2604
  900MPD2    C313185   2.094   0.760  12.347  0.6918  0.2954  0.2653
  900MPD2    C413186   2.150   0.879  12.395  0.2089 -0.8578 -0.0097
  900MPD2    C513187   2.277   0.877  12.441 -0.1949 -0.0598  0.5135
  900MPD2     H13188   2.125   0.552  12.329  1.7075 -0.6591  0.1723
  900MPD2    H113189   2.091   0.969  12.403 -0.6281 -1.3008 -1.1686
  900MPD2    H213190   2.443   0.765  12.513  0.2092 -1.3056  0.2282
  900MPD2    H313191   2.325   0.965  12.483  0.9217 -1.4049  2.0413
  900MPD2     N13192   1.973   0.749  12.289  0.1078  0.3180  0.2991
  900MPD2    H513193   1.943   0.654  12.268 -1.7552  0.9933 -0.0063
  900MPD2    N113194   2.353   0.531  12.480 -0.0671  0.1758 -0.9053
  900MPD2    H713195   2.450   0.539  12.509 -0.3483 -0.8474  0.3052
  901MPD2     C13196   2.713   4.321  12.909  0.1905  0.2487  0.1047
  901MPD2    C113197   2.681   4.278  12.782  0.5527  0.8734  0.0795
  901MPD2    C213198   2.629   4.368  12.694 -0.1893  0.0310 -0.1757
  901MPD2    C313199   2.617   4.509  12.720 -0.1883 -0.1842  0.5503
  901MPD2    C413200   2.667   4.542  12.845  0.2490 -0.6458  0.1544
  901MPD2    C513201   2.706   4.452  12.942 -0.6135  0.0021 -0.3318
  901MPD2     H13202   2.600   4.341  12.593  0.2944 -0.1577 -0.2638
  901MPD2    H113203   2.672   4.648  12.868 -2.8022 -0.0534 -1.9980
  901MPD2    H213204   2.766   4.254  12.975  2.2830 -0.0716 -1.9083
  901MPD2    H313205   2.744   4.497  13.033  0.8199  2.3808 -2.0839
  901MPD2     N13206   2.560   4.605  12.630 -0.1071  0.7614 -0.2273
  901MPD2    H513207   2.529   4.566  12.541  0.6719  0.4847 -0.3826
  901MPD2    N113208   2.689   4.144  12.743  0.6734 -0.1089 -0.6666
  901MPD2    H713209   2.707   4.072  12.812 -3.2619 -0.0319  0.4387
  902MPD2     C13210   0.611   2.926  13.120  0.1922  0.2841 -0.5210
  902MPD2    C113211   0.706   3.014  13.074  0.9976  0.0452  0.4415
  902MPD2    C213212   0.840   2.972  13.061 -0.0256  0.5148  0.0566
  902MPD2    C313213   0.870   2.836  13.059 -0.2909 -1.1797 -0.1674
  902MPD2    C413214   0.769   2.751  13.094  0.0564  0.4346 -0.4993
  902MPD2    C513215   0.641   2.795  13.122 -0.4284  0.1095 -0.6047
  902MPD2     H13216   0.912   3.051  13.042 -1.0188  1.7925  1.6350
  902MPD2    H113217   0.786   2.644  13.091 -0.0092  0.3943  0.6694
  902MPD2    H213218   0.507   2.959  13.124  0.1447 -0.0769  1.0390
  902MPD2    H313219   0.563   2.731  13.161 -0.5324 -1.4237 -3.3125
  902MPD2     N13220   0.990   2.780  13.039  0.2834 -0.6911  0.1271
  902MPD2    H513221   0.985   2.679  13.040  0.6911 -0.7106 -0.0186
  902MPD2    N113222   0.681   3.145  13.051 -0.6514  0.2766 -0.2695
  902MPD2    H713223   0.758   3.211  13.048 -0.8656  0.3637 -4.0436
  903MPD2     C13224   1.269   2.872  12.401  0.0222 -0.3089 -0.3759
  903MPD2    C113225   1.283   2.767  12.496  0.3200 -0.1154 -0.0189
  903MPD2    C213226   1.214   2.648  12.483  1.1594  0.6450 -0.1313
  903MPD2    C313227   1.124   2.636  12.379 -0.1375  0.5939  0.2801
  903MPD2    C413228   1.118   2.728  12.283 -0.1188 -0.2758 -0.3930
  903MPD2    C513229   1.188   2.845  12.295 -0.1948  0.5860 -0.1813
  903MPD2     H13230   1.211   2.576  12.565 -1.1455  0.0439 -0.7437
  903MPD2    H113231   1.069   2.712  12.188 -0.1896 -0.5583 -0.3087
  903MPD2    H213232   1.298   2.977  12.407  0.8135 -0.5092 -0.7363
  903MPD2    H313233   1.179   2.921  12.219  3.2485  0.4995 -0.6820
  903MPD2     N13234   1.035   2.521  12.387 -0.7041  0.5552 -0.3770
  903MPD2    H513235   1.042   2.452  12.461  2.3964 -1.5370 -2.6422
  903MPD2    N113236   1.364   2.789  12.612 -0.0598 -0.9108  0.5375
  903MPD2    H713237   1.381   2.887  12.633 -0.6115 -0.4929 -0.9966
  904MPD2     C13238   0.937   2.044  13.901  0.2436  0.1977  0.6291
  904MPD2    C113239   0.965   2.131  14.008  0.5502 -0.1461 -0.7925
  904MPD2    C213240   1.097   2.137  14.055 -0.0140  0.2180  0.3598
  904MPD2    C313241   1.204   2.063  14.002 -0.3327  0.0424  0.2193
  904MPD2    C413242   1.173   1.991  13.885 -0.4081  0.1357  0.4287
  904MPD2    C513243   1.048   1.980  13.844  0.0482  0.2204 -0.0520
  904MPD2     H13244   1.116   2.199  14.142 -0.7398  2.0905 -0.8117
  904MPD2    H113245   1.253   1.937  13.836  0.1303  2.2246 -0.9826
  904MPD2    H213246   0.840   2.033  13.855  0.4831 -0.7061  0.3316
  904MPD2    H313247   1.034   1.918  13.756 -1.5183  0.5638 -0.0402
  904MPD2     N13248   1.344   2.062  14.053 -0.1307 -0.1593  0.4403
  904MPD2    H513249   1.353   2.081  14.152 -2.0066  0.8064  0.4253
  904MPD2    N113250   0.871   2.208  14.070  0.6497 -0.2039  0.1916
  904MPD2    H713251   0.898   2.283  14.133 -0.6770 -0.3694  0.9456
  905MPD2     C13252   0.548   2.643  13.573  0.1917  1.0213 -0.2199
  905MPD2    C113253   0.575   2.689  13.696 -0.5128 -0.5829  0.6949
  905MPD2    C213254   0.659   2.799  13.710  0.3770 -0.2439  0.1186
  905MPD2    C313255   0.715   2.850  13.590  0.0121  0.0375 -0.2843
  905MPD2    C413256   0.681   2.810  13.464  0.2575  0.2141  0.4564
  905MPD2    C513257   0.596   2.702  13.456 -0.3237 -0.4383 -0.9479
  905MPD2     H13258   0.693   2.837  13.806 -1.0944 -3.2394  1.8503
  905MPD2    H113259   0.716   2.854  13.372 -0.6659 -0.8756 -0.4218
  905MPD2    H213260   0.486   2.557  13.549 -1.1201  2.7695 -3.1191
  905MPD2    H313261   0.588   2.655  13.358  2.2750 -1.7765 -0.5211
  905MPD2     N13262   0.823   2.944  13.599  0.1540  0.1236  1.2132
  905MPD2    H513263   0.876   2.949  13.513 -1.6663 -1.1630  0.0305
  905MPD2    N113264   0.552   2.605  13.803 -0.1294  0.2468  0.7436
  905MPD2    H713265   0.536   2.507  13.782 -0.4888  0.3963  0.3092
  906MPD2     C13266   3.169   2.335  11.226 -0.7829  0.2818 -0.7814
  906MPD2    C113267   3.096   2.232  11.168  0.1466 -0.4758 -0.3985
  906MPD2    C213268   3.013   2.158  11.247  0.5553 -0.0790  0.8111
  906MPD2    C313269   2.981   2.183  11.374  0.3758 -0.0454 -0.0186
  906MPD2    C413270   3.048   2.284  11.430 -0.7423  0.1116 -0.4956
  906MPD2    C513271   3.147   2.351  11.361 -0.7093  0.3770  0.0228
  906MPD2     H13272   2.960   2.083  11.188  0.5020  0.4392  0.2035
  906MPD2    H113273   3.008   2.308  11.527  1.4235  0.6289  0.2677
  906MPD2    H213274   3.240   2.398  11.174 -0.8573  0.9060 -0.1135
  906MPD2    H313275   3.194   2.437  11.406  0.4242 -0.7946  1.0355
  906MPD2     N13276   2.887   2.107  11.450  0.2072 -0.0646 -0.0130
  906MPD2    H513277   2.868   2.126  11.548 -0.5054 -0.2320 -0.1195
  906MPD2    N113278   3.106   2.198  11.028  0.3092  0.1743  0.2211
  906MPD2    H713279   3.068   2.107  11.002 -0.3817  1.1682 -2.2924
  907MPD2     C13280   1.750   1.219  15.959  0.8587 -0.4988 -0.3371
  907MPD2    C113281   1.854   1.170  15.880  0.6414 -0.9215 -0.2661
  907MPD2    C213282   1.983   1.193  15.907 -0.2028  0.1641 -0.3140
  907MPD2    C313283   2.020   1.249  16.024  0.4046 -1.6228 -0.6545
  907MPD2    C413284   1.920   1.294  16.114 -0.2735 -0.1124  0.0601
  907MPD2    C513285   1.789   1.283  16.073 -0.0175  0.2208 -0.0662
  907MPD2     H13286   2.060   1.159  15.838 -0.4905  1.4495 -1.2573
  907MPD2    H113287   1.943   1.351  16.204 -0.9194  1.5955 -0.8599
  907MPD2    H213288   1.644   1.205  15.942  0.8729 -1.5140  0.4405
  907MPD2    H313289   1.710   1.322  16.136 -1.0459 -0.1348 -1.1195
  907MPD2     N13290   2.153   1.278  16.048 -0.2234 -1.1518 -0.1268
  907MPD2    H513291   2.221   1.278  15.972  1.1600 -0.6884  1.1179
  907MPD2    N113292   1.827   1.092  15.766 -0.1167 -0.6016  0.5903
  907MPD2    H713293   1.902   1.046  15.715 -0.4343 -0.4743  0.0089
  908MPD2     C13294   0.528   1.741   9.806  0.1029 -0.1951 -0.0140
  908MPD2    C113295   0.446   1.653   9.875 -0.4227 -0.2417 -0.1339
  908MPD2    C213296   0.384   1.690   9.996  0.2877 -0.2140 -0.2009
  908MPD2    C313297   0.408   1.812  10.052 -0.1180 -0.0547  0.3565
  908MPD2    C413298   0.496   1.899   9.986  0.4379  0.0304 -0.7150
  908MPD2    C513299   0.554   1.863   9.866 -0.6662 -0.3641  0.2682
  908MPD2     H13300   0.308   1.621  10.030 -0.6741  0.7305 -0.4181
  908MPD2    H113301   0.523   1.998  10.022 -1.1271 -0.4539  1.7564
  908MPD2    H213302   0.582   1.720   9.714  1.9065  2.1086  0.5182
  908MPD2    H313303   0.618   1.934   9.816  2.6598 -3.6876 -0.1774
  908MPD2     N13304   0.342   1.849  10.171 -0.0367  0.4733 -0.6883
  908MPD2    H513305   0.289   1.779  10.222  3.7487 -1.0587  1.1760
  908MPD2    N113306   0.403   1.531   9.823 -0.5910 -0.9560  0.3008
  908MPD2    H713307   0.358   1.460   9.879 -2.5888  1.2648  1.5197
  909MPD2     C13308   0.283   0.156  12.136  0.2112 -0.1075  0.6887
  909MPD2    C113309   0.234   0.246  12.042  0.7036  0.4803 -0.4399
  909MPD2    C213310   0.173   0.361  12.083 -0.4681  0.3034  0.2947
  909MPD2    C313311   0.154   0.386  12.213  0.3176  1.3070 -0.0158
  909MPD2    C413312   0.205   0.294  12.308 -0.4718  0.4572 -0.1156
  909MPD2    C513313   0.259   0.177  12.269 -0.0667  0.2425  0.0233
  909MPD2     H13314   0.134   0.433  12.013  2.4615  0.6986 -0.9448
  909MPD2    H113315   0.202   0.313  12.415  1.5160 -0.5149  0.1046
  909MPD2    H213316   0.326   0.060  12.110  0.3231  0.6074 -1.8045
  909MPD2    H313317   0.291   0.111  12.348  0.5498 -1.6272 -1.7942
  909MPD2     N13318   0.089   0.506  12.250  0.3812 -0.6290 -1.0478
  909MPD2    H513319   0.052   0.563  12.175  1.3579  0.6346 -0.5738
  909MPD2    N113320   0.250   0.233  11.907 -0.4904 -0.8464  0.2400
  909MPD2    H713321   0.213   0.313  11.856 -1.5387 -1.6627 -0.2847
  910MPD2     C13322   1.356   1.260  16.232  0.0313  0.0364  0.7564
  910MPD2    C113323   1.404   1.213  16.111 -0.4395 -0.3692  0.4456
  910MPD2    C213324   1.369   1.283  15.995 -0.4465 -0.1025  0.3665
  910MPD2    C313325   1.291   1.398  16.001 -0.2406 -0.0122  0.8035
  910MPD2    C413326   1.243   1.433  16.129  0.3018 -0.2754 -0.0025
  910MPD2    C513327   1.270   1.366  16.242  0.1835 -0.3961  0.0601
  910MPD2     H13328   1.416   1.260  15.900  1.0850 -1.1258  1.3619
  910MPD2    H113329   1.165   1.508  16.138  0.6059  0.0007  0.3433
  910MPD2    H213330   1.388   1.214  16.325 -2.5260 -1.2825  0.9626
  910MPD2    H313331   1.223   1.383  16.338  0.4786  1.9349 -0.2113
  910MPD2     N13332   1.261   1.479  15.890  0.0850 -0.4919  0.0021
  910MPD2    H513333   1.201   1.560  15.897  1.2882  0.2989  0.9433
  910MPD2    N113334   1.494   1.102  16.095  0.2236 -0.3121  0.7590
  910MPD2    H713335   1.515   1.065  16.003 -1.2410  1.1372 -0.1660
  911MPD2     C13336   3.999   2.498  16.491  0.1713  0.1171  0.1541
  911MPD2    C113337   3.944   2.396  16.411  0.2133 -0.2539 -0.6719
  911MPD2    C213338   3.859   2.422  16.304  0.4157  0.9443 -0.5149
  911MPD2    C313339   3.830   2.553  16.259 -0.2027  0.7023  0.6498
  911MPD2    C413340   3.883   2.658  16.338 -0.6872  0.0369  0.0257
  911MPD2    C513341   3.961   2.625  16.451 -0.5358 -0.1940  0.4331
  911MPD2     H13342   3.807   2.344  16.251 -1.2366  2.3223 -0.9479
  911MPD2    H113343   3.862   2.764  16.322  0.1300  0.0703 -0.8688
  911MPD2    H213344   4.054   2.493  16.585  1.9903  0.5109 -0.8906
  911MPD2    H313345   4.001   2.701  16.516 -1.7137  1.4775 -0.8167
  911MPD2     N13346   3.730   2.578  16.169 -0.4164  0.3065 -0.6823
  911MPD2    H513347   3.668   2.502  16.145 -2.3676  1.3902  0.9760
  911MPD2    N113348   3.987   2.269  16.450  0.4064 -0.0284  0.3636
  911MPD2    H713349   4.056   2.259  16.524  0.8595  1.6488  0.1617
  912MPD2     C13350   3.057   2.276  15.855 -0.2726  0.3601 -0.1464
  912MPD2    C113351   3.129   2.334  15.956  0.8198  0.9071  0.6119
  912MPD2    C213352   3.094   2.289  16.085  0.1321  0.0022 -0.7387
  912MPD2    C313353   2.999   2.201  16.111 -0.1017  0.6800  0.2378
  912MPD2    C413354   2.931   2.145  16.004  0.3629 -0.3293 -0.1092
  912MPD2    C513355   2.960   2.185  15.882  0.1429  0.8034  0.3075
  912MPD2     H13356   3.157   2.317  16.169  0.4420 -1.8355 -0.3609
  912MPD2    H113357   2.852   2.071  16.007  1.3736 -1.4146 -0.0303
  912MPD2    H213358   3.076   2.300  15.751 -0.6950  0.1398 -0.2747
  912MPD2    H313359   2.914   2.136  15.797 -1.0838 -0.7455  1.8686
  912MPD2     N13360   2.973   2.159  16.240 -0.3319  0.4329  0.0512
  912MPD2    H513361   3.029   2.191  16.319 -1.0764  0.2588  0.6504
  912MPD2    N113362   3.225   2.429  15.930 -0.6034 -0.4659  0.5581
  912MPD2    H713363   3.248   2.444  15.832 -3.5286 -0.8561 -0.1845
  913MPD2     C13364   0.053   2.979  10.994 -0.2283 -0.1779  1.2643
  913MPD2    C113365   0.044   3.112  10.952 -0.3064  0.2854 -0.3868
  913MPD2    C213366   4.678   3.144  10.845 -0.0857  1.0955 -0.0328
  913MPD2    C313367   4.619   3.041  10.769 -0.2194 -1.4121 -0.7577
  913MPD2    C413368   4.644   2.908  10.805  0.3293  0.3513  0.5249
  913MPD2    C513369   4.717   2.881  10.920  0.4854 -0.3713 -0.3769
  913MPD2     H13370   4.664   3.247  10.816 -0.8280  0.5869 -1.5102
  913MPD2    H113371   4.611   2.819  10.752  0.3608  1.5801 -1.5467
  913MPD2    H213372   0.107   2.952  11.084 -0.2610 -0.9094  1.0651
  913MPD2    H313373   0.022   2.777  10.940  0.8269 -0.3352 -0.6146
  913MPD2     N13374   4.537   3.065  10.658 -0.3306  0.2507  0.0841
  913MPD2    H513375   4.511   2.979  10.611  1.0377 -1.3812  2.3183
  913MPD2    N113376   0.104   3.212  11.035  0.2726  0.0423 -0.8644
  913MPD2    H713377   0.167   3.182  11.109 -0.4768 -0.4927 -0.4449
  914MPD2     C13378   2.351   3.727  11.902  0.7591 -0.3790 -0.1736
  914MPD2    C113379   2.348   3.856  11.956  0.2143  0.2049  0.1486
  914MPD2    C213380   2.410   3.878  12.083  0.0365  0.0483 -0.0453
  914MPD2    C313381   2.471   3.778  12.149 -0.2745  0.4099  0.6872
  914MPD2    C413382   2.475   3.656  12.084  0.1846 -0.2067 -0.4029
  914MPD2    C513383   2.416   3.626  11.965  0.1998  0.5159  0.4585
  914MPD2     H13384   2.398   3.972  12.135  2.3415  1.3329 -1.8134
  914MPD2    H113385   2.523   3.573  12.136  1.1267 -0.2403 -1.3121
  914MPD2    H213386   2.293   3.708  11.812 -2.4890  2.7145  1.2436
  914MPD2    H313387   2.430   3.532  11.912 -0.5855  0.0948  1.0142
  914MPD2     N13388   2.530   3.806  12.277 -0.3403  0.1940 -0.1054
  914MPD2    H513389   2.516   3.900  12.312 -1.8790 -0.0447 -0.1012
  914MPD2    N113390   2.279   3.954  11.889 -0.7655  0.4873  0.0177
  914MPD2    H713391   2.237   3.928  11.801 -2.9506 -2.5326  1.9619
  915MPD2     C13392   0.660   3.722  15.322  0.2857  0.4065 -0.2003
  915MPD2    C113393   0.527   3.741  15.336  0.2633 -0.6041 -0.4917
  915MPD2    C213394   0.470   3.730  15.467 -0.3860  0.4964 -1.0890
  915MPD2    C313395   0.542   3.704  15.574 -0.1372  0.3391 -0.0326
  915MPD2    C413396   0.679   3.680  15.559  0.3384 -0.4069  0.1673
  915MPD2    C513397   0.738   3.682  15.433  0.5867  0.7367  0.1205
  915MPD2     H13398   0.366   3.753  15.489 -0.1948  1.3015 -1.0254
  915MPD2    H113399   0.738   3.657  15.647 -0.0254  0.9784  0.7793
  915MPD2    H213400   0.707   3.721  15.224 -1.2449  0.0366 -0.9317
  915MPD2    H313401   0.840   3.647  15.424 -0.4265 -1.9044 -1.1498
  915MPD2     N13402   0.467   3.686  15.692  0.1842 -0.4409  0.2431
  915MPD2    H513403   0.365   3.688  15.691  0.1930  0.1885  0.7286
  915MPD2    N113404   0.455   3.791  15.226  0.2803  0.0208  0.3184
  915MPD2    H713405   0.505   3.773  15.139  1.2649 -0.1461  0.9195
  916MPD2     C13406   2.989   1.689  15.356  0.6220  0.6918  0.0437
  916MPD2    C113407   2.991   1.622  15.478 -0.6277  0.2126 -0.8755
  916MPD2    C213408   3.038   1.492  15.489 -0.0093 -0.0830 -0.3030
  916MPD2    C313409   3.097   1.428  15.379  0.4164 -0.5236  0.5279
  916MPD2    C413410   3.099   1.500  15.263 -0.2476 -0.5531  0.0793
  916MPD2    C513411   3.057   1.630  15.250 -1.1815  0.0102 -0.4500
  916MPD2     H13412   3.025   1.439  15.583  0.3035  0.3224 -0.0371
  916MPD2    H113413   3.143   1.459  15.173  1.5551 -1.9070  1.5964
  916MPD2    H213414   2.938   1.783  15.339 -2.5374 -1.3658 -2.1048
  916MPD2    H313415   3.068   1.690  15.161 -1.2702 -1.4915 -1.4869
  916MPD2     N13416   3.124   1.291  15.393  0.0361  0.8299 -0.2130
  916MPD2    H513417   3.110   1.240  15.480  1.2692  1.6091  0.4340
  916MPD2    N113418   2.914   1.688  15.577  0.1719 -0.2485  0.5222
  916MPD2    H713419   2.853   1.761  15.543  2.2609  1.4307  0.3579
  917MPD2     C13420   3.615   4.715  10.957 -0.4918 -0.6029 -0.6636
  917MPD2    C113421   3.678   0.011  11.085  0.0574 -0.3782 -0.3248
  917MPD2    C213422   3.805   0.064  11.095  0.1581  0.3160 -1.0075
  917MPD2    C313423   3.867   0.128  10.982 -0.0100  0.1122 -0.0864
  917MPD2    C413424   3.803   0.110  10.857 -0.0490 -0.0220  0.0259
  917MPD2    C513425   3.678   0.051  10.844 -0.1765  0.2932 -0.1460
  917MPD2     H13426   3.854   0.063  11.192  0.6939 -1.4531 -1.2974
  917MPD2    H113427   3.838   0.152  10.763 -3.2764  0.7665 -0.8259
  917MPD2    H213428   3.521   4.663  10.941  0.0403 -1.4987 -0.8630
  917MPD2    H313429   3.633   0.039  10.746 -0.3341 -2.0963  0.1972
  917MPD2     N13430   3.993   0.195  10.984 -0.3770 -0.3490 -0.3959
  917MPD2    H513431   4.014   0.257  10.907 -2.6845  0.3786 -0.4630
  917MPD2    N113432   3.605   4.684  11.202 -0.6472  0.4697  0.2160
  917MPD2    H713433   3.517   4.638  11.182  1.0442 -2.6773 -0.0178
  918MPD2     C13434   3.888   0.161  12.145  0.1082 -0.0781  0.0541
  918MPD2    C113435   3.865   0.026  12.129  0.0433 -0.2032 -0.3327
  918MPD2    C213436   3.785   4.706  12.022  0.1539  0.6146 -0.0102
  918MPD2    C313437   3.728   0.076  11.937 -0.2191  0.3062 -0.9718
  918MPD2    C413438   3.739   0.211  11.958 -0.1121 -0.7036 -0.1815
  918MPD2    C513439   3.819   0.253  12.064  0.6263 -0.9149  1.0770
  918MPD2     H13440   3.760   4.606  11.987  0.3106 -0.1095  1.9340
  918MPD2    H113441   3.700   0.287  11.891  0.7269 -0.7599 -0.7432
  918MPD2    H213442   3.959   0.209  12.212  1.8169 -2.0390 -0.3950
  918MPD2    H313443   3.835   0.358  12.089  2.7666 -0.8650 -0.5723
  918MPD2     N13444   3.653   0.040  11.826 -0.5906  0.3428  0.2770
  918MPD2    H513445   3.664   0.114  11.758 -0.6450 -0.6298 -0.7992
  918MPD2    N113446   3.940   4.645  12.205 -0.3656 -0.0989 -0.3950
  918MPD2    H713447   3.955   4.553  12.165 -0.9333 -0.0766 -0.6649
  919MPD2     C13448   4.607   3.464  11.960  0.4337 -0.3929 -0.2359
  919MPD2    C113449   4.523   3.364  11.920 -0.4387 -1.0040 -0.5638
  919MPD2    C213450   4.527   3.312  11.790 -0.2301 -0.6706 -0.3983
  919MPD2    C313451   4.600   3.381  11.694 -0.2290  0.8100  0.2166
  919MPD2    C413452   4.675   3.484  11.730 -0.6868  0.2306 -0.0749
  919MPD2    C513453   4.689   3.519  11.864  0.2086 -0.4515 -0.5885
  919MPD2     H13454   4.461   3.232  11.759 -0.3958 -0.6059 -0.2120
  919MPD2    H113455   0.005   3.541  11.652 -0.2576  0.0007  0.0345
  919MPD2    H213456   4.622   3.500  12.061 -0.2105 -0.2823 -0.1765
  919MPD2    H313457   0.041   3.597  11.886 -1.0346  0.4739  0.1187
  919MPD2     N13458   4.615   3.349  11.555 -1.1416 -0.1823 -0.4828
  919MPD2    H513459   4.679   3.409  11.504 -1.7038  0.4519 -0.4322
  919MPD2    N113460   4.435   3.309  12.014  0.2723  0.0180 -0.3045
  919MPD2    H713461   4.394   3.221  11.984  1.3771 -0.5877 -0.0247
  920MPD2     C13462   4.319   3.873  10.755  0.1196  0.5894  0.2020
  920MPD2    C113463   4.250   3.751  10.753 -0.2450 -0.1748 -0.7451
  920MPD2    C213464   4.264   3.656  10.849  0.8074  0.3437  0.1924
  920MPD2    C313465   4.354   3.665  10.949  0.6551 -0.5028 -0.8447
  920MPD2    C413466   4.426   3.782  10.957  0.2466  0.0488 -0.0956
  920MPD2    C513467   4.414   3.878  10.861  0.6521  0.6457  0.8337
  920MPD2     H13468   4.211   3.564  10.830 -0.5752  1.0829  0.4992
  920MPD2    H113469   4.480   3.811  11.047  0.7617  1.3795 -0.8488
  920MPD2    H213470   4.310   3.950  10.680  0.4090  0.1484 -0.2928
  920MPD2    H313471   4.473   3.968  10.866  1.3749  0.1793  0.5968
  920MPD2     N13472   4.374   3.557  11.035  0.5178  0.5016  0.5121
  920MPD2    H513473   4.310   3.478  11.038 -1.1741  2.0255  3.8686
  920MPD2    N113474   4.153   3.720  10.652 -0.4206  0.1521 -0.0362
  920MPD2    H713475   4.099   3.635  10.665 -1.4604  0.8316  0.0711
  921MPD2     C13476   4.602   2.275  16.847 -0.0933 -0.6208  0.3114
  921MPD2    C113477   4.600   2.193  16.736 -0.0492 -0.6106 -0.2241
  921MPD2    C213478   4.492   2.117  16.713 -0.5051 -0.1173  0.2692
  921MPD2    C313479   4.385   2.108  16.801  0.2490  0.5394  0.8177
  921MPD2    C413480   4.375   2.203  16.896 -0.5236  0.7247  0.2056
  921MPD2    C513481   4.487   2.280  16.917 -0.3538 -0.1293  0.5623
  921MPD2     H13482   4.494   2.064  16.618 -0.1314 -1.1273  0.8487
  921MPD2    H113483   4.285   2.204  16.956  0.1893  0.7983  1.2748
  921MPD2    H213484   4.690   2.329  16.878  2.0109 -2.7190 -2.0402
  921MPD2    H313485   4.475   2.345  17.004 -1.4559 -0.1233  0.3986
  921MPD2     N13486   4.269   2.042  16.767 -0.0778  0.0526  0.1451
  921MPD2    H513487   4.180   2.074  16.804  0.2995  0.0923  1.0408
  921MPD2    N113488   4.716   2.189  16.663  0.2892  0.1436  0.2980
  921MPD2    H713489   0.070   2.252  16.694  1.0384 -0.8370  0.4992
  922MPD2     C13490   1.200   0.167  16.985 -0.2998  0.1868  0.8927
  922MPD2    C113491   1.151   0.159  17.115  0.3277  1.0673  0.2116
  922MPD2    C213492   1.081   0.041  17.149  0.4253 -0.4703 -0.0868
  922MPD2    C313493   1.046   4.675  17.050 -0.0862  1.0708 -0.0248
  922MPD2    C413494   1.096   4.688  16.924  0.1991  0.7487 -0.8164
  922MPD2    C513495   1.176   0.072  16.895  0.0354  0.2767 -0.2980
  922MPD2     H13496   1.042   0.034  17.250  1.2608 -2.4000  0.1053
  922MPD2    H113497   1.057   4.626  16.844 -1.6226 -1.2384  1.6110
  922MPD2    H213498   1.263   0.250  16.956  0.6054 -0.7939  0.0414
  922MPD2    H313499   1.214   0.091  16.795  1.1822 -1.8117 -0.2568
  922MPD2     N13500   0.944   4.584  17.085 -0.3266 -0.5868  0.2176
  922MPD2    H513501   0.922   4.587  17.185  2.0125 -1.9177  0.7546
  922MPD2    N113502   1.162   0.265  17.209 -0.4078 -0.0097  0.4204
  922MPD2    H713503   1.130   0.244  17.303  0.7806  0.5703  0.9556
  923MPD2     C13504   2.801   1.596   9.395 -0.2481 -0.3642 -0.2127
  923MPD2    C113505   2.749   1.682   9.487 -0.2780  0.4374 -0.6619
  923MPD2    C213506   2.798   1.680   9.617 -0.4746 -0.2518  0.4554
  923MPD2    C313507   2.889   1.579   9.655 -0.4506 -0.1702 -0.5007
  923MPD2    C413508   2.932   1.481   9.567 -0.1456 -0.6447 -0.4173
  923MPD2    C513509   2.887   1.495   9.437  0.3838 -0.0155  0.7805
  923MPD2     H13510   2.764   1.750   9.692 -0.2909 -0.9456  1.1867
  923MPD2    H113511   3.005   1.405   9.589 -0.6609 -0.7814  0.8383
  923MPD2    H213512   2.764   1.599   9.293  1.8541  0.2949 -0.9410
  923MPD2    H313513   2.907   1.424   9.359  0.5543  1.6334 -0.6766
  923MPD2     N13514   2.946   1.604   9.783  0.0788 -0.4732  0.2799
  923MPD2    H513515   2.914   1.689   9.829  0.1282 -0.8800  1.0638
  923MPD2    N113516   2.640   1.763   9.449  0.0040 -0.0783  0.0657
  923MPD2    H713517   2.602   1.759   9.354  3.7049  1.8441 -1.4777
  924MPD2     C13518   2.780   1.087  15.586  0.5734 -0.0945  0.3624
  924MPD2    C113519   2.774   1.009  15.705 -1.1077 -0.1164  0.1896
  924MPD2    C213520   2.766   1.083  15.827  0.0829  0.1203  0.6717
  924MPD2    C313521   2.720   1.213  15.822  0.3110 -0.2175 -0.5316
  924MPD2    C413522   2.722   1.285  15.708 -1.0364 -0.1190 -0.0371
  924MPD2    C513523   2.748   1.221  15.588  0.0267 -0.3912 -0.4726
  924MPD2     H13524   2.791   1.040  15.923 -0.4079 -0.4708  0.5341
  924MPD2    H113525   2.695   1.390  15.702  0.7995  0.3537 -0.2604
  924MPD2    H213526   2.787   1.033  15.492 -0.7621  2.5426 -1.2454
  924MPD2    H313527   2.741   1.272  15.493 -3.2534 -2.7905 -1.5205
  924MPD2     N13528   2.667   1.260  15.942 -0.8062  0.1371 -0.1289
  924MPD2    H513529   2.677   1.195  16.019 -1.7292  1.3482  1.0267
  924MPD2    N113530   2.789   0.867  15.701  0.1956  0.6644 -0.0418
  924MPD2    H713531   2.810   0.828  15.610 -1.1331 -0.0833 -0.0273
  925MPD2     C13532   1.003   2.925  15.194  0.4475 -0.0170 -0.4477
  925MPD2    C113533   0.894   3.010  15.206 -0.3117  0.2873 -0.8503
  925MPD2    C213534   0.852   3.051  15.333  0.3089 -0.6933  0.2685
  925MPD2    C313535   0.906   2.997  15.453 -0.6528  0.1386  0.3776
  925MPD2    C413536   1.008   2.906  15.434  0.2869 -0.0253  0.2401
  925MPD2    C513537   1.060   2.873  15.307  0.0060 -0.8932 -0.9935
  925MPD2     H13538   0.774   3.125  15.347  1.0026 -0.0891  0.9961
  925MPD2    H113539   1.046   2.860  15.524  0.0136 -0.4564  0.1348
  925MPD2    H213540   1.037   2.898  15.095  1.9263 -0.2858  0.1294
  925MPD2    H313541   1.147   2.811  15.290  0.0012 -1.2480  0.2739
  925MPD2     N13542   0.876   3.037  15.581  0.4501 -0.3119  0.3932
  925MPD2    H513543   0.922   2.991  15.659  0.1131 -1.4281 -0.0714
  925MPD2    N113544   0.836   3.066  15.086 -0.0638 -0.2300 -0.6112
  925MPD2    H713545   0.747   3.112  15.100 -0.2522 -0.0282 -2.4982
  926MPD2     C13546   4.409   1.666  13.305  0.3015  0.0626 -0.6819
  926MPD2    C113547   4.333   1.770  13.357 -0.0493  0.2301 -0.1828
  926MPD2    C213548   4.342   1.902  13.305 -0.3028 -0.1953  0.2149
  926MPD2    C313549   4.409   1.925  13.184  0.1637 -0.2919 -0.1115
  926MPD2    C413550   4.484   1.818  13.135 -0.0516 -0.3038  0.1545
  926MPD2    C513551   4.482   1.691  13.199  0.2492  0.0712 -0.3442
  926MPD2     H13552   4.276   1.976  13.348  2.5067  2.6536 -0.3210
  926MPD2    H113553   4.541   1.827  13.043  0.3403 -1.9848  0.2361
  926MPD2    H213554   4.412   1.568  13.351 -1.2600  0.1154 -0.4749
  926MPD2    H313555   4.519   1.603  13.147  1.1325 -0.5782  1.4044
  926MPD2     N13556   4.396   2.038  13.102  0.1819 -0.2957 -0.2025
  926MPD2    H513557   4.445   2.050  13.014 -1.8044 -1.8953 -1.5234
  926MPD2    N113558   4.257   1.759  13.475  0.2251 -0.0521 -0.3663
  926MPD2    H713559   4.216   1.845  13.510 -0.9135 -1.2888  1.2656
  927MPD2     C13560   4.467   3.598   0.676  0.5084  0.1155  0.5673
  927MPD2    C113561   4.407   3.722   0.681 -0.3899 -0.3898 -0.5828
  927MPD2    C213562   4.395   3.800   0.561  0.2469  0.0235  0.3580
  927MPD2    C313563   4.440   3.746   0.439  0.2595  0.0617  0.1316
  927MPD2    C413564   4.506   3.623   0.444  1.2977  0.0444 -0.6212
  927MPD2    C513565   4.518   3.552   0.559 -0.3483 -0.4505 -0.0325
  927MPD2     H13566   4.361   3.902   0.566  0.0964 -0.0864  1.5012
  927MPD2    H113567   4.545   3.569   0.359  1.4213 -0.1898 -0.4152
  927MPD2    H213568   4.484   3.547   0.770  0.4542 -0.7711  0.0873
  927MPD2    H313569   4.573   3.459   0.555  0.1238 -0.1108 -1.6404
  927MPD2     N13570   4.427   3.827   0.322 -0.4161  0.7079  0.2925
  927MPD2    H513571   4.386   3.919   0.331  0.7531  1.1112  1.6333
  927MPD2    N113572   4.370   3.758   0.810  0.6980 -0.6190 -0.4233
  927MPD2    H713573   4.411   3.700   0.882  0.0056 -0.4406  0.1186
  928MPD2     C13574   2.917   1.727   1.157  0.2397 -0.5451 -0.4635
  928MPD2    C113575   2.793   1.762   1.186  0.0121  0.0777  0.4052
  928MPD2    C213576   2.707   1.804   1.093 -0.2581  0.1424  0.4713
  928MPD2    C313577   2.741   1.797   0.961  0.3191  0.0483  0.0788
  928MPD2    C413578   2.862   1.747   0.924  0.2949  0.1855 -0.2511
  928MPD2    C513579   2.956   1.725   1.026  0.2875  0.2700  0.3895
  928MPD2     H13580   2.601   1.822   1.111 -0.3177 -0.3583  0.6040
  928MPD2    H113581   2.887   1.732   0.820 -0.4881  0.2917 -0.4537
  928MPD2    H213582   2.987   1.682   1.227 -0.5309 -1.5126 -0.3125
  928MPD2    H313583   3.055   1.685   1.009 -0.4080 -0.7220 -1.3420
  928MPD2     N13584   2.655   1.841   0.863 -0.1034  0.4003  0.5790
  928MPD2    H513585   2.696   1.839   0.770 -1.4861  0.5889 -0.0377
  928MPD2    N113586   2.760   1.759   1.323  0.2657 -0.0596  0.1731
  928MPD2    H713587   2.831   1.732   1.390 -0.3063  0.0672  0.8351
  929MPD2     C13588   2.312   1.884  10.894 -0.0826  0.2739  0.1835
  929MPD2    C113589   2.185   1.824  10.894  0.4722  0.0807 -0.0576
  929MPD2    C213590   2.113   1.833  10.772  0.4071  0.3142 -0.6040
  929MPD2    C313591   2.173   1.911  10.668  0.9762  0.3902 -0.5403
  929MPD2    C413592   2.301   1.958  10.670 -0.1815 -0.2600  0.9057
  929MPD2    C513593   2.369   1.952  10.789  0.4450 -0.7427 -1.2918
  929MPD2     H13594   2.006   1.813  10.771  0.8455 -2.0701  2.4512
  929MPD2    H113595   2.344   2.020  10.593 -1.2947  1.3654  1.5863
  929MPD2    H213596   2.365   1.889  10.989  0.9625 -0.6884 -0.3435
  929MPD2    H313597   2.456   2.015  10.802  1.3739 -2.3049  0.0183
  929MPD2     N13598   2.104   1.935  10.549  0.9733  0.3763 -0.1712
  929MPD2    H513599   2.136   2.013  10.492  1.1759 -0.1990 -0.8465
  929MPD2    N113600   2.140   1.789  11.024  0.0378  0.0228  0.4261
  929MPD2    H713601   2.206   1.805  11.099 -1.0681  1.7421  1.0162
  930MPD2     C13602   4.092   4.370  14.751 -0.4828  0.2839  0.3999
  930MPD2    C113603   4.019   4.465  14.680 -0.2921  0.2354  0.4087
  930MPD2    C213604   3.922   4.423  14.599 -0.0453  0.2722 -0.2431
  930MPD2    C313605   3.915   4.295  14.554  0.0931 -1.1077 -0.1724
  930MPD2    C413606   4.006   4.204  14.600  0.4416  0.1239  1.0479
  930MPD2    C513607   4.088   4.241  14.704  0.0384  0.3415  0.4665
  930MPD2     H13608   3.862   4.499  14.550 -0.9650 -1.7654 -2.3052
  930MPD2    H113609   4.012   4.102  14.566  1.0730  0.2023  0.9184
  930MPD2    H213610   4.177   4.390  14.815  0.2088 -1.3265 -0.0010
  930MPD2    H313611   4.165   4.169  14.730  0.6497 -0.2538 -3.0092
  930MPD2     N13612   3.828   4.258  14.454 -0.0047  0.8955  0.6303
  930MPD2    H513613   3.839   4.163  14.420 -0.2026  1.4645 -1.0584
  930MPD2    N113614   4.036   4.608  14.686 -0.1608 -0.0832  0.3421
  930MPD2    H713615   3.995   4.665  14.613  2.7048 -0.2701 -1.4058
  931MPD2     C13616   4.441   3.424   1.322 -0.2411  0.1459  0.0687
  931MPD2    C113617   4.326   3.502   1.342  0.8091  1.2437 -1.2820
  931MPD2    C213618   4.216   3.446   1.399 -0.3559 -0.5830 -0.4294
  931MPD2    C313619   4.231   3.321   1.452 -0.1158  0.1275  0.0958
  931MPD2    C413620   4.352   3.249   1.447  0.1517 -0.2221  0.6508
  931MPD2    C513621   4.456   3.299   1.380  0.1154 -0.1563  0.3756
  931MPD2     H13622   4.118   3.492   1.390  0.3966  1.0150 -0.4902
  931MPD2    H113623   4.351   3.144   1.474 -0.3868 -0.3585  0.1224
  931MPD2    H213624   4.525   3.460   1.263  2.0744 -1.4913  2.3826
  931MPD2    H313625   4.547   3.245   1.359 -0.6685 -1.1762 -0.3577
  931MPD2     N13626   4.134   3.258   1.524  0.4774  0.0842 -0.0701
  931MPD2    H513627   4.155   3.170   1.569  3.1932  0.8835  0.2037
  931MPD2    N113628   4.325   3.632   1.280  0.0810  0.7943 -0.0213
  931MPD2    H713629   4.401   3.657   1.217  0.4753  0.6033  0.3903
  932MPD2     C13630   1.005   2.956  11.679  0.1117 -0.4223 -0.2820
  932MPD2    C113631   1.140   2.934  11.705 -0.8704 -0.6493 -0.7190
  932MPD2    C213632   1.173   2.827  11.791  0.9956  0.0685 -0.0520
  932MPD2    C313633   1.082   2.744  11.848 -0.1678  0.4761 -1.2337
  932MPD2    C413634   0.951   2.772  11.817  0.2875  0.7618 -0.3339
  932MPD2    C513635   0.914   2.872  11.730  0.1618  0.7600 -0.1932
  932MPD2     H13636   1.274   2.800  11.822  0.7484 -0.4006  0.3593
  932MPD2    H113637   0.866   2.717  11.855 -0.5749  1.4523 -1.2725
  932MPD2    H213638   0.972   3.032  11.608 -0.6501 -1.5297 -1.1105
  932MPD2    H313639   0.809   2.861  11.708  0.1067 -0.0725  0.4707
  932MPD2     N13640   1.115   2.625  11.918 -0.7742 -0.4730 -0.4117
  932MPD2    H513641   1.037   2.563  11.933 -1.1875  0.0736 -0.3137
  932MPD2    N113642   1.245   3.012  11.645 -0.4129 -0.1898  0.0961
  932MPD2    H713643   1.336   3.007  11.689  0.4015  1.7985 -1.3666
  933MPD2     C13644   2.174   1.743   2.051 -0.9265  0.4645 -0.5580
  933MPD2    C113645   2.179   1.803   1.933  0.3538  1.1561  0.0505
  933MPD2    C213646   2.073   1.880   1.892 -0.2306  0.2592  0.2201
  933MPD2    C313647   1.959   1.876   1.960 -0.2941  0.1679  0.4408
  933MPD2    C413648   1.950   1.803   2.079  0.7081 -0.2922  0.1263
  933MPD2    C513649   2.060   1.741   2.122  0.4785 -0.0083 -0.0292
  933MPD2     H13650   2.071   1.922   1.792 -0.6013 -0.6453 -0.1518
  933MPD2    H113651   1.852   1.791   2.124  1.4653 -1.0391  1.5494
  933MPD2    H213652   2.251   1.673   2.084 -1.4777 -0.2240 -0.7287
  933MPD2    H313653   2.063   1.675   2.208 -0.2375  0.9771  0.7501
  933MPD2     N13654   1.847   1.924   1.894 -0.2521  0.5145 -0.1515
  933MPD2    H513655   1.855   1.985   1.814  1.0401  0.4085 -0.1027
  933MPD2    N113656   2.302   1.786   1.865  0.0216 -0.8458 -0.9176
  933MPD2    H713657   2.370   1.735   1.920 -0.9589 -0.5858  0.5092
  934MPD2     C13658   1.932   0.141   1.913  0.4524 -0.3233  0.0028
  934MPD2    C113659   2.023   0.038   1.902  0.4280 -0.2886  0.0922
  934MPD2    C213660   1.991   4.647   1.827 -0.5119  0.7576  0.2006
  934MPD2    C313661   1.871   4.641   1.758 -0.7071 -0.5043  0.0248
  934MPD2    C413662   1.785   0.029   1.763  0.3566  0.1570  0.2556
  934MPD2    C513663   1.813   0.134   1.846  0.3967  0.2992 -0.1146
  934MPD2     H13664   2.067   4.569   1.828 -1.3374 -0.0377  0.7799
  934MPD2    H113665   1.699   0.027   1.698 -0.4828 -1.9796  1.4234
  934MPD2    H213666   1.948   0.235   1.964  1.1646 -1.5553  2.0243
  934MPD2    H313667   1.751   0.223   1.847 -1.3517 -0.9453  3.1043
  934MPD2     N13668   1.842   4.544   1.661  0.2269  0.1389  0.6299
  934MPD2    H513669   1.757   4.560   1.608 -0.4771  0.6575  1.8934
  934MPD2    N113670   2.161   0.043   1.954 -0.3354 -1.0579  0.1625
  934MPD2    H713671   2.220   4.683   1.931 -1.0822 -2.0123  1.5090
  935MPD2     C13672   2.425   3.981   1.056 -0.2595  0.2193 -0.3972
  935MPD2    C113673   2.309   3.908   1.068  0.5794 -0.3692  0.1913
  935MPD2    C213674   2.206   3.975   1.138 -0.0895 -0.5776 -0.1035
  935MPD2    C313675   2.223   4.099   1.194  0.0610  0.2806 -0.4063
  935MPD2    C413676   2.339   4.175   1.172 -0.3787 -0.0424 -0.9264
  935MPD2    C513677   2.438   4.109   1.111  0.6549 -0.0052 -0.2361
  935MPD2     H13678   2.113   3.920   1.146 -0.2700  0.3299  3.8003
  935MPD2    H113679   2.355   4.280   1.194 -0.4111 -0.3092  0.3975
  935MPD2    H213680   2.511   3.945   1.001 -0.4526 -1.0788  0.1583
  935MPD2    H313681   2.534   4.158   1.110  2.0610 -2.6890  2.5797
  935MPD2     N13682   2.117   4.161   1.266  0.1011  1.2351 -0.0244
  935MPD2    H513683   2.129   4.257   1.295  0.0026  0.9176  1.0724
  935MPD2    N113684   2.294   3.788   1.007 -0.3361 -0.0923 -1.0757
  935MPD2    H713685   2.202   3.745   1.003 -0.1805 -0.5220 -0.1781
  936MPD2     C13686   1.327   1.873  12.434 -0.6609 -0.0796 -0.0517
  936MPD2    C113687   1.401   1.882  12.552 -0.0833  0.0535  0.4261
  936MPD2    C213688   1.533   1.910  12.544  0.2929  0.7626  0.4067
  936MPD2    C313689   1.591   1.957  12.429  0.5317  0.3257 -0.5469
  936MPD2    C413690   1.516   1.952  12.316 -0.1074  0.6673 -0.2500
  936MPD2    C513691   1.389   1.919  12.320  0.5661  0.2481  0.0554
  936MPD2     H13692   1.583   1.896  12.638  0.8546  0.2173  0.0258
  936MPD2    H113693   1.559   1.978  12.220 -1.3961  0.0269 -1.0002
  936MPD2    H213694   1.222   1.846  12.433 -0.4582 -0.8427 -0.4877
  936MPD2    H313695   1.331   1.913  12.229  0.8709 -1.8209 -0.0216
  936MPD2     N13696   1.725   1.999  12.435 -0.0247 -0.3574  0.4167
  936MPD2    H513697   1.775   1.983  12.522 -2.7599 -1.7374  1.7084
  936MPD2    N113698   1.354   1.841  12.682  0.0055  0.2800 -0.4076
  936MPD2    H713699   1.416   1.863  12.759 -0.3849  1.3324 -0.4000
  937MPD2     C13700   4.167   2.682  12.036  1.1292 -0.7426  0.2888
  937MPD2    C113701   4.236   2.793  12.003  0.0633  0.5234  0.2663
  937MPD2    C213702   4.292   2.806  11.878  0.4123 -0.7685 -0.4877
  937MPD2    C313703   4.284   2.694  11.793  0.1462 -0.8022 -0.0443
  937MPD2    C413704   4.213   2.582  11.831 -0.2759 -0.3158 -0.1946
  937MPD2    C513705   4.147   2.576  11.945 -0.9702 -0.0560 -0.9492
  937MPD2     H13706   4.346   2.896  11.851 -1.7127  0.1579 -1.6577
  937MPD2    H113707   4.204   2.501  11.760 -1.8030  1.1849 -1.7221
  937MPD2    H213708   4.125   2.678  12.136  0.7055  0.0791  0.1480
  937MPD2    H313709   4.091   2.487  11.971 -2.0380  0.6601 -0.8120
  937MPD2     N13710   4.356   2.702  11.670 -0.2906 -0.4273 -0.4650
  937MPD2    H513711   4.413   2.784  11.656  0.8493 -1.1261  0.1101
  937MPD2    N113712   4.238   2.913  12.078  0.1478  0.8011  0.3610
  937MPD2    H713713   4.271   2.996  12.030  1.6377 -0.3032 -0.5098
  938MPD2     C13714   0.981   3.869   0.888  0.2415  0.5701  0.1319
  938MPD2    C113715   1.104   3.908   0.933  0.1306 -0.0338 -0.2617
  938MPD2    C213716   1.193   3.816   0.987 -0.3970  0.4810 -0.0408
  938MPD2    C313717   1.145   3.690   1.012 -0.3415 -0.3941 -0.0202
  938MPD2    C413718   1.027   3.646   0.957  0.3580  0.7929  0.1314
  938MPD2    C513719   0.941   3.732   0.895  0.3871 -0.4334 -0.8108
  938MPD2     H13720   1.287   3.846   1.032 -0.7871  0.7674  0.5888
  938MPD2    H113721   1.003   3.540   0.957 -0.6209  1.0182  1.1450
  938MPD2    H213722   0.907   3.937   0.847 -0.6731 -0.2171  0.4585
  938MPD2    H313723   0.853   3.695   0.843  0.2864  1.0138 -1.6836
  938MPD2     N13724   1.222   3.594   1.090 -0.0291  0.1393  0.4759
  938MPD2    H513725   1.204   3.495   1.075  0.2679 -0.2060  2.4161
  938MPD2    N113726   1.154   4.042   0.926  0.4211  0.3932  0.0500
  938MPD2    H713727   1.250   4.066   0.946  1.5234 -1.4685 -2.9995
  939MPD2     C13728   2.876   0.190   1.312 -0.1585  0.6173  0.5665
  939MPD2    C113729   2.802   0.194   1.198 -0.2478 -0.0084  0.4065
  939MPD2    C213730   2.862   0.217   1.080 -0.2950  0.4740 -0.3827
  939MPD2    C313731   2.996   0.233   1.069 -0.5886 -0.2369 -0.1857
  939MPD2    C413732   3.065   0.236   1.186  0.6736  0.1947 -0.1165
  939MPD2    C513733   3.016   0.196   1.305 -0.9248 -1.1514 -0.7606
  939MPD2     H13734   2.819   0.209   0.980  1.3478 -1.7091 -0.9065
  939MPD2    H113735   3.172   0.252   1.192  0.6035  1.1936 -1.6784
  939MPD2    H213736   2.833   0.156   1.406 -2.4817  1.4621 -0.1954
  939MPD2    H313737   3.081   0.182   1.390 -1.2950  2.5621  0.1739
  939MPD2     N13738   3.060   0.241   0.936  0.5657  0.2663  0.2921
  939MPD2    H513739   3.005   0.230   0.851  2.3788 -2.7186 -0.4898
  939MPD2    N113740   2.661   0.182   1.224  0.0785  0.1729 -0.6044
  939MPD2    H713741   2.641   0.175   1.323  0.0258  0.4494 -0.5943
  940MPD2     C13742   1.901   1.196  13.167 -0.2548 -0.0847  0.2954
  940MPD2    C113743   2.028   1.221  13.217 -0.1761  0.6079  0.3488
  940MPD2    C213744   2.119   1.281  13.128  0.6726  0.4825  0.9370
  940MPD2    C313745   2.087   1.311  12.993  0.1549 -0.1365 -0.2474
  940MPD2    C413746   1.958   1.287  12.950 -0.1048 -0.5015  0.0560
  940MPD2    C513747   1.869   1.218  13.031 -0.2065 -0.0462 -0.0831
  940MPD2     H13748   2.218   1.297  13.169  1.2600 -1.0177  0.0891
  940MPD2    H113749   1.932   1.290  12.845 -1.1432  2.9731  0.4062
  940MPD2    H213750   1.822   1.141  13.217  0.4272 -0.6686  0.7324
  940MPD2    H313751   1.776   1.181  12.989 -0.3030  0.5351 -0.3855
  940MPD2     N13752   2.177   1.363  12.897  0.2683  1.2035 -0.7832
  940MPD2    H513753   2.143   1.388  12.805 -2.2181 -0.2669 -0.2408
  940MPD2    N113754   2.070   1.181  13.344 -0.0297  0.0590 -0.2643
  940MPD2    H713755   2.159   1.221  13.371 -0.3516 -0.7523  2.0308
  941MPD2     C13756   1.577   0.422   9.286 -0.8767  0.3379  0.1810
  941MPD2    C113757   1.603   0.431   9.426 -0.4267  0.1734 -0.5704
  941MPD2    C213758   1.567   0.332   9.519  0.1055 -0.0296 -0.2892
  941MPD2    C313759   1.504   0.219   9.465 -0.0514 -0.7411  0.2099
  941MPD2    C413760   1.475   0.210   9.331 -0.3055 -0.2405  0.5013
  941MPD2    C513761   1.520   0.306   9.240 -0.0949  0.2241 -0.3803
  941MPD2     H13762   1.589   0.341   9.624  3.0175  1.0282 -0.9975
  941MPD2    H113763   1.417   0.128   9.290  1.9386 -1.4774 -0.1664
  941MPD2    H213764   1.615   0.500   9.221 -1.6831  1.3633  0.9492
  941MPD2    H313765   1.500   0.291   9.135 -2.7691  1.7410 -0.0886
  941MPD2     N13766   1.453   0.114   9.551 -0.3778  0.3701  0.4378
  941MPD2    H513767   1.394   0.045   9.506  1.5716 -0.7058 -0.5065
  941MPD2    N113768   1.683   0.531   9.483  0.0373 -0.4288 -0.8401
  941MPD2    H713769   1.695   0.522   9.584 -2.5970  1.0094 -0.3897
  942MPD2     C13770   0.503   2.183   9.658  0.2453  0.1794 -0.0346
  942MPD2    C113771   0.553   2.308   9.697  0.2915 -0.6089 -0.4651
  942MPD2    C213772   0.685   2.338   9.676  0.4778  0.5161  0.1455
  942MPD2    C313773   0.771   2.258   9.608 -0.1043 -0.5703 -0.6895
  942MPD2    C413774   0.722   2.132   9.567 -0.5114  0.7042  0.5425
  942MPD2    C513775   0.589   2.094   9.597  0.1108 -0.2887  0.0006
  942MPD2     H13776   0.717   2.432   9.719 -0.3522  1.9206 -2.3378
  942MPD2    H113777   0.783   2.070   9.502 -0.8166  2.4334 -1.3948
  942MPD2    H213778   0.398   2.158   9.661 -0.2816  2.4783  0.0271
  942MPD2    H313779   0.564   1.991   9.575  2.7574 -0.9968  0.3532
  942MPD2     N13780   0.912   2.287   9.576  0.0609 -0.1152  0.0426
  942MPD2    H513781   0.962   2.213   9.529  2.4490  0.7084  1.2959
  942MPD2    N113782   0.467   2.413   9.745 -0.5417 -0.0799 -0.5054
  942MPD2    H713783   0.512   2.504   9.746 -0.1638 -0.2693  0.0821
  943MPD2     C13784   0.367   3.580   9.971  0.4037 -0.0923 -0.2023
  943MPD2    C113785   0.375   3.554   9.836  0.4366  0.4184 -0.3171
  943MPD2    C213786   0.427   3.652   9.757 -0.2249  0.2269  0.1676
  943MPD2    C313787   0.481   3.768   9.813  0.3197 -0.1831 -0.8717
  943MPD2    C413788   0.489   3.784   9.948 -0.2373  0.3682  0.1466
  943MPD2    C513789   0.421   3.693  10.028  0.6268  0.1670  0.5377
  943MPD2     H13790   0.420   3.651   9.649 -1.3733  0.5099  0.2372
  943MPD2    H113791   0.534   3.870   9.995  0.1838  0.3102 -0.1461
  943MPD2    H213792   0.326   3.509  10.041  0.3674  1.7796  1.6736
  943MPD2    H313793   0.425   3.699  10.136 -3.2701  1.8271  0.5938
  943MPD2     N13794   0.537   3.870   9.737  0.1849 -0.6025  0.1437
  943MPD2    H513795   0.569   3.949   9.792  1.5228 -0.8833 -0.2447
  943MPD2    N113796   0.322   3.429   9.793  0.1513  0.2202  0.0543
  943MPD2    H713797   0.278   3.368   9.862  3.4540 -0.3412  1.6494
  944MPD2     C13798   0.174   0.411  11.131 -0.2475 -0.0307  0.6480
  944MPD2    C113799   0.182   0.298  11.061  0.6727  0.1527  0.0918
  944MPD2    C213800   0.152   0.178  11.114 -0.1957 -0.8851 -0.4813
  944MPD2    C313801   0.130   0.166  11.252 -0.2206 -0.2520 -0.7281
  944MPD2    C413802   0.124   0.284  11.326 -0.1551 -0.1878  0.5465
  944MPD2    C513803   0.142   0.403  11.265  0.2792  0.0840 -0.2028
  944MPD2     H13804   0.144   0.093  11.047 -1.1602  0.0638 -1.5511
  944MPD2    H113805   0.106   0.293  11.433  0.5714  0.5880  0.6024
  944MPD2    H213806   0.210   0.499  11.080  0.6565 -0.8577 -0.1287
  944MPD2    H313807   0.144   0.495  11.323  2.7830 -0.3542  0.4282
  944MPD2     N13808   0.121   0.035  11.309  0.0607 -0.5407  0.0393
  944MPD2    H513809   0.128   4.673  11.248  0.3850 -0.5126  0.0344
  944MPD2    N113810   0.228   0.317  10.926  0.0660 -0.2530  0.0198
  944MPD2    H713811   0.247   0.415  10.907  3.0659 -0.1891  3.3070
    1TCq1    O113812   2.484   0.097  14.013 -0.0825 -0.3512 -0.3739
    1TCq1    C113813   2.566   0.069  13.909 -0.4713  0.1669  0.1444
    1TCq1    O213814   2.525   0.048  13.796 -0.0551 -0.5854  0.3675
    1TCq1    C213815   2.688   0.137  13.939 -0.3448  0.5003 -0.3575
    1TCq1    C313816   2.745   0.202  13.836  0.1724 -0.4480 -0.2037
    1TCq1    C413817   2.825   0.309  13.856 -0.1599 -0.3228 -0.9487
    1TCq1    C513818   2.871   0.336  13.980 -0.3485 -0.4819 -0.4220
    1TCq1    C613819   2.823   0.257  14.082  0.5709 -0.4339  0.1339
    1TCq1    C713820   2.733   0.157  14.067 -0.3615 -0.1294  0.0527
    1TCq1    C813821   2.863   0.289  14.213  0.2873  0.2549  0.5319
    1TCq1    O413822   2.885   0.202  14.297 -0.4975  0.4495 -0.1377
    1TCq1    C913823   2.883   0.383  13.741  0.4737 -0.8813 -0.1941
    1TCq1    O513824   2.842   0.358  13.630  0.2870  0.1161  0.0084
    1TCq1    O613825   2.984   0.457  13.762  0.2908 -0.1017  0.1773
    1TCq1    H113826   2.514   0.144  14.093 -2.4602 -0.1083  0.3557
    1TCq1    H213827   2.703   0.189  13.737  0.5306 -0.7655 -0.3158
    1TCq1    H313828   2.956   0.401  13.995 -0.1784 -1.4886  3.0416
    1TCq1    H413829   2.687   0.114  14.155  0.1211 -0.6517  0.0492
    2MPD2     C13830   3.136   0.637  14.477 -0.3567  0.9736 -0.2568
    2MPD2    C113831   3.046   0.708  14.392 -0.6082 -0.1425  0.2669
    2MPD2    C213832   2.969   0.636  14.304 -0.5535  0.0013  0.3853
    2MPD2    C313833   2.962   0.495  14.306  0.3492  0.1649 -0.1212
    2MPD2    C413834   3.046   0.434  14.397  0.2472  0.3791 -0.3545
    2MPD2    C513835   3.136   0.495  14.474  0.3132 -0.1147 -0.2819
    2MPD2     H13836   2.901   0.686  14.237 -0.4893  1.7275  1.6123
    2MPD2    H113837   3.063   0.327  14.392  1.7763  0.6153  0.0477
    2MPD2    H213838   3.202   0.686  14.548 -1.0760 -0.2567  1.2294
    2MPD2    H313839   3.196   0.421  14.526  2.4033  1.5705 -0.3071
    2MPD2     N13840   2.886   0.425  14.211  0.1837  0.1223 -0.4958
    2MPD2    H513841   2.829   0.480  14.147 -2.0100 -0.5104  0.8987
    2MPD2    N113842   3.046   0.848  14.400 -0.1149 -0.2490 -0.4123
    2MPD2    H713843   3.121   0.892  14.452  1.4355 -0.0466 -2.8136
    3TMC2    C113844   2.974   1.066  14.386 -0.2308  0.2536 -0.2400
    3TMC2    C213845   2.987   1.071  14.523  0.4331  0.4704  0.3906
    3TMC2    C313846   3.033   1.185  14.576 -0.6140  0.6367  0.4843
    3TMC2    C413847   2.984   1.167  14.298 -0.5399  0.3081 -0.6648
    3TMC2    C513848   3.029   1.278  14.355 -0.4943 -0.2477 -0.1497
    3TMC2    C613849   3.047   1.295  14.497  0.0074  0.8766 -0.5226
    3TMC2     C13850   2.961   0.936  14.332 -0.4058 -0.7088 -0.2505
    3TMC2     O13851   2.884   0.913  14.245 -0.8080 -0.5130  0.1640
    3TMC2     H13852   2.960   0.991  14.590 -1.0779  0.4582 -0.2227
    3TMC2    H113853   2.974   1.146  14.192  0.0452 -2.0550 -0.2481
    3TMC2    H213854   3.070   1.390  14.543  1.5375 -1.2651  3.1500
    3TMC2    C713855   3.059   1.388  14.268  0.1027 -0.2147 -0.2073
    3TMC2    C813856   3.053   1.203  14.721 -0.7870 -0.0389 -0.1067
    3TMC2    O113857   3.148   1.463  14.306 -0.2199  0.0734  0.0833
    3TMC2    O213858   3.073   1.311  14.771  0.6165  0.2651  0.3718
    3TMC2    O513859   3.126   1.096  14.755  0.5691 -0.0215 -0.2099
    3TMC2    H513860   3.155   1.028  14.690  2.5042 -0.1280  0.7452
    4MPD2     C13861   1.741   1.874  13.699 -0.0578  0.0036 -0.0683
    4MPD2    C113862   1.808   1.942  13.605 -0.2754  0.3348  0.2105
    4MPD2    C213863   1.943   1.921  13.593  0.1373  0.7335 -0.6381
    4MPD2    C313864   2.011   1.825  13.658 -0.0134  0.9009 -0.0767
    4MPD2    C413865   1.946   1.766  13.762  0.0223  0.2607  0.2981
    4MPD2    C513866   1.810   1.785  13.776 -0.8277  0.0739  0.1042
    4MPD2     H13867   2.004   1.984  13.531  2.2410 -0.8342 -0.1486
    4MPD2    H113868   1.994   1.696  13.830 -1.8743 -1.6677 -0.3514
    4MPD2    H213869   1.635   1.892  13.712  0.4704  2.3130  1.0492
    4MPD2    H313870   1.765   1.731  13.858  1.5292 -3.2205 -0.7559
    4MPD2     N13871   2.150   1.803  13.635  0.1430  0.4462 -0.4737
    4MPD2    H513872   2.190   1.845  13.552  0.4151  2.5960  0.7438
    4MPD2    N113873   1.733   2.034  13.522 -0.3205 -0.5024 -0.4178
    4MPD2    H713874   1.632   2.039  13.534 -0.1539 -2.5157  1.8298
    5TCq2    C113875   2.233   1.737  13.725 -0.3591  0.2747  0.3048
    5TCq2    O213876   2.219   1.706  13.841  0.2445 -0.1814 -0.9339
    5TCq2    C213877   2.358   1.711  13.654  0.3339  0.2618  1.2555
    5TCq2    C313878   2.390   1.784  13.542  0.1486 -0.0601  0.1167
    5TCq2    C413879   2.515   1.781  13.484 -0.0377 -0.0626 -0.2923
    5TCq2    C513880   2.602   1.698  13.546 -0.5393  0.2044 -0.6466
    5TCq2    C613881   2.569   1.626  13.657  0.3157  0.2186  0.4793
    5TCq2    C713882   2.448   1.632  13.714 -0.1712 -0.1066  0.1663
    5TCq2    C813883   2.665   1.574  13.756  0.1019 -0.2381  0.8047
    5TCq2    O413884   2.621   1.486  13.830 -0.4080 -0.1508  0.3643
    5TCq2    C913885   2.544   1.851  13.363  0.8212  0.2504 -0.6348
    5TCq2    O513886   2.440   1.888  13.299  0.2267  0.4105 -0.1530
    5TCq2    O613887   2.661   1.824  13.314  0.8418 -0.2255  0.1379
    5TCq2    H213888   2.321   1.854  13.497 -1.0594 -1.9346 -0.9112
    5TCq2    H313889   2.702   1.690  13.505 -0.8985 -1.7589 -1.1589
    5TCq2    H413890   2.413   1.576  13.800 -1.1811 -1.1248 -0.9124
    6MPD1     C13891   1.071   3.480  12.535  0.4631  0.1310  0.4686
    6MPD1    C113892   0.980   3.394  12.591 -0.0491  0.0246 -0.8182
    6MPD1    C213893   1.002   3.351  12.722  0.3308 -0.1303  0.0653
    6MPD1    C313894   1.106   3.408  12.802  0.2658  0.3452  0.0565
    6MPD1    C413895   1.198   3.484  12.741 -0.2874  0.5670 -0.8454
    6MPD1    C513896   1.183   3.517  12.609  0.6420 -0.0300 -0.0701
    6MPD1     H13897   0.932   3.279  12.762  2.3867 -2.4492 -0.4873
    6MPD1    H113898   1.279   3.530  12.796  2.0687 -2.2836 -1.9450
    6MPD1    H213899   1.057   3.515  12.433 -1.0520 -1.3201  0.1782
    6MPD1    H313900   1.257   3.585  12.568 -0.3434 -0.2974 -2.3205
    6MPD1     N13901   1.133   3.375  12.938  0.5557  0.9302  0.4404
    6MPD1    H513902   1.220   3.414  12.974  1.2617 -0.0503 -0.2040
    6MPD1    N113903   0.863   3.361  12.522  0.3783  1.1898  0.0861
    6MPD1    H613904   0.820   3.274  12.551  0.6092 -0.1190 -3.5023
    6MPD1    H713905   0.842   3.381  12.425 -1.0337  0.7796  0.3137
    7MPD2     C13906   1.024   2.700  13.358 -0.4716  0.5680  0.1418
    7MPD2    C113907   1.153   2.731  13.370  0.2238  0.1047 -0.1671
    7MPD2    C213908   1.243   2.629  13.373 -0.0753  0.2672 -0.7554
    7MPD2    C313909   1.204   2.495  13.363  0.4549  0.0507  0.2395
    7MPD2    C413910   1.069   2.469  13.354 -0.0140 -0.3265  0.8192
    7MPD2    C513911   0.980   2.573  13.350 -0.6810 -0.7820 -0.2352
    7MPD2     H13912   1.347   2.658  13.363  0.0517  0.6138  1.6708
    7MPD2    H113913   1.022   2.371  13.359 -0.3993 -0.2119 -0.6338
    7MPD2    H213914   0.947   2.773  13.338 -1.2136 -0.8854 -2.2576
    7MPD2    H313915   0.873   2.556  13.341 -0.4802 -0.9742 -2.2381
    7MPD2     N13916   1.291   2.385  13.355 -0.8895  0.4199 -0.3425
    7MPD2    H513917   1.248   2.296  13.331  0.3466 -0.4483  0.6658
    7MPD2    N113918   1.205   2.865  13.377 -0.1142 -0.2006 -0.1487
    7MPD2    H713919   1.305   2.878  13.382  0.2373 -2.6293 -0.6299
    8TMC3    C113920   1.478   2.269  13.297 -0.6078  0.4400 -0.1666
    8TMC3    C213921   1.564   2.206  13.383 -0.1991 -0.5346  0.0136
    8TMC3    C313922   1.698   2.193  13.346 -0.9028 -0.1976 -0.2738
    8TMC3    C413923   1.530   2.302  13.172  0.1733 -0.1547 -0.1803
    8TMC3    C513924   1.663   2.295  13.141  0.5552 -0.9975  0.3272
    8TMC3    C613925   1.744   2.252  13.235 -0.2864  0.0115  0.1580
    8TMC3     C13926   1.429   2.383  13.365  0.4561 -0.1101 -0.5372
    8TMC3     O13927   1.513   2.474  13.366  0.4221 -0.0786  0.0010
    8TMC3     H13928   1.521   2.182  13.480  0.6055 -0.8755  0.2895
    8TMC3    H113929   1.462   2.351  13.103  0.7951  0.2088 -0.5334
    8TMC3    H213930   1.846   2.237  13.199 -0.1244  1.7941 -0.1218
    8TMC3    C713931   1.712   2.411  13.069  0.0440  0.2832  0.1858
    8TMC3    C813932   1.791   2.122  13.430 -0.4818  0.4283  0.7634
    8TMC3    O113933   1.809   2.396  12.999 -0.3729  0.4293 -0.6065
    8TMC3    O213934   1.910   2.144  13.412  0.4104 -0.8814  0.5030
    9TMC3    C113935   1.144   3.248  13.136 -0.5526 -0.7018  0.5784
    9TMC3    C213936   1.276   3.227  13.100  0.0404 -0.2825 -0.2970
    9TMC3    C313937   1.360   3.154  13.181 -0.4220 -0.5125  0.4374
    9TMC3    C413938   1.082   3.175  13.235  0.1936 -0.3564  0.0009
    9TMC3    C513939   1.170   3.093  13.310 -0.0075 -0.1232 -0.1126
    9TMC3    C613940   1.307   3.089  13.290 -0.4613 -0.4223 -0.2825
    9TMC3     C13941   1.058   3.302  13.029 -0.2741 -0.2797 -0.3196
    9TMC3     O13942   0.941   3.264  13.018 -0.4388 -0.6789 -0.1782
    9TMC3     H13943   1.334   3.280  13.026 -0.0682 -1.8980 -1.5322
    9TMC3    H113944   0.976   3.177  13.259 -0.1296 -0.5175 -1.3944
    9TMC3    H213945   1.374   3.050  13.366  0.5189  0.0645 -0.8963
    9TMC3    C713946   1.115   2.969  13.360 -0.2766  0.1825  0.0817
    9TMC3    C813947   1.464   3.086  13.107 -0.0715 -1.0237  0.0329
    9TMC3    O113948   0.991   2.971  13.378  0.6937  0.0039  0.4424
    9TMC3    O213949   1.486   3.120  12.994 -0.1829 -0.3984  0.6609
   10MPD2     C13950   1.739   2.681  12.958 -0.1682 -0.1686  0.1803
   10MPD2    C113951   1.660   2.647  13.066  0.5073  0.5467  0.0772
   10MPD2    C213952   1.588   2.749  13.137  0.2921  0.1990 -0.1675
   10MPD2    C313953   1.592   2.876  13.091 -0.2976 -0.9235  0.4648
   10MPD2    C413954   1.672   2.911  12.982 -0.0283  0.1135 -0.4980
   10MPD2    C513955   1.746   2.811  12.919  0.1026  0.5711 -0.9227
   10MPD2     H13956   1.522   2.722  13.218 -1.3612  3.0709 -0.5879
   10MPD2    H113957   1.677   3.016  12.956 -1.2593  0.2288 -0.2890
   10MPD2    H213958   1.795   2.600  12.912  1.2620  0.7756  0.2691
   10MPD2    H313959   1.807   2.835  12.832 -0.2829 -1.3981 -1.7361
   10MPD2     N13960   1.504   2.965  13.160  0.4030  0.2551 -0.3468
   10MPD2    H513961   1.463   2.938  13.249 -1.1959 -0.2125 -1.2340
   10MPD2    N113962   1.640   2.519  13.117  0.0153 -0.2795 -0.7152
   10MPD2    H713963   1.579   2.513  13.197  1.4985  0.8992  0.5194
   11MPD2     C13964   3.088   1.584  14.038 -0.3417  0.7771  0.9786
   11MPD2    C113965   2.978   1.497  14.053 -0.4145 -0.4117  0.1377
   11MPD2    C213966   2.876   1.516  13.960  0.4211  1.0234 -0.0907
   11MPD2    C313967   2.881   1.618  13.861 -0.3505 -0.2906 -1.3249
   11MPD2    C413968   2.986   1.709  13.863 -0.7114  0.0031 -0.3583
   11MPD2    C513969   3.088   1.686  13.949  0.1993 -0.2563 -0.3487
   11MPD2     H13970   2.789   1.454  13.981  1.2303 -0.1454 -0.1972
   11MPD2    H113971   3.004   1.787  13.790 -1.0320  0.3865 -0.0251
   11MPD2    H213972   3.170   1.584  14.109  0.2288  0.6777  0.3330
   11MPD2    H313973   3.171   1.755  13.939  0.4421 -0.7947 -2.0960
   11MPD2     N13974   2.781   1.648  13.766 -0.2141 -0.0013  0.4441
   11MPD2    H513975   2.788   1.728  13.704 -1.3175 -0.4876 -0.3013
   11MPD2    N113976   2.969   1.396  14.160 -0.1663 -0.7009  0.0976
   11MPD2    H713977   2.891   1.331  14.157 -0.1008 -0.7862  0.2550
    1MPD1     C13978   0.025   2.428  17.252 -0.3948  0.7717  0.2676
    1MPD1    C113979   0.110   2.516  17.323 -1.5604  0.8525 -0.0738
    1MPD1    C213980   0.239   2.527  17.290  0.1479  0.8083  0.1732
    1MPD1    C313981   0.290   2.450  17.182  0.0218 -0.2321  0.2903
    1MPD1    C413982   0.212   2.356  17.114 -0.0535  0.2656 -0.4339
    1MPD1    C513983   0.079   2.345  17.155  0.1630  0.2285 -0.2218
    1MPD1     H13984   0.304   2.591  17.349  0.3940 -0.3654  1.1686
    1MPD1    H113985   0.248   2.293  17.034 -1.3030  0.3862 -1.0922
    1MPD1    H213986   4.638   2.418  17.272 -0.0879  1.7170  2.3948
    1MPD1    H313987   0.013   2.270  17.114 -1.4082  1.2275  0.4727
    1MPD1     N13988   0.427   2.469  17.140 -0.1993 -0.4450  0.4370
    1MPD1    H513989   0.460   2.407  17.067  0.3688 -1.1779  1.3192
    1MPD1    N113990   0.055   2.579  17.431  0.3971  0.5415 -0.0114
    1MPD1    H613991   4.675   2.580  17.409  0.9405  1.2826 -2.3809
    1MPD1    H713992   0.084   2.676  17.436  1.0439  0.4090 -1.2879
    2MPD1     C13993   1.088   3.117  16.615  0.1379  0.3945  1.4379
    2MPD1    C113994   1.124   2.985  16.595 -0.3598 -0.7027  0.5880
    2MPD1    C213995   1.058   2.885  16.663 -0.0838 -0.0091 -0.0564
    2MPD1    C313996   0.975   2.918  16.771  0.1805 -1.0333  0.9071
    2MPD1    C413997   0.940   3.050  16.791  0.4655 -0.5110 -0.3963
    2MPD1    C513998   0.997   3.145  16.714  0.2863  0.0328 -0.9519
    2MPD1     H13999   1.073   2.784  16.627  1.5088 -0.5301  2.0008
    2MPD1    H114000   0.872   3.081  16.870  0.4232  0.5115 -0.8324
    2MPD1    H214001   1.130   3.199  16.558 -0.2294  0.6081  1.4761
    2MPD1    H314002   0.968   3.246  16.742 -1.6373 -1.0820  1.1023
    2MPD1     N14003   0.919   2.807  16.841  0.0026  0.1927  0.2667
    2MPD1    H514004   0.973   2.722  16.828  0.0394 -0.0163  1.7852
    2MPD1    N114005   1.191   2.956  16.475  0.4751 -0.5140 -0.5498
    2MPD1    H614006   1.265   3.022  16.455  0.1335 -0.0615 -0.3178
    2MPD1    H714007   1.238   2.866  16.474  1.4082 -0.0376  1.4965
    3TMC3    C114008   0.763   2.677  16.968  0.2848 -0.0823  0.1824
    3TMC3    C214009   0.809   2.562  16.906  0.5980  0.1841  0.1399
    3TMC3    C314010   0.756   2.448  16.952 -0.1382  1.0722 -0.4769
    3TMC3    C414011   0.688   2.683  17.084 -0.4066 -0.3291 -0.4780
    3TMC3    C514012   0.641   2.560  17.125 -0.4303 -0.0110 -0.1080
    3TMC3    C614013   0.666   2.443  17.057  0.2190 -0.0628 -0.8688
    3TMC3     C14014   0.800   2.808  16.919 -0.3542  0.2649  0.0495
    3TMC3     O14015   0.739   2.908  16.949  0.1726 -0.4937 -0.6113
    3TMC3     H14016   0.845   2.570  16.804  0.9924  1.4507  0.3743
    3TMC3    H114017   0.650   2.777  17.121 -1.7251 -0.6357 -1.0551
    3TMC3    H214018   0.637   2.345  17.091 -0.0715  1.3143  2.8491
    3TMC3    C714019   0.509   2.575  17.186 -0.9617  0.0348  0.6154
    3TMC3    C814020   0.810   2.320  16.913 -0.3087  0.4591  0.0458
    3TMC3    O114021   0.498   2.676  17.257  0.8012  0.4816 -0.2812
    3TMC3    O214022   0.781   2.215  16.970 -0.3333 -0.1277  0.2047
    4MPD1     C14023   1.141   2.036  16.639  0.1150 -0.6369  0.0871
    4MPD1    C114024   1.184   2.166  16.644 -0.5020 -0.0602  0.3577
    4MPD1    C214025   1.110   2.262  16.710  0.7721 -0.5037 -0.0528
    4MPD1    C314026   0.996   2.235  16.776 -0.3916 -0.8667  0.7035
    4MPD1    C414027   0.957   2.100  16.781  0.2359 -0.7195  0.0671
    4MPD1    C514028   1.032   2.003  16.710  0.5755 -0.3522  0.1949
    4MPD1     H14029   1.155   2.360  16.714 -0.8035  0.2064  0.4002
    4MPD1    H114030   0.865   2.058  16.821 -0.9122 -1.4983 -3.4263
    4MPD1    H214031   1.190   1.953  16.589  0.4604 -0.5006  0.1965
    4MPD1    H314032   0.998   1.900  16.712 -0.2306 -0.0713  1.0847
    4MPD1     N14033   0.910   2.337  16.823  0.0051 -0.0533  0.5788
    4MPD1    H514034   0.938   2.433  16.808  0.3975 -0.6525 -2.4621
    4MPD1    N114035   1.295   2.200  16.562  0.2556  0.0879 -0.6502
    4MPD1    H614036   1.354   2.267  16.612  0.5771 -0.9797  0.3947
    4MPD1    H714037   1.350   2.119  16.533  0.0999 -0.7328  1.3749
    1TCq1    O114038   2.333   2.561  11.267  0.3227 -0.3542 -0.1948
    1TCq1    C114039   2.240   2.504  11.341  0.5637  0.4909  0.3883
    1TCq1    O214040   2.142   2.448  11.296  0.2126 -0.1910  0.0240
    1TCq1    C214041   2.238   2.570  11.468 -0.3449 -0.0888  0.5439
    1TCq1    C314042   2.120   2.608  11.522 -0.2778 -0.2592 -0.9548
    1TCq1    C414043   2.109   2.633  11.648 -0.1096 -0.0109  0.5163
    1TCq1    C514044   2.216   2.624  11.729 -0.5558 -0.6546  0.9862
    1TCq1    C614045   2.338   2.601  11.679 -0.7581 -0.3345 -0.4727
    1TCq1    C714046   2.353   2.566  11.546  0.1430  0.3242 -0.4752
    1TCq1    C814047   2.454   2.644  11.763 -0.2973 -0.5763 -0.1751
    1TCq1    O414048   2.421   2.689  11.875 -0.0374 -0.2722 -0.3891
    1TCq1    C914049   1.973   2.628  11.705  0.3749 -0.0083  0.9959
    1TCq1    O514050   1.962   2.615  11.833  0.1130 -0.5395  0.2057
    1TCq1    O614051   1.871   2.642  11.631 -0.2872 -0.3741  0.0294
    1TCq1    H114052   2.395   2.619  11.316 -1.7714 -0.4617  2.5843
    1TCq1    H214053   2.037   2.584  11.456 -1.2265 -0.1652  0.1924
    1TCq1    H314054   2.207   2.646  11.835  0.2359  0.6168  0.7842
    1TCq1    H414055   2.449   2.543  11.499  0.9486 -1.5159  2.0674
    2MPD1     C14056   2.935   2.788  11.855 -0.0560  0.5520 -0.9171
    2MPD1    C114057   2.938   2.724  11.736 -0.3964 -0.1275  0.0147
    2MPD1    C214058   2.818   2.671  11.688 -0.2555 -1.2251  0.4955
    2MPD1    C314059   2.702   2.677  11.763  0.6593  0.1739  0.5424
    2MPD1    C414060   2.706   2.739  11.886  1.1373  0.7199  0.6623
    2MPD1    C514061   2.820   2.790  11.928  0.3488  0.3461 -0.1382
    2MPD1     H14062   2.822   2.611  11.597 -0.6368 -0.2124 -0.1974
    2MPD1    H114063   2.620   2.745  11.952  1.4661  3.4011  0.8557
    2MPD1    H214064   3.018   2.830  11.910 -1.8944 -0.7411  2.8497
    2MPD1    H314065   2.828   2.829  12.029  1.5360  1.1920 -0.5709
    2MPD1     N14066   2.576   2.625  11.705 -0.3873  0.4501 -0.1143
    2MPD1    H514067   2.594   2.560  11.629 -0.5904  1.4395 -0.9927
    2MPD1    N114068   3.063   2.685  11.681 -0.3107 -0.5820  0.4268
    2MPD1    H614069   3.066   2.677  11.580  1.7132 -2.9339  0.6516
    2MPD1    H714070   3.131   2.754  11.714 -0.5984 -0.2395  0.3023
    1TCq1    O114071   1.230   0.150   1.868  0.2525  0.2365  0.5297
    1TCq1    C114072   1.346   0.086   1.838 -0.5005  0.0636  0.9279
    1TCq1    O214073   1.379   4.694   1.875  0.3937 -0.9345  0.3460
    1TCq1    C214074   1.391   0.127   1.706 -0.6678  0.1726  0.1906
    1TCq1    C314075   1.464   0.036   1.634 -0.2557 -0.0624 -0.1342
    1TCq1    C414076   1.511   0.072   1.512 -0.0336  0.1247 -0.4089
    1TCq1    C514077   1.480   0.192   1.459  0.6892 -0.1794 -0.3986
    1TCq1    C614078   1.421   0.285   1.541 -0.0983  0.2355  0.2413
    1TCq1    C714079   1.376   0.261   1.668 -0.3114  0.3195 -0.4609
    1TCq1    C814080   1.344   0.391   1.471 -0.3652  0.5115  0.9918
    1TCq1    O414081   1.310   0.487   1.539 -0.2466 -0.4939  0.2813
    1TCq1    C914082   1.579   4.692   1.426 -0.1434  0.6560  0.5918
    1TCq1    O514083   1.621   4.594   1.498  0.1838 -0.1526 -0.0262
    1TCq1    O614084   1.637   0.005   1.314  0.2597  0.1637 -0.5757
    1TCq1    H114085   1.220   0.236   1.820  3.3776  0.1007 -0.3741
    1TCq1    H214086   1.478   4.652   1.664  0.7326  0.3224  0.7477
    1TCq1    H314087   1.511   0.216   1.357  2.3155  3.4506  0.9420
    1TCq1    H414088   1.334   0.335   1.735 -0.0656 -0.2536  0.3307
    2MPD1     C14089   1.047   0.558   1.090  0.5204  0.1055 -0.5307
    2MPD1    C114090   1.035   0.422   1.081  0.7542  0.5766  0.1129
    2MPD1    C214091   1.118   0.349   1.168 -0.1559  0.2509 -0.3547
    2MPD1    C314092   1.201   0.411   1.266  0.2600  0.3424  0.0045
    2MPD1    C414093   1.190   0.546   1.276  0.1724 -0.2708  0.4378
    2MPD1    C514094   1.120   0.622   1.184 -0.3682  0.5153  0.0042
    2MPD1     H14095   1.106   0.241   1.177 -0.3989  0.4683  2.0410
    2MPD1    H114096   1.257   0.594   1.347 -1.4346  0.6428  1.3435
    2MPD1    H214097   0.989   0.616   1.019 -0.6561  0.0222  0.3785
    2MPD1    H314098   1.129   0.730   1.189  0.0261  0.4522  0.6309
    2MPD1     N14099   1.289   0.341   1.354  0.4340 -0.4914  0.4030
    2MPD1    H514100   1.296   0.241   1.333  1.4929 -0.3889  0.2454
    2MPD1    N114101   0.974   0.357   0.973 -0.2502  0.5152  0.4666
    2MPD1    H614102   0.891   0.408   0.945 -1.4371 -0.7394  1.7314
    2MPD1    H714103   0.945   0.261   0.990 -2.3547  0.5919 -2.7047
    1MPD1     C14104   3.305   3.192  11.559 -0.4359 -0.1117 -0.1683
    1MPD1    C114105   3.314   3.141  11.693  0.2803 -0.4238 -0.5767
    1MPD1    C214106   3.367   3.237  11.782  0.3928 -0.2997 -0.2781
    1MPD1    C314107   3.424   3.354  11.746  0.3577  0.1533 -0.1329
    1MPD1    C414108   3.418   3.397  11.618  0.3275  0.2331 -0.3024
    1MPD1    C514109   3.345   3.324  11.531 -0.3575  0.1787  0.5357
    1MPD1     H14110   3.370   3.212  11.887 -3.4082  0.7901  0.0991
    1MPD1    H114111   3.435   3.500  11.591  2.6868  0.2975  1.3468
    1MPD1    H214112   3.254   3.134  11.483 -2.1683 -2.0816  2.4931
    1MPD1    H314113   3.324   3.357  11.430 -0.7932  0.3724  0.6923
    1MPD1     N14114   3.480   3.431  11.848 -0.0906  0.4138 -0.2984
    1MPD1    H514115   3.482   3.392  11.941 -0.9673  0.4859 -0.2461
    1MPD1    N114116   3.257   3.015  11.731  0.2966 -0.3246  0.2090
    1MPD1    H614117   3.286   2.995  11.827 -3.8397  0.8034  1.6748
    1MPD1    H714118   3.302   2.939  11.680  2.5970  0.9955  0.2661
    2MPD1     C14119   2.908   3.302  11.315 -0.8078  0.0537 -0.3889
    2MPD1    C114120   2.817   3.208  11.270 -0.7416 -0.5436 -0.3873
    2MPD1    C214121   2.866   3.117  11.179  0.1352 -0.3443 -0.2544
    2MPD1    C314122   3.003   3.112  11.143 -0.1004  0.1516  0.0094
    2MPD1    C414123   3.083   3.210  11.193 -0.2137  0.2666  0.0224
    2MPD1    C514124   3.039   3.301  11.280 -0.0067  0.0208 -0.6021
    2MPD1     H14125   2.803   3.033  11.154  0.7420 -0.4810 -1.3253
    2MPD1    H114126   3.189   3.199  11.171 -0.5624 -1.0289 -1.0598
    2MPD1    H214127   2.876   3.380  11.383 -2.6558  0.4251 -1.6917
    2MPD1    H314128   3.108   3.366  11.333  2.1176 -3.4523  0.9064
    2MPD1     N14129   3.060   3.017  11.058 -0.4465 -0.3911  0.7520
    2MPD1    H514130   3.160   3.017  11.044 -0.5889  1.7408 -0.1908
    2MPD1    N114131   2.697   3.208  11.335 -0.3061 -0.9166 -0.1726
    2MPD1    H614132   2.632   3.166  11.270  1.3113 -0.7006 -1.9388
    2MPD1    H714133   2.667   3.303  11.357  1.6658 -0.4308  0.4030
    3MPD1     C14134   2.819   2.225  10.406  0.1283  0.0411  0.4907
    3MPD1    C114135   2.768   2.241  10.530  0.9228 -0.5469 -0.0233
    3MPD1    C214136   2.802   2.353  10.601  0.1413  0.3444 -1.1216
    3MPD1    C314137   2.915   2.426  10.563 -0.4659 -0.0951  0.6464
    3MPD1    C414138   2.975   2.399  10.438 -0.2833  0.2722  0.9003
    3MPD1    C514139   2.921   2.300  10.360 -0.1459 -0.5274  0.7425
    3MPD1     H14140   2.741   2.375  10.688 -1.0290 -2.6375 -1.1973
    3MPD1    H114141   3.067   2.447  10.404 -0.4508  1.2264  1.7964
    3MPD1    H214142   2.789   2.137  10.351 -1.4593  1.6824 -1.2731
    3MPD1    H314143   2.950   2.276  10.258 -1.2752 -0.1161  0.3265
    3MPD1     N14144   2.955   2.536  10.643  0.2737  0.5151  0.0037
    3MPD1    H514145   2.912   2.546  10.735 -2.3907 -0.4892 -1.1445
    3MPD1    N114146   2.667   2.167  10.580 -0.1769 -0.6424 -0.1113
    3MPD1    H614147   2.682   2.070  10.556 -0.0378 -0.5231 -0.4968
    3MPD1    H714148   2.653   2.186  10.679  1.5237  1.9663 -0.3577
    4MPD2     C14149   4.085   3.636  11.530 -0.0460 -0.5731  0.1638
    4MPD2    C114150   4.055   3.546  11.628 -0.5265 -0.1549  0.0442
    4MPD2    C214151   4.070   3.409  11.598 -0.6113  0.3763 -0.0969
    4MPD2    C314152   4.115   3.362  11.477 -0.1667  0.1455 -0.4666
    4MPD2    C414153   4.159   3.458  11.383 -0.0653 -0.2046  0.5775
    4MPD2    C514154   4.139   3.588  11.412 -0.1728  0.2822  0.3731
    4MPD2     H14155   4.026   3.348  11.676 -0.9418  0.9376  0.1526
    4MPD2    H114156   4.201   3.426  11.289 -1.3421  0.6340 -0.2742
    4MPD2    H214157   4.076   3.743  11.545 -1.6373 -0.7351  0.4110
    4MPD2    H314158   4.150   3.663  11.335 -0.5858  0.0460  0.0828
    4MPD2     N14159   4.120   3.220  11.460 -0.1891  0.5060 -0.0537
    4MPD2    H514160   4.099   3.158  11.538 -1.5488  2.5785  1.2473
    4MPD2    N114161   3.997   3.566  11.757 -0.4747 -0.3605  0.1611
    4MPD2    H714162   3.976   3.482  11.811 -2.0791 -0.5622 -0.7680
    5TMC3    C114163   3.866   3.671  11.912  0.0286 -0.1933 -0.8105
    5TMC3    C214164   3.733   3.680  11.876 -0.1873  0.6367  0.6630
    5TMC3    C314165   3.648   3.582  11.925 -0.1182  0.2187  0.8191
    5TMC3    C414166   3.914   3.562  11.973 -0.3376  0.1918  1.0035
    5TMC3    C514167   3.828   3.466  12.025 -0.0510 -0.2436  0.5414
    5TMC3    C614168   3.691   3.478  12.006 -0.5512 -0.3834 -0.2717
    5TMC3     C14169   3.950   3.691  11.801 -0.4949  0.4786  0.4379
    5TMC3     O14170   3.946   3.793  11.735 -0.0682 -0.5658  0.0150
    5TMC3     H14171   3.706   3.748  11.797  1.7514 -0.1456 -0.6811
    5TMC3    H114172   4.020   3.559  11.994 -0.2840 -3.0231  0.2558
    5TMC3    H214173   3.630   3.391  12.026  0.9893 -1.0333  1.5744
    5TMC3    C714174   3.884   3.336  12.021  0.3565  0.3801 -0.5934
    5TMC3    C814175   3.541   3.559  11.832  0.2989 -0.8070 -0.1569
    5TMC3    O114176   3.988   3.328  11.958 -0.0975 -0.6331  0.4746
    5TMC3    O214177   3.527   3.632  11.735  0.6423 -0.2825 -0.8706
    6TMC3    C114178   3.062   2.817  10.927  0.1035 -0.2093  0.6371
    6TMC3    C214179   3.016   2.745  10.818 -0.4829  0.2713  0.5659
    6TMC3    C314180   3.115   2.675  10.752  0.5351 -0.1621 -0.7519
    6TMC3    C414181   3.185   2.798  10.982 -0.4700  0.0575  0.6174
    6TMC3    C514182   3.268   2.710  10.927  0.3088  0.3798  0.5544
    6TMC3    C614183   3.240   2.657  10.805 -0.6916 -0.2339  1.1929
    6TMC3     C14184   2.986   2.933  10.980 -0.2461 -0.1496 -0.4629
    6TMC3     O14185   2.871   2.944  10.946  0.4464  0.2089 -0.1698
    6TMC3     H14186   2.913   2.758  10.787 -0.0001  0.9616 -0.7501
    6TMC3    H114187   3.219   2.840  11.076  2.4026 -2.6688  0.8142
    6TMC3    H214188   3.301   2.587  10.749 -0.1662  2.6079 -1.7418
    6TMC3    C714189   3.404   2.689  10.991  0.0379  0.7701  0.6873
    6TMC3    C814190   3.078   2.594  10.635 -0.6790 -0.1989 -0.0752
    6TMC3    O114191   3.413   2.701  11.113 -0.1719  0.4389 -0.1698
    6TMC3    O214192   3.182   2.565  10.573  0.2411  0.1995 -0.4874
    7MPD2     C14193   3.851   2.833  11.977  0.1589  0.2685 -0.0046
    7MPD2    C114194   3.908   2.925  11.889  0.7064 -0.0086  0.1860
    7MPD2    C214195   3.882   3.058  11.918 -0.4097 -0.8083 -0.2339
    7MPD2    C314196   3.815   3.097  12.034 -1.0697  0.2791 -0.5232
    7MPD2    C414197   3.763   3.006  12.112 -0.3267  0.6511 -0.4750
    7MPD2    C514198   3.779   2.877  12.089 -0.1870 -0.5587 -0.2948
    7MPD2     H14199   3.924   3.137  11.857 -1.1591  1.0889  1.7378
    7MPD2    H114200   3.728   3.034  12.211  0.6509  0.7753 -0.1597
    7MPD2    H214201   3.854   2.727  11.956 -2.9061 -0.1415  1.6570
    7MPD2    H314202   3.734   2.814  12.165 -0.6747 -0.0727 -0.1790
    7MPD2     N14203   3.796   3.236  12.059 -0.6769 -0.3091 -0.1726
    7MPD2    H514204   3.727   3.259  12.130 -0.2246  0.2328  0.0933
    7MPD2    N114205   3.972   2.881  11.770 -0.1961  0.3719  0.7769
    7MPD2    H714206   3.955   2.783  11.749  1.4928  0.0620  0.8332
    8TMC3    C114207   4.081   2.894  11.563 -0.2648  0.9012  0.1139
    8TMC3    C214208   3.983   2.832  11.495 -0.8261 -0.0248 -0.2280
    8TMC3    C314209   3.965   2.869  11.365  1.0412  0.2836  0.6454
    8TMC3    C414210   4.174   2.976  11.497  0.2044  0.3914 -0.3598
    8TMC3    C514211   4.150   3.011  11.368  0.0902 -0.0054 -0.6071
    8TMC3    C614212   4.047   2.953  11.298  0.3468  0.2108  0.9268
    8TMC3     C14213   4.038   2.963  11.680 -0.3966 -0.3050  0.2404
    8TMC3     O14214   4.074   3.076  11.698 -0.0864  0.1488  0.3022
    8TMC3     H14215   3.919   2.755  11.536  1.1029 -2.2031 -1.3273
    8TMC3    H114216   4.257   3.028  11.544 -0.2595  0.6153  0.2078
    8TMC3    H214217   4.025   2.998  11.202  0.1890  2.2950  1.9459
    8TMC3    C714218   4.161   3.156  11.342 -0.7158 -0.9925 -0.4245
    8TMC3    C814219   3.861   2.811  11.280 -0.5850  0.0253  0.2736
    8TMC3    O114220   4.172   3.201  11.226  0.4227 -0.1763  0.1424
    8TMC3    O214221   3.748   2.785  11.325  0.2454 -0.5617  0.0652
    9MPD2     C14222   3.919   2.678  10.936  1.0233 -0.1070 -0.1708
    9MPD2    C114223   3.842   2.716  11.047 -0.2891 -0.5271 -0.4384
    9MPD2    C214224   3.701   2.698  11.040  0.2157  0.0987  0.0758
    9MPD2    C314225   3.641   2.658  10.923  0.3571  0.3749  0.2954
    9MPD2    C414226   3.720   2.624  10.814 -0.0134 -0.2594  0.0911
    9MPD2    C514227   3.860   2.634  10.821 -0.2590 -0.1238 -0.3762
    9MPD2     H14228   3.639   2.714  11.127  1.4170 -2.0135  1.3211
    9MPD2    H114229   3.675   2.597  10.719 -0.8714 -0.1823  0.4817
    9MPD2    H214230   4.025   2.703  10.936  1.0603 -0.2663  1.2263
    9MPD2    H314231   3.918   2.592  10.740  0.8965 -3.6751  2.2675
    9MPD2     N14232   3.503   2.650  10.901  0.5114  0.0753  0.4932
    9MPD2    H514233   3.483   2.632  10.803 -1.5297 -0.0065  0.9403
    9MPD2    N114234   3.909   2.775  11.155 -0.0536 -0.0649  0.0159
    9MPD2    H714235   4.010   2.770  11.149  0.1080  1.3024  1.7263
    1MPD1     C14236   4.029   1.516   0.083  0.6207  0.1592 -0.2899
    1MPD1    C114237   3.983   1.461  17.647  0.2110 -0.1754 -0.2533
    1MPD1    C214238   3.930   1.546  17.557  0.3515  0.6938 -0.4613
    1MPD1    C314239   3.930   1.681  17.573  0.1941 -0.3748 -0.3925
    1MPD1    C414240   3.998   1.736   0.002  0.0015  0.2608  0.4411
    1MPD1    C514241   4.037   1.649   0.102 -0.1716  0.4088 -0.9029
    1MPD1     H14242   3.891   1.501  17.466 -1.1429  1.8319 -0.3776
    1MPD1    H114243   4.010   1.841   0.025  0.8392  0.2596 -0.0097
    1MPD1    H214244   4.063   1.447   0.160  0.7508  2.7648  1.9852
    1MPD1    H314245   4.072   1.676   0.201 -1.6105  3.8536 -1.3013
    1MPD1     N14246   3.859   1.767  17.492  0.3271  0.6505  0.0895
    1MPD1    H514247   3.864   1.865  17.518 -1.0286  0.2058  2.0037
    1MPD1    N114248   3.973   1.318  17.644 -0.0103  0.4106  0.0060
    1MPD1    H614249   4.059   1.277  17.680  0.0383  0.3501 -0.1822
    1MPD1    H714250   3.958   1.287  17.549 -0.0593 -0.1158  0.1829
    2MPD1     C14251   3.710   1.938  16.533  0.5204 -0.1533 -0.6609
    2MPD1    C114252   3.741   1.830  16.602  1.3347  0.1533  0.3386
    2MPD1    C214253   3.727   1.828  16.740 -0.3090  0.0828 -0.4690
    2MPD1    C314254   3.697   1.947  16.809 -0.1161 -0.2737  0.6766
    2MPD1    C414255   3.663   2.058  16.732  0.4461 -0.0230  0.1834
    2MPD1    C514256   3.679   2.053  16.596  0.2482 -0.1235 -0.5560
    2MPD1     H14257   3.766   1.746  16.798 -0.1320  0.0978 -0.5668
    2MPD1    H114258   3.655   2.157  16.774 -0.1920  0.3554 -0.8511
    2MPD1    H214259   3.715   1.931  16.425 -1.1514 -3.4618 -0.5303
    2MPD1    H314260   3.668   2.140  16.531 -0.7701 -0.9739 -1.5263
    2MPD1     N14261   3.711   1.946  16.951  1.1181  0.0932  0.5225
    2MPD1    H514262   3.760   1.866  16.991 -0.2978 -2.2785 -2.4709
    2MPD1    N114263   3.740   1.712  16.534 -0.0005 -0.4208 -0.1455
    2MPD1    H614264   3.773   1.722  16.438 -0.9851 -0.8978 -0.5301
    2MPD1    H714265   3.797   1.647  16.587  1.0709  0.1805 -0.5532
    3TCq2    C114266   3.642   2.026  17.027  0.3507  0.1984 -0.1482
    3TCq2    O214267   3.570   2.124  16.997 -0.1985  0.3801 -0.3547
    3TCq2    C214268   3.666   2.000  17.161  0.3526 -0.0778  0.4947
    3TCq2    C314269   3.625   2.092  17.251 -0.2411 -0.6839 -0.1272
    3TCq2    C414270   3.653   2.072  17.382  0.7154 -0.5649 -0.2605
    3TCq2    C514271   3.700   1.955  17.430 -0.1191 -0.3291 -0.1457
    3TCq2    C614272   3.736   1.863  17.335 -0.3563 -0.6445  0.0703
    3TCq2    C714273   3.716   1.883  17.206  0.6511 -0.3982  0.4519
    3TCq2    C814274   3.809   1.745  17.371 -0.1312  0.3577 -0.2737
    3TCq2    O414275   3.825   1.648  17.300  0.1608 -0.3742 -0.4102
    3TCq2    C914276   3.608   2.174  17.472  0.0784 -0.3978  0.3384
    3TCq2    O514277   3.633   2.154  17.592  0.4664 -0.6126 -0.2676
    3TCq2    O614278   3.520   2.260  17.436 -0.5368 -0.2045 -0.1025
    3TCq2    H214279   3.581   2.187  17.223  2.1822  0.2750 -0.6547
    3TCq2    H314280   3.695   1.952  17.538 -1.1950 -1.8391 -0.2379
    3TCq2    H414281   3.748   1.803  17.139  2.2238  0.0707  0.6477
    1TCq1    O114282   0.488   0.357  13.068  0.2249 -0.5811  0.0957
    1TCq1    C114283   0.614   0.312  13.054  0.5859  0.7278 -0.3619
    1TCq1    O214284   0.670   0.227  13.123 -0.2582  0.4192 -0.4512
    1TCq1    C214285   0.677   0.408  12.972 -0.1959  0.4666  0.2404
    1TCq1    C314286   0.610   0.485  12.879 -0.1242 -0.4283  0.0472
    1TCq1    C414287   0.677   0.580  12.816 -0.0660 -0.3279  0.5570
    1TCq1    C514288   0.812   0.600  12.827 -0.4108 -0.4775 -0.6397
    1TCq1    C614289   0.878   0.518  12.916 -0.0732  0.0252  0.3251
    1TCq1    C714290   0.815   0.415  12.982 -0.0064  0.2376 -0.0242
    1TCq1    C814291   1.021   0.527  12.940 -0.3826  0.1997 -0.4114
    1TCq1    O414292   1.090   0.581  12.853  0.2793 -0.1648  0.2058
    1TCq1    C914293   0.599   0.667  12.730  0.4020  0.0396 -0.0868
    1TCq1    O514294   0.642   0.783  12.715 -0.1734 -1.1052 -0.2600
    1TCq1    O614295   0.485   0.641  12.694  0.5009  0.1709  0.2336
    1TCq1    H114296   0.472   0.437  13.013 -0.0114 -0.6117  0.1210
    1TCq1    H214297   0.505   0.467  12.857 -0.0252 -0.1550 -0.6340
    1TCq1    H314298   0.873   0.677  12.780  1.1358 -0.7415  0.9284
    1TCq1    H414299   0.873   0.344  13.041 -0.4121 -0.6940 -0.7406
    2MPD2     C14300   1.185   0.495  13.259  1.0643 -0.2320  0.3161
    2MPD2    C114301   1.179   0.504  13.126 -0.2158 -0.2577 -0.8033
    2MPD2    C214302   1.299   0.495  13.050 -0.2740 -0.1890  0.3290
    2MPD2    C314303   1.419   0.474  13.108 -0.0217  0.6346  0.2349
    2MPD2    C414304   1.416   0.444  13.243  0.4590  0.0155  0.1796
    2MPD2    C514305   1.301   0.464  13.318  0.5256  0.5714  0.2012
    2MPD2     H14306   1.303   0.494  12.942 -2.4613 -1.1287  0.2559
    2MPD2    H114307   1.508   0.424  13.297 -0.2131  0.3783  1.4731
    2MPD2    H214308   1.093   0.490  13.316  0.5672 -0.8792 -0.5429
    2MPD2    H314309   1.306   0.448  13.426  3.9047 -1.6264 -0.2838
    2MPD2     N14310   1.537   0.451  13.039 -0.2752 -0.5696  0.0453
    2MPD2    H514311   1.527   0.449  12.938  1.1806 -0.3058 -0.0946
    2MPD2    N114312   1.050   0.513  13.074  0.2649 -0.3479  0.0244
    2MPD2    H714313   0.971   0.494  13.135 -0.5793  1.6780 -0.4380
    3TCq1    O114314   2.127   0.611  12.792  0.7815 -0.2844 -0.3738
    3TCq1    C114315   2.071   0.593  12.908 -0.3791 -0.1117 -0.2101
    3TCq1    O214316   2.144   0.573  13.000  0.2700  0.0064  0.0301
    3TCq1    C214317   1.949   0.520  12.888  0.1967  0.0297 -0.1343
    3TCq1    C314318   1.937   0.432  12.777  0.7796 -0.0715 -0.7792
    3TCq1    C414319   1.829   0.348  12.774 -0.0626  0.2906 -0.0551
    3TCq1    C514320   1.733   0.356  12.871 -0.0570  0.6049  0.2769
    3TCq1    C614321   1.754   0.441  12.978  0.3072 -0.2221 -0.4391
    3TCq1    C714322   1.866   0.514  12.996  0.1645  0.3272 -0.5170
    3TCq1    C814323   1.662   0.440  13.091 -0.9479 -0.0507  0.2829
    3TCq1    O414324   1.704   0.469  13.203 -0.1973 -0.1217 -0.2216
    3TCq1    C914325   1.807   0.256  12.662  0.7889 -0.2613 -0.6910
    3TCq1    O514326   1.711   0.173  12.665 -0.3353 -0.0033 -0.8840
    3TCq1    O614327   1.903   0.250  12.582  0.1304  0.0474 -0.7249
    3TCq1    H114328   2.051   0.618  12.730  0.8361  1.7020 -0.1985
    3TCq1    H214329   2.006   0.421  12.694  0.1243 -0.0113 -1.3373
    3TCq1    H314330   1.648   0.290  12.854  1.5789 -0.5595 -3.3381
    3TCq1    H414331   1.884   0.578  13.082 -1.1402 -0.7521  0.5526
    1MPD2     C14332   1.051   1.233  14.571 -0.7428  0.5456  0.2537
    1MPD2    C114333   0.965   1.158  14.651 -0.9379  0.4390 -0.4431
    1MPD2    C214334   1.020   1.107  14.765 -0.3160  0.5422  0.1003
    1MPD2    C314335   1.147   1.127  14.802  0.2223  0.6004 -0.0326
    1MPD2    C414336   1.229   1.203  14.724 -0.1019  0.4162  1.0466
    1MPD2    C514337   1.180   1.257  14.610  0.4343  0.2748 -0.2306
    1MPD2     H14338   0.954   1.055  14.834 -0.9418  2.3086  0.8278
    1MPD2    H114339   1.331   1.226  14.751 -0.7069  2.1525  1.8544
    1MPD2    H214340   1.009   1.270  14.478  0.9935  0.1088 -0.7038
    1MPD2    H314341   1.247   1.316  14.549  1.4019 -1.2555 -0.6565
    1MPD2     N14342   1.208   1.079  14.919  0.4897 -0.1655  0.3160
    1MPD2    H514343   1.304   1.110  14.928  0.3707  0.6945 -1.4751
    1MPD2    N114344   0.829   1.152  14.615  1.1829 -0.2242  0.0777
    1MPD2    H714345   0.807   1.201  14.529  1.0482  1.8399  1.2732
    2TMC3    C114346   0.596   1.095  14.647 -0.4725  0.6988  0.5869
    2TMC3    C214347   0.515   0.990  14.696 -0.0339  0.4628  0.2473
    2TMC3    C314348   0.416   1.024  14.786 -0.4525  0.4123  0.0359
    2TMC3    C414349   0.548   1.223  14.654  0.6144 -0.1506  0.4730
    2TMC3    C514350   0.428   1.248  14.713 -0.5912 -0.1324 -0.0073
    2TMC3    C614351   0.362   1.148  14.774 -0.2067 -0.8558 -0.5109
    2TMC3     C14352   0.735   1.070  14.686 -0.8047 -0.2780 -0.0792
    2TMC3     O14353   0.754   0.987  14.777 -0.3346  0.0913  0.4837
    2TMC3     H14354   0.555   0.889  14.701  3.2129  1.5389 -3.5130
    2TMC3    H114355   0.614   1.304  14.627  0.2922  0.1356  0.5354
    2TMC3    H214356   0.291   1.183  14.848  0.3122 -0.9625  0.0408
    2TMC3    C714357   0.351   1.369  14.690  0.5177 -0.1888  0.4909
    2TMC3    C814358   0.419   0.966  14.918 -0.4137 -0.0158 -0.1660
    2TMC3    O114359   0.228   1.360  14.691  0.5075  0.0242 -0.2269
    2TMC3    O214360   0.313   0.974  14.979 -0.1964  0.4923  0.0215
    3TCq1    O114361   1.183   2.031  14.536 -0.1593 -0.2138 -0.1387
    3TCq1    C114362   1.077   2.099  14.489 -0.8143  0.4733 -0.0823
    3TCq1    O214363   1.078   2.186  14.401 -0.3988 -1.1465 -0.4559
    3TCq1    C214364   0.967   2.087  14.580  0.3291  0.0017 -0.3549
    3TCq1    C314365   0.987   2.082  14.722  0.0544 -0.0122  0.7155
    3TCq1    C414366   0.881   2.069  14.797 -0.1241  0.4222  0.3648
    3TCq1    C514367   0.756   2.078  14.740 -0.3624  0.0410  0.3109
    3TCq1    C614368   0.738   2.090  14.606 -0.2217 -0.3603  0.2641
    3TCq1    C714369   0.845   2.087  14.525  0.8937  0.0295 -0.1480
    3TCq1    C814370   0.611   2.036  14.559  0.0380 -0.4879 -0.6672
    3TCq1    O414371   0.564   2.072  14.451  0.3139  0.1399  0.1822
    3TCq1    C914372   0.883   2.044  14.937  0.4259 -0.2867 -0.1828
    3TCq1    O514373   0.989   2.026  15.007  0.0682 -0.0085 -0.2940
    3TCq1    O614374   0.766   2.031  14.987  0.5325 -0.3105 -0.1404
    3TCq1    H114375   1.168   1.958  14.600  0.0130  1.4260  1.7321
    3TCq1    H214376   1.084   2.077  14.771 -0.0964  0.2582  1.0375
    3TCq1    H314377   0.664   2.071  14.798  2.1523 -1.3634  4.1588
    3TCq1    H414378   0.838   2.082  14.417 -0.4479 -0.8338 -0.0182
    4MPD2     C14379   0.366   1.860  14.525  0.1030 -0.4453 -1.3849
    4MPD2    C114380   0.478   1.824  14.597  0.2729  0.2636 -0.8748
    4MPD2    C214381   0.481   1.696  14.647  0.1698 -0.1294  0.0397
    4MPD2    C314382   0.382   1.603  14.627  0.0578 -0.0301  0.3473
    4MPD2    C414383   0.272   1.632  14.556 -0.5400  0.4712  0.2007
    4MPD2    C514384   0.277   1.762  14.500  0.8272  0.2991 -0.3357
    4MPD2     H14385   0.570   1.660  14.696  0.4299  0.4516 -0.0110
    4MPD2    H114386   0.188   1.569  14.532  1.8151 -2.1673 -1.0989
    4MPD2    H214387   0.345   1.959  14.485  0.3261  0.3109  0.3365
    4MPD2    H314388   0.195   1.781  14.432  0.4905  1.6769  0.4599
    4MPD2     N14389   0.427   1.479  14.666 -0.1694 -0.1335  0.3059
    4MPD2    H514390   0.528   1.475  14.681  0.0107 -0.2339 -0.9351
    4MPD2    N114391   0.586   1.912  14.611  0.4679  0.5204 -0.2353
    4MPD2    H714392   0.656   1.887  14.681 -0.8527 -0.2108  0.8308
    5TMC2    C114393   1.121   0.924  15.359  0.0553 -0.6091 -0.4380
    5TMC2    C214394   1.152   1.052  15.413  0.0774 -0.5120  0.1511
    5TMC2    C314395   1.195   1.144  15.322 -0.1162  0.6533  0.4336
    5TMC2    C414396   1.154   0.898  15.223  0.0104  0.3327 -0.1348
    5TMC2    C514397   1.206   0.996  15.147 -0.1969  0.0025 -0.1394
    5TMC2    C614398   1.223   1.123  15.193 -0.0434 -0.5373  0.2296
    5TMC2     C14399   0.975   0.897  15.384 -0.5165  0.6279 -0.4374
    5TMC2     O14400   0.928   0.899  15.497  0.4273  0.2856 -0.2010
    5TMC2     H14401   1.141   1.072  15.519 -0.2029 -2.3403  0.4565
    5TMC2    H114402   1.129   0.807  15.171 -0.7816  0.4764 -0.0120
    5TMC2    H214403   1.249   1.205  15.127 -2.2299  0.1166  0.1766
    5TMC2    C714404   1.150   0.992  15.013 -0.0132 -0.4956  0.0669
    5TMC2    C814405   1.228   1.283  15.364 -0.2008 -0.5161 -0.2875
    5TMC2    O114406   1.055   0.919  14.994 -0.2749 -0.3720 -0.2692
    5TMC2    O214407   1.308   1.356  15.306  0.1163  0.2650  0.2769
    5TMC2    O514408   1.102   1.322  15.407 -0.2559 -0.0281  0.2637
    5TMC2    H514409   1.058   1.263  15.473  2.6165 -1.3307  1.0419
    6MPD2     C14410   0.491   0.902  15.202  0.3971  0.3146 -0.1495
    6MPD2    C114411   0.578   0.909  15.095 -0.2048 -0.2519  0.1700
    6MPD2    C214412   0.713   0.897  15.120 -0.2275  0.6939 -0.3002
    6MPD2    C314413   0.765   0.892  15.251 -0.4791  0.1081 -0.4340
    6MPD2    C414414   0.675   0.885  15.353 -0.6536 -1.1128 -0.3304
    6MPD2    C514415   0.541   0.888  15.329 -0.1166  0.0642 -0.1691
    6MPD2     H14416   0.779   0.891  15.035  1.1231  1.3276  0.7092
    6MPD2    H114417   0.701   0.873  15.458 -1.3471  0.5051  0.0250
    6MPD2    H214418   0.384   0.897  15.182  0.1296 -0.5910  1.5569
    6MPD2    H314419   0.473   0.873  15.412  0.2288 -0.6593 -0.0117
    6MPD2     N14420   0.907   0.900  15.269  0.1307 -0.2478  0.0324
    6MPD2    H514421   0.957   0.908  15.181 -0.4572  1.3885 -0.1391
    6MPD2    N114422   0.546   0.928  14.959  0.0598  0.6248  0.3555
    6MPD2    H714423   0.623   0.936  14.894  1.1524 -0.8689  1.4764
  945NH3     N114424   1.667   2.558   7.882 -0.1924 -0.0411 -0.4416
  945NH3     H214425   1.587   2.496   7.872 -1.1695  1.5693 -2.6923
  945NH3     H314426   1.738   2.521   7.820 -0.4942 -1.3511 -0.0027
  945NH3     H414427   1.700   2.529   7.973  0.5736  1.8778 -0.1011
  946SOD     NA14428   1.039   1.567  15.004 -0.2046 -0.3657  0.0822
  947SOD     NA14429   3.642   2.383   8.733  0.2277  0.9824  0.0386
  948SOD     NA14430   1.110   1.695   0.526  0.0237 -0.2950 -0.2058
  949SOD     NA14431   1.732   0.102  12.452 -0.3109 -0.2104 -0.5575
  950SOD     NA14432   4.469   0.233  11.772 -0.0582  0.4224  0.5226
  951SOD     NA14433   0.839   1.890  15.396  0.0484  0.0472  0.1266
  952SOD     NA14434   1.441   4.284  10.298 -0.5713  0.7877 -0.2203
  953SOD     NA14435   2.299   3.661   2.676  0.6965 -0.0772 -0.1670
  954SOD     NA14436   1.660   0.613  11.345  0.1417 -0.0496  0.2379
  955SOD     NA14437   2.524   0.484  14.248 -0.1664  0.3587  0.4808
  956SOD     NA14438   3.400   2.472   3.575  0.0310  0.0081 -0.3142
  957SOD     NA14439   0.243   3.028  13.026  0.0342 -0.4701 -0.1839
  958SOD     NA14440   2.284   4.118   4.088 -0.1246  0.0865 -0.1470
  959SOD     NA14441   1.163   1.929  15.079  0.0976  0.2173  0.1384
  960SOD     NA14442   1.390   1.922   8.279 -0.0359  0.3527 -0.5482
  961SOD     NA14443   4.638   0.889  11.259  0.1371 -0.0703 -0.6574
  962SOD     NA14444   0.088   4.619  15.316 -0.0755 -0.2117  0.2934
  963SOD     NA14445   2.829   3.836   1.206 -0.3866  0.1264  0.2753
  964SOD     NA14446   4.206   1.082  13.685 -0.0580  0.5317  0.2354
  965SOD     NA14447   1.674   0.986   4.586 -0.1714 -0.5812 -0.0272
  966SOD     NA14448   2.319   0.686  14.072  0.1788 -0.3656  0.1470
  967SOD     NA14449   0.714   2.133  11.897  0.0982 -0.4147 -0.0328
  968SOD     NA14450   4.224   2.210   0.490  0.3019  0.3474 -0.3621
  969SOD     NA14451   3.634   3.432   4.582  0.4331  0.4529 -0.1708
  970SOD     NA14452   2.880   0.360   6.126  0.2651  0.6595  0.2858
  971SOD     NA14453   1.114   4.336   9.373  0.5938  0.5584 -0.0450
  972SOD     NA14454   1.744   2.588  11.845 -0.0458 -0.0288 -0.2342
  973SOD     NA14455   2.024   2.618  12.051  0.3326  0.1031 -0.5213
  974SOD     NA14456   3.963   0.152  12.585 -0.0441 -0.1472 -0.4330
  975SOD     NA14457   0.191   3.871  10.861 -0.1323 -0.0506  0.1594
  976SOD     NA14458   1.392   0.405  11.902 -0.2276  0.3172  0.3256
  977SOD     NA14459   1.850   1.299  12.586  0.4554 -0.2305 -0.0194
  978SOD     NA14460   1.816   4.584  16.655 -0.4441 -0.0026  0.4932
  979SOD     NA14461   1.957   0.329  12.391  0.1234 -0.0718 -0.0107
  980SOD     NA14462   3.287   3.399  15.566 -0.0170  0.3909 -0.3071
  981SOD     NA14463   4.501   0.235  10.452  0.3637  0.3963 -0.4492
  982SOD     NA14464   0.105   3.926   2.430  0.5849  0.2234 -0.2679
  983SOD     NA14465   1.235   2.221  16.331  0.1019 -0.0750  0.3051
  984SOD     NA14466   2.699   3.371   1.544  0.3657  0.1453  0.0854
  985SOD     NA14467   0.809   3.402   1.685  0.3932  0.1896 -0.0450
  986SOD     NA14468   2.427   0.036   3.946 -0.2771  0.0295 -0.1341
  987SOD     NA14469   1.756   0.566  10.315 -0.0114 -0.2743  0.0446
  988SOD     NA14470   0.405   2.187   2.195  0.0304  0.0844 -0.0954
  989SOD     NA14471   3.039   1.147  16.170 -0.2470 -0.0795  0.1585
  990SOD     NA14472   2.191   3.616  16.898  0.1635 -0.1492 -0.2301
  991SOD     NA14473   0.832   4.013  10.287  0.3716  0.0411  0.4894
  992SOD     NA14474   2.643   0.341  13.488  0.3899  0.1861  0.2387
  993SOD     NA14475   1.543   0.226  12.192  0.2595  0.1105 -0.1248
  994SOD     NA14476   1.395   1.263  11.860  0.0320  0.0137  0.0183
  995SOD     NA14477   3.262   0.754  14.930 -0.1461 -0.1429  0.1753
  996SOD     NA14478   2.940   0.372   0.288 -0.5301  0.3470  0.0359
  997SOD     NA14479   0.241   0.944  11.093 -0.4183 -0.5140 -0.3488
  998SOD     NA14480   0.919   0.545   9.377 -0.0562 -0.1412 -0.1639
  999SOD     NA14481   3.383   0.899   9.321  0.6575 -0.1972  0.1322
 1000SOD     NA14482   1.501   2.505  10.424 -0.2464  0.0285  0.0578
 1001SOD     NA14483   4.058   4.715  13.104 -0.3396  0.1637 -0.7988
 1002SOD     NA14484   3.585   2.008  13.634  0.0798  0.0814 -0.0414
 1003SOD     NA14485   0.838   0.731  10.257  0.5327 -0.3708  0.0698
 1004SOD     NA14486   3.201   0.261  12.984 -0.0191  0.1812  0.0688
 1005SOD     NA14487   1.089   3.159   0.108 -0.2220  0.3822 -0.8989
 1006SOD     NA14488   1.284   1.140   0.293 -0.0523  0.6569 -0.3571
 1007SOD     NA14489   4.443   0.246  15.443 -0.1959  0.1893  0.4102
 1008SOD     NA14490   2.995   1.883  14.600  0.2243 -0.0569  0.1360
 1009SOD     NA14491   3.415   0.212  15.345 -0.1797  0.2743  0.8007
 1010SOD     NA14492   1.602   4.711   1.108  0.4969  0.3136  0.3633
 1011SOD     NA14493   0.558   0.794  10.445 -0.5305  0.0291 -0.1863
 1012SOL     OW14494   3.125   2.068   5.426  0.6561 -0.1502  0.2271
 1012SOL    HW114495   3.069   2.031   5.358 -0.2468  1.1943  0.2461
 1012SOL    HW214496   3.087   2.029   5.504  1.4499  0.1505  0.7672
 1013SOL     OW14497   1.762   2.020   0.721 -0.3755  0.2606  0.3019
 1013SOL    HW114498   1.747   1.933   0.759  2.1457 -0.0793  0.5049
 1013SOL    HW214499   1.849   2.043   0.753 -0.1576  3.6561 -2.7029
 1014SOL     OW14500   1.467   0.470  16.380  0.1816  0.3617 -0.4061
 1014SOL    HW114501   1.442   0.508  16.464 -0.9562 -0.4309 -0.3886
 1014SOL    HW214502   1.524   0.404  16.419 -0.4148  0.7148  1.0479
 1015SOL     OW14503   4.621   4.308   7.364  0.5805  0.3415  0.2225
 1015SOL    HW114504   4.692   4.371   7.375  1.1916 -0.2368 -0.3843
 1015SOL    HW214505   4.661   4.257   7.293  1.7587  0.5106  0.7832
 1016SOL     OW14506   4.707   1.321   5.641  0.6735 -0.0381 -0.3588
 1016SOL    HW114507   0.047   1.356   5.707  0.8624 -1.1546  0.0521
 1016SOL    HW214508   0.044   1.331   5.564  2.0375 -0.8529  0.5480
 1017SOL     OW14509   1.258   2.903   1.940 -0.3317  0.3406  0.0647
 1017SOL    HW114510   1.215   2.898   1.854 -0.6920 -0.0638  0.2715
 1017SOL    HW214511   1.257   2.813   1.972  1.7377  1.0738  2.1781
 1018SOL     OW14512   3.037   2.614   2.782 -0.2371  0.1472  0.5442
 1018SOL    HW114513   3.061   2.522   2.767 -0.5063  0.5187 -2.0766
 1018SOL    HW214514   2.946   2.591   2.801 -0.3316  1.9866  2.3184
 1019SOL     OW14515   2.582   2.652   3.354  0.1588  0.1135 -0.6240
 1019SOL    HW114516   2.526   2.729   3.340 -0.1915  0.1372  0.9566
 1019SOL    HW214517   2.594   2.660   3.448 -1.7909 -0.2500 -0.3421
 1020SOL     OW14518   3.167   4.243  12.914  0.0885 -0.5728  0.3147
 1020SOL    HW114519   3.182   4.213  12.824  0.5247  0.7334 -0.0367
 1020SOL    HW214520   3.237   4.302  12.940 -0.9166 -0.0668  1.8583
 1021SOL     OW14521   0.553   1.555   6.366  0.0891  0.4393 -0.6122
 1021SOL    HW114522   0.641   1.536   6.334  0.0876  3.7229 -2.6474
 1021SOL    HW214523   0.556   1.650   6.379  0.3959  0.2560  0.6518
 1022SOL     OW14524   0.152   1.273   7.187  0.0486 -0.2452 -0.3262
 1022SOL    HW114525   0.169   1.183   7.215  3.2442 -0.2455 -2.2569
 1022SOL    HW214526   0.192   1.314   7.264 -2.0590  1.8900 -0.3706
 1023SOL     OW14527   4.126   2.385  10.317 -0.0894 -0.1285 -0.0063
 1023SOL    HW114528   4.102   2.404  10.226 -0.7483  0.9386  0.3900
 1023SOL    HW214529   4.144   2.473  10.349  1.4695 -0.1058 -0.9491
 1024SOL     OW14530   2.031   3.886   0.204  0.4095 -0.0574  0.3798
 1024SOL    HW114531   1.991   3.970   0.181 -0.8705 -0.6761  0.3589
 1024SOL    HW214532   2.011   3.878   0.297 -0.0920  0.9869  0.3629
 1025SOL     OW14533   3.483   1.257   4.897 -0.2081 -0.1136  0.9094
 1025SOL    HW114534   3.518   1.279   4.983 -2.0001 -0.9548  1.8647
 1025SOL    HW214535   3.550   1.191   4.879  2.8995  3.2166  0.2620
 1026SOL     OW14536   1.419   3.789   4.540 -0.5570 -0.1840 -0.4834
 1026SOL    HW114537   1.395   3.697   4.527  0.6872 -0.8693  2.1341
 1026SOL    HW214538   1.491   3.791   4.603  1.3098 -1.0224 -2.6231
 1027SOL     OW14539   3.746   4.457  10.719 -0.2188 -0.6138 -0.5562
 1027SOL    HW114540   3.697   4.378  10.697 -1.1746 -0.4116  0.8280
 1027SOL    HW214541   3.709   4.472  10.806  0.3015  1.4400 -0.6879
 1028SOL     OW14542   0.101   3.876   5.756  0.4871 -0.1256 -0.0392
 1028SOL    HW114543   0.087   3.814   5.684  0.6183  0.1113 -0.2675
 1028SOL    HW214544   0.013   3.905   5.778  0.6162 -0.9202  1.5405
 1029SOL     OW14545   2.489   2.289  12.260 -0.4004 -0.0876 -0.7547
 1029SOL    HW114546   2.580   2.262  12.254 -0.8920 -2.0570  0.6415
 1029SOL    HW214547   2.457   2.211  12.306  1.6840 -1.6793 -2.0432
 1030SOL     OW14548   3.690   2.586   2.085  0.1894  0.4937 -0.1628
 1030SOL    HW114549   3.737   2.528   2.145 -2.2004 -0.4821  0.7591
 1030SOL    HW214550   3.670   2.525   2.013  1.8278  1.9197 -1.8176
 1031SOL     OW14551   2.241   2.893  15.935 -0.0268  0.0088 -0.1027
 1031SOL    HW114552   2.200   2.932  15.858 -3.2364  0.1932  1.7007
 1031SOL    HW214553   2.174   2.827  15.952 -2.3808  1.9224 -1.8105
 1032SOL     OW14554   2.055   3.008   4.637  0.5031  0.0306  0.8026
 1032SOL    HW114555   2.096   2.922   4.646  2.1184  0.8400  1.0732
 1032SOL    HW214556   2.132   3.057   4.608 -0.1054  0.3400 -0.3350
 1033SOL     OW14557   4.546   1.455   6.548  0.9578  0.1477 -0.0706
 1033SOL    HW114558   4.484   1.410   6.606 -0.7194  1.1931 -1.0677
 1033SOL    HW214559   4.587   1.515   6.611  0.9889  1.6892 -1.5512
 1034SOL     OW14560   1.614   0.818  11.117 -0.9247  0.0290 -0.4267
 1034SOL    HW114561   1.574   0.735  11.141 -0.5922  1.0661  3.6535
 1034SOL    HW214562   1.540   0.879  11.120 -0.5549  0.4762 -0.3440
 1035SOL     OW14563   2.946   1.415   4.649  0.3244  0.4033  0.5407
 1035SOL    HW114564   2.956   1.333   4.696 -0.4178 -0.5741 -1.0132
 1035SOL    HW214565   3.013   1.466   4.695 -0.9284  1.0985  1.6177
 1036SOL     OW14566   2.623   0.063   8.132  0.4519  0.4254 -0.1161
 1036SOL    HW114567   2.620   4.695   8.092 -3.1798  0.8382 -0.7403
 1036SOL    HW214568   2.595   0.041   8.220  0.3972 -0.6784 -0.4036
 1037SOL     OW14569   0.361   1.438  12.862 -0.5235  0.3903 -0.4474
 1037SOL    HW114570   0.393   1.519  12.822  1.8179  1.4248  3.5046
 1037SOL    HW214571   0.318   1.472  12.940  0.1437  0.5587 -0.1537
 1038SOL     OW14572   4.357   4.052  10.382  0.6126  0.5863 -0.0828
 1038SOL    HW114573   4.293   4.102  10.331  1.9577  2.7245  0.3483
 1038SOL    HW214574   4.308   3.982  10.426  1.4784  0.2829  0.3924
 1039SOL     OW14575   2.133   2.049   5.029  0.1756  0.3058 -0.1555
 1039SOL    HW114576   2.183   2.004   5.097 -2.5151 -1.5477  0.5422
 1039SOL    HW214577   2.112   2.120   5.090 -3.0010  1.2245 -2.2882
 1040SOL     OW14578   0.090   0.039   2.164  0.4903 -0.3143 -0.2200
 1040SOL    HW114579   0.157   0.029   2.233 -0.8755  0.0915  1.1558
 1040SOL    HW214580   0.043   4.676   2.154  0.3646 -0.2118 -0.4585
 1041SOL     OW14581   4.469   3.691   3.863 -0.2657 -0.5007  0.0719
 1041SOL    HW114582   4.458   3.784   3.879 -2.6452 -0.8451  0.4255
 1041SOL    HW214583   4.398   3.663   3.921 -2.7960  0.7602 -2.4524
 1042SOL     OW14584   4.634   3.367   3.605 -0.2535  0.1725  0.4155
 1042SOL    HW114585   4.690   3.385   3.530  1.3792  2.4810  2.1802
 1042SOL    HW214586   4.626   3.454   3.644 -0.1109 -0.4552  1.8412
 1043SOL     OW14587   1.539   0.027   2.973  0.3067  0.2558 -0.1445
 1043SOL    HW114588   1.473   4.699   2.922  1.4387 -0.7242 -0.7040
 1043SOL    HW214589   1.541   0.111   2.928  3.1496  0.5804  0.5675
 1044SOL     OW14590   0.912   2.896  11.373 -0.1492  0.0193  0.0616
 1044SOL    HW114591   0.845   2.963  11.389  0.0707 -0.1276  1.5792
 1044SOL    HW214592   0.988   2.942  11.408 -1.0411  1.5021  0.0746
 1045SOL     OW14593   4.642   2.189   1.603 -0.0530 -0.0554  0.1079
 1045SOL    HW114594   0.012   2.223   1.612 -0.1887  0.8794 -2.1767
 1045SOL    HW214595   4.598   2.271   1.627  0.9064  0.4463  0.1406
 1046SOL     OW14596   0.040   4.560   7.412 -0.3180 -0.1460  0.7876
 1046SOL    HW114597   4.668   4.583   7.432 -0.6947 -0.6889 -0.3204
 1046SOL    HW214598   0.060   4.643   7.368  0.4658  0.0957  1.6060
 1047SOL     OW14599   4.318   2.351   5.991 -0.2947 -0.7945 -0.3293
 1047SOL    HW114600   4.249   2.289   6.016 -0.0719 -1.1428 -0.5787
 1047SOL    HW214601   4.371   2.351   6.071 -1.9632 -0.3319  0.7756
 1048SOL     OW14602   1.415   1.051   3.749  0.1547  0.1159 -0.1557
 1048SOL    HW114603   1.451   1.093   3.827  1.4714  2.0617 -1.8337
 1048SOL    HW214604   1.440   0.960   3.766 -0.5205  0.0267  0.3716
 1049SOL     OW14605   4.574   4.418  12.579  0.5410 -0.4201 -0.0972
 1049SOL    HW114606   4.649   4.367  12.608 -0.7231 -1.8316  0.7088
 1049SOL    HW214607   4.596   4.504  12.613  1.1758 -0.9758  0.8831
 1050SOL     OW14608   1.518   0.194   0.783  0.3929 -0.3194  0.5508
 1050SOL    HW114609   1.559   0.261   0.839  1.3873 -1.6629  1.4278
 1050SOL    HW214610   1.460   0.149   0.844  1.9501 -1.0054  1.5087
 1051SOL     OW14611   4.337   4.366  11.859 -0.3045 -0.4635  0.3488
 1051SOL    HW114612   4.418   4.413  11.838 -0.8813  0.0066 -0.7857
 1051SOL    HW214613   4.354   4.352  11.953 -1.2301 -1.6667  0.3357
 1052SOL     OW14614   2.382   2.271   1.701 -0.2346 -0.2274 -0.5484
 1052SOL    HW114615   2.339   2.225   1.628 -0.1606 -0.4902 -0.4249
 1052SOL    HW214616   2.426   2.207   1.756 -1.1704 -0.1079  0.3434
 1053SOL     OW14617   2.650   1.448   3.556  0.8942 -0.9239 -0.1042
 1053SOL    HW114618   2.652   1.360   3.594 -0.0301 -0.7719  0.2829
 1053SOL    HW214619   2.734   1.483   3.588 -0.8990  0.1530  3.4169
 1054SOL     OW14620   4.261   1.006   6.708  0.6433 -0.4408  0.1389
 1054SOL    HW114621   4.280   0.913   6.692 -2.6845 -1.0057 -0.5156
 1054SOL    HW214622   4.308   1.018   6.790 -1.4053 -2.1794  1.5408
 1055SOL     OW14623   3.939   4.406  12.060  0.2411 -0.3405  0.3079
 1055SOL    HW114624   3.898   4.325  12.090  0.4730 -0.2118  0.9750
 1055SOL    HW214625   3.945   4.390  11.966 -1.3287 -3.5698  0.7563
 1056SOL     OW14626   4.311   0.211   1.085 -0.3963 -0.0702  0.1509
 1056SOL    HW114627   4.317   0.116   1.082 -2.6129 -0.1625 -1.5279
 1056SOL    HW214628   4.220   0.221   1.057 -0.4481 -3.4912 -0.9492
 1057SOL     OW14629   1.387   1.585   5.098  0.7122  0.0850  0.5365
 1057SOL    HW114630   1.347   1.605   5.013 -0.0177 -1.0436  0.6066
 1057SOL    HW214631   1.482   1.592   5.090  0.7971 -1.1121  0.3861
 1058SOL     OW14632   3.728   0.771  12.841  0.1153 -0.3413 -0.4202
 1058SOL    HW114633   3.730   0.728  12.926  0.2890  0.7944  0.1487
 1058SOL    HW214634   3.762   0.706  12.779  1.4533  1.1530 -1.2446
 1059SOL     OW14635   3.429   3.338   2.992 -0.3791 -0.2657  0.4051
 1059SOL    HW114636   3.461   3.292   3.069 -2.7533 -2.0542  0.3080
 1059SOL    HW214637   3.396   3.273   2.931  2.5903  0.0557 -1.5766
 1060SOL     OW14638   3.728   3.626   1.711  0.0225  0.5447 -0.2629
 1060SOL    HW114639   3.658   3.645   1.648 -0.4344 -2.0224 -0.5127
 1060SOL    HW214640   3.676   3.582   1.778  1.0364 -1.0919 -0.5743
 1061SOL     OW14641   3.602   2.251   1.984 -0.4378 -0.4069 -0.1203
 1061SOL    HW114642   3.585   2.273   1.892  1.3135 -0.8773 -0.5549
 1061SOL    HW214643   3.697   2.254   1.992 -0.6292  0.2280  1.8369
 1062SOL     OW14644   2.461   1.667   2.725  0.2990 -1.0136 -0.7122
 1062SOL    HW114645   2.547   1.652   2.685  1.1267  1.1115  0.2574
 1062SOL    HW214646   2.440   1.586   2.770 -2.1695 -0.4620 -0.8912
 1063SOL     OW14647   1.358   1.347   4.184  0.1536 -0.0985  0.3370
 1063SOL    HW114648   1.275   1.323   4.226  0.2634  1.4061  1.4000
 1063SOL    HW214649   1.421   1.338   4.255  1.9121 -0.9327 -1.3372
 1064SOL     OW14650   3.154   2.696   2.537 -0.1133 -0.1071  0.2195
 1064SOL    HW114651   3.212   2.757   2.583  0.9333  1.5136 -3.3084
 1064SOL    HW214652   3.083   2.688   2.602 -0.1640  0.8208  0.2751
 1065SOL     OW14653   4.375   0.205   1.684 -0.3486  0.2899  0.0254
 1065SOL    HW114654   4.372   0.211   1.779 -0.6734 -0.1508  0.0415
 1065SOL    HW214655   4.293   0.156   1.674  0.1400 -0.4773 -0.2482
 1066SOL     OW14656   4.192   4.252   8.473  0.1564 -0.2300  0.1451
 1066SOL    HW114657   4.176   4.347   8.472 -0.1231 -0.2908 -0.9314
 1066SOL    HW214658   4.163   4.232   8.562 -0.3102 -0.2915 -0.0215
 1067SOL     OW14659   4.375   4.336   6.896  0.5696 -0.3469 -0.0728
 1067SOL    HW114660   4.432   4.405   6.862  0.5464  0.4959  1.6285
 1067SOL    HW214661   4.431   4.278   6.948 -1.0914 -2.3471 -0.5416
 1068SOL     OW14662   0.106   0.449  11.764 -0.2206 -0.5707  0.0869
 1068SOL    HW114663   0.068   0.457  11.676 -1.1054 -1.6114  0.3764
 1068SOL    HW214664   0.028   0.401  11.793  1.0800 -1.8988  1.3739
 1069SOL     OW14665   4.018   3.060   1.269  0.5180  0.3681 -0.4752
 1069SOL    HW114666   3.936   3.011   1.265  1.3518 -1.1631  1.1539
 1069SOL    HW214667   4.080   2.990   1.291 -0.2036  0.1365  0.8356
 1070SOL     OW14668   2.139   2.494   3.906 -0.1571  0.7399  0.1254
 1070SOL    HW114669   2.201   2.437   3.952  0.6321  0.9055 -0.7264
 1070SOL    HW214670   2.133   2.441   3.826 -0.3833 -1.0087  1.3129
 1071SOL     OW14671   0.933   0.329   4.295  0.3121 -0.7738 -0.3197
 1071SOL    HW114672   0.911   0.332   4.388  1.3756 -0.2424 -0.0853
 1071SOL    HW214673   1.020   0.290   4.290  0.5991 -0.0203 -1.3660
 1072SOL     OW14674   2.981   2.241   4.561  0.2019 -0.3965  0.1581
 1072SOL    HW114675   2.936   2.267   4.641 -0.8085  0.5345 -0.7260
 1072SOL    HW214676   2.970   2.146   4.568 -0.9147 -0.2129  0.9255
 1073SOL     OW14677   2.647   3.973  14.132 -0.3560  0.1601 -0.0642
 1073SOL    HW114678   2.620   4.016  14.051 -0.0226  1.5854  0.5829
 1073SOL    HW214679   2.567   3.932  14.164  1.5649 -1.3045  2.8055
 1074SOL     OW14680   3.039   1.114   2.444  0.1779  0.2421  0.4279
 1074SOL    HW114681   3.060   1.205   2.463 -0.9258  0.9357 -1.6640
 1074SOL    HW214682   3.113   1.094   2.386 -0.2572 -0.8369  0.2351
 1075SOL     OW14683   1.796   2.751   9.239  0.0435  0.0798  0.0265
 1075SOL    HW114684   1.745   2.706   9.306  1.9277 -0.4440  1.0993
 1075SOL    HW214685   1.856   2.684   9.205  1.3273  1.4117 -0.3399
 1076SOL     OW14686   1.234   0.439   3.098  0.4705 -0.2018 -0.0242
 1076SOL    HW114687   1.260   0.397   3.016  1.4302  1.7652 -0.7195
 1076SOL    HW214688   1.146   0.476   3.087  0.1896 -0.3697  1.7144
 1077SOL     OW14689   2.980   2.092  11.776  0.2478  0.8436  0.2086
 1077SOL    HW114690   3.031   2.050  11.846  0.5428  1.2525  0.2418
 1077SOL    HW214691   2.977   2.180  11.815 -0.4950  1.2265 -0.7051
 1078SOL     OW14692   2.342   1.476   7.575 -0.1680 -0.1391 -0.1459
 1078SOL    HW114693   2.405   1.547   7.588 -0.4347 -0.2565  1.6888
 1078SOL    HW214694   2.278   1.475   7.645  0.8321 -1.7714  0.7536
 1079SOL     OW14695   4.680   4.130  11.982  0.1140  0.3420  0.0939
 1079SOL    HW114696   4.666   4.221  12.009 -0.5715 -0.2621  1.8105
 1079SOL    HW214697   4.588   4.107  11.972  0.2928 -0.1714 -0.3549
 1080SOL     OW14698   0.415   0.284   6.694 -0.4744  0.6039 -0.0654
 1080SOL    HW114699   0.409   0.378   6.679 -0.7115  0.7096  0.6813
 1080SOL    HW214700   0.337   0.260   6.745  0.0185  0.2964  0.5490
 1081SOL     OW14701   0.719   3.957  14.922 -0.0033  0.2430  0.0051
 1081SOL    HW114702   0.691   4.045  14.895 -1.8093 -0.2212  0.3217
 1081SOL    HW214703   0.790   3.951  14.858 -0.0205 -3.1736  0.3401
 1082SOL     OW14704   1.153   0.984   1.221 -0.3564 -0.1110 -0.2402
 1082SOL    HW114705   1.072   1.002   1.269  1.2931  2.4577  1.5418
 1082SOL    HW214706   1.201   1.060   1.253 -0.9134 -0.5349  1.6535
 1083SOL     OW14707   1.368   0.895   1.731  0.4163 -0.4594 -0.1939
 1083SOL    HW114708   1.320   0.972   1.762 -0.1603 -1.3630  1.1578
 1083SOL    HW214709   1.305   0.865   1.665 -0.6001  2.7871 -0.7406
 1084SOL     OW14710   2.585   2.454  14.472  0.0043 -0.0410  0.9149
 1084SOL    HW114711   2.503   2.501  14.462 -0.2425 -0.0025  3.0851
 1084SOL    HW214712   2.565   2.366  14.505  2.1992 -0.1222  2.0617
 1085SOL     OW14713   0.154   1.263   8.121  0.3058  0.4713 -0.1105
 1085SOL    HW114714   0.206   1.314   8.184 -1.7062  1.4681  0.7203
 1085SOL    HW214715   0.086   1.319   8.084 -1.0305  0.3057  2.1107
 1086SOL     OW14716   4.600   1.889   6.941 -0.5033  0.2910 -0.1382
 1086SOL    HW114717   4.652   1.883   6.861 -0.7266  2.6468 -0.4569
 1086SOL    HW214718   4.587   1.983   6.936  1.5594  0.5954  0.3644
 1087SOL     OW14719   3.765   0.044   9.223  0.0874  0.1211  0.7159
 1087SOL    HW114720   3.753   4.675   9.258  0.9739 -0.1075  0.4297
 1087SOL    HW214721   3.720   0.098   9.288 -0.9178  1.6148 -1.1985
 1088SOL     OW14722   1.392   3.154   2.735 -0.1545 -0.2854  0.0506
 1088SOL    HW114723   1.366   3.146   2.827 -0.0588 -3.6731 -0.2337
 1088SOL    HW214724   1.443   3.074   2.724  0.4656  0.0240  0.6599
 1089SOL     OW14725   2.376   4.231   9.367 -0.2959  0.4052 -0.4446
 1089SOL    HW114726   2.356   4.274   9.283  2.0889  2.4207  0.0168
 1089SOL    HW214727   2.287   4.209   9.395  1.0296  0.2180  3.5496
 1090SOL     OW14728   1.238   1.805  10.886  0.1187 -0.4380  0.1050
 1090SOL    HW114729   1.148   1.780  10.906 -0.0082  0.1724  0.3057
 1090SOL    HW214730   1.236   1.889  10.932  0.0367 -1.7501  2.4584
 1091SOL     OW14731   1.069   1.251   4.307 -0.1492  0.1311 -0.1183
 1091SOL    HW114732   0.990   1.289   4.268 -1.5141 -4.2074 -1.5854
 1091SOL    HW214733   1.057   1.278   4.398 -2.7294 -0.4462 -0.3105
 1092SOL     OW14734   4.524   4.418  16.797 -0.1135 -0.2826 -0.3234
 1092SOL    HW114735   4.432   4.417  16.821 -0.7294 -0.1420 -2.7298
 1092SOL    HW214736   4.567   4.351  16.851 -0.6428 -0.2424  0.1422
 1093SOL     OW14737   3.191   4.127   5.400  0.0832 -0.3068 -0.1419
 1093SOL    HW114738   3.164   4.047   5.355  1.6423  1.1831 -3.7659
 1093SOL    HW214739   3.279   4.140   5.363  0.0216 -0.8659 -0.4848
 1094SOL     OW14740   3.340   3.077   2.481  0.8348 -0.1435  0.1773
 1094SOL    HW114741   3.373   2.998   2.524  1.3178 -0.1164 -0.1394
 1094SOL    HW214742   3.405   3.083   2.411 -0.9849  2.2162 -1.3107
 1095SOL     OW14743   2.694   1.901  13.900 -0.1201  0.3004 -0.1082
 1095SOL    HW114744   2.598   1.903  13.893 -0.0660  1.7916 -0.5683
 1095SOL    HW214745   2.707   1.820  13.949  1.8951  0.8813  0.3358
 1096SOL     OW14746   2.881   0.124   4.541 -0.4667  0.2261  0.5798
 1096SOL    HW114747   2.915   0.043   4.501 -1.2913  0.5234 -0.7204
 1096SOL    HW214748   2.938   0.199   4.527 -1.1513  0.9068  1.4255
 1097SOL     OW14749   2.199   3.119   6.396  0.0562 -0.2004  0.3510
 1097SOL    HW114750   2.248   3.191   6.357  0.9921 -0.5466  0.9011
 1097SOL    HW214751   2.272   3.068   6.431  2.1317  2.8277  0.3693
 1098SOL     OW14752   0.410   2.930   5.390 -0.2198  0.4145  0.3893
 1098SOL    HW114753   0.341   2.983   5.350 -0.6576 -0.9563 -0.6514
 1098SOL    HW214754   0.390   2.910   5.481 -0.4348  0.6551  0.3974
 1099SOL     OW14755   1.222   1.403   3.070  0.4518  0.3168 -0.7581
 1099SOL    HW114756   1.134   1.441   3.070  0.8006  1.1047  1.2081
 1099SOL    HW214757   1.222   1.368   3.159  0.5486 -3.3344 -2.1767
 1100SOL     OW14758   4.316   2.581  10.043  0.4356 -0.1997 -0.0823
 1100SOL    HW114759   4.407   2.606  10.054 -0.3856  2.9954 -0.5372
 1100SOL    HW214760   4.312   2.583   9.947 -0.2309 -0.0746 -0.0561
 1101SOL     OW14761   4.104   4.138  15.813 -0.2186 -0.1199  0.3783
 1101SOL    HW114762   4.112   4.192  15.734 -1.4763 -2.0197 -1.0358
 1101SOL    HW214763   4.172   4.176  15.869 -1.4321  0.3279  1.5165
 1102SOL     OW14764   2.704   3.510   8.238 -0.2144  0.2311  0.4084
 1102SOL    HW114765   2.664   3.492   8.323  2.2322 -1.7282  1.1704
 1102SOL    HW214766   2.792   3.536   8.265 -0.3437  1.8223 -0.7157
 1103SOL     OW14767   4.018   1.994   0.812  0.1916  0.2381  0.1340
 1103SOL    HW114768   3.931   1.980   0.851  1.8535 -1.9565  3.1163
 1103SOL    HW214769   4.067   2.031   0.885  1.0181 -2.4887  0.9643
 1104SOL     OW14770   4.178   3.308   8.205 -0.5162 -0.3001  0.1586
 1104SOL    HW114771   4.145   3.227   8.165 -0.1299  0.2647 -1.3095
 1104SOL    HW214772   4.139   3.373   8.145 -2.1446 -1.5233 -0.1011
 1105SOL     OW14773   3.132   2.020  12.469 -0.2549  0.0141  0.4471
 1105SOL    HW114774   3.133   1.934  12.426 -0.1041  1.4566 -2.4553
 1105SOL    HW214775   3.098   2.008  12.557  1.7600  1.5277  1.4376
 1106SOL     OW14776   2.228   4.513   2.860 -0.0321 -0.6845  0.4035
 1106SOL    HW114777   2.290   4.541   2.792  0.0321 -0.7372  0.4392
 1106SOL    HW214778   2.163   4.466   2.808  1.2666  0.7031 -2.4758
 1107SOL     OW14779   2.712   1.269   1.699 -0.2282  0.0130  0.1215
 1107SOL    HW114780   2.783   1.273   1.763  0.2378 -1.5015 -0.3007
 1107SOL    HW214781   2.764   1.263   1.618 -0.8044  0.8359 -0.3118
 1108SOL     OW14782   1.619   0.552   4.628 -0.5258  0.4624  0.0963
 1108SOL    HW114783   1.703   0.506   4.634 -0.2177  1.3006  1.9810
 1108SOL    HW214784   1.561   0.489   4.585 -1.2074  0.8440  0.4667
 1109SOL     OW14785   4.549   3.747  10.565 -0.1098 -0.5887 -0.2342
 1109SOL    HW114786   4.477   3.808  10.583  0.5421  0.1634 -0.1867
 1109SOL    HW214787   4.530   3.679  10.630 -1.0569 -1.5294 -1.4990
 1110SOL     OW14788   4.541   3.674  13.904 -0.5067  0.1745 -0.1987
 1110SOL    HW114789   4.488   3.599  13.931  2.0744 -1.2214  1.0671
 1110SOL    HW214790   4.576   3.701  13.988 -0.3546 -0.4106 -0.0716
 1111SOL     OW14791   3.187   3.103   5.937  0.0948 -0.1659 -0.2432
 1111SOL    HW114792   3.190   3.059   5.851 -2.3666 -0.9833  0.0739
 1111SOL    HW214793   3.109   3.064   5.977 -0.8405  3.1670  1.1697
 1112SOL     OW14794   4.345   2.255   4.640  0.5537 -0.1353 -0.5071
 1112SOL    HW114795   4.334   2.184   4.702 -0.0487 -0.5398 -1.0804
 1112SOL    HW214796   4.363   2.193   4.569 -1.1911 -0.3917 -0.7109
 1113SOL     OW14797   3.065   1.220   3.751 -0.0501 -1.0816 -0.3414
 1113SOL    HW114798   3.077   1.241   3.659 -2.1189  1.8769  0.0709
 1113SOL    HW214799   3.146   1.245   3.795 -0.7346  1.4390 -0.5628
 1114SOL     OW14800   0.244   1.582   2.963  0.1684  0.3457  0.0577
 1114SOL    HW114801   0.199   1.529   3.028  1.0214 -0.7125 -0.2137
 1114SOL    HW214802   0.332   1.546   2.952 -0.0025 -0.4979  1.4967
 1115SOL     OW14803   0.709   1.085  10.996 -0.3237 -0.3998 -0.7846
 1115SOL    HW114804   0.618   1.109  10.979 -0.1167  0.2094 -1.0268
 1115SOL    HW214805   0.742   1.159  11.046 -1.6641 -0.4161  0.1331
 1116SOL     OW14806   4.524   4.338   9.406 -0.7393 -0.5917 -0.1966
 1116SOL    HW114807   4.513   4.431   9.386  0.8130 -0.5617 -0.8406
 1116SOL    HW214808   4.473   4.304   9.333  1.3337 -0.1022 -1.8382
 1117SOL     OW14809   4.455   2.201  15.081 -0.3538  0.0038  0.5624
 1117SOL    HW114810   4.366   2.196  15.114 -0.8415  1.3861 -0.5256
 1117SOL    HW214811   4.449   2.150  15.000  0.4405 -0.2258  0.6513
 1118SOL     OW14812   1.074   3.821   0.464  0.4369 -0.7567 -0.2649
 1118SOL    HW114813   1.154   3.874   0.460 -1.7560  2.4610 -1.0939
 1118SOL    HW214814   1.017   3.882   0.511  2.0890  0.9472 -0.4371
 1119SOL     OW14815   2.010   2.337   5.015 -0.2284 -0.0370 -0.2049
 1119SOL    HW114816   1.917   2.355   4.998 -0.6188 -0.2739  1.6838
 1119SOL    HW214817   2.042   2.370   4.931 -1.2312  0.3562 -0.4386
 1120SOL     OW14818   4.561   2.475  17.601  0.0506  0.2414 -0.1088
 1120SOL    HW114819   4.640   2.526  17.584 -0.9935  1.1753 -2.1967
 1120SOL    HW214820   4.510   2.536  17.654  0.0152 -0.0860  0.2363
 1121SOL     OW14821   0.376   1.460   4.445 -0.0999  0.0758 -0.1455
 1121SOL    HW114822   0.312   1.528   4.466  0.8434  1.3304 -1.2947
 1121SOL    HW214823   0.333   1.380   4.473  2.9379 -1.3591  0.4118
 1122SOL     OW14824   2.727   1.832   5.148 -0.3788  0.4564  0.5546
 1122SOL    HW114825   2.666   1.779   5.199 -2.1017  1.4616 -0.4541
 1122SOL    HW214826   2.684   1.843   5.063 -3.4816  1.2953  2.2237
 1123SOL     OW14827   2.638   3.170   4.457  0.3543 -0.2587  0.2307
 1123SOL    HW114828   2.623   3.125   4.541 -3.5728 -0.9241 -0.8229
 1123SOL    HW214829   2.561   3.146   4.406 -1.2940  3.5391  0.9108
 1124SOL     OW14830   2.225   1.020  11.277  0.4405  0.1195 -0.2104
 1124SOL    HW114831   2.319   1.036  11.283 -0.0373  2.0821  2.1637
 1124SOL    HW214832   2.206   1.005  11.370 -1.3731  0.3234 -0.5375
 1125SOL     OW14833   1.649   2.032   1.207  0.5677 -0.0652 -0.6295
 1125SOL    HW114834   1.561   2.022   1.170 -0.2110  2.8010  0.4680
 1125SOL    HW214835   1.650   1.950   1.256  2.5817  1.4204  1.8196
 1126SOL     OW14836   0.945   3.944   4.633 -0.4525  0.0322 -0.2706
 1126SOL    HW114837   1.011   3.935   4.564 -0.2081 -1.4707  0.1665
 1126SOL    HW214838   0.978   4.029   4.664 -0.6437 -0.6124  1.7368
 1127SOL     OW14839   4.594   3.302  13.180 -0.0525 -0.1919  0.9271
 1127SOL    HW114840   4.505   3.327  13.204 -0.3027 -0.1521 -0.0282
 1127SOL    HW214841   4.626   3.380  13.135  0.3739 -0.5946  0.5171
 1128SOL     OW14842   0.323   0.305   0.991 -0.1325  0.4448 -0.5955
 1128SOL    HW114843   0.407   0.261   0.980 -0.1833  0.5917 -1.5250
 1128SOL    HW214844   0.302   0.271   1.078  1.8910  1.7047  0.4245
 1129SOL     OW14845   2.708   4.492   6.268  0.0524  0.0625  0.2756
 1129SOL    HW114846   2.765   4.540   6.328 -1.4554  1.8041  0.3329
 1129SOL    HW214847   2.705   4.404   6.305 -1.3697 -0.4955 -1.1541
 1130SOL     OW14848   2.297   1.164   2.262 -0.1495  0.2927  0.6243
 1130SOL    HW114849   2.248   1.225   2.208 -1.7181 -1.3677  0.1879
 1130SOL    HW214850   2.364   1.131   2.202 -2.2588 -1.6232 -0.6397
 1131SOL     OW14851   0.545   1.140   9.761 -0.1440  0.3239  0.3230
 1131SOL    HW114852   0.599   1.065   9.788  0.1631  0.3903 -0.1053
 1131SOL    HW214853   0.612   1.196   9.721 -0.3136 -0.2719 -0.8065
 1132SOL     OW14854   0.123   0.338  10.186 -0.1794 -0.4260  0.4443
 1132SOL    HW114855   0.112   0.432  10.198 -1.1648 -0.4333 -0.3494
 1132SOL    HW214856   0.147   0.333  10.093 -1.3587  0.9119  0.0730
 1133SOL     OW14857   4.462   3.487   6.511  0.1334 -0.4336  0.2659
 1133SOL    HW114858   4.408   3.446   6.444 -2.5412  1.1816  1.4354
 1133SOL    HW214859   4.521   3.415   6.531  0.0006 -0.6851 -0.2522
 1134SOL     OW14860   2.365   3.457   3.679  0.3043  0.0383 -0.7874
 1134SOL    HW114861   2.410   3.473   3.596  0.4090 -0.6128 -0.8564
 1134SOL    HW214862   2.323   3.373   3.659 -0.7635  0.6176 -1.0011
 1135SOL     OW14863   0.485   2.727   7.004 -0.9542  0.0405  0.3076
 1135SOL    HW114864   0.519   2.689   6.923 -2.7955  0.7713 -0.7919
 1135SOL    HW214865   0.419   2.667   7.038  0.6895 -1.3011  1.1582
 1136SOL     OW14866   4.105   0.406  11.571 -0.2657 -0.7341 -0.1083
 1136SOL    HW114867   4.182   0.352  11.591 -1.4979 -2.6337 -0.3963
 1136SOL    HW214868   4.135   0.484  11.524 -0.9487  0.5071  1.5389
 1137SOL     OW14869   2.181   0.935   0.346  0.1285 -0.2248  0.2002
 1137SOL    HW114870   2.135   0.942   0.430 -1.7711  0.6343 -0.9047
 1137SOL    HW214871   2.116   0.987   0.298  0.0177  0.1727  0.7736
 1138SOL     OW14872   4.201   3.022   3.536  0.2568 -0.3949  0.4625
 1138SOL    HW114873   4.231   3.071   3.460 -0.9114 -1.2878 -0.5696
 1138SOL    HW214874   4.272   3.049   3.595  2.1052  0.8037 -2.3008
 1139SOL     OW14875   2.277   0.383  17.041  0.7403  0.1003 -0.1939
 1139SOL    HW114876   2.318   0.466  17.065 -0.7274  0.5169  0.9449
 1139SOL    HW214877   2.225   0.408  16.965  1.6272 -0.0368 -0.8461
 1140SOL     OW14878   0.667   2.131   4.988 -0.5502  0.3929  0.8456
 1140SOL    HW114879   0.647   2.158   4.899 -1.2911 -1.8801  0.3391
 1140SOL    HW214880   0.604   2.060   4.990 -0.3609  0.2221  0.7930
 1141SOL     OW14881   3.942   4.105   3.686 -0.1147  0.7871  0.0833
 1141SOL    HW114882   3.978   4.151   3.610  0.6048  1.0697  0.5969
 1141SOL    HW214883   4.014   4.117   3.748 -0.3340  1.6275  0.1816
 1142SOL     OW14884   4.376   2.287  11.424 -0.0274  0.3615 -0.1163
 1142SOL    HW114885   4.356   2.381  11.420 -0.1141  0.3357 -0.2717
 1142SOL    HW214886   4.397   2.276  11.517 -1.0658  0.5190  0.1475
 1143SOL     OW14887   4.146   2.158   6.162 -0.5304  0.0907 -0.1243
 1143SOL    HW114888   4.105   2.209   6.232  1.2626 -0.1512  1.0844
 1143SOL    HW214889   4.224   2.124   6.204  1.0379  2.7111 -0.9037
 1144SOL     OW14890   2.310   2.650  16.889  0.2946 -0.3725 -0.4373
 1144SOL    HW114891   2.358   2.581  16.842  1.2476 -1.6702  2.4687
 1144SOL    HW214892   2.368   2.646  16.964 -1.3221  0.5346  0.8498
 1145SOL     OW14893   0.484   0.435   4.916 -0.3563  0.1265 -0.5211
 1145SOL    HW114894   0.490   0.530   4.923 -1.2078  0.2810 -1.9456
 1145SOL    HW214895   0.390   0.420   4.922 -0.8131  2.5062 -1.8337
 1146SOL     OW14896   3.175   0.366   5.049 -0.2791  0.2834 -0.2033
 1146SOL    HW114897   3.242   0.311   5.089 -0.0766  0.0266 -0.8832
 1146SOL    HW214898   3.232   0.420   4.993  1.4340  0.3383  1.6032
 1147SOL     OW14899   3.262   0.049  16.931  0.0738  0.2810 -0.4312
 1147SOL    HW114900   3.348   0.062  16.892  0.4546  2.3307  1.1099
 1147SOL    HW214901   3.241   0.139  16.953 -1.9616 -0.2237 -0.2940
 1148SOL     OW14902   2.242   2.266   7.724 -0.5348 -0.3819  0.5224
 1148SOL    HW114903   2.313   2.229   7.672  1.1995  1.7352  1.3964
 1148SOL    HW214904   2.257   2.221   7.808 -0.0016 -0.1596  0.5455
 1149SOL     OW14905   2.276   1.549   4.912  0.4758 -0.3336  0.2320
 1149SOL    HW114906   2.272   1.644   4.926 -1.9030  0.1025 -3.4501
 1149SOL    HW214907   2.368   1.542   4.887  0.5416  1.8295 -0.1466
 1150SOL     OW14908   4.377   1.028  15.663  0.7501  0.1634  0.1616
 1150SOL    HW114909   4.337   1.106  15.625  2.2913 -0.5590 -2.9666
 1150SOL    HW214910   4.464   1.067  15.676  0.1216  0.8177  2.2883
 1151SOL     OW14911   4.611   1.482   7.802  0.2467  0.0334  0.0448
 1151SOL    HW114912   4.536   1.536   7.778 -0.6201 -0.6407  1.2487
 1151SOL    HW214913   4.612   1.415   7.733  0.0561 -2.6692  2.6575
 1152SOL     OW14914   3.791   1.519   8.914  0.1202  0.1470 -0.1866
 1152SOL    HW114915   3.841   1.532   8.834 -0.5497 -1.2174 -0.8377
 1152SOL    HW214916   3.835   1.578   8.975  0.3791  0.7816 -0.9918
 1153SOL     OW14917   2.319   4.285   7.111  0.4341  0.1635 -0.0043
 1153SOL    HW114918   2.307   4.242   7.026  1.7966 -0.0868 -0.0786
 1153SOL    HW214919   2.322   4.216   7.177  1.3324  1.6531  1.5181
 1154SOL     OW14920   0.078   1.612  16.619 -0.2844 -0.1635 -0.5029
 1154SOL    HW114921   0.020   1.680  16.653  1.1151  0.9679 -0.3820
 1154SOL    HW214922   0.152   1.672  16.607 -0.8556  0.6079 -0.1787
 1155SOL     OW14923   2.376   1.534  15.711  0.1941  0.1653  0.3848
 1155SOL    HW114924   2.443   1.492  15.765  0.2815  0.3400  0.4098
 1155SOL    HW214925   2.314   1.568  15.775 -1.9888 -2.2529 -0.4081
 1156SOL     OW14926   0.929   1.003   3.805  0.7439 -0.0623  0.3334
 1156SOL    HW114927   0.877   0.939   3.855 -0.9608 -0.3518 -1.7937
 1156SOL    HW214928   0.971   0.953   3.735 -1.3226  0.9068 -1.5979
 1157SOL     OW14929   1.576   3.887  14.174  0.2052  0.1124  0.3411
 1157SOL    HW114930   1.526   3.815  14.213 -0.2406 -0.4298 -1.2355
 1157SOL    HW214931   1.659   3.880  14.221  1.0405 -0.2652 -1.1927
 1158SOL     OW14932   4.409   3.438  10.071  0.1501 -0.3013 -0.0968
 1158SOL    HW114933   4.439   3.453   9.982 -0.0546  1.0406  0.0560
 1158SOL    HW214934   4.474   3.379  10.109  0.1243 -0.2046  0.1018
 1159SOL     OW14935   2.862   1.926   9.910  0.0489  0.0729  0.1845
 1159SOL    HW114936   2.807   1.987   9.959  2.0970  1.2615  1.0290
 1159SOL    HW214937   2.891   1.968   9.829 -2.1600  0.4240 -0.4038
 1160SOL     OW14938   2.336   3.279  15.849  0.2780 -0.4481  0.8826
 1160SOL    HW114939   2.343   3.359  15.797  1.3139 -0.6445  0.7246
 1160SOL    HW214940   2.418   3.269  15.896  1.7014 -2.7031 -2.0731
 1161SOL     OW14941   3.984   2.238   2.636  0.3958  0.4447  0.0376
 1161SOL    HW114942   4.069   2.281   2.647  1.2643 -0.5491 -2.8081
 1161SOL    HW214943   3.987   2.175   2.709 -0.6177 -2.5414 -2.5002
 1162SOL     OW14944   2.822   1.636   2.946 -0.0602 -0.5947  0.2755
 1162SOL    HW114945   2.833   1.600   2.858  2.2331 -3.0069  1.5377
 1162SOL    HW214946   2.786   1.720   2.918 -2.2476 -1.8160 -0.5919
 1163SOL     OW14947   0.256   2.961   1.711 -0.0667  0.0258  0.3624
 1163SOL    HW114948   0.240   2.991   1.621  2.4634 -1.1626 -0.4714
 1163SOL    HW214949   0.281   2.870   1.693  0.9787  0.3107  0.4281
 1164SOL     OW14950   3.874   2.873   9.685  0.3746 -0.1447 -0.0682
 1164SOL    HW114951   3.921   2.948   9.650 -1.8043  0.9411 -0.6590
 1164SOL    HW214952   3.865   2.823   9.604  1.5910  1.1892 -1.0269
 1165SOL     OW14953   1.617   0.187   6.823  0.1791  0.1065 -0.8002
 1165SOL    HW114954   1.657   0.236   6.751  1.8190 -2.6914 -1.8250
 1165SOL    HW214955   1.548   0.251   6.836 -2.0507 -2.4009 -0.4263
 1166SOL     OW14956   1.769   0.122   1.016 -0.8103 -0.4954 -0.1198
 1166SOL    HW114957   1.856   0.143   1.050 -2.3404  2.6848  1.8004
 1166SOL    HW214958   1.762   0.198   0.958  2.5397 -0.7121 -0.8195
 1167SOL     OW14959   2.143   3.861   9.676 -0.1359 -0.3592  0.5120
 1167SOL    HW114960   2.239   3.862   9.681  0.0250  0.2153 -2.7065
 1167SOL    HW214961   2.137   3.808   9.755 -2.6812  2.0465  1.9327
 1168SOL     OW14962   4.418   3.361   5.359 -0.0648 -0.0509 -0.1247
 1168SOL    HW114963   4.388   3.452   5.365  0.6379  0.2992 -1.8372
 1168SOL    HW214964   4.422   3.345   5.453 -2.4945 -0.3427 -0.0759
 1169SOL     OW14965   0.738   3.322  10.518 -0.4777  0.2068 -0.0259
 1169SOL    HW114966   0.743   3.227  10.529  1.5644  0.2655 -0.4974
 1169SOL    HW214967   0.775   3.356  10.599  1.6121  2.1212 -1.7898
 1170SOL     OW14968   4.284   2.375   7.584 -0.4381 -0.0762 -0.5351
 1170SOL    HW114969   4.277   2.378   7.680  0.1704  1.3601 -0.5501
 1170SOL    HW214970   4.376   2.392   7.567 -0.2303 -1.1864 -0.4914
 1171SOL     OW14971   3.826   2.906   5.776  0.1248  0.1463  0.1400
 1171SOL    HW114972   3.835   2.866   5.690  2.6758  0.9920  0.0015
 1171SOL    HW214973   3.918   2.895   5.802 -0.2888 -2.7113  0.3268
 1172SOL     OW14974   0.010   2.493   5.196 -0.5485  0.6482  0.1531
 1172SOL    HW114975   0.018   2.545   5.275 -0.6534 -0.5399  0.9450
 1172SOL    HW214976   4.648   2.448   5.217 -1.1013  1.0880 -1.0404
 1173SOL     OW14977   3.306   3.028   9.522 -0.7118 -0.2226  0.0857
 1173SOL    HW114978   3.239   3.086   9.485 -0.6477  1.1848  2.1903
 1173SOL    HW214979   3.383   3.039   9.466 -0.7132  1.7002  0.4367
 1174SOL     OW14980   2.462   4.401   8.296  0.3152  0.5264 -0.2231
 1174SOL    HW114981   2.443   4.381   8.205 -2.5325  0.1648  0.4236
 1174SOL    HW214982   2.381   4.381   8.343 -0.5265  1.2391 -1.3794
 1175SOL     OW14983   0.782   2.183   8.153  0.2786  0.0111  0.6567
 1175SOL    HW114984   0.819   2.129   8.223  2.6540  0.5011 -0.2369
 1175SOL    HW214985   0.721   2.116   8.122 -1.4645  2.5454 -1.4009
 1176SOL     OW14986   3.048   3.834   4.302  0.0842  0.0614 -0.3398
 1176SOL    HW114987   3.125   3.778   4.289  0.5114  0.5963 -0.1059
 1176SOL    HW214988   2.978   3.770   4.314  1.1963 -0.5091  3.0834
 1177SOL     OW14989   1.958   0.836   3.697  0.5324  0.1732  0.0813
 1177SOL    HW114990   1.980   0.829   3.790  0.3731 -0.1036  0.0973
 1177SOL    HW214991   1.868   0.867   3.709 -0.1511 -1.1408 -1.7806
 1178SOL     OW14992   0.585   4.683   9.158  0.2069 -0.0168 -0.1356
 1178SOL    HW114993   0.636   0.007   9.225 -1.8109 -1.0794  2.0904
 1178SOL    HW214994   0.499   0.003   9.171  0.3470  0.0451  0.5898
 1179SOL     OW14995   3.779   2.990   3.657 -0.2083  0.1452  0.5345
 1179SOL    HW114996   3.718   2.990   3.583 -0.8994 -0.6886  1.0998
 1179SOL    HW214997   3.812   2.900   3.665  2.7099  1.1939  0.0788
 1180SOL     OW14998   2.460   3.561   7.836 -0.3782  0.1142 -0.4261
 1180SOL    HW114999   2.449   3.653   7.810  0.7543  0.1112 -0.9274
 1180SOL    HW215000   2.518   3.577   7.911  1.4950  1.6887 -2.2057
 1181SOL     OW15001   3.043   3.880  10.163  0.1758  0.5954  0.1274
 1181SOL    HW115002   2.977   3.918  10.105 -1.5027  2.9988  3.5946
 1181SOL    HW215003   3.117   3.852  10.109  1.1235 -1.5323  2.5081
 1182SOL     OW15004   1.536   1.672   0.678  0.1287  0.4994 -0.1367
 1182SOL    HW115005   1.618   1.702   0.718 -1.5651  1.0435  2.9264
 1182SOL    HW215006   1.495   1.620   0.747  1.1365 -0.5211 -0.3042
 1183SOL     OW15007   0.004   3.321   4.221  0.6436  0.9005  0.1743
 1183SOL    HW115008   0.098   3.306   4.230  0.0431 -2.9904  0.0862
 1183SOL    HW215009   4.719   3.329   4.126  3.0102  2.3760  0.1861
 1184SOL     OW15010   2.957   1.411   8.000  0.4528  0.5178 -0.2826
 1184SOL    HW115011   3.009   1.406   7.920 -1.2770  1.1039 -1.4517
 1184SOL    HW215012   2.883   1.354   7.978  1.0404 -0.8397  1.2798
 1185SOL     OW15013   0.482   1.468   5.110 -0.7444  0.2208 -0.6670
 1185SOL    HW115014   0.551   1.415   5.151 -0.7060  0.4520 -0.4375
 1185SOL    HW215015   0.533   1.531   5.059  1.1665 -1.2376 -0.6004
 1186SOL     OW15016   1.430   2.693   7.218  0.1978  0.6565 -0.0541
 1186SOL    HW115017   1.415   2.662   7.307  1.3810  1.3741  0.4003
 1186SOL    HW215018   1.516   2.656   7.197  0.5317  0.7199  1.2301
 1187SOL     OW15019   1.759   2.441  13.527  0.3583  0.1698  0.1791
 1187SOL    HW115020   1.845   2.464  13.493  0.4519 -0.2143  0.1508
 1187SOL    HW215021   1.698   2.446  13.453  1.1700  1.1814 -0.4194
 1188SOL     OW15022   0.592   2.935   1.773  0.3105  0.4551  0.6190
 1188SOL    HW115023   0.678   2.975   1.785  1.0834 -0.8648 -0.5390
 1188SOL    HW215024   0.581   2.952   1.679  0.5324  0.1813  0.5413
 1189SOL     OW15025   2.036   3.432   4.511 -0.0493 -0.0362  0.1400
 1189SOL    HW115026   1.993   3.494   4.452  1.5543  1.2425  0.3224
 1189SOL    HW215027   1.971   3.362   4.515  0.2732 -0.4685 -1.8346
 1190SOL     OW15028   3.517   3.952  16.993  0.1240 -0.4269  0.1650
 1190SOL    HW115029   3.581   3.893  17.032  1.0401  0.0031 -0.6493
 1190SOL    HW215030   3.473   3.980  17.073  0.6263 -3.0772  1.3570
 1191SOL     OW15031   3.804   4.115   1.793  0.3221  0.5483  0.1426
 1191SOL    HW115032   3.747   4.160   1.731  0.0942 -1.9438 -1.4738
 1191SOL    HW215033   3.798   4.029   1.752  0.3088 -0.7115  2.8031
 1192SOL     OW15034   4.271   0.744   6.642 -0.8910  0.2273  0.2913
 1192SOL    HW115035   4.319   0.675   6.597  0.3557  1.4221 -0.2151
 1192SOL    HW215036   4.201   0.752   6.577 -0.0506 -0.8423 -0.7540
 1193SOL     OW15037   2.522   4.630   9.760  0.5437 -0.2193 -0.1296
 1193SOL    HW115038   2.480   4.714   9.780 -3.5801 -1.7465 -2.4480
 1193SOL    HW215039   2.514   4.628   9.664  0.0876  1.8634 -0.1326
 1194SOL     OW15040   0.535   0.011   6.679  0.2062  0.2105  0.0762
 1194SOL    HW115041   0.547   0.101   6.709  0.5695 -0.2056  1.1946
 1194SOL    HW215042   0.590   0.007   6.601 -0.1025  1.1297 -0.1893
 1195SOL     OW15043   2.889   3.649   3.769 -0.0058 -0.3203 -0.0301
 1195SOL    HW115044   2.949   3.720   3.789  1.5342 -0.9636 -2.3498
 1195SOL    HW215045   2.953   3.579   3.758  0.3252 -0.5203  3.4630
 1196SOL     OW15046   1.309   2.301   2.964  0.5445 -0.1504 -0.0641
 1196SOL    HW115047   1.274   2.214   2.984 -0.2817 -0.0485 -1.1149
 1196SOL    HW215048   1.278   2.360   3.033  1.3429 -0.7297  0.8068
 1197SOL     OW15049   1.040   2.729  14.745 -0.2714  0.7946  0.1643
 1197SOL    HW115050   0.959   2.743  14.795  0.2466  1.6156  0.7728
 1197SOL    HW215051   1.046   2.634  14.747 -0.3398  0.7464 -1.6038
 1198SOL     OW15052   1.642   2.758   6.118  0.3104 -0.6094 -0.1559
 1198SOL    HW115053   1.651   2.675   6.073  0.3722  0.3552 -1.9099
 1198SOL    HW215054   1.681   2.816   6.052 -0.5538 -0.3704 -0.4491
 1199SOL     OW15055   3.339   4.385   3.157 -0.1835 -0.3817 -0.1181
 1199SOL    HW115056   3.346   4.296   3.121 -0.2596 -0.4307 -0.0125
 1199SOL    HW215057   3.391   4.427   3.089  0.8223 -2.5264 -0.6957
 1200SOL     OW15058   3.109   1.487   1.777 -0.2514  0.2279  0.5877
 1200SOL    HW115059   3.045   1.553   1.751  0.1446  0.3754 -0.0138
 1200SOL    HW215060   3.145   1.457   1.694  1.3426  1.0900  0.9587
 1201SOL     OW15061   4.588   0.666   5.931 -0.4750 -0.3881 -0.7706
 1201SOL    HW115062   4.624   0.754   5.937 -3.2496  0.7240 -0.9337
 1201SOL    HW215063   4.656   0.633   5.871  0.1989  0.1701 -0.3191
 1202SOL     OW15064   2.880   0.817   1.882  0.2073  0.1763  0.3810
 1202SOL    HW115065   2.830   0.889   1.843 -1.6968 -2.1798 -1.5445
 1202SOL    HW215066   2.868   0.837   1.975 -0.5352 -1.1404  0.5721
 1203SOL     OW15067   1.468   1.701   3.646  0.1406  0.1746 -0.1644
 1203SOL    HW115068   1.401   1.770   3.646 -0.3637 -0.3177 -0.2341
 1203SOL    HW215069   1.523   1.739   3.577 -1.3239 -0.3442 -1.6233
 1204SOL     OW15070   2.226   1.170   3.042 -0.6311 -0.0431  0.5054
 1204SOL    HW115071   2.229   1.182   2.947  0.3286 -1.1670  0.4045
 1204SOL    HW215072   2.308   1.121   3.048  0.1494  1.2860  0.7520
 1205SOL     OW15073   2.920   4.329   0.960  0.1931  0.3830  0.5101
 1205SOL    HW115074   2.869   4.404   0.928 -1.1105 -1.7426 -2.4097
 1205SOL    HW215075   2.995   4.385   0.984  0.6914 -0.7687  1.6370
 1206SOL     OW15076   3.445   2.477   0.808  0.1043  0.6775  0.0870
 1206SOL    HW115077   3.507   2.485   0.880 -1.5774  0.2876  1.5867
 1206SOL    HW215078   3.498   2.421   0.752 -0.4099 -0.2202  0.4738
 1207SOL     OW15079   0.918   1.055   5.026  0.5791 -0.1030 -0.1273
 1207SOL    HW115080   0.892   1.049   5.117 -0.6395  3.3684 -0.2537
 1207SOL    HW215081   0.835   1.031   4.985 -0.9920 -0.4641  3.3080
 1208SOL     OW15082   1.109   3.473  17.224 -0.2738  0.0440 -0.0040
 1208SOL    HW115083   1.049   3.462  17.151  0.1714 -1.0498 -0.1983
 1208SOL    HW215084   1.130   3.566  17.214  0.9725 -0.3729 -1.2900
 1209SOL     OW15085   4.563   0.764   6.685 -0.1770  0.4479  0.1283
 1209SOL    HW115086   4.573   0.839   6.627  1.8350 -0.3917 -0.6387
 1209SOL    HW215087   4.516   0.707   6.625  0.7071 -1.7618  1.5485
 1210SOL     OW15088   0.901   3.661   9.709  0.6383 -0.1613  0.0267
 1210SOL    HW115089   0.816   3.663   9.754 -0.7317 -2.7095 -2.4629
 1210SOL    HW215090   0.916   3.753   9.687 -0.5053 -0.3488 -1.5370
 1211SOL     OW15091   2.730   0.657  11.237  0.0297 -0.0509 -0.0336
 1211SOL    HW115092   2.794   0.712  11.193  2.0719 -2.8889 -0.5917
 1211SOL    HW215093   2.648   0.698  11.208  0.0761  0.4555  0.5720
 1212SOL     OW15094   2.225   3.817   7.112  0.1412  0.6914  0.3029
 1212SOL    HW115095   2.140   3.860   7.117  0.3674  1.0698  0.8530
 1212SOL    HW215096   2.236   3.788   7.203 -2.2523  0.8519  0.6438
 1213SOL     OW15097   2.892   2.458   2.569  0.0910 -0.0473  0.4985
 1213SOL    HW115098   2.875   2.550   2.591 -0.1892 -0.1901  0.8948
 1213SOL    HW215099   2.828   2.420   2.630  0.1917 -0.1578  0.5336
 1214SOL     OW15100   0.576   1.087   7.085  0.0651  0.3038 -0.3528
 1214SOL    HW115101   0.530   1.072   7.002  0.6748  1.3127 -0.8687
 1214SOL    HW215102   0.648   1.147   7.068  0.2491  0.7718  2.1329
 1215SOL     OW15103   0.748   0.090   9.332  0.2762  0.0281  0.0798
 1215SOL    HW115104   0.744   0.099   9.427 -0.7219 -2.1843  0.2501
 1215SOL    HW215105   0.840   0.105   9.311  0.1667 -0.2609 -0.6231
 1216SOL     OW15106   0.492   4.541   5.316  0.1042 -0.1802  0.5577
 1216SOL    HW115107   0.575   4.494   5.307 -1.2199 -2.8643  2.2623
 1216SOL    HW215108   0.507   4.605   5.386 -0.9948 -0.5252  1.1158
 1217SOL     OW15109   4.174   3.860   3.141  0.5334 -0.2870  0.1092
 1217SOL    HW115110   4.226   3.939   3.151  0.8970 -0.2274 -2.1407
 1217SOL    HW215111   4.192   3.811   3.221  0.2558 -1.6219 -0.6386
 1218SOL     OW15112   0.005   1.730   8.355  1.4419  0.3539  0.4305
 1218SOL    HW115113   4.672   1.800   8.395 -2.5111 -2.7616  0.7703
 1218SOL    HW215114   4.671   1.708   8.278  1.9800  1.9570 -0.3955
 1219SOL     OW15115   1.257   2.014   0.312 -0.2682 -0.0040 -0.4889
 1219SOL    HW115116   1.286   1.981   0.397  1.4316 -0.0776 -1.1042
 1219SOL    HW215117   1.166   1.982   0.313  0.6015 -2.4547  0.8001
 1220SOL     OW15118   4.387   1.771  14.202  0.1131 -0.2792 -0.6250
 1220SOL    HW115119   4.426   1.858  14.208 -0.7765  0.0815 -0.0361
 1220SOL    HW215120   4.372   1.757  14.295 -0.9498  1.7570 -0.4973
 1221SOL     OW15121   3.772   3.834  11.115 -0.3938 -0.3445  0.8190
 1221SOL    HW115122   3.758   3.748  11.155 -0.7511 -0.4446  0.4792
 1221SOL    HW215123   3.787   3.809  11.024 -1.9165 -1.9341  0.9901
 1222SOL     OW15124   2.070   4.595   2.595 -0.1215 -0.5639 -0.0942
 1222SOL    HW115125   2.112   4.639   2.522 -2.1979 -0.9590 -1.5397
 1222SOL    HW215126   2.100   4.504   2.586 -0.8574 -0.8188 -0.0142
 1223SOL     OW15127   1.642   4.514   4.645  0.2030 -0.7556  0.4158
 1223SOL    HW115128   1.736   4.515   4.628  0.3339  1.5734  1.3937
 1223SOL    HW215129   1.627   4.420   4.654  0.3117 -1.1444 -3.2635
 1224SOL     OW15130   2.446   2.143   5.232  0.3511  0.1373 -0.0690
 1224SOL    HW115131   2.497   2.158   5.153  0.9865  1.0123  0.5058
 1224SOL    HW215132   2.354   2.167   5.220 -0.0137 -1.2286  0.0549
 1225SOL     OW15133   3.236   3.781   5.800  0.2485  0.6454 -0.2113
 1225SOL    HW115134   3.281   3.856   5.839  3.3537  0.2068 -2.9730
 1225SOL    HW215135   3.167   3.821   5.747 -1.5833 -1.6623  0.4439
 1226SOL     OW15136   0.454   3.787   8.904  0.7424  0.7325 -0.1046
 1226SOL    HW115137   0.453   3.727   8.829  1.2637  0.8371 -0.1951
 1226SOL    HW215138   0.548   3.781   8.923  1.0909 -1.0873 -2.3895
 1227SOL     OW15139   3.673   1.866   5.658  0.3382 -0.1970 -0.0269
 1227SOL    HW115140   3.608   1.931   5.684  0.1292 -0.2607 -0.3940
 1227SOL    HW215141   3.645   1.835   5.572 -0.4787 -1.9268  0.8720
 1228SOL     OW15142   1.219   1.628   4.865 -0.6429 -0.1832 -0.5877
 1228SOL    HW115143   1.128   1.600   4.878 -0.7084  0.3329  0.0825
 1228SOL    HW215144   1.212   1.639   4.770 -1.1597 -0.6583 -0.6096
 1229SOL     OW15145   4.193   1.897   4.254  0.2550  0.0026  0.1867
 1229SOL    HW115146   4.158   1.860   4.173  0.5376 -2.3631  1.1619
 1229SOL    HW215147   4.284   1.870   4.241  0.0473 -1.3176  1.4923
 1230SOL     OW15148   2.120   0.020  16.867  0.5020  0.3627  0.0687
 1230SOL    HW115149   2.097   4.666  16.809 -1.0826  1.3160 -0.5264
 1230SOL    HW215150   2.082   4.714  16.952 -1.4656 -2.2724 -1.5614
 1231SOL     OW15151   1.876   4.292   0.095  0.0122  0.3247 -0.0404
 1231SOL    HW115152   1.811   4.270   0.028  0.3187 -0.7498  0.0066
 1231SOL    HW215153   1.959   4.249   0.075 -0.1481  0.7736 -1.6565
 1232SOL     OW15154   3.313   0.015   8.399  0.2876  0.0200 -0.5575
 1232SOL    HW115155   3.316   4.685   8.481  2.1467  0.2672 -0.4711
 1232SOL    HW215156   3.323   0.103   8.437  0.2844 -1.1445  2.1588
 1233SOL     OW15157   0.880   3.053   6.816 -0.5350  0.4558  0.5195
 1233SOL    HW115158   0.812   3.097   6.865  1.3899  1.0526  2.6378
 1233SOL    HW215159   0.903   2.973   6.863  1.3211 -0.3264 -1.6717
 1234SOL     OW15160   3.310   2.759   1.939 -0.3706 -0.0573 -0.1537
 1234SOL    HW115161   3.273   2.695   2.000 -1.5853  0.9406  0.1783
 1234SOL    HW215162   3.344   2.694   1.879 -0.0181 -0.4976  0.5184
 1235SOL     OW15163   4.407   0.512   5.280 -0.5559 -0.2156 -0.7301
 1235SOL    HW115164   4.358   0.432   5.263 -0.3714 -0.4277 -0.2583
 1235SOL    HW215165   4.457   0.483   5.356 -1.1538 -0.8978 -0.5950
 1236SOL     OW15166   4.000   4.164  16.619  0.1791 -0.7947 -0.6124
 1236SOL    HW115167   3.974   4.098  16.684  1.4597  0.2971  1.0060
 1236SOL    HW215168   3.916   4.187  16.581  0.4864 -0.7677 -1.2644
 1237SOL     OW15169   1.217   3.243   6.603 -0.3293  0.9220 -0.0519
 1237SOL    HW115170   1.195   3.311   6.539 -0.4974  0.0703 -0.8914
 1237SOL    HW215171   1.208   3.169   6.542 -0.8304  1.8239 -1.0711
 1238SOL     OW15172   0.728   0.016   2.594  0.2523 -0.3853 -0.0769
 1238SOL    HW115173   0.790   0.064   2.539 -0.7198 -0.8788 -1.5854
 1238SOL    HW215174   0.765   4.650   2.576 -1.0088 -0.9638  0.0895
 1239SOL     OW15175   4.158   4.244   6.777 -0.2311  0.1758  0.1008
 1239SOL    HW115176   4.230   4.275   6.832  1.0190 -0.2884 -1.2414
 1239SOL    HW215177   4.125   4.329   6.748  1.0723  1.3046  1.9655
 1240SOL     OW15178   3.907   1.331   1.485  0.0155  0.1599 -0.9363
 1240SOL    HW115179   3.866   1.312   1.570  1.1888 -0.1665 -0.4521
 1240SOL    HW215180   4.000   1.338   1.504 -1.0913 -0.0960  4.6074
 1241SOL     OW15181   1.766   2.139   5.835 -0.2110  0.0310 -0.1968
 1241SOL    HW115182   1.756   2.065   5.776 -0.7506 -0.9396  1.1035
 1241SOL    HW215183   1.676   2.135   5.866 -0.9123  1.5451 -2.0235
 1242SOL     OW15184   2.160   3.110   8.374  0.3492  0.4849  0.1025
 1242SOL    HW115185   2.194   3.198   8.389  2.6427 -0.3554 -0.1093
 1242SOL    HW215186   2.215   3.065   8.437 -1.1801 -0.2263  0.9149
 1243SOL     OW15187   0.307   3.481  10.746  0.7779  0.5829 -0.3921
 1243SOL    HW115188   0.330   3.563  10.702 -0.3178  0.2214 -1.6238
 1243SOL    HW215189   0.253   3.432  10.685  2.0868 -0.9448 -0.3357
 1244SOL     OW15190   1.176   0.471   2.527  0.0971 -0.2947 -0.1213
 1244SOL    HW115191   1.197   0.461   2.435  1.4232  3.1785 -0.1906
 1244SOL    HW215192   1.103   0.532   2.514 -0.8523 -1.0994  1.3845
 1245SOL     OW15193   0.269   4.103   9.905  0.1111  0.0421 -0.8087
 1245SOL    HW115194   0.194   4.162   9.907 -0.2930 -0.4563 -1.0930
 1245SOL    HW215195   0.276   4.080   9.812 -0.9029 -0.4965 -0.7568
 1246SOL     OW15196   4.064   1.525   4.759 -0.0275  0.5025 -0.0637
 1246SOL    HW115197   4.043   1.568   4.676 -0.0251  0.1161 -0.2629
 1246SOL    HW215198   4.156   1.504   4.744 -0.6339 -1.4696 -0.9596
 1247SOL     OW15199   0.969   3.355   9.730  0.5325 -0.4184 -0.6259
 1247SOL    HW115200   1.060   3.378   9.747 -0.4503  2.2562  0.8067
 1247SOL    HW215201   0.938   3.443   9.748  0.1931 -0.4145 -1.2249
 1248SOL     OW15202   2.424   3.936   7.487 -0.2465 -0.2197  0.0928
 1248SOL    HW115203   2.467   3.851   7.484 -1.4397 -0.6460 -4.0726
 1248SOL    HW215204   2.353   3.918   7.549  0.7032  0.5787  1.4378
 1249SOL     OW15205   0.388   1.253   1.851 -0.6378  0.1145 -0.5286
 1249SOL    HW115206   0.401   1.247   1.946 -0.8065 -3.6022 -0.7726
 1249SOL    HW215207   0.315   1.315   1.861 -0.1003  1.0795 -2.6578
 1250SOL     OW15208   4.553   1.131  12.832 -0.1739  0.2211 -0.0213
 1250SOL    HW115209   4.480   1.102  12.778  1.4674  2.9295 -3.6619
 1250SOL    HW215210   4.514   1.202  12.884  1.1997  0.8076  0.2225
 1251SOL     OW15211   4.011   0.324   9.585 -0.2261 -0.6181 -0.5298
 1251SOL    HW115212   4.001   0.238   9.544 -1.9912 -0.9089  0.4948
 1251SOL    HW215213   4.065   0.372   9.522  0.3203 -1.6128 -0.8182
 1252SOL     OW15214   3.517   0.791   7.951 -0.1305 -0.1071 -0.0535
 1252SOL    HW115215   3.574   0.715   7.963 -0.8596 -0.7715 -0.7424
 1252SOL    HW215216   3.538   0.814   7.860 -1.1643  0.2816 -0.2021
 1253SOL     OW15217   0.035   0.572   4.271 -0.3797 -0.2502 -0.2639
 1253SOL    HW115218   4.674   0.580   4.220 -0.7030 -2.4026 -0.0982
 1253SOL    HW215219   0.010   0.520   4.348  1.1459  0.4739  0.7297
 1254SOL     OW15220   3.994   3.627   7.496  0.4681  0.3633 -0.2923
 1254SOL    HW115221   4.010   3.714   7.533  0.3613 -0.1726  1.0093
 1254SOL    HW215222   4.086   3.599   7.492  0.0222 -1.1714  0.3913
 1255SOL     OW15223   1.179   1.811   5.529  0.7359 -0.2195  0.2275
 1255SOL    HW115224   1.144   1.798   5.441  0.9915  0.2137  0.0654
 1255SOL    HW215225   1.096   1.803   5.577  0.9946  1.6828  1.0046
 1256SOL     OW15226   2.566   3.127   8.143 -0.1712 -0.9735 -0.5015
 1256SOL    HW115227   2.564   3.042   8.188  0.6569  1.4501  4.1252
 1256SOL    HW215228   2.642   3.111   8.088 -1.2485  0.8916 -2.5365
 1257SOL     OW15229   4.442   4.143   4.667 -0.4519 -0.2003 -0.4992
 1257SOL    HW115230   4.505   4.164   4.736  1.0141 -0.5694 -1.7026
 1257SOL    HW215231   4.433   4.048   4.672 -2.1330  0.0396  0.9438
 1258SOL     OW15232   0.590   3.110   5.139 -0.1629 -0.4041  0.1818
 1258SOL    HW115233   0.610   3.144   5.052 -0.3434  1.6787  0.9513
 1258SOL    HW215234   0.498   3.132   5.157  0.2690  0.3110  1.5521
 1259SOL     OW15235   2.857   3.482   5.216 -0.6162  0.0735 -0.3669
 1259SOL    HW115236   2.821   3.425   5.148 -0.1769 -1.1633  0.4501
 1259SOL    HW215237   2.830   3.442   5.298 -1.4179 -0.5195 -0.9258
 1260SOL     OW15238   4.343   0.020  12.133  0.1865  0.0467  0.3108
 1260SOL    HW115239   4.327   4.683  12.058 -0.1016 -0.1969  0.5544
 1260SOL    HW215240   4.288   0.091  12.102  1.1802  0.7182  0.1058
 1261SOL     OW15241   2.865   3.874   6.430  0.1606 -0.1751  0.1691
 1261SOL    HW115242   2.810   3.799   6.406 -1.9288  1.0848  0.9316
 1261SOL    HW215243   2.803   3.931   6.475  0.7164  2.5899 -2.5755
 1262SOL     OW15244   1.366   1.713   1.183 -0.3464  0.1094  0.2764
 1262SOL    HW115245   1.374   1.699   1.278  1.2348 -0.9156 -0.0079
 1262SOL    HW215246   1.271   1.723   1.187 -0.7182 -2.9905 -1.3504
 1263SOL     OW15247   1.444   0.029   2.279  0.2647 -0.0341  0.2879
 1263SOL    HW115248   1.525   4.702   2.296  0.1413  0.3091  1.7962
 1263SOL    HW215249   1.377   4.682   2.292  0.4114 -0.3137 -0.3864
 1264SOL     OW15250   2.726   1.663   2.520 -0.1764 -0.0255 -0.1740
 1264SOL    HW115251   2.752   1.594   2.581 -2.2899 -1.6753 -1.1198
 1264SOL    HW215252   2.802   1.721   2.517 -0.3287  0.3419  2.9112
 1265SOL     OW15253   4.535   1.314   6.854 -0.1295  0.0096  0.0645
 1265SOL    HW115254   4.490   1.298   6.770  2.1783  1.9614 -1.5493
 1265SOL    HW215255   4.481   1.368   6.911  1.4384  2.4535 -0.7620
 1266SOL     OW15256   0.689   1.933   5.324  0.0125  0.1715  0.6465
 1266SOL    HW115257   0.694   1.890   5.409 -1.0820 -0.5209  0.3632
 1266SOL    HW215258   0.652   1.866   5.267  0.9951  0.0736  0.1299
 1267SOL     OW15259   2.476   2.816   0.651  0.2880 -0.1547 -0.3483
 1267SOL    HW115260   2.412   2.886   0.666 -0.8550 -1.1859 -0.4203
 1267SOL    HW215261   2.437   2.761   0.582 -0.3930  1.4913 -1.2665
 1268SOL     OW15262   2.039   2.200   1.713 -0.3374  0.3224  0.2329
 1268SOL    HW115263   2.048   2.274   1.653 -0.6372  1.2504  1.3295
 1268SOL    HW215264   2.025   2.242   1.798 -1.0022 -0.4165  0.4875
 1269SOL     OW15265   2.083   0.955   1.953 -0.5600  0.5978 -0.4054
 1269SOL    HW115266   2.136   0.876   1.941 -1.2062  0.0497  0.3533
 1269SOL    HW215267   2.141   1.025   1.924  1.6575 -0.7532  0.7079
 1270SOL     OW15268   1.086   4.600   8.227 -0.9530  0.0030  0.3062
 1270SOL    HW115269   1.101   4.512   8.262  0.8877  0.4439  0.6325
 1270SOL    HW215270   1.142   4.590   8.150 -0.9872 -1.0359  0.4105
 1271SOL     OW15271   0.408   0.678   4.742 -0.6159  0.0783 -0.6442
 1271SOL    HW115272   0.415   0.739   4.816 -1.6332 -0.4081 -0.1325
 1271SOL    HW215273   0.445   0.717   4.663 -3.5524  2.2045 -0.9992
 1272SOL     OW15274   3.924   4.654   4.257  0.5573 -0.1203 -0.0334
 1272SOL    HW115275   4.008   4.700   4.263  0.8098 -1.0787  3.4638
 1272SOL    HW215276   3.875   0.004   4.301  0.9268  0.5422 -0.6692
 1273SOL     OW15277   2.255   4.187  14.829 -0.0817  0.5182  0.1501
 1273SOL    HW115278   2.215   4.264  14.790 -0.2854  0.3627  0.0513
 1273SOL    HW215279   2.264   4.118  14.762  0.9796  1.5939 -0.8285
 1274SOL     OW15280   1.618   0.918   2.621  0.3586 -0.0238 -0.4660
 1274SOL    HW115281   1.655   0.896   2.707 -0.0147  1.7229  0.1462
 1274SOL    HW215282   1.596   0.839   2.572 -1.1631 -0.7635  1.3754
 1275SOL     OW15283   3.697   2.537  12.358  0.0063  0.3184 -0.0119
 1275SOL    HW115284   3.617   2.520  12.407  0.8808  0.2271  1.3653
 1275SOL    HW215285   3.659   2.539  12.270 -1.3656 -0.3011  0.5733
 1276SOL     OW15286   2.925   3.573  16.926 -0.1765  0.5769 -0.6022
 1276SOL    HW115287   2.982   3.646  16.902  0.2867  0.5359  0.3959
 1276SOL    HW215288   2.918   3.527  16.842  1.3807  0.4194 -0.6530
 1277SOL     OW15289   0.594   4.461   6.731  0.2850 -0.2711  0.2111
 1277SOL    HW115290   0.616   4.453   6.638 -0.7499  3.0396 -0.3070
 1277SOL    HW215291   0.562   4.551   6.737 -0.2054 -0.3610 -1.1875
 1278SOL     OW15292   2.086   1.657  11.656 -0.5149  0.0033  0.8649
 1278SOL    HW115293   2.037   1.577  11.673  1.2715 -0.5521  3.3655
 1278SOL    HW215294   2.179   1.633  11.665 -0.8943 -1.4642  0.9005
 1279SOL     OW15295   2.886   3.498   1.553 -0.0764 -0.1437 -0.7605
 1279SOL    HW115296   2.956   3.535   1.499  0.2662  1.6562  0.9023
 1279SOL    HW215297   2.918   3.536   1.635 -2.1742 -0.8423  0.3732
 1280SOL     OW15298   2.670   1.773   2.225  0.9595 -0.6882 -0.2442
 1280SOL    HW115299   2.706   1.690   2.194 -0.0515 -1.5207  0.8277
 1280SOL    HW215300   2.712   1.772   2.311 -0.3340  0.5158  0.4129
 1281SOL     OW15301   4.673   1.560   5.472  0.0506 -0.4974  0.3995
 1281SOL    HW115302   4.690   1.466   5.481 -1.0863 -0.4752  2.9227
 1281SOL    HW215303   4.579   1.560   5.455  0.2208 -1.2599 -0.5629
 1282SOL     OW15304   3.395   2.540   2.470  0.1474  0.2429  0.9102
 1282SOL    HW115305   3.308   2.550   2.431  0.2038 -1.6164  0.2850
 1282SOL    HW215306   3.427   2.464   2.421  2.3558  1.5508  0.3249
 1283SOL     OW15307   3.211   1.832   1.304  0.5510  0.1786  0.8350
 1283SOL    HW115308   3.157   1.911   1.301  2.7924  1.6874  0.2892
 1283SOL    HW215309   3.182   1.802   1.391 -0.4719  0.1127  0.4656
 1284SOL     OW15310   1.819   1.092   8.512 -0.7288 -0.0883 -0.5391
 1284SOL    HW115311   1.884   1.090   8.583  1.3545  0.9536 -2.4138
 1284SOL    HW215312   1.784   1.003   8.521 -0.5477 -0.0420  0.6787
 1285SOL     OW15313   0.336   1.222  15.107  0.0652  0.5503  0.1658
 1285SOL    HW115314   0.314   1.188  15.194 -0.4822  1.6746  0.4707
 1285SOL    HW215315   0.342   1.134  15.070  1.1350  1.0692 -0.9125
 1286SOL     OW15316   2.771   3.154   3.286 -0.1351  0.1679  0.0852
 1286SOL    HW115317   2.863   3.157   3.258 -0.4314  0.9165 -0.7919
 1286SOL    HW215318   2.732   3.105   3.213  2.9054 -0.3786 -1.1688
 1287SOL     OW15319   4.510   0.516   4.048  0.4103  0.3175 -0.1450
 1287SOL    HW115320   4.463   0.451   3.996 -0.0068  0.4793  0.0265
 1287SOL    HW215321   4.454   0.510   4.126  0.1682 -0.7978 -0.3984
 1288SOL     OW15322   3.276   1.522   5.186  0.3209 -0.2841  0.2172
 1288SOL    HW115323   3.317   1.523   5.272  1.6405 -2.1917 -0.3844
 1288SOL    HW215324   3.232   1.438   5.200  1.8266 -1.2305 -0.5967
 1289SOL     OW15325   3.581   3.730   7.382  0.2066 -0.6413  0.0743
 1289SOL    HW115326   3.537   3.793   7.439  0.2128 -1.5509  1.0908
 1289SOL    HW215327   3.512   3.693   7.326 -1.2336  0.0068  1.4119
 1290SOL     OW15328   0.823   0.224  16.992 -0.1900  0.2746  0.0460
 1290SOL    HW115329   0.888   0.155  16.986  0.1401  0.4925  1.1132
 1290SOL    HW215330   0.753   0.191  16.935 -1.4384  2.1120  0.5084
 1291SOL     OW15331   1.298   3.570  13.082 -0.5439 -0.0801 -0.1936
 1291SOL    HW115332   1.327   3.600  13.168 -0.5815  0.5071 -0.3860
 1291SOL    HW215333   1.273   3.659  13.058 -2.3262 -0.6547 -0.4152
 1292SOL     OW15334   3.935   2.276   8.180  0.1817  0.1061 -0.0621
 1292SOL    HW115335   3.935   2.369   8.201  1.4679 -0.3784  2.0089
 1292SOL    HW215336   3.843   2.261   8.202 -0.0005  1.3183 -0.0126
 1293SOL     OW15337   4.681   4.157   3.225 -0.3447  0.0761  0.2495
 1293SOL    HW115338   4.635   4.220   3.280 -0.9561  0.6646 -0.9523
 1293SOL    HW215339   4.647   4.078   3.268  0.6491  1.2827  3.2386
 1294SOL     OW15340   2.853   1.952   6.861  0.6708 -0.1494  0.1115
 1294SOL    HW115341   2.835   2.045   6.874  0.0200  0.1922 -3.1861
 1294SOL    HW215342   2.845   1.939   6.767  2.7211 -0.6659  0.0016
 1295SOL     OW15343   0.322   4.525  15.162  0.1725 -0.0493  0.0751
 1295SOL    HW115344   0.244   4.559  15.118  0.0588 -0.1516  0.1990
 1295SOL    HW215345   0.395   4.550  15.104  0.9824  1.2356  1.6651
 1296SOL     OW15346   4.506   4.707   3.944  0.1644  0.4805 -0.0172
 1296SOL    HW115347   4.432   0.047   3.961  1.2384  2.3990 -2.0844
 1296SOL    HW215348   4.468   4.654   3.874 -0.7241  0.6875  0.3072
 1297SOL     OW15349   1.485   1.180   3.971 -0.2765 -0.4922 -0.2029
 1297SOL    HW115350   1.434   1.253   4.007 -0.9152 -1.1487  0.2434
 1297SOL    HW215351   1.571   1.211   4.000 -1.0388  0.9917  0.4636
 1298SOL     OW15352   3.489   2.381   2.261  0.2331  0.1369  0.4092
 1298SOL    HW115353   3.506   2.397   2.168  1.5481 -1.7536  0.3302
 1298SOL    HW215354   3.537   2.299   2.272  2.2627  1.2881  0.0595
 1299SOL     OW15355   1.956   0.238   7.558 -0.0311 -0.2401  0.1897
 1299SOL    HW115356   1.881   0.296   7.566 -0.8376 -1.1676 -0.6430
 1299SOL    HW215357   1.922   0.153   7.585 -3.8492  0.6000 -2.0970
 1300SOL     OW15358   1.925   4.010   4.345 -0.7728  0.3100  0.1773
 1300SOL    HW115359   1.948   4.103   4.346 -0.2615  0.1871 -0.2625
 1300SOL    HW215360   1.841   4.008   4.298 -1.9768  1.0004  2.3189
 1301SOL     OW15361   4.649   0.177   6.908 -0.7397 -0.3384  0.2057
 1301SOL    HW115362   4.579   0.201   6.848  0.6918  2.4193 -0.3850
 1301SOL    HW215363   4.677   0.094   6.871  0.3990 -0.4186  1.2321
 1302SOL     OW15364   1.918   2.097   9.458 -0.3456  0.1042 -0.0341
 1302SOL    HW115365   1.875   2.121   9.376 -0.6095 -1.7789 -0.4352
 1302SOL    HW215366   1.999   2.148   9.453 -0.6720  0.2069 -4.0049
 1303SOL     OW15367   2.421   3.490   2.808  0.1226 -0.1314  0.2290
 1303SOL    HW115368   2.486   3.467   2.874  0.4739  0.5440  0.1141
 1303SOL    HW215369   2.447   3.424   2.743  1.9821  1.7088 -0.8865
 1304SOL     OW15370   0.306   0.763   0.826  0.0574 -0.5619 -0.3608
 1304SOL    HW115371   0.288   0.701   0.897 -0.5942 -0.2072 -0.2167
 1304SOL    HW215372   0.245   0.735   0.757 -1.8176 -1.1528  1.5235
 1305SOL     OW15373   2.134   1.653   2.452 -0.0316  0.6600 -0.2600
 1305SOL    HW115374   2.193   1.729   2.455  1.8607 -0.8287  1.0066
 1305SOL    HW215375   2.202   1.585   2.450 -0.4980  0.2273 -1.1692
 1306SOL     OW15376   0.118   2.917   4.353 -0.2765 -0.1809 -0.5600
 1306SOL    HW115377   0.050   2.940   4.416 -2.6150  0.8312 -3.4749
 1306SOL    HW215378   0.195   2.969   4.379  0.8069 -1.8956 -0.3427
 1307SOL     OW15379   2.897   1.014   2.829  0.3277  0.3079  0.7519
 1307SOL    HW115380   2.922   0.938   2.881  1.1954  0.2179  0.2010
 1307SOL    HW215381   2.982   1.052   2.805  0.7544 -0.6724  0.7221
 1308SOL     OW15382   0.846   2.948   9.430  0.6050 -0.3564  0.6443
 1308SOL    HW115383   0.875   2.919   9.516  1.4317 -0.1042  0.4496
 1308SOL    HW215384   0.773   2.890   9.408  0.3023  0.5265 -0.6812
 1309SOL     OW15385   2.941   2.653   6.018 -0.2412  0.1196  0.5851
 1309SOL    HW115386   2.919   2.575   6.070  1.7347 -0.6220  0.3083
 1309SOL    HW215387   2.861   2.682   5.976 -0.7288 -1.6679  0.2866
 1310SOL     OW15388   4.433   0.855   8.883 -0.4538 -0.5307 -0.8320
 1310SOL    HW115389   4.394   0.851   8.970 -0.8235 -3.0845 -1.1243
 1310SOL    HW215390   4.515   0.901   8.905 -0.0134 -0.3924 -2.7853
 1311SOL     OW15391   0.831   1.020   6.444  0.1307 -0.1607  0.0436
 1311SOL    HW115392   0.910   1.028   6.498  0.6156  0.7037 -0.7882
 1311SOL    HW215393   0.873   1.001   6.360  1.0994 -2.9497  1.1286
 1312SOL     OW15394   0.474   2.539   0.893 -0.1568  0.0346 -0.7806
 1312SOL    HW115395   0.560   2.570   0.921 -0.1552 -0.8399  0.1916
 1312SOL    HW215396   0.464   2.456   0.940  0.9842  0.3553  0.0191
 1313SOL     OW15397   3.152   1.540   4.767  0.3513 -0.4876  0.0118
 1313SOL    HW115398   3.231   1.507   4.809 -0.6996 -0.1360  2.2683
 1313SOL    HW215399   3.188   1.590   4.693  3.2985 -1.0423  1.0846
 1314SOL     OW15400   1.041   2.698   3.524  0.3471  0.2746 -0.4040
 1314SOL    HW115401   1.042   2.661   3.613  1.3951  1.4827  0.0915
 1314SOL    HW215402   1.048   2.790   3.552  0.7841 -0.3439  1.5112
 1315SOL     OW15403   3.987   3.518   3.321  0.3581 -0.1513  0.0118
 1315SOL    HW115404   4.030   3.479   3.397  0.3428 -2.8310 -1.3595
 1315SOL    HW215405   4.053   3.526   3.253  1.1482 -1.9330  0.5837
 1316SOL     OW15406   3.725   3.382   8.554 -0.5336  0.3464 -0.1595
 1316SOL    HW115407   3.706   3.291   8.532  0.3444 -0.3391  1.8771
 1316SOL    HW215408   3.786   3.421   8.492 -1.2140  1.2366 -0.2809
 1317SOL     OW15409   0.037   3.833   5.456 -0.3498 -0.0120  0.1417
 1317SOL    HW115410   0.119   3.878   5.478  0.0966 -0.7648  0.0373
 1317SOL    HW215411   0.064   3.781   5.381  0.2365 -0.3824  0.6040
 1318SOL     OW15412   1.498   4.069   2.494  0.1336 -0.1339  0.3030
 1318SOL    HW115413   1.506   3.980   2.528 -1.2879 -0.5509 -0.4410
 1318SOL    HW215414   1.538   4.064   2.407 -0.7264 -1.9788  0.0254
 1319SOL     OW15415   0.723   0.713   8.398 -0.4528  0.3786 -0.3772
 1319SOL    HW115416   0.645   0.766   8.382 -1.5117 -1.2140 -0.5346
 1319SOL    HW215417   0.772   0.774   8.452 -0.8774 -0.1055  0.5660
 1320SOL     OW15418   3.081   3.118   8.891 -0.1335 -0.1594 -0.1492
 1320SOL    HW115419   3.048   3.051   8.832  0.6931 -0.6238 -0.0863
 1320SOL    HW215420   3.175   3.100   8.883  0.3724  1.7953  1.4104
 1321SOL     OW15421   3.969   1.868   9.401 -0.0308 -0.2671 -0.5755
 1321SOL    HW115422   3.896   1.835   9.453 -0.5698 -0.5207 -1.4869
 1321SOL    HW215423   3.920   1.900   9.326 -1.7721  2.2156  1.6215
 1322SOL     OW15424   4.161   2.672   0.829 -0.3656 -0.1207 -0.0300
 1322SOL    HW115425   4.084   2.719   0.860 -0.1848 -0.5111  1.0325
 1322SOL    HW215426   4.149   2.680   0.735 -2.2979  0.3947  0.2600
 1323SOL     OW15427   1.626   1.811   1.363 -0.2721 -0.3762 -0.0850
 1323SOL    HW115428   1.706   1.793   1.413 -0.1227  0.6065  0.0344
 1323SOL    HW215429   1.566   1.748   1.402 -1.3895  1.0558  0.4993
 1324SOL     OW15430   1.806   1.859   7.980  0.8299  0.2446 -0.9505
 1324SOL    HW115431   1.851   1.814   7.908  0.8769 -0.1075 -0.6998
 1324SOL    HW215432   1.873   1.864   8.047 -0.7985  0.2314  0.6678
 1325SOL     OW15433   4.652   3.676   7.221 -0.4657  0.3605  0.3252
 1325SOL    HW115434   4.624   3.712   7.137  0.5882  2.7861  1.0221
 1325SOL    HW215435   0.022   3.703   7.238 -0.0206 -1.4976  0.9325
 1326SOL     OW15436   2.437   3.730  13.124  0.1185  0.0621 -0.0986
 1326SOL    HW115437   2.367   3.795  13.132  0.7897  0.5638  1.7107
 1326SOL    HW215438   2.522   3.774  13.132  0.0987 -0.2220  1.5593
 1327SOL     OW15439   0.946   3.408   7.500  0.2499  0.2781 -0.1932
 1327SOL    HW115440   1.006   3.405   7.575  0.5172 -0.6631 -0.4393
 1327SOL    HW215441   0.903   3.323   7.513 -1.4760  1.1321 -0.4875
 1328SOL     OW15442   0.082   4.678  10.713 -0.5090  0.2292 -0.0409
 1328SOL    HW115443   0.109   4.590  10.740 -0.8973  0.2122  0.2843
 1328SOL    HW215444   0.128   0.012  10.778 -3.8695  1.1629  1.5359
 1329SOL     OW15445   2.188   3.310   7.921  0.0855 -0.4028  0.3597
 1329SOL    HW115446   2.181   3.366   7.844 -0.6003  0.0945  0.7872
 1329SOL    HW215447   2.211   3.363   7.997 -1.3711 -1.3624  1.4647
 1330SOL     OW15448   4.467   2.710   3.349 -0.5686  0.0356  0.3516
 1330SOL    HW115449   4.511   2.683   3.430 -1.0230  1.5159  1.0901
 1330SOL    HW215450   4.536   2.774   3.330  1.0738 -1.4450  1.3228
 1331SOL     OW15451   4.505   0.814  14.017 -0.4415  0.3194  0.2885
 1331SOL    HW115452   4.478   0.750  13.950 -2.1265  1.5599 -0.2232
 1331SOL    HW215453   4.418   0.828  14.054  0.3813  1.3492  1.7979
 1332SOL     OW15454   0.558   0.820   5.618  0.0071 -0.2998 -0.3233
 1332SOL    HW115455   0.550   0.758   5.690 -0.1867  1.2902  1.0265
 1332SOL    HW215456   0.468   0.852   5.607 -0.5641 -1.2104  1.6590
 1333SOL     OW15457   3.894   4.357   8.066  0.0792  0.1402 -0.0445
 1333SOL    HW115458   3.899   4.328   8.157  0.3257 -0.9403 -0.4081
 1333SOL    HW215459   3.987   4.370   8.050  0.6054 -3.2358  0.3066
 1334SOL     OW15460   4.474   2.052   5.726  0.1467 -0.3047 -0.0718
 1334SOL    HW115461   4.471   2.107   5.648 -1.3463  0.0169  0.2026
 1334SOL    HW215462   4.474   1.966   5.684 -0.6920 -0.0919 -0.5014
 1335SOL     OW15463   1.842   0.033   0.438  0.1118  0.1804 -0.3819
 1335SOL    HW115464   1.803   0.109   0.396 -0.9715 -0.6228 -0.8209
 1335SOL    HW215465   1.827   0.062   0.528  2.8479 -0.1241  0.1684
 1336SOL     OW15466   2.284   0.109   7.236  0.0951 -0.4826  1.0914
 1336SOL    HW115467   2.221   0.178   7.252 -0.9774 -1.0025 -0.8152
 1336SOL    HW215468   2.280   0.068   7.322  0.2898 -2.1597  0.3174
 1337SOL     OW15469   3.965   1.918  12.321 -0.2269  0.4740  0.0497
 1337SOL    HW115470   4.047   1.964  12.303 -0.3753  0.1480 -1.4415
 1337SOL    HW215471   3.987   1.826  12.333 -0.4512  0.2859 -1.0159
 1338SOL     OW15472   1.608   4.266   6.142 -0.0963 -0.3801 -0.5273
 1338SOL    HW115473   1.592   4.355   6.112  0.6621  0.0620  0.3909
 1338SOL    HW215474   1.539   4.221   6.092  1.3709 -0.4746 -2.4633
 1339SOL     OW15475   3.709   3.861   6.109 -0.1814  0.6200  0.0190
 1339SOL    HW115476   3.692   3.841   6.202 -0.5665  0.8267 -0.0020
 1339SOL    HW215477   3.664   3.944   6.090 -0.0597  0.9889  1.3235
 1340SOL     OW15478   3.021   3.400   0.024  0.4919 -0.2963  0.2238
 1340SOL    HW115479   3.079   3.476   0.036  0.8361 -0.4364 -0.5144
 1340SOL    HW215480   2.972   3.418  17.625  0.7993  0.6858  0.2561
 1341SOL     OW15481   4.077   2.050   3.830  0.2238 -0.2970 -0.5473
 1341SOL    HW115482   4.130   1.992   3.774  1.5299  1.4348 -1.0954
 1341SOL    HW215483   3.996   2.054   3.778 -1.4763  0.1817  2.1468
 1342SOL     OW15484   0.187   1.722  11.154 -0.2824 -0.0342 -0.1730
 1342SOL    HW115485   0.146   1.718  11.068  0.8926  1.2053 -0.7938
 1342SOL    HW215486   0.126   1.787  11.190 -0.9756 -0.1897 -1.0773
 1343SOL     OW15487   0.823   0.081   0.599  0.4301  0.3145  0.1395
 1343SOL    HW115488   0.863   4.718   0.627  0.9227  0.7436  0.6774
 1343SOL    HW215489   0.904   0.127   0.577  0.0766  1.4417  1.2092
 1344SOL     OW15490   0.421   4.117   5.692  0.0695 -0.0294  0.0161
 1344SOL    HW115491   0.365   4.195   5.689  0.6828  0.4109 -0.0853
 1344SOL    HW215492   0.395   4.073   5.772  0.5077 -1.7558 -0.7863
 1345SOL     OW15493   3.228   1.008  11.438 -0.6801 -0.3369 -0.3183
 1345SOL    HW115494   3.164   1.066  11.479  1.1108  0.4886  1.3406
 1345SOL    HW215495   3.264   1.057  11.364  0.6936  1.0516  1.2818
 1346SOL     OW15496   0.977   1.016   0.388  0.3385 -0.1023 -0.1245
 1346SOL    HW115497   0.894   1.036   0.432  0.1396 -0.6599 -0.2467
 1346SOL    HW215498   1.008   0.938   0.433 -1.1348 -0.9481 -0.5706
 1347SOL     OW15499   2.677   1.882   3.937 -0.2490  0.1973 -0.2179
 1347SOL    HW115500   2.747   1.894   3.873  1.7267 -1.0060  1.7039
 1347SOL    HW215501   2.662   1.970   3.972 -4.0619 -0.9038  0.8813
 1348SOL     OW15502   4.423   4.345   2.823  0.3383 -0.1430  0.1224
 1348SOL    HW115503   4.346   4.387   2.861  1.9344  0.5270  2.5307
 1348SOL    HW215504   4.431   4.396   2.742 -0.4903 -1.9331 -1.1200
 1349SOL     OW15505   0.899   1.080  11.346  0.0941 -0.5682 -0.0595
 1349SOL    HW115506   0.912   1.019  11.273  2.6969  2.3157 -1.9540
 1349SOL    HW215507   0.863   1.021  11.414  0.2645  0.0989  0.6023
 1350SOL     OW15508   4.509   1.663  11.951 -0.3839  0.1889 -0.7224
 1350SOL    HW115509   4.567   1.681  11.877 -4.1934  0.8551 -3.5527
 1350SOL    HW215510   4.570   1.673  12.024 -1.3711  0.9606 -0.0003
 1351SOL     OW15511   2.561   1.575   4.271  0.2663  0.5769 -0.3102
 1351SOL    HW115512   2.618   1.626   4.214 -0.7151  1.3937 -0.5683
 1351SOL    HW215513   2.476   1.619   4.264  0.1577  0.5895  1.2295
 1352SOL     OW15514   2.437   0.758   7.042  1.0141  0.4629 -0.6124
 1352SOL    HW115515   2.365   0.697   7.028  2.0354 -1.1160  0.8871
 1352SOL    HW215516   2.488   0.691   7.088  0.4793  0.2050 -0.3960
 1353SOL     OW15517   1.533   3.351  12.392 -0.4324  0.5271 -0.1528
 1353SOL    HW115518   1.533   3.259  12.418  1.4652  0.2673 -1.1184
 1353SOL    HW215519   1.530   3.383  12.482  0.4263 -1.0752  0.4539
 1354SOL     OW15520   2.009   4.026  10.009  0.3700  0.4033  0.2032
 1354SOL    HW115521   2.086   3.972  10.027 -0.3295 -0.6795 -0.0546
 1354SOL    HW215522   1.930   3.973  10.016  1.1010 -0.9882 -1.7294
 1355SOL     OW15523   2.799   1.995   5.938  0.3259  0.5071 -0.2455
 1355SOL    HW115524   2.894   1.986   5.951  0.4141  0.6751 -0.7660
 1355SOL    HW215525   2.794   2.045   5.857 -0.8560 -0.2566 -0.6471
 1356SOL     OW15526   0.548   3.869   2.511  0.0518 -0.4132 -0.2037
 1356SOL    HW115527   0.462   3.872   2.471 -0.7565  2.5501  1.7216
 1356SOL    HW215528   0.551   3.963   2.532 -0.7640 -0.4013 -0.1717
 1357SOL     OW15529   0.397   2.875   4.871 -0.0259  0.2925 -0.2336
 1357SOL    HW115530   0.461   2.841   4.933 -0.1994 -0.4934 -0.4802
 1357SOL    HW215531   0.342   2.798   4.859  1.6863 -0.8689 -0.6777
 1358SOL     OW15532   0.133   2.418   5.825 -0.2179 -0.3582 -0.8557
 1358SOL    HW115533   0.056   2.379   5.866  0.4864 -0.9294 -0.0798
 1358SOL    HW215534   0.165   2.337   5.784  0.7918 -0.6503  0.4994
 1359SOL     OW15535   0.366   2.209   4.522  0.5019 -0.2250  0.2248
 1359SOL    HW115536   0.357   2.282   4.460 -0.4907 -0.6551 -0.1324
 1359SOL    HW215537   0.305   2.225   4.595  0.5154  2.0477 -0.2617
 1360SOL     OW15538   1.028   1.052   8.184 -0.1034  0.1780 -0.0754
 1360SOL    HW115539   0.954   0.994   8.203  1.1647 -1.2044  0.5968
 1360SOL    HW215540   1.098   0.987   8.192  2.5865  3.2020  1.0204
 1361SOL     OW15541   3.263   4.150   9.081 -0.0741  0.8474 -0.0278
 1361SOL    HW115542   3.319   4.224   9.056 -1.4593  1.7742 -0.4114
 1361SOL    HW215543   3.179   4.196   9.091 -1.8168 -2.7359  1.7357
 1362SOL     OW15544   0.741   3.747   2.126 -0.4507  0.0035 -0.0682
 1362SOL    HW115545   0.709   3.831   2.157 -0.4241  0.0910 -0.2752
 1362SOL    HW215546   0.659   3.714   2.090 -0.3914  0.3377 -0.5057
 1363SOL     OW15547   1.023   1.407  17.057 -0.2128  0.5503  0.3524
 1363SOL    HW115548   1.089   1.474  17.072 -0.0708 -0.0671  2.3970
 1363SOL    HW215549   1.006   1.426  16.965  0.0729  0.9606  0.3852
 1364SOL     OW15550   4.033   4.054  11.520  0.5385  0.1256  0.4703
 1364SOL    HW115551   4.038   4.147  11.497 -1.0983  0.1781  0.2893
 1364SOL    HW215552   3.966   4.027  11.457  1.9225 -0.0196 -0.9365
 1365SOL     OW15553   0.371   3.242   7.222 -0.8943 -0.2683  0.1873
 1365SOL    HW115554   0.309   3.285   7.280  0.9697  3.7024 -0.7796
 1365SOL    HW215555   0.351   3.150   7.241  2.2517 -1.2720 -1.3521
 1366SOL     OW15556   0.160   4.432  12.767  0.3351  0.0575  0.0402
 1366SOL    HW115557   0.087   4.409  12.824 -0.2464  1.7518 -0.0129
 1366SOL    HW215558   0.207   4.496  12.821 -2.2513  2.5302 -0.6452
 1367SOL     OW15559   3.771   0.680   5.060  0.0822  0.3982 -0.2137
 1367SOL    HW115560   3.792   0.773   5.056 -0.9027  0.6516  0.5069
 1367SOL    HW215561   3.801   0.655   5.147  0.4027  1.7425  0.0631
 1368SOL     OW15562   2.157   3.968   4.616 -0.1646  0.1613  0.0113
 1368SOL    HW115563   2.103   3.972   4.537  1.3191 -0.4504 -1.0282
 1368SOL    HW215564   2.158   3.874   4.629  0.8728  0.2603  0.6443
 1369SOL     OW15565   1.579   0.113   0.054  0.3490 -0.1155  0.3825
 1369SOL    HW115566   1.668   0.119   0.018  0.1086 -0.0422 -0.2115
 1369SOL    HW215567   1.593   0.056   0.130 -2.4793 -1.4649 -0.1107
 1370SOL     OW15568   2.293   0.365   6.319  0.4495 -0.1157 -0.3268
 1370SOL    HW115569   2.231   0.422   6.365 -0.1469 -2.2878  1.5263
 1370SOL    HW215570   2.247   0.301   6.265  0.6635 -0.5673  0.0346
 1371SOL     OW15571   0.433   0.024   1.787  0.7113  0.0982  0.4866
 1371SOL    HW115572   0.496   4.689   1.834  2.3756  1.7687  0.1474
 1371SOL    HW215573   0.484   0.045   1.709  3.1108  0.0019  2.0251
 1372SOL     OW15574   2.693   3.362   5.407  0.1201  0.6508 -0.0815
 1372SOL    HW115575   2.629   3.352   5.336  1.7634 -1.9634 -1.2074
 1372SOL    HW215576   2.643   3.428   5.455 -0.5938  0.4352 -0.5241
 1373SOL     OW15577   4.661   0.486  11.516  0.3340 -0.4858  0.1526
 1373SOL    HW115578   4.603   0.515  11.445 -0.6889 -2.0794  0.3180
 1373SOL    HW215579   4.618   0.402  11.532 -2.0921  0.0490 -3.5518
 1374SOL     OW15580   3.154   4.040   8.342 -0.4410 -0.5072  0.8935
 1374SOL    HW115581   3.148   4.131   8.314  0.1605 -0.9146 -0.5675
 1374SOL    HW215582   3.214   4.011   8.273 -1.7801  1.2444 -1.0040
 1375SOL     OW15583   0.232   0.592   8.103  0.3791 -0.5181 -0.3589
 1375SOL    HW115584   0.301   0.531   8.129 -0.3215 -0.8887  0.6158
 1375SOL    HW215585   0.178   0.529   8.055 -0.4148  1.0880 -1.6058
 1376SOL     OW15586   0.569   0.622   5.781  0.1449 -0.1694 -0.1213
 1376SOL    HW115587   0.543   0.534   5.755 -1.6749  0.5280 -0.6390
 1376SOL    HW215588   0.594   0.601   5.871  0.2008 -0.7716 -0.2739
 1377SOL     OW15589   0.256   0.448   1.319 -0.0704  0.1962 -0.0531
 1377SOL    HW115590   0.236   0.541   1.321  1.3471  0.5850 -2.9578
 1377SOL    HW215591   0.272   0.431   1.412  0.2035  0.2068 -0.0974
 1378SOL     OW15592   0.638   1.971  15.458  0.3302  0.6294 -0.1968
 1378SOL    HW115593   0.556   1.923  15.473  0.9498  0.1183  1.5415
 1378SOL    HW215594   0.602   2.060  15.453 -0.5560  0.3006  0.2001
 1379SOL     OW15595   0.762   3.568   5.264  0.9367  0.3337 -0.5319
 1379SOL    HW115596   0.726   3.505   5.326 -1.5834 -0.9290 -3.2397
 1379SOL    HW215597   0.704   3.644   5.265 -0.5689 -0.8085 -1.1531
 1380SOL     OW15598   4.708   3.460   9.294  0.2895 -0.7321 -0.5910
 1380SOL    HW115599   0.077   3.434   9.322  0.2491  2.0533  2.1031
 1380SOL    HW215600   4.703   3.545   9.337 -2.4583 -1.0628 -0.2722
 1381SOL     OW15601   2.857   2.088  14.591  0.0663  0.0278 -0.0043
 1381SOL    HW115602   2.805   2.149  14.538  1.1179  1.3577  0.5053
 1381SOL    HW215603   2.849   2.123  14.679 -3.7402  0.6539 -0.6123
 1382SOL     OW15604   4.694   4.415  12.980  0.0505 -0.4755 -0.4461
 1382SOL    HW115605   4.620   4.405  13.040 -0.1095 -0.8704 -0.7071
 1382SOL    HW215606   4.673   4.496  12.934  2.0457  1.1365  1.4789
 1383SOL     OW15607   1.660   1.966   8.804  0.5167 -0.4670  0.7398
 1383SOL    HW115608   1.755   1.968   8.794  0.7032 -0.5299  2.5501
 1383SOL    HW215609   1.655   2.018   8.884  1.5263  1.0974 -0.1864
 1384SOL     OW15610   2.951   3.601   8.267  0.7030 -0.4746  0.3466
 1384SOL    HW115611   3.018   3.658   8.305  0.9867 -0.7308  0.2305
 1384SOL    HW215612   2.953   3.634   8.177  0.1299  0.3068  0.6157
 1385SOL     OW15613   2.881   2.052   9.473 -0.4092  0.0288  0.7535
 1385SOL    HW115614   2.937   2.124   9.445 -1.2044  0.6236  0.7115
 1385SOL    HW215615   2.885   2.056   9.568  1.1050 -0.6284  0.7167
 1386SOL     OW15616   1.943   0.508  14.208 -0.5996 -0.2158 -0.0410
 1386SOL    HW115617   1.878   0.438  14.220 -1.6680  0.4805 -1.6708
 1386SOL    HW215618   1.921   0.561  14.284 -0.3952  1.0334 -0.8462
 1387SOL     OW15619   0.902   2.073  13.098 -0.2483 -0.3187 -0.7112
 1387SOL    HW115620   0.810   2.067  13.125 -0.3404 -0.2052 -1.0010
 1387SOL    HW215621   0.940   1.995  13.140 -1.6316 -1.6758 -1.9748
 1388SOL     OW15622   2.442   3.525   8.905 -0.7555  0.3067  1.0470
 1388SOL    HW115623   2.409   3.445   8.944 -0.6601 -0.6571 -0.8412
 1388SOL    HW215624   2.403   3.582   8.970  2.1057  0.0028  3.0253
 1389SOL     OW15625   2.647   0.977   5.447  0.2844 -0.7821 -0.3317
 1389SOL    HW115626   2.654   1.065   5.483 -1.8015  0.7454 -3.6617
 1389SOL    HW215627   2.574   0.997   5.389  0.4329  1.8263  0.3903
 1390SOL     OW15628   0.144   2.464  11.257  0.7285 -0.7555  0.6367
 1390SOL    HW115629   0.227   2.417  11.269  1.0206 -0.7974 -1.5369
 1390SOL    HW215630   0.084   2.389  11.254 -0.5276  0.5044 -4.1768
 1391SOL     OW15631   0.430   4.389   2.615  0.3928 -0.4036 -0.4005
 1391SOL    HW115632   0.518   4.370   2.646  0.2323  0.3124  0.5008
 1391SOL    HW215633   0.371   4.346   2.677  0.9734 -0.5247  0.0689
 1392SOL     OW15634   3.277   2.341   0.575 -0.4070 -0.0807  0.6213
 1392SOL    HW115635   3.246   2.416   0.524  1.2530  1.0300  1.2458
 1392SOL    HW215636   3.323   2.386   0.647 -0.0995 -0.2442  0.5289
 1393SOL     OW15637   4.158   2.604   9.107 -0.4445  0.0577  0.4562
 1393SOL    HW115638   4.251   2.590   9.124  0.1294  2.0576 -0.9687
 1393SOL    HW215639   4.113   2.615   9.190  0.2462 -0.8842  0.9502
 1394SOL     OW15640   3.712   0.872  13.595 -0.0171  0.4359  0.7596
 1394SOL    HW115641   3.700   0.906  13.507 -0.7212 -2.0755 -0.1099
 1394SOL    HW215642   3.693   0.952  13.643  0.7997  0.0154  1.7909
 1395SOL     OW15643   1.528   2.344   1.283  0.5777 -0.1237 -0.4637
 1395SOL    HW115644   1.609   2.394   1.274 -0.2007  1.4640  1.2729
 1395SOL    HW215645   1.518   2.339   1.378  1.3720  2.4842 -0.2532
 1396SOL     OW15646   2.846   4.278   1.410  0.2217 -0.1673  0.1701
 1396SOL    HW115647   2.851   4.210   1.476 -1.9176 -0.2380  0.2593
 1396SOL    HW215648   2.876   4.230   1.333  0.4434  0.8958 -0.4071
 1397SOL     OW15649   0.496   2.011  15.029 -0.7127  0.0701 -0.4937
 1397SOL    HW115650   0.588   2.002  15.003 -0.7721 -1.1177 -0.2981
 1397SOL    HW215651   0.506   2.060  15.110 -1.0003  1.2631 -1.1770
 1398SOL     OW15652   3.522   1.175  15.952  0.1783  0.0955  0.1825
 1398SOL    HW115653   3.556   1.108  15.893  1.2765  1.6159 -0.9003
 1398SOL    HW215654   3.428   1.156  15.948  0.2567 -0.0491 -0.8837
 1399SOL     OW15655   0.990   2.388  14.267 -0.2118 -0.4228 -0.6558
 1399SOL    HW115656   1.049   2.344  14.327 -0.8270 -1.2277 -0.6378
 1399SOL    HW215657   1.052   2.417  14.200  0.6170  0.0328  0.2992
 1400SOL     OW15658   1.336   2.318   3.963  0.7436  0.0586 -0.0172
 1400SOL    HW115659   1.302   2.230   3.980  0.1424  0.5732  1.4566
 1400SOL    HW215660   1.430   2.300   3.971  0.3010 -1.5734  1.4109
 1401SOL     OW15661   1.125   3.995   6.519 -0.5044  0.0344  0.1392
 1401SOL    HW115662   1.130   4.082   6.561 -0.7910 -0.4245  1.1329
 1401SOL    HW215663   1.217   3.968   6.513 -0.2739  0.3283  2.0869
 1402SOL     OW15664   1.632   2.212   6.397 -0.5426  0.5968 -0.3033
 1402SOL    HW115665   1.693   2.260   6.453 -1.2007 -1.8443  2.5346
 1402SOL    HW215666   1.582   2.155   6.457 -0.1454 -0.8362 -1.3282
 1403SOL     OW15667   2.764   1.705   4.121  0.5203 -0.7408 -0.2867
 1403SOL    HW115668   2.738   1.765   4.051  1.9510 -2.2910 -2.1662
 1403SOL    HW215669   2.835   1.666   4.071  0.7336 -0.7108 -0.0057
 1404SOL     OW15670   0.759   1.440   0.615 -0.0832 -0.5927  0.2094
 1404SOL    HW115671   0.800   1.483   0.690  0.3908 -0.0103 -0.3916
 1404SOL    HW215672   0.701   1.384   0.668  2.0947 -2.8269  0.2577
 1405SOL     OW15673   3.981   1.821   0.609 -0.4082  0.1993  0.0083
 1405SOL    HW115674   4.009   1.889   0.671 -1.7036 -0.2162  1.0540
 1405SOL    HW215675   3.951   1.748   0.662  0.2223 -0.3699 -0.4288
 1406SOL     OW15676   1.352   4.071   4.492 -0.2128 -0.2832 -0.2298
 1406SOL    HW115677   1.398   4.001   4.539 -0.7854 -0.1750  0.4859
 1406SOL    HW215678   1.260   4.049   4.506 -1.0743  1.0862 -3.7477
 1407SOL     OW15679   4.477   3.662   6.723 -0.1280  0.7359 -0.3611
 1407SOL    HW115680   4.456   3.607   6.647 -2.2084  2.1188 -0.7733
 1407SOL    HW215681   4.571   3.674   6.711 -0.0348 -2.2220 -2.7044
 1408SOL     OW15682   3.401   1.560   9.274 -0.5722 -0.1841 -0.3833
 1408SOL    HW115683   3.435   1.486   9.224 -2.2934 -0.6896 -0.8097
 1408SOL    HW215684   3.326   1.587   9.220  0.2475 -0.3242 -1.5885
 1409SOL     OW15685   4.465   1.604   8.296 -0.2093 -0.2296  0.1441
 1409SOL    HW115686   4.450   1.545   8.370  1.8419  0.1483  0.8711
 1409SOL    HW215687   4.524   1.551   8.242  0.8944  1.3845 -0.2168
 1410SOL     OW15688   4.647   2.938  12.702  0.1351 -0.0893 -0.3570
 1410SOL    HW115689   4.568   2.964  12.653  0.4343 -2.6395 -2.1652
 1410SOL    HW215690   4.652   3.010  12.765 -0.4435 -1.5799  1.3571
 1411SOL     OW15691   2.908   0.264   5.217 -0.9589  0.3188  0.2006
 1411SOL    HW115692   2.997   0.297   5.203 -0.7761 -1.0753 -2.0513
 1411SOL    HW215693   2.888   0.304   5.301  2.3621  0.6628  0.8332
 1412SOL     OW15694   0.078   3.949  11.055 -0.7363  0.0197 -0.3083
 1412SOL    HW115695   4.714   3.991  11.075 -1.7096 -2.0794  0.0533
 1412SOL    HW215696   0.135   3.985  11.124  1.2967 -0.6792 -1.6136
 1413SOL     OW15697   2.035   2.760  16.013 -0.1391  0.0507  0.5855
 1413SOL    HW115698   1.997   2.780  16.099 -0.7323 -1.0642  0.5795
 1413SOL    HW215699   1.954   2.748  15.963 -0.7898  1.2334  1.3694
 1414SOL     OW15700   0.064   2.158   5.960 -0.8422 -0.2999 -0.1898
 1414SOL    HW115701   0.157   2.149   5.938 -0.9833 -0.7030 -0.6285
 1414SOL    HW215702   0.024   2.071   5.952 -0.4344 -0.4978 -0.0747
 1415SOL     OW15703   2.652   3.907   4.596 -0.3483  0.2994 -0.6636
 1415SOL    HW115704   2.593   3.958   4.540 -2.4271 -3.5313 -1.9477
 1415SOL    HW215705   2.642   3.819   4.560 -0.3575  0.3661 -0.8266
 1416SOL     OW15706   1.663   1.499   3.833  0.0988 -0.2449 -0.1460
 1416SOL    HW115707   1.756   1.491   3.810  0.6234  0.2656  1.7711
 1416SOL    HW215708   1.666   1.420   3.887  1.3947 -1.1908 -1.5875
 1417SOL     OW15709   4.644   0.303   1.024 -0.1327  0.4681 -0.3704
 1417SOL    HW115710   4.617   0.378   1.077 -1.1615  0.3707 -0.7734
 1417SOL    HW215711   0.020   0.311   1.029  0.1455 -2.2569 -0.9120
 1418SOL     OW15712   3.693   1.163  14.380  0.1462  0.0784  0.1133
 1418SOL    HW115713   3.720   1.232  14.440  0.1490 -1.3792  1.7886
 1418SOL    HW215714   3.599   1.173  14.395  0.2130 -0.4325  0.8674
 1419SOL     OW15715   3.858   4.618  10.514 -0.2278  0.0227 -0.2908
 1419SOL    HW115716   3.837   4.575  10.597  2.4575 -0.3018  0.2220
 1419SOL    HW215717   3.802   4.696  10.509  1.9495  1.5690 -0.4369
 1420SOL     OW15718   3.376   2.157   5.534  0.2406 -0.7868 -0.5140
 1420SOL    HW115719   3.290   2.132   5.501 -1.0991  0.5438  1.9308
 1420SOL    HW215720   3.365   2.120   5.622 -1.1626 -2.0804 -1.2609
 1421SOL     OW15721   4.128   0.640   3.094 -0.3258  0.5758 -0.0012
 1421SOL    HW115722   4.148   0.729   3.121  0.1076  0.2720  0.6846
 1421SOL    HW215723   4.137   0.591   3.176 -1.5506  1.0718  0.4303
 1422SOL     OW15724   2.877   0.860   8.345 -0.3564  0.5284  0.3574
 1422SOL    HW115725   2.806   0.815   8.298 -0.5175 -0.9819  2.0453
 1422SOL    HW215726   2.940   0.872   8.274  0.8353 -2.3907  0.9075
 1423SOL     OW15727   1.150   2.587   3.756  0.6995  0.2916 -0.3108
 1423SOL    HW115728   1.191   2.501   3.749 -0.1175  0.0187 -1.8132
 1423SOL    HW215729   1.225   2.645   3.746  1.1117 -0.4365 -1.4407
 1424SOL     OW15730   3.050   3.037   5.699  0.0305 -0.6397  0.1392
 1424SOL    HW115731   3.094   3.083   5.627 -0.8410  2.5967  1.6804
 1424SOL    HW215732   2.968   3.086   5.692  0.5474  0.4921  2.0808
 1425SOL     OW15733   1.626   2.279   4.009 -0.5656  0.4596 -0.0123
 1425SOL    HW115734   1.611   2.201   4.062 -5.6409  0.9917 -0.6513
 1425SOL    HW215735   1.662   2.340   4.074 -0.4570 -1.2548  1.5383
 1426SOL     OW15736   2.730   1.417   6.205 -0.1532 -0.1089  0.2216
 1426SOL    HW115737   2.772   1.358   6.268  1.4431  1.2883  0.4641
 1426SOL    HW215738   2.709   1.357   6.133  1.9712 -0.0808 -0.4330
 1427SOL     OW15739   0.414   2.824   9.169  0.4738  0.7039  0.2105
 1427SOL    HW115740   0.367   2.752   9.210 -0.2403 -1.1328 -3.8091
 1427SOL    HW215741   0.373   2.897   9.215 -0.4292  0.4935 -0.2713
 1428SOL     OW15742   1.698   2.439  11.622  0.2411  0.1252 -0.0437
 1428SOL    HW115743   1.754   2.514  11.603 -1.0381  0.7756 -1.2161
 1428SOL    HW215744   1.734   2.376  11.559 -0.3881  0.8763 -1.1517
 1429SOL     OW15745   4.040   1.733   2.659  0.2165 -0.0503 -0.2774
 1429SOL    HW115746   4.026   1.751   2.566 -0.2409 -0.3107 -0.2599
 1429SOL    HW215747   4.059   1.639   2.659  1.7769  0.2779  1.1151
 1430SOL     OW15748   0.447   2.144   7.170 -0.1476  0.0684  0.6959
 1430SOL    HW115749   0.503   2.156   7.094  1.1604 -2.7509  1.2177
 1430SOL    HW215750   0.507   2.179   7.236 -1.2057 -0.4576  1.9296
 1431SOL     OW15751   2.740   1.409   0.679 -0.2897 -0.4553  0.1783
 1431SOL    HW115752   2.758   1.330   0.628 -0.7026  1.1816 -2.5266
 1431SOL    HW215753   2.784   1.482   0.635  0.0584 -0.7281  0.0734
 1432SOL     OW15754   2.914   1.844   9.203 -0.1576 -0.0292  0.1598
 1432SOL    HW115755   2.845   1.872   9.263 -1.3851 -0.4261 -1.0829
 1432SOL    HW215756   2.989   1.900   9.223  0.0012 -0.4568  0.7711
 1433SOL     OW15757   3.574   3.177   3.137 -0.1433 -0.7319 -0.5178
 1433SOL    HW115758   3.670   3.172   3.141 -0.1627 -1.2825 -0.8250
 1433SOL    HW215759   3.547   3.106   3.079  0.7126  0.6944 -2.6810
 1434SOL     OW15760   0.256   4.498   8.719 -0.3073 -0.3502 -0.0059
 1434SOL    HW115761   0.259   4.590   8.744 -2.5888 -0.6199  1.2023
 1434SOL    HW215762   0.346   4.465   8.718 -0.6093 -1.1943  0.8059
 1435SOL     OW15763   3.440   0.856   3.876 -0.3306  0.3733 -0.6890
 1435SOL    HW115764   3.350   0.823   3.878  0.5581 -1.9190  1.2181
 1435SOL    HW215765   3.479   0.822   3.795 -1.6271  1.1208 -1.6179
 1436SOL     OW15766   2.825   0.371   7.210  0.4376 -0.0754  0.3549
 1436SOL    HW115767   2.744   0.321   7.201  1.1216 -0.7540 -1.9295
 1436SOL    HW215768   2.809   0.419   7.291  0.2970 -0.7232  0.7077
 1437SOL     OW15769   0.451   2.806  15.787  0.2648  0.2477 -0.0910
 1437SOL    HW115770   0.543   2.810  15.814 -0.0734 -0.3671  1.1740
 1437SOL    HW215771   0.460   2.830  15.695  1.0893  0.7843  0.1251
 1438SOL     OW15772   4.696   0.655   7.184  0.4924  0.1084 -0.1395
 1438SOL    HW115773   4.676   0.619   7.271 -0.7821 -0.3309 -0.6061
 1438SOL    HW215774   4.635   0.728   7.181  0.2994 -0.0045  0.9137
 1439SOL     OW15775   4.589   2.446   5.572  0.6294 -0.1343 -0.0587
 1439SOL    HW115776   4.601   2.434   5.666 -0.8428 -0.6423  0.0652
 1439SOL    HW215777   4.602   2.354   5.551 -1.6182 -0.6282  0.6823
 1440SOL     OW15778   1.727   0.362  11.221 -0.2158  0.6204  0.7190
 1440SOL    HW115779   1.732   0.267  11.215 -1.5618  0.4803  1.8077
 1440SOL    HW215780   1.645   0.384  11.178  0.0626 -0.4191 -0.3248
 1441SOL     OW15781   1.980   0.628   8.887  0.6469 -0.2928 -0.7712
 1441SOL    HW115782   1.971   0.638   8.981  4.1307 -2.8279 -0.1693
 1441SOL    HW215783   1.912   0.571   8.852  2.1769 -1.3720 -2.0315
 1442SOL     OW15784   0.457   2.526   8.062 -0.1404 -0.5004  0.4742
 1442SOL    HW115785   0.466   2.457   7.996 -0.7510  1.7471 -1.9708
 1442SOL    HW215786   0.512   2.492   8.132  1.6570 -1.0943 -1.2359
 1443SOL     OW15787   0.886   2.166   9.200 -0.0818 -0.1421  0.2074
 1443SOL    HW115788   0.921   2.214   9.275 -0.4387 -1.8496  1.4754
 1443SOL    HW215789   0.795   2.185   9.221 -0.0615  2.6762 -2.2933
 1444SOL     OW15790   0.101   1.250   2.080 -0.0457 -0.2535  0.4017
 1444SOL    HW115791   0.135   1.315   2.141  1.7128 -0.6594 -0.1363
 1444SOL    HW215792   0.134   1.298   2.004 -1.9986  0.6852  0.1412
 1445SOL     OW15793   0.891   2.321   1.977 -0.5998  0.0674  0.0190
 1445SOL    HW115794   0.832   2.341   1.904 -0.3606 -0.1545 -0.2334
 1445SOL    HW215795   0.964   2.282   1.929 -1.8338 -0.3917 -1.4990
 1446SOL     OW15796   1.265   1.050   4.321  0.0247 -0.8238  0.2068
 1446SOL    HW115797   1.223   1.126   4.281  2.4775  1.2460  1.5731
 1446SOL    HW215798   1.198   1.028   4.386 -2.3328  0.5905 -1.7292
 1447SOL     OW15799   1.831   0.261   2.674 -0.0116 -0.2544  0.1354
 1447SOL    HW115800   1.868   0.187   2.723  1.2667 -1.1886 -2.2675
 1447SOL    HW215801   1.907   0.280   2.619 -2.1732 -0.2854 -2.8235
 1448SOL     OW15802   2.481   1.375   1.816  0.1945  0.6656  0.0828
 1448SOL    HW115803   2.565   1.339   1.786  0.4460  0.9457  0.4463
 1448SOL    HW215804   2.424   1.369   1.740  0.5066  0.9494 -0.1771
 1449SOL     OW15805   4.203   2.729   3.296 -0.2724 -0.4227  0.6835
 1449SOL    HW115806   4.298   2.737   3.312 -0.5855  1.7918  1.4617
 1449SOL    HW215807   4.190   2.762   3.207 -0.0751  0.1858  0.8815
 1450SOL     OW15808   2.146   0.209   7.817  0.0337 -0.6362 -0.3306
 1450SOL    HW115809   2.236   0.189   7.789  0.3722 -0.6476  0.7508
 1450SOL    HW215810   2.130   0.119   7.845  0.1742 -1.4777 -2.9949
 1451SOL     OW15811   1.940   0.381   7.834 -0.0669  0.4082  0.1364
 1451SOL    HW115812   2.022   0.334   7.853 -0.2609 -1.2217 -3.1197
 1451SOL    HW215813   1.980   0.467   7.817  1.8211 -0.2417  1.2573
 1452SOL     OW15814   2.730   0.127  13.452 -0.0134  0.2007  0.1590
 1452SOL    HW115815   2.805   0.126  13.392  0.2809  0.7343  0.5187
 1452SOL    HW215816   2.659   0.087  13.401 -0.2029  1.9149 -0.9216
 1453SOL     OW15817   2.432   3.420   4.989 -0.4688 -0.9414 -0.1779
 1453SOL    HW115818   2.458   3.469   4.911  0.4735 -1.5391 -0.2450
 1453SOL    HW215819   2.369   3.351   4.969 -0.4433 -1.2578  0.8435
 1454SOL     OW15820   0.799   1.694   9.153 -0.4625 -0.0165  0.3045
 1454SOL    HW115821   0.778   1.713   9.062  0.1618 -0.2472  0.1142
 1454SOL    HW215822   0.873   1.754   9.158 -0.2918 -0.1854 -0.3190
 1455SOL     OW15823   0.986   2.796   1.866  0.1298 -0.7350 -0.6521
 1455SOL    HW115824   0.960   2.721   1.919  0.8927 -0.3540  0.2754
 1455SOL    HW215825   1.022   2.752   1.789  0.7274 -1.5677  0.1148
 1456SOL     OW15826   2.917   0.857   2.504 -0.4152  0.7820 -0.2239
 1456SOL    HW115827   2.967   0.936   2.486 -1.4964  1.4799 -0.1400
 1456SOL    HW215828   2.969   0.809   2.568 -0.2994 -0.0893 -0.9708
 1457SOL     OW15829   1.441   3.516   3.710 -0.4131 -0.3175 -0.3990
 1457SOL    HW115830   1.496   3.525   3.632  1.4176 -2.0929  0.6902
 1457SOL    HW215831   1.489   3.570   3.774 -2.1008  2.3728 -1.4142
 1458SOL     OW15832   2.200   1.976  15.755 -0.3475  0.2263  0.5790
 1458SOL    HW115833   2.278   2.005  15.804 -0.4699  2.6413 -0.6180
 1458SOL    HW215834   2.242   1.956  15.671 -1.8723 -0.0556 -0.1146
 1459SOL     OW15835   2.016   2.314   4.410  0.0103  0.0627 -0.1390
 1459SOL    HW115836   2.041   2.241   4.353 -0.0563 -0.3514  0.3665
 1459SOL    HW215837   1.947   2.344   4.350 -1.6709 -1.4745  1.0270
 1460SOL     OW15838   0.996   3.939   3.142  0.1261  0.0815  0.3758
 1460SOL    HW115839   1.084   3.919   3.109  0.9199  1.4741  1.6328
 1460SOL    HW215840   0.943   3.907   3.069 -0.8789 -0.0759  1.1895
 1461SOL     OW15841   1.782   4.633   5.086  0.3521  0.0503  0.0173
 1461SOL    HW115842   1.864   4.632   5.036  0.0323  2.6388 -0.5408
 1461SOL    HW215843   1.721   4.669   5.023  1.0067  0.1711 -0.5528
 1462SOL     OW15844   0.665   1.306   1.765  0.1578  0.2130  0.2401
 1462SOL    HW115845   0.637   1.397   1.773  2.4231  0.7416  2.0504
 1462SOL    HW215846   0.581   1.269   1.794  0.1690 -1.4476 -1.8970
 1463SOL     OW15847   0.690   3.632   2.540  0.0958 -0.3008 -0.2405
 1463SOL    HW115848   0.644   3.704   2.496 -1.0994 -0.0947  1.3551
 1463SOL    HW215849   0.690   3.566   2.470  0.4243 -0.4055 -0.1451
 1464SOL     OW15850   1.995   4.449   3.219  0.3176 -0.2285 -0.5844
 1464SOL    HW115851   1.908   4.483   3.196  0.2068  0.3247  0.6168
 1464SOL    HW215852   2.045   4.531   3.218 -1.0549  0.6467  0.5550
 1465SOL     OW15853   1.579   0.610   3.665  0.7460  0.3938 -0.7776
 1465SOL    HW115854   1.576   0.661   3.747  0.5774  0.9258 -1.1119
 1465SOL    HW215855   1.528   0.668   3.609  1.9646  1.7930 -0.4444
 1466SOL     OW15856   4.101   2.784   3.036 -0.2283  0.7064  0.3628
 1466SOL    HW115857   4.007   2.771   3.023 -0.0499 -0.3561  0.1334
 1466SOL    HW215858   4.117   2.837   2.958 -0.0342 -0.8019 -0.6445
 1467SOL     OW15859   1.692   4.504   6.598 -0.3383 -0.0292  0.0176
 1467SOL    HW115860   1.742   4.554   6.662 -1.5607 -1.1536  1.8821
 1467SOL    HW215861   1.600   4.524   6.618  0.8537  2.4067  2.9530
 1468SOL     OW15862   2.663   2.148   1.697  0.1666 -0.0111 -0.3775
 1468SOL    HW115863   2.731   2.091   1.661  1.1297  1.1125 -0.3218
 1468SOL    HW215864   2.702   2.235   1.701 -1.3432  0.6620 -0.1080
 1469SOL     OW15865   0.341   1.394  13.447 -0.0405 -0.1072 -0.0623
 1469SOL    HW115866   0.309   1.329  13.510  0.1286  0.1733  0.3129
 1469SOL    HW215867   0.302   1.471  13.488  0.1886 -0.0539  0.0555
 1470SOL     OW15868   4.665   3.910   8.690  0.2935 -0.3111 -0.0866
 1470SOL    HW115869   4.681   3.877   8.601 -0.8308  1.7509 -1.0629
 1470SOL    HW215870   4.619   3.832   8.720 -0.7491  0.0779 -0.6501
 1471SOL     OW15871   2.485   2.579   3.875 -0.2773 -0.1569  0.1386
 1471SOL    HW115872   2.559   2.531   3.912 -0.8739 -1.8606 -0.8840
 1471SOL    HW215873   2.440   2.610   3.954 -0.7724  0.6793 -0.4638
 1472SOL     OW15874   2.746   4.604  15.927  0.0288  0.0490 -0.2210
 1472SOL    HW115875   2.707   4.643  16.005 -0.1671 -2.6809  1.0336
 1472SOL    HW215876   2.715   4.667  15.862 -1.4594  0.4187  0.8409
 1473SOL     OW15877   0.126   3.871   5.163 -0.3349  0.1599 -0.1210
 1473SOL    HW115878   0.174   3.797   5.125  0.6965  0.8921 -0.2550
 1473SOL    HW215879   0.039   3.856   5.127  1.1400 -1.9963 -2.7916
 1474SOL     OW15880   4.053   0.193   3.052 -0.2628  0.1773  0.0771
 1474SOL    HW115881   4.009   0.117   3.014 -2.1888  0.4442  1.7675
 1474SOL    HW215882   4.145   0.176   3.031  0.4825  2.5717  1.4300
 1475SOL     OW15883   0.290   1.094   5.328  0.2486  0.2874  0.2982
 1475SOL    HW115884   0.199   1.064   5.331  0.3901 -0.0782  1.0344
 1475SOL    HW215885   0.326   1.035   5.394 -0.0298 -0.2769 -0.0563
 1476SOL     OW15886   3.338   2.855   3.278 -0.1000  0.7418  1.0175
 1476SOL    HW115887   3.423   2.897   3.295 -0.4564  0.5775  3.2752
 1476SOL    HW215888   3.334   2.895   3.192 -0.1137 -0.2250  0.5683
 1477SOL     OW15889   1.129   2.403   5.491 -0.0385  0.1827  0.0564
 1477SOL    HW115890   1.178   2.348   5.430 -1.8522 -0.2721 -0.9703
 1477SOL    HW215891   1.038   2.380   5.471 -0.3275 -0.7457  2.3806
 1478SOL     OW15892   2.406   3.948  13.725  0.0436 -0.2227  0.1084
 1478SOL    HW115893   2.354   3.974  13.801  2.0430  0.2129  1.3301
 1478SOL    HW215894   2.394   4.027  13.671  0.9977  0.6369  1.1528
 1479SOL     OW15895   0.736   1.290   6.432  0.0018  0.0416 -0.6958
 1479SOL    HW115896   0.640   1.285   6.424 -0.2173  1.5891  1.0157
 1479SOL    HW215897   0.759   1.198   6.422  1.1683  0.2026  0.4845
 1480SOL     OW15898   1.430   0.320   6.076  0.5828 -0.6360  0.5715
 1480SOL    HW115899   1.462   0.267   6.003 -0.4257 -1.3286  0.6344
 1480SOL    HW215900   1.455   0.409   6.051 -1.1239 -0.3252 -0.0125
 1481SOL     OW15901   0.982   4.706   4.998 -0.8750  0.0058  0.2770
 1481SOL    HW115902   0.956   4.664   4.916 -1.5546 -0.4294  0.7119
 1481SOL    HW215903   0.895   4.712   5.039 -0.4733 -0.8937  1.2445
 1482SOL     OW15904   2.225   2.072   0.219  0.5565  0.2117 -0.0080
 1482SOL    HW115905   2.130   2.069   0.222  0.6024 -0.8008  0.3214
 1482SOL    HW215906   2.248   1.992   0.171  0.2351 -1.4254  2.5446
 1483SOL     OW15907   4.702   3.297   2.636  0.8215  0.2471 -0.5091
 1483SOL    HW115908   4.713   3.221   2.579  0.2781  0.0971 -0.4144
 1483SOL    HW215909   4.660   3.358   2.577 -1.4358 -1.7580 -0.9592
 1484SOL     OW15910   1.017   4.137   2.060 -0.5350  0.9062 -0.6528
 1484SOL    HW115911   0.955   4.100   2.122 -0.5432  0.4830 -0.9154
 1484SOL    HW215912   0.982   4.097   1.981  0.0681  1.9982 -1.4767
 1485SOL     OW15913   2.740   3.679   3.070  0.0014  0.4547  0.3611
 1485SOL    HW115914   2.804   3.639   3.012  0.6078  0.9513  0.6831
 1485SOL    HW215915   2.713   3.744   3.005 -1.0790 -0.0067  0.3556
 1486SOL     OW15916   0.049   3.673   4.140  0.0972 -0.2494 -0.0240
 1486SOL    HW115917   4.718   3.642   4.215 -1.3979 -0.0970 -0.9638
 1486SOL    HW215918   0.131   3.623   4.146  2.6950  3.6838 -2.8335
 1487SOL     OW15919   2.346   2.848   8.535  0.2483  0.0331 -0.0192
 1487SOL    HW115920   2.321   2.878   8.622  1.2195  0.3648  0.1504
 1487SOL    HW215921   2.265   2.807   8.507 -0.5843 -0.3964  3.1189
 1488SOL     OW15922   2.524   4.127   7.659 -0.1615  0.0949 -0.2143
 1488SOL    HW115923   2.501   4.074   7.583  1.5765  0.4966 -1.0146
 1488SOL    HW215924   2.458   4.098   7.722  1.2162  1.8153  2.0312
 1489SOL     OW15925   1.984   2.034   7.395  0.0955  0.1115 -0.1056
 1489SOL    HW115926   2.078   2.018   7.401 -0.3092 -1.9496  0.9184
 1489SOL    HW215927   1.951   1.948   7.368  1.1233 -0.3520  0.1400
 1490SOL     OW15928   2.115   2.097  16.391 -0.3107  0.0829  0.6160
 1490SOL    HW115929   2.150   2.069  16.308 -0.2709  0.1315  0.6165
 1490SOL    HW215930   2.100   2.191  16.376 -0.2722  0.0937  0.6447
 1491SOL     OW15931   1.987   3.549  16.842 -0.1428  0.1359  0.1108
 1491SOL    HW115932   1.907   3.553  16.894  0.3754  1.5074  0.7887
 1491SOL    HW215933   1.978   3.465  16.796 -0.8580  0.1792  0.1851
 1492SOL     OW15934   3.166   2.499  17.503  0.3423  0.1280 -0.1349
 1492SOL    HW115935   3.140   2.508  17.411  0.7786  0.4306 -0.2283
 1492SOL    HW215936   3.182   2.408  17.525 -0.2022 -0.0630 -0.5301
 1493SOL     OW15937   3.628   2.369   1.743  0.5775 -0.1361  0.3403
 1493SOL    HW115938   3.575   2.310   1.689 -0.4649  0.3230  0.8837
 1493SOL    HW215939   3.713   2.370   1.697  0.1796  1.1800 -0.3580
 1494SOL     OW15940   4.711   1.865   6.670 -0.8248 -0.4964  0.4237
 1494SOL    HW115941   4.639   1.900   6.618  1.3349  0.6938 -1.7873
 1494SOL    HW215942   4.701   1.771   6.654  0.1850 -0.5306  0.0026
 1495SOL     OW15943   2.674   0.801   3.442  0.2533 -0.6719  0.5024
 1495SOL    HW115944   2.654   0.719   3.487  2.9022 -1.8289 -0.3795
 1495SOL    HW215945   2.769   0.787   3.438  0.1528 -0.8911 -1.4486
 1496SOL     OW15946   2.370   1.930   8.093  0.3150 -0.3776 -0.0893
 1496SOL    HW115947   2.443   1.939   8.032  1.2864  0.3809  1.1840
 1496SOL    HW215948   2.411   1.907   8.176  0.6443 -0.8932 -0.3994
 1497SOL     OW15949   3.061   1.802   9.525  0.0965 -0.1004 -0.1193
 1497SOL    HW115950   2.999   1.739   9.560 -0.2223  0.1773 -0.1845
 1497SOL    HW215951   2.997   1.868   9.498  0.9274  1.2573  1.2368
 1498SOL     OW15952   3.786   1.066  10.575 -0.4779  0.1922  0.6195
 1498SOL    HW115953   3.728   0.991  10.590  0.0716 -0.0149  1.7141
 1498SOL    HW215954   3.854   1.035  10.516  1.9508  1.8255  2.5681
 1499SOL     OW15955   1.910   1.320   6.001  0.1621  0.0496  0.3206
 1499SOL    HW115956   1.882   1.230   5.990  0.7191 -0.0707 -0.1176
 1499SOL    HW215957   1.821   1.354   6.012 -0.2674 -0.3661 -1.9173
 1500SOL     OW15958   4.487   4.476   2.609  0.0455  0.3783  0.3600
 1500SOL    HW115959   4.498   4.405   2.546  1.2736  1.8475 -1.1183
 1500SOL    HW215960   4.504   4.548   2.548 -0.8281  0.0723 -0.2444
 1501SOL     OW15961   2.111   2.134   4.209 -0.1983 -0.2745 -0.5403
 1501SOL    HW115962   2.169   2.060   4.188  1.1934  0.2963  1.2232
 1501SOL    HW215963   2.043   2.124   4.143 -0.4053  3.3549 -0.8313
 1502SOL     OW15964   0.747   1.343   7.793  0.1256  0.5014  0.2456
 1502SOL    HW115965   0.798   1.276   7.747 -0.8977 -2.0759  2.8793
 1502SOL    HW215966   0.793   1.366   7.873  0.8625 -1.0084  0.2540
 1503SOL     OW15967   1.188   2.583  14.161  0.0908  0.1209  0.0344
 1503SOL    HW115968   1.104   2.630  14.163 -0.5323 -0.9005 -2.2273
 1503SOL    HW215969   1.229   2.602  14.077  1.2239  0.4236  0.6629
 1504SOL     OW15970   1.487   2.872  13.446 -0.0131 -0.1462 -0.2457
 1504SOL    HW115971   1.567   2.913  13.479  0.2794  0.5128 -1.7930
 1504SOL    HW215972   1.495   2.791  13.496 -0.1627  0.4759  0.7945
 1505SOL     OW15973   1.578   2.370   2.986  0.0148 -0.1894 -0.1981
 1505SOL    HW115974   1.490   2.339   2.965  0.2006 -0.0619 -1.1690
 1505SOL    HW215975   1.569   2.387   3.080  2.3959 -0.2930  0.0454
 1506SOL     OW15976   4.134   0.203   8.354  0.8063  0.2474 -0.1949
 1506SOL    HW115977   4.214   0.254   8.362  0.6828  0.2165  1.3243
 1506SOL    HW215978   4.075   0.273   8.384 -1.2069  0.1202 -3.7688
 1507SOL     OW15979   3.955   1.237   7.330 -0.8796 -0.3329  0.0212
 1507SOL    HW115980   3.867   1.204   7.315 -1.6322  0.6814  2.2525
 1507SOL    HW215981   3.974   1.271   7.243 -1.5633 -2.0217 -0.7971
 1508SOL     OW15982   2.304   0.768   2.643 -0.4890  0.6512 -0.1530
 1508SOL    HW115983   2.252   0.747   2.721 -1.1413  2.0559 -0.2226
 1508SOL    HW215984   2.387   0.726   2.662  0.3945  2.1885 -0.6519
 1509SOL     OW15985   2.511   4.613   5.093 -0.1211 -0.4876 -1.1012
 1509SOL    HW115986   2.584   4.551   5.085 -1.5261 -2.2070 -0.5035
 1509SOL    HW215987   2.524   4.644   5.182  0.5084 -2.3468 -0.5617
 1510SOL     OW15988   4.282   4.601  11.417 -0.1384  0.1078 -0.0457
 1510SOL    HW115989   4.273   4.531  11.481 -0.9518  0.2463 -0.0010
 1510SOL    HW215990   4.194   4.599  11.379 -0.3583 -1.4821  0.5653
 1511SOL     OW15991   0.869   2.625   2.938  0.1589  0.9943  0.0533
 1511SOL    HW115992   0.813   2.659   3.007  1.4739 -1.0652  2.1564
 1511SOL    HW215993   0.932   2.697   2.932 -0.2834  1.3044 -0.9486
 1512SOL     OW15994   0.821   4.025   8.948 -0.6311 -0.2615  0.2318
 1512SOL    HW115995   0.903   3.977   8.945 -1.0827 -0.9779 -0.6902
 1512SOL    HW215996   0.828   4.048   9.041  0.0385 -2.2925  0.6881
 1513SOL     OW15997   2.400   4.174   6.807 -0.1591  0.0776  0.0270
 1513SOL    HW115998   2.491   4.144   6.811  0.1129  0.9598  0.3791
 1513SOL    HW215999   2.404   4.269   6.796 -2.3275  0.0094 -1.3399
 1514SOL     OW16000   4.553   0.229  11.557 -0.4361  1.1516  0.3272
 1514SOL    HW116001   4.629   0.176  11.532 -1.6875 -0.5329  0.0969
 1514SOL    HW216002   4.514   0.223  11.470  2.0624  0.5428 -0.7479
 1515SOL     OW16003   0.648   2.582   6.518 -0.2966 -0.0672  0.0210
 1515SOL    HW116004   0.585   2.561   6.449 -0.2551  0.9650 -0.3393
 1515SOL    HW216005   0.730   2.574   6.469 -1.0766 -1.6188 -1.0197
 1516SOL     OW16006   3.435   3.379   4.106  0.3407 -0.0143  0.2442
 1516SOL    HW116007   3.386   3.403   4.028 -1.3618 -2.1272  0.6715
 1516SOL    HW216008   3.511   3.438   4.103  0.4244 -0.2276 -1.6937
 1517SOL     OW16009   0.462   1.421   5.434  0.0060 -0.2506  0.4983
 1517SOL    HW116010   0.449   1.351   5.497  1.3703 -1.8894 -1.0475
 1517SOL    HW216011   0.526   1.380   5.375  0.0978 -1.2442  1.2846
 1518SOL     OW16012   2.164   0.148   5.010 -0.2880 -0.0582 -0.3181
 1518SOL    HW116013   2.244   0.184   5.048 -0.0030 -0.8654 -0.1403
 1518SOL    HW216014   2.162   0.061   5.049  2.1483 -0.4279 -1.0251
 1519SOL     OW16015   3.674   1.853   6.270  0.0684 -0.1333  0.2871
 1519SOL    HW116016   3.626   1.798   6.331  2.3868  0.1813  2.3802
 1519SOL    HW216017   3.670   1.934   6.321 -2.6910 -0.2202  0.1871
 1520SOL     OW16018   1.574   2.038   6.168 -0.1984 -0.1200  0.3334
 1520SOL    HW116019   1.613   1.974   6.227  0.5136 -0.1042 -0.1202
 1520SOL    HW216020   1.589   2.117   6.221 -0.8256  0.8048 -0.8556
 1521SOL     OW16021   4.065   4.394   5.865 -0.1829 -0.7377  0.3964
 1521SOL    HW116022   3.999   4.453   5.899  1.0228  0.8346  0.0035
 1521SOL    HW216023   4.084   4.343   5.944 -0.1671  0.1375  0.9618
 1522SOL     OW16024   1.749   0.392   7.656  0.5747  0.4818  0.1856
 1522SOL    HW116025   1.815   0.398   7.725 -0.9303 -0.2504  1.6892
 1522SOL    HW216026   1.717   0.482   7.658 -0.9966 -0.1099  2.7021
 1523SOL     OW16027   0.838   1.145   2.182 -0.2812 -0.5602  0.6564
 1523SOL    HW116028   0.783   1.135   2.104 -0.8081 -0.6313  1.0373
 1523SOL    HW216029   0.878   1.232   2.178 -1.0152 -0.3612 -2.5139
 1524SOL     OW16030   1.682   2.814  12.483  0.3395  0.3424  0.6813
 1524SOL    HW116031   1.643   2.729  12.462 -1.6141 -0.0763  5.8156
 1524SOL    HW216032   1.769   2.814  12.442 -0.8235 -0.9493 -1.7656
 1525SOL     OW16033   0.422   2.563   3.750  0.2617  0.6368 -0.2923
 1525SOL    HW116034   0.490   2.501   3.775  2.3077  2.1317 -2.1303
 1525SOL    HW216035   0.347   2.509   3.727 -0.3380  0.5569  1.8655
 1526SOL     OW16036   2.037   1.972   7.707  0.2744  0.3301 -0.2239
 1526SOL    HW116037   2.059   2.050   7.758 -1.1455  0.3159  0.4041
 1526SOL    HW216038   2.094   1.986   7.631  1.4350  0.2003  0.6112
 1527SOL     OW16039   1.875   0.443  17.250  0.0481  0.1728  0.7444
 1527SOL    HW116040   1.780   0.441  17.258 -0.0865  1.4700 -0.6616
 1527SOL    HW216041   1.904   0.530  17.276 -1.3150  0.3406  1.7004
 1528SOL     OW16042   0.829   0.917  11.585  0.0112  0.5107 -0.6370
 1528SOL    HW116043   0.921   0.917  11.610  0.2514 -1.9511 -1.4881
 1528SOL    HW216044   0.792   0.843  11.634  0.2162  0.5521 -0.4220
 1529SOL     OW16045   0.872   1.916  15.878  0.1642 -0.6328 -0.5992
 1529SOL    HW116046   0.855   1.858  15.804 -0.6045 -1.1957  0.0219
 1529SOL    HW216047   0.793   1.970  15.891  0.8513  0.0917  0.6339
 1530SOL     OW16048   2.091   1.384   9.793  0.1678  0.3381 -0.2365
 1530SOL    HW116049   2.089   1.291   9.773 -1.5583 -0.0546  1.7227
 1530SOL    HW216050   2.146   1.374   9.872  0.1701 -1.6682 -0.4958
 1531SOL     OW16051   1.628   0.792   4.478  0.0716 -0.0627 -0.2134
 1531SOL    HW116052   1.649   0.702   4.502  0.0195 -0.5927 -2.2247
 1531SOL    HW216053   1.581   0.775   4.397 -1.4992  1.2869  0.4045
 1532SOL     OW16054   1.117   4.189   9.086 -0.0490 -0.0935 -0.2151
 1532SOL    HW116055   1.050   4.195   9.154  0.7497 -1.4564  0.6861
 1532SOL    HW216056   1.122   4.098   9.059  1.1193 -0.0161 -0.2480
 1533SOL     OW16057   0.035   2.698   9.046  0.3661  0.4876 -0.9884
 1533SOL    HW116058   4.664   2.730   9.045  0.9334  2.1342  0.9708
 1533SOL    HW216059   0.062   2.771   9.102  1.5677 -1.1153  0.5089
 1534SOL     OW16060   0.000   3.078   2.427 -0.0989  0.4925 -0.2817
 1534SOL    HW116061   4.641   3.026   2.411 -0.4077  1.0640 -0.6195
 1534SOL    HW216062   4.713   3.155   2.371  0.9340 -0.0126 -1.1027
 1535SOL     OW16063   1.171   4.244   2.720 -0.3429  0.0998  0.5486
 1535SOL    HW116064   1.230   4.174   2.691  0.1316  0.4987  0.5558
 1535SOL    HW216065   1.121   4.210   2.793  0.7444 -2.9226 -0.1003
 1536SOL     OW16066   2.816   0.465   8.077 -0.1330 -0.0723 -0.0043
 1536SOL    HW116067   2.868   0.387   8.062  1.3888  0.6285  1.6707
 1536SOL    HW216068   2.839   0.535   8.016  1.2915  1.6455  2.5053
 1537SOL     OW16069   0.244   4.292   4.903 -0.3571  0.1572 -0.5732
 1537SOL    HW116070   0.270   4.205   4.872 -2.1538 -0.2118 -1.0372
 1537SOL    HW216071   0.226   4.285   4.997 -1.1420 -0.2472 -0.7566
 1538SOL     OW16072   2.972   2.745   7.116 -0.0236 -0.5566 -0.1246
 1538SOL    HW116073   2.900   2.686   7.136 -0.4237 -0.0089  0.0595
 1538SOL    HW216074   3.048   2.704   7.156 -0.3728 -0.9906  0.0873
 1539SOL     OW16075   1.099   3.260   6.837 -0.1594 -0.0349 -0.2261
 1539SOL    HW116076   1.019   3.210   6.822  0.5396 -0.9878 -0.8188
 1539SOL    HW216077   1.131   3.257   6.747  1.9453  1.7145  0.4596
 1540SOL     OW16078   2.685   1.406   8.508 -0.4189 -0.8871 -0.0648
 1540SOL    HW116079   2.698   1.445   8.595 -2.8609 -2.0383  0.8097
 1540SOL    HW216080   2.591   1.389   8.519 -0.1986 -0.1534  2.8761
 1541SOL     OW16081   4.345   4.095   2.584 -0.5141  0.0061  0.0203
 1541SOL    HW116082   4.298   4.012   2.580  0.3000 -0.2444 -4.2317
 1541SOL    HW216083   4.279   4.154   2.549 -1.8360 -0.2420  2.0319
 1542SOL     OW16084   2.156   4.049   6.785  0.2499 -0.3837 -0.0227
 1542SOL    HW116085   2.099   4.114   6.825  1.1526  0.1076  0.4576
 1542SOL    HW216086   2.241   4.092   6.790  0.1405 -0.0418 -1.1999
 1543SOL     OW16087   0.270   2.963   6.807 -0.4089 -0.0531  0.2922
 1543SOL    HW116088   0.276   2.878   6.851 -1.3306  0.6265  1.7038
 1543SOL    HW216089   0.335   3.008   6.862 -1.7210  1.2220  0.7745
 1544SOL     OW16090   3.952   4.563   6.822 -0.2159  0.2468  0.8062
 1544SOL    HW116091   4.034   4.532   6.860 -0.2396  0.3637  0.9552
 1544SOL    HW216092   3.982   4.632   6.763 -1.8772  2.3880  2.4104
 1545SOL     OW16093   1.598   1.797   6.715  0.3650  0.6798  0.5918
 1545SOL    HW116094   1.538   1.779   6.787 -0.8226 -0.4890 -0.6966
 1545SOL    HW216095   1.658   1.724   6.732 -0.4004 -0.1266 -0.1476
 1546SOL     OW16096   4.682   1.130   6.255 -0.4632 -0.1780  0.2036
 1546SOL    HW116097   4.591   1.153   6.276  0.0984  1.0494  1.3084
 1546SOL    HW216098   4.716   1.194   6.317  2.0462 -0.0450 -1.3000
 1547SOL     OW16099   2.956   2.681  16.896 -0.6516 -0.1662  0.1340
 1547SOL    HW116100   2.897   2.755  16.885 -0.1553 -0.0700 -1.7816
 1547SOL    HW216101   2.952   2.645  16.808  1.2480  1.0072 -0.4062
 1548SOL     OW16102   0.748   3.174   8.405  0.0434  0.1303  0.2748
 1548SOL    HW116103   0.714   3.113   8.339  1.1520  0.5623 -0.7013
 1548SOL    HW216104   0.756   3.124   8.486  0.1971 -0.3666 -0.0454
 1549SOL     OW16105   2.747   4.178   5.422  0.3517  0.1479 -0.6865
 1549SOL    HW116106   2.761   4.122   5.499  0.4824  1.5306  0.2811
 1549SOL    HW216107   2.783   4.123   5.352 -1.4248 -1.5871 -0.2399
 1550SOL     OW16108   0.060   0.455   5.346  0.0296 -0.0115 -0.2528
 1550SOL    HW116109   0.155   0.444   5.342 -0.1559 -2.0936  1.1348
 1550SOL    HW216110   0.042   0.433   5.255 -0.9295  0.0756 -0.0766
 1551SOL     OW16111   1.978   2.946  11.790 -0.2422  0.1571 -0.0485
 1551SOL    HW116112   1.944   3.002  11.859  0.6602 -1.1648  1.4693
 1551SOL    HW216113   1.973   2.860  11.832  1.1792  0.0682 -0.0678
 1552SOL     OW16114   4.283   1.013   9.441  0.4743 -0.1560  0.2560
 1552SOL    HW116115   4.294   0.974   9.528  0.7123 -2.8848 -1.0085
 1552SOL    HW216116   4.253   0.932   9.400 -0.8567  1.3615 -1.7332
 1553SOL     OW16117   2.295   0.033   2.419 -0.9971  0.0924  0.1347
 1553SOL    HW116118   2.245   4.701   2.356  0.9332  1.5497 -2.5993
 1553SOL    HW216119   2.386   0.006   2.405 -0.0685  2.1292  2.3142
 1554SOL     OW16120   1.044   1.710   6.442  0.2416 -0.5468  0.7884
 1554SOL    HW116121   0.994   1.656   6.380  1.0007  0.1712 -0.4346
 1554SOL    HW216122   1.037   1.794   6.397  0.4641 -0.3005  1.2110
 1555SOL     OW16123   0.329   1.494   2.488 -0.1554 -0.3330 -0.2548
 1555SOL    HW116124   0.285   1.447   2.418  1.0286  0.2811 -1.4136
 1555SOL    HW216125   0.353   1.580   2.451  1.1969 -0.9943 -0.9127
 1556SOL     OW16126   2.747   2.193  12.298 -0.0069 -0.2265  0.1122
 1556SOL    HW116127   2.770   2.107  12.263  0.5478  0.6356 -1.6098
 1556SOL    HW216128   2.775   2.190  12.389 -0.2409  1.4295  0.2441
 1557SOL     OW16129   1.905   2.287   6.521  0.4366  0.4729  0.0130
 1557SOL    HW116130   1.943   2.366   6.558  1.1256 -0.1753  0.6873
 1557SOL    HW216131   1.959   2.279   6.442  3.3622  1.4092  1.9112
 1558SOL     OW16132   3.274   0.532   7.908 -0.1364  0.1096 -0.1211
 1558SOL    HW116133   3.315   0.448   7.889 -0.4026  0.3024 -1.5553
 1558SOL    HW216134   3.198   0.524   7.849  0.0835 -1.9467 -0.0907
 1559SOL     OW16135   0.836   0.391   5.052  0.3252  0.0335  0.1294
 1559SOL    HW116136   0.807   0.313   5.006 -0.0118 -0.9526  2.0288
 1559SOL    HW216137   0.908   0.416   4.995 -1.7958  1.8892 -1.7472
 1560SOL     OW16138   4.362   2.767   2.022 -0.6366 -0.1204 -0.6984
 1560SOL    HW116139   4.275   2.792   2.052  0.3844  0.7917  1.4399
 1560SOL    HW216140   4.382   2.687   2.070  1.4038 -0.1137 -1.5533
 1561SOL     OW16141   1.078   1.616   6.676 -0.2012  0.8533  0.0439
 1561SOL    HW116142   1.043   1.529   6.658  1.5889 -0.0833  0.9966
 1561SOL    HW216143   1.089   1.653   6.588  0.4337  1.1397  0.2391
 1562SOL     OW16144   1.851   3.951   7.519 -0.3480 -0.5652 -0.3864
 1562SOL    HW116145   1.772   3.910   7.554  1.1010 -4.1283 -1.3408
 1562SOL    HW216146   1.826   4.043   7.512  0.6989 -0.4154 -2.2276
 1563SOL     OW16147   0.784   2.714   1.389  0.3243 -0.4979 -0.0414
 1563SOL    HW116148   0.784   2.668   1.473 -2.0585 -2.7670 -1.2851
 1563SOL    HW216149   0.834   2.660   1.328  0.1916  0.7082 -1.2105
 1564SOL     OW16150   1.625   3.742  13.075 -0.0417  0.3380  0.6237
 1564SOL    HW116151   1.590   3.728  13.163  1.4832 -0.4546  1.1076
 1564SOL    HW216152   1.664   3.829  13.072  1.2285 -0.2558 -0.3552
 1565SOL     OW16153   1.245   4.266   2.169  0.1478  0.0393 -0.2130
 1565SOL    HW116154   1.167   4.229   2.128  2.4909 -0.5655 -4.0944
 1565SOL    HW216155   1.309   4.197   2.156 -0.3162  0.0304 -2.5365
 1566SOL     OW16156   4.114   4.511   8.416  0.4824  0.3776 -0.1527
 1566SOL    HW116157   4.074   4.593   8.445 -1.6948 -0.4385 -0.8344
 1566SOL    HW216158   4.079   4.512   8.327 -1.2029 -0.8483  0.5016
 1567SOL     OW16159   3.680   2.529   0.984 -0.4809  0.3769 -0.4555
 1567SOL    HW116160   3.619   2.602   0.998 -0.7347  0.0969 -0.0927
 1567SOL    HW216161   3.764   2.575   0.990 -0.7783  1.0994 -1.9101
 1568SOL     OW16162   4.138   1.880   7.707  0.0690  0.0102 -0.1272
 1568SOL    HW116163   4.183   1.963   7.688 -0.0929 -0.1819 -1.3381
 1568SOL    HW216164   4.163   1.856   7.796  0.5833  3.1333  0.5569
 1569SOL     OW16165   1.120   4.201  15.923 -0.0903  0.4025 -0.0119
 1569SOL    HW116166   1.168   4.271  15.877 -1.1753  1.4937  0.5243
 1569SOL    HW216167   1.148   4.223  16.012 -2.6933 -3.4893  1.7190
 1570SOL     OW16168   4.567   2.954  11.767 -0.7252  0.0573 -0.2750
 1570SOL    HW116169   4.578   2.980  11.858 -0.6619 -1.8249  0.2491
 1570SOL    HW216170   4.585   3.035  11.720 -2.2087  1.3903  1.4390
 1571SOL     OW16171   4.529   3.798  12.813 -0.2242  0.1909  0.5604
 1571SOL    HW116172   4.472   3.731  12.849 -0.3532  0.6938  1.3057
 1571SOL    HW216173   4.584   3.824  12.888 -0.2125  0.0799  0.5903
 1572SOL     OW16174   0.714   0.652  13.694  0.5565  0.0551 -0.1188
 1572SOL    HW116175   0.759   0.570  13.671  1.1421  0.5909 -0.8716
 1572SOL    HW216176   0.787   0.713  13.704 -0.8560  2.0318 -2.0179
 1573SOL     OW16177   3.362   2.929   8.606 -0.1182 -0.4096 -0.3116
 1573SOL    HW116178   3.327   2.842   8.626 -0.7494 -0.5885 -2.2122
 1573SOL    HW216179   3.294   2.968   8.551  1.0419  1.8752 -0.1111
 1574SOL     OW16180   2.580   4.045   2.865 -0.2937  0.2253 -0.3861
 1574SOL    HW116181   2.598   3.951   2.876  0.7880  0.2967 -1.5732
 1574SOL    HW216182   2.592   4.075   2.956 -0.0753 -1.9425  0.3050
 1575SOL     OW16183   4.033   3.122   9.587 -0.0310  0.2096 -0.1921
 1575SOL    HW116184   4.099   3.123   9.517  0.1262  0.5459 -0.0425
 1575SOL    HW216185   3.962   3.174   9.550  0.2480 -0.8797 -2.2863
 1576SOL     OW16186   2.768   1.301   7.850 -0.0747  0.2836  0.5091
 1576SOL    HW116187   2.715   1.318   7.772  0.2560 -1.9157 -0.1962
 1576SOL    HW216188   2.805   1.216   7.827  0.2956 -0.0450  2.3323
 1577SOL     OW16189   0.841   3.171   7.526  0.2111 -0.0663  0.1980
 1577SOL    HW116190   0.805   3.147   7.440 -1.5303 -0.6945  1.0979
 1577SOL    HW216191   0.799   3.104   7.580  0.1244 -1.3547 -1.4625
 1578SOL     OW16192   2.304   3.799   8.593  0.2031 -0.2906  0.4052
 1578SOL    HW116193   2.248   3.723   8.599 -2.6375  1.8290  0.5224
 1578SOL    HW216194   2.282   3.847   8.673 -0.0695 -0.5297  0.4710
 1579SOL     OW16195   4.662   3.132   5.580 -0.5675  0.1051  0.2956
 1579SOL    HW116196   4.652   3.150   5.486 -0.9153 -1.8697 -0.0369
 1579SOL    HW216197   4.641   3.219   5.614 -1.6659  0.1784 -0.5451
 1580SOL     OW16198   2.178   2.578   6.367  0.2672  0.0562 -0.5677
 1580SOL    HW116199   2.169   2.515   6.438 -2.2483 -0.3116 -1.2399
 1580SOL    HW216200   2.089   2.603   6.341  0.1817 -1.9518 -2.1282
 1581SOL     OW16201   1.003   1.104  13.998 -1.0354  0.6606 -0.6825
 1581SOL    HW116202   0.974   1.127  13.910 -0.8033 -0.4648 -1.0527
 1581SOL    HW216203   0.998   1.008  13.992  1.5254  0.4452  0.5283
 1582SOL     OW16204   2.345   1.779  14.239 -0.0549 -0.3161  0.1516
 1582SOL    HW116205   2.264   1.815  14.203  0.0353  0.4927  0.7538
 1582SOL    HW216206   2.307   1.723  14.307 -0.4161  0.6329  0.7392
 1583SOL     OW16207   0.256   0.297   9.655 -0.1677  0.5554 -0.2998
 1583SOL    HW116208   0.200   0.373   9.673 -2.0334 -0.5569 -1.4780
 1583SOL    HW216209   0.201   0.225   9.624 -2.5301  1.8361  0.9247
 1584SOL     OW16210   3.644   3.657   1.438 -0.2250 -0.0458 -0.2628
 1584SOL    HW116211   3.582   3.722   1.405  0.2951 -0.8584 -2.8717
 1584SOL    HW216212   3.723   3.671   1.385 -0.0825  2.2511  0.5457
 1585SOL     OW16213   2.738   3.280   3.818 -0.0840  0.2675 -0.1233
 1585SOL    HW116214   2.738   3.196   3.774  0.6893  0.4756 -0.5124
 1585SOL    HW216215   2.660   3.273   3.873  1.4069 -1.0884  1.8209
 1586SOL     OW16216   0.197   2.816   3.135  0.2577  0.0525 -0.7323
 1586SOL    HW116217   0.258   2.883   3.105 -1.4882  0.0553 -4.3311
 1586SOL    HW216218   0.254   2.767   3.195  0.4785  0.0197 -0.9660
 1587SOL     OW16219   3.617   1.513   5.404 -0.1873  0.2512  0.4826
 1587SOL    HW116220   3.696   1.481   5.448  0.3394  1.5959  0.5252
 1587SOL    HW216221   3.656   1.486   5.321  1.5651  2.4162  0.6029
 1588SOL     OW16222   4.327   1.718   6.961  0.0627  0.0525  0.1426
 1588SOL    HW116223   4.416   1.745   6.982  0.6266 -2.2336  0.5949
 1588SOL    HW216224   4.326   1.623   6.959  1.0715  0.0816 -1.9915
 1589SOL     OW16225   0.185   3.733   8.240  0.4915  0.5702 -0.2983
 1589SOL    HW116226   0.279   3.739   8.224  0.5279  0.8795  0.0403
 1589SOL    HW216227   0.168   3.737   8.146  0.9826 -0.1156 -0.4162
 1590SOL     OW16228   0.629   3.395   2.355  0.5248  0.3614  0.1149
 1590SOL    HW116229   0.627   3.328   2.424 -0.3364  0.9856  0.6989
 1590SOL    HW216230   0.653   3.341   2.280 -3.0701 -1.2632  0.1148
 1591SOL     OW16231   2.991   2.301   8.021 -0.0301  0.0968 -0.0924
 1591SOL    HW116232   2.959   2.318   7.932 -2.1159  1.7207  0.9909
 1591SOL    HW216233   3.082   2.330   8.011  0.5642 -1.2614  1.4258
 1592SOL     OW16234   1.961   1.411   1.535 -0.0369 -0.2924  0.7814
 1592SOL    HW116235   2.024   1.483   1.540 -0.1431  0.0334 -2.4108
 1592SOL    HW216236   2.011   1.334   1.561 -0.5467 -0.8732  0.0609
 1593SOL     OW16237   1.758   2.615   2.705  0.0693 -0.2712  0.5500
 1593SOL    HW116238   1.725   2.633   2.617  1.9428  0.8135  0.0635
 1593SOL    HW216239   1.780   2.522   2.711 -0.0075 -0.4450 -1.9965
 1594SOL     OW16240   4.709   2.120   9.781 -0.2773 -0.5122  0.0054
 1594SOL    HW116241   0.050   2.089   9.713 -0.9910 -3.9424  0.9324
 1594SOL    HW216242   0.030   2.077   9.856  0.2038  0.6430  0.4073
 1595SOL     OW16243   1.081   3.704  15.464  0.3014 -0.1250 -0.2269
 1595SOL    HW116244   1.099   3.625  15.514 -1.6629 -0.7350 -0.4543
 1595SOL    HW216245   1.053   3.774  15.523 -0.4271 -0.7012  0.1176
 1596SOL     OW16246   0.626   2.169   6.563  0.4079 -1.0464 -0.3211
 1596SOL    HW116247   0.719   2.160   6.541  0.9020  2.2385  0.3407
 1596SOL    HW216248   0.612   2.096   6.623 -1.6390 -0.9599 -0.6955
 1597SOL     OW16249   4.606   2.608   6.112  0.0098  0.3355 -0.1183
 1597SOL    HW116250   4.630   2.517   6.129 -0.1716  0.6252  1.6572
 1597SOL    HW216251   4.599   2.641   6.202 -1.3826 -1.8465  0.5659
 1598SOL     OW16252   1.933   0.409   8.174 -0.2089  0.4789  0.0802
 1598SOL    HW116253   1.837   0.411   8.169 -0.2223  0.0524  0.1689
 1598SOL    HW216254   1.937   0.326   8.222 -1.9565  0.4057  0.0925
 1599SOL     OW16255   1.629   1.779   7.541 -0.1358 -0.0552 -0.5486
 1599SOL    HW116256   1.539   1.808   7.556  0.6485  1.9705  0.2618
 1599SOL    HW216257   1.647   1.825   7.459  0.5796 -1.5117 -1.1985
 1600SOL     OW16258   1.982   2.276   9.102  0.8871  0.1887 -0.3781
 1600SOL    HW116259   1.982   2.275   9.006  4.2551  1.4954 -0.3814
 1600SOL    HW216260   2.075   2.290   9.118  1.0968 -1.7642  0.1533
 1601SOL     OW16261   2.810   1.622   8.731  0.3936 -0.3987  0.4782
 1601SOL    HW116262   2.867   1.680   8.681 -0.9707 -0.7963 -1.5474
 1601SOL    HW216263   2.858   1.628   8.813 -0.0531 -0.8600  0.7745
 1602SOL     OW16264   4.217   1.870   7.981  0.0068  0.3821  0.3116
 1602SOL    HW116265   4.147   1.932   8.003  0.1151 -0.0704  1.9103
 1602SOL    HW216266   4.237   1.833   8.066 -0.0624 -0.1757  0.0822
 1603SOL     OW16267   2.658   0.944   6.844  0.0571  0.1693  0.3464
 1603SOL    HW116268   2.752   0.957   6.854  0.0039  0.8169  0.0278
 1603SOL    HW216269   2.626   0.978   6.927 -0.0198  1.0999 -0.0642
 1604SOL     OW16270   0.908   3.717   2.690  0.2436  0.5309 -0.1121
 1604SOL    HW116271   0.977   3.652   2.697 -0.8053 -0.6651 -0.8464
 1604SOL    HW216272   0.833   3.676   2.646 -1.4773  0.2613  3.0510
 1605SOL     OW16273   3.041   2.525   3.365 -0.3332  0.6361  0.6509
 1605SOL    HW116274   2.996   2.541   3.448  1.0873 -0.5022  1.6195
 1605SOL    HW216275   3.040   2.430   3.353  1.7122  0.9339 -1.7349
 1606SOL     OW16276   0.270   3.033   2.965  0.3790 -0.5930  0.0347
 1606SOL    HW116277   0.242   3.099   2.901  2.4947  1.2482  1.0206
 1606SOL    HW216278   0.317   3.088   3.028  0.0552  0.2557 -0.4611
 1607SOL     OW16279   1.588   1.508  13.639 -0.5002  0.1940  0.1130
 1607SOL    HW116280   1.515   1.519  13.700  0.4446  0.9168  1.1188
 1607SOL    HW216281   1.544   1.482  13.558  1.9143  0.2838 -1.2195
 1608SOL     OW16282   3.389   3.443  15.139 -0.1231 -0.0002  0.0126
 1608SOL    HW116283   3.366   3.490  15.059 -0.4890 -1.0820 -0.5164
 1608SOL    HW216284   3.483   3.451  15.127 -0.0937  1.2423  1.1283
 1609SOL     OW16285   4.387   2.947   3.142 -0.2871  0.5028  0.2058
 1609SOL    HW116286   4.461   2.897   3.175 -0.0679  0.6476 -0.0627
 1609SOL    HW216287   4.384   3.019   3.205 -0.3114 -0.3261  1.1373
 1610SOL     OW16288   2.025   4.540  16.722 -0.0427 -0.8695  0.1418
 1610SOL    HW116289   2.036   4.462  16.778 -1.6348 -0.2982  1.2368
 1610SOL    HW216290   2.086   4.530  16.649 -3.3229  1.0298 -2.8164
 1611SOL     OW16291   1.269   2.045   4.322 -0.3069  0.8211  0.1587
 1611SOL    HW116292   1.356   2.014   4.346 -1.9948 -3.3471  0.8614
 1611SOL    HW216293   1.259   2.005   4.236 -4.3153  0.7577  0.6435
 1612SOL     OW16294   3.719   0.517   4.209 -0.1187  0.5561  0.2583
 1612SOL    HW116295   3.695   0.446   4.149  1.8356 -1.5692  1.9936
 1612SOL    HW216296   3.696   0.598   4.164 -1.0460  0.8193  1.2203
 1613SOL     OW16297   2.175   1.294   0.154  0.2562  0.0900 -0.1775
 1613SOL    HW116298   2.090   1.335   0.170  0.6906  0.6842  0.6147
 1613SOL    HW216299   2.242   1.357   0.178  0.7588 -0.0785 -1.1274
 1614SOL     OW16300   1.567   0.199   7.755 -0.4097 -0.4867 -0.6121
 1614SOL    HW116301   1.630   0.257   7.713 -0.2518 -0.4703 -0.3531
 1614SOL    HW216302   1.579   0.222   7.848  1.0055 -0.8532 -0.6994
 1615SOL     OW16303   2.371   0.162  16.845 -0.2368  0.4503  0.0439
 1615SOL    HW116304   2.366   0.103  16.770 -1.2512  1.8665 -1.0017
 1615SOL    HW216305   2.278   0.163  16.866 -0.3760 -0.1941 -0.5540
 1616SOL     OW16306   0.516   2.694   8.407  0.0550  0.0536 -0.0628
 1616SOL    HW116307   0.529   2.660   8.496 -0.3064  0.5806  0.1894
 1616SOL    HW216308   0.425   2.664   8.406 -0.4590  1.6126 -0.1553
 1617SOL     OW16309   3.696   0.105  10.501  0.0363  0.0614 -0.2785
 1617SOL    HW116310   3.734   0.185  10.536  2.2496 -0.2325 -2.0257
 1617SOL    HW216311   3.602   0.123  10.511 -0.5128 -2.3464 -1.0691
 1618SOL     OW16312   3.664   2.833  13.398 -0.2301 -0.3475  0.1871
 1618SOL    HW116313   3.576   2.796  13.414 -0.0287 -0.1994  1.6096
 1618SOL    HW216314   3.711   2.758  13.361 -1.6816 -1.5281  0.7049
 1619SOL     OW16315   2.355   2.962   9.600  0.1263 -0.0984 -0.1958
 1619SOL    HW116316   2.394   2.891   9.651  1.1709 -0.2512 -1.2111
 1619SOL    HW216317   2.333   2.912   9.521  0.5198 -1.4174  0.5224
 1620SOL     OW16318   0.004   0.234   4.268 -0.3627  0.1175 -0.5096
 1620SOL    HW116319   0.008   0.252   4.174 -0.3669  0.7145 -0.3959
 1620SOL    HW216320   4.697   0.142   4.265  0.5597 -0.1050 -1.8448
 1621SOL     OW16321   3.891   1.691   8.103  0.3254 -0.2581  0.5357
 1621SOL    HW116322   3.976   1.650   8.088  1.2690  1.4242  1.2669
 1621SOL    HW216323   3.845   1.612   8.134  0.7054  0.5480  3.1717
 1622SOL     OW16324   0.769   1.726   5.588  0.2982 -0.2850 -0.0839
 1622SOL    HW116325   0.676   1.707   5.576  0.0581  1.4291 -0.9689
 1622SOL    HW216326   0.821   1.674   5.527  0.4306  0.9902 -1.0435
 1623SOL     OW16327   3.824   1.346   0.227  0.2331  0.5737  0.6780
 1623SOL    HW116328   3.850   1.352   0.135  1.4326  2.3375  1.1222
 1623SOL    HW216329   3.756   1.413   0.227  0.2366  0.5886 -0.7214
 1624SOL     OW16330   0.294   4.566  10.918  0.4082  1.1183  0.0047
 1624SOL    HW116331   0.346   4.601  10.990  0.2653 -0.2513  0.7675
 1624SOL    HW216332   0.311   4.638  10.857 -2.6085  0.6393 -1.4082
 1625SOL     OW16333   0.201   3.917   9.066  0.2407  0.0099  0.1094
 1625SOL    HW116334   0.191   3.929   8.972  0.6975 -0.6466 -0.0217
 1625SOL    HW216335   0.283   3.868   9.067  0.4788  0.4312  1.2774
 1626SOL     OW16336   4.503   2.609   6.788  0.3300  0.0929  0.3435
 1626SOL    HW116337   4.522   2.515   6.797 -2.4568 -0.4267  0.8017
 1626SOL    HW216338   4.411   2.614   6.764 -0.0827 -0.5897  1.7627
 1627SOL     OW16339   0.425   3.433   6.760 -0.1469 -0.2164  0.4490
 1627SOL    HW116340   0.520   3.423   6.764 -0.1263 -0.5354 -0.7808
 1627SOL    HW216341   0.395   3.423   6.851 -1.2257  0.9428  0.2219
 1628SOL     OW16342   2.181   4.160   3.410  0.2714  0.0090  0.0751
 1628SOL    HW116343   2.115   4.159   3.340 -0.2618  2.5059  0.5189
 1628SOL    HW216344   2.227   4.077   3.408 -1.5381 -0.9864 -0.1021
 1629SOL     OW16345   3.466   3.887   1.412  0.4074  0.0254  0.2948
 1629SOL    HW116346   3.429   3.895   1.500 -3.3933 -0.4663 -1.2766
 1629SOL    HW216347   3.384   3.864   1.368 -0.1821 -1.7793  2.3531
 1630SOL     OW16348   3.882   2.773   6.359 -0.6381  0.0081 -0.1402
 1630SOL    HW116349   3.810   2.710   6.357 -0.6245  0.0094 -0.8911
 1630SOL    HW216350   3.932   2.761   6.278 -0.7505  1.2994 -0.4139
 1631SOL     OW16351   0.390   4.399   5.551 -0.3289 -0.1278  0.0377
 1631SOL    HW116352   0.302   4.375   5.523 -1.0957  1.2422  1.2278
 1631SOL    HW216353   0.446   4.408   5.474  1.5500  0.6147  1.4814
 1632SOL     OW16354   1.713   3.828   4.616  0.2266 -0.2986 -0.4724
 1632SOL    HW116355   1.747   3.858   4.532  0.1882 -0.0598 -0.4001
 1632SOL    HW216356   1.780   3.772   4.656  0.8832  0.5334 -0.4052
 1633SOL     OW16357   1.106   2.025   7.263 -0.0276  0.0681  0.3116
 1633SOL    HW116358   1.088   1.973   7.184  2.0923  1.2216 -0.9418
 1633SOL    HW216359   1.200   2.039   7.262  0.0026 -0.0534  1.6871
 1634SOL     OW16360   4.699   3.813  10.343  0.2123 -0.1465 -0.0847
 1634SOL    HW116361   4.635   3.832  10.274 -0.1976  0.4030  0.4429
 1634SOL    HW216362   4.640   3.788  10.414  1.5454  1.8386  1.7301
 1635SOL     OW16363   2.630   3.989   1.997  0.3298 -0.2971 -0.3392
 1635SOL    HW116364   2.618   4.063   1.938 -0.9196  0.1989  0.5458
 1635SOL    HW216365   2.565   4.005   2.065 -0.7934  0.9746 -1.7040
 1636SOL     OW16366   1.062   4.069   0.212  0.0053  0.4380  0.4414
 1636SOL    HW116367   1.114   4.098   0.287 -0.4608  0.2354  0.8437
 1636SOL    HW216368   1.062   3.973   0.221  0.6699  0.4492  0.5476
 1637SOL     OW16369   0.809   3.740  12.560  0.2027  0.1601 -0.0593
 1637SOL    HW116370   0.879   3.774  12.616 -1.3989 -0.8638  2.5476
 1637SOL    HW216371   0.851   3.679  12.499  0.1239  0.5684 -0.5253
 1638SOL     OW16372   3.366   3.874   8.156  0.0633 -0.1401  0.5248
 1638SOL    HW116373   3.375   3.805   8.222  0.7653  0.0023  0.5807
 1638SOL    HW216374   3.459   3.870   8.133  0.3960  4.2838  1.1237
 1639SOL     OW16375   0.484   0.243   1.558  0.1711  0.1632 -0.2058
 1639SOL    HW116376   0.485   0.193   1.476  2.0693 -3.4587  2.0399
 1639SOL    HW216377   0.397   0.284   1.559 -0.7077 -1.6905  0.1847
 1640SOL     OW16378   2.433   2.596   4.461  0.1098  0.5401  0.3445
 1640SOL    HW116379   2.509   2.539   4.450 -1.4282 -1.0942 -1.9484
 1640SOL    HW216380   2.376   2.534   4.508 -2.1709  1.3383 -1.3356
 1641SOL     OW16381   3.444   2.695   9.777 -0.1454 -0.0429  0.1105
 1641SOL    HW116382   3.408   2.782   9.795  2.7553  1.5407 -1.6615
 1641SOL    HW216383   3.537   2.713   9.788  0.0477  0.2137 -2.0449
 1642SOL     OW16384   3.350   1.846  15.280  0.1502  0.4473  0.1802
 1642SOL    HW116385   3.349   1.799  15.196 -1.0905  2.0214 -0.6866
 1642SOL    HW216386   3.338   1.931  15.238  0.5875  0.9432  1.0679
 1643SOL     OW16387   0.502   1.813   6.469  0.0721 -0.0892 -0.1932
 1643SOL    HW116388   0.415   1.851   6.477  0.2600  0.3867 -0.4126
 1643SOL    HW216389   0.523   1.826   6.561 -0.0850  0.5589 -0.2445
 1644SOL     OW16390   4.566   4.572  13.625  0.0279  0.1860  0.0915
 1644SOL    HW116391   4.616   4.492  13.637 -1.0880 -0.4244  0.7241
 1644SOL    HW216392   4.630   4.640  13.606  1.8612 -1.1379  1.5187
 1645SOL     OW16393   4.613   2.646   6.408 -0.3458 -0.3233  0.2605
 1645SOL    HW116394   4.665   2.695   6.472  0.4866  0.0225 -0.6894
 1645SOL    HW216395   4.566   2.589   6.470  0.0711  0.7499  1.5693
 1646SOL     OW16396   1.932   3.070   5.751 -0.2568  0.1556 -0.1558
 1646SOL    HW116397   1.851   3.023   5.729 -0.4551  1.0169 -1.2408
 1646SOL    HW216398   1.984   3.002   5.792 -1.3030 -1.0515 -0.8384
 1647SOL     OW16399   0.770   2.220   7.787  0.1548  0.2801  0.3852
 1647SOL    HW116400   0.752   2.313   7.795  1.0912  0.6555 -1.9912
 1647SOL    HW216401   0.691   2.185   7.747  0.4772 -0.0351  0.0202
 1648SOL     OW16402   0.553   1.774  16.034 -0.7545 -0.1243 -0.3051
 1648SOL    HW116403   0.492   1.836  16.074  2.0996  1.0032  2.3394
 1648SOL    HW216404   0.539   1.784  15.940 -1.2134  0.3257 -0.1894
 1649SOL     OW16405   2.835   0.733   7.030 -0.8293 -0.0623  0.6677
 1649SOL    HW116406   2.896   0.682   7.084 -2.7320  0.1871  3.0292
 1649SOL    HW216407   2.876   0.727   6.944  1.4856  0.3019  1.7390
 1650SOL     OW16408   1.233   1.688   3.339 -0.2617  0.0693 -0.1118
 1650SOL    HW116409   1.300   1.753   3.320 -1.1166  0.8260 -0.5626
 1650SOL    HW216410   1.293   1.616   3.321 -0.9629 -0.8204  1.0814
 1651SOL     OW16411   3.661   4.500   6.716  0.0164 -0.9293 -0.4307
 1651SOL    HW116412   3.742   4.471   6.759  1.1181  1.2202 -1.0543
 1651SOL    HW216413   3.641   4.582   6.761 -0.8361 -0.9366 -0.8094
 1652SOL     OW16414   0.041   3.333   7.923 -0.4467  0.1053  0.1441
 1652SOL    HW116415   0.012   3.260   7.977  0.0934  0.1187  0.4502
 1652SOL    HW216416   0.133   3.332   7.947 -0.2228 -0.4875 -0.7309
 1653SOL     OW16417   2.853   3.432   0.447 -0.2528 -0.1510  0.0690
 1653SOL    HW116418   2.943   3.421   0.477 -0.7821  1.4119  2.2142
 1653SOL    HW216419   2.873   3.497   0.379 -0.3025  0.1771  0.3713
 1654SOL     OW16420   1.297   4.032   6.865 -0.2555 -0.5232  0.4026
 1654SOL    HW116421   1.209   3.996   6.856 -0.0576 -0.2182 -2.5116
 1654SOL    HW216422   1.276   4.122   6.840 -0.3605 -0.3328  1.1524
 1655SOL     OW16423   1.673   1.845   9.536  0.6923 -0.1016 -0.2041
 1655SOL    HW116424   1.680   1.835   9.631  0.3283 -0.1168 -0.1785
 1655SOL    HW216425   1.758   1.826   9.497  1.0009  0.3181  0.2712
 1656SOL     OW16426   2.409   0.673   5.794 -0.2299 -0.1660 -0.0438
 1656SOL    HW116427   2.393   0.579   5.784 -0.7065  0.0727 -1.5224
 1656SOL    HW216428   2.366   0.700   5.875 -2.6576  0.8557 -1.6978
 1657SOL     OW16429   4.146   4.694   6.294  0.4344  0.3406 -0.2707
 1657SOL    HW116430   4.186   4.652   6.218 -0.9322  2.6086 -2.2460
 1657SOL    HW216431   4.195   4.642   6.358 -1.8826 -1.3041  0.1950
 1658SOL     OW16432   0.035   0.982   2.131  0.0762  0.8254  0.1462
 1658SOL    HW116433   0.115   0.946   2.094 -1.0426 -0.1505 -1.3136
 1658SOL    HW216434   0.039   1.075   2.106  0.6039  0.3101 -1.6799
 1659SOL     OW16435   4.210   4.106   9.417 -0.3280 -0.1816 -0.3629
 1659SOL    HW116436   4.298   4.090   9.450 -1.2783  0.2511  2.4013
 1659SOL    HW216437   4.186   4.195   9.445  3.1712  0.6190  0.0874
 1660SOL     OW16438   0.176   1.399   2.746 -0.1298  0.1638  0.3666
 1660SOL    HW116439   0.213   1.414   2.659 -0.6549  0.2446  0.1542
 1660SOL    HW216440   0.221   1.468   2.794 -2.0645  1.6163  0.1302
 1661SOL     OW16441   4.092   2.381  15.878 -0.5527  0.0531  0.0504
 1661SOL    HW116442   4.013   2.355  15.925  0.2146  0.4924  1.5793
 1661SOL    HW216443   4.090   2.472  15.907  0.8027  0.5129 -1.2936
 1662SOL     OW16444   0.150   0.626   0.659 -0.4359 -0.4102 -0.0819
 1662SOL    HW116445   0.100   0.552   0.625  0.1302 -0.5198 -0.6896
 1662SOL    HW216446   0.164   0.685   0.585  0.8324 -0.0410  0.4423
 1663SOL     OW16447   0.430   2.418   0.148  0.0665  0.2702  0.2714
 1663SOL    HW116448   0.398   2.508   0.138  1.8451  0.7451 -1.0465
 1663SOL    HW216449   0.510   2.421   0.200  0.7428  1.9047 -0.8814
 1664SOL     OW16450   3.313   4.022  15.071  0.2339  0.4661 -0.0578
 1664SOL    HW116451   3.291   4.050  14.982 -0.7032  1.8543  0.6093
 1664SOL    HW216452   3.330   3.930  15.050  0.9760  0.8001 -0.9331
 1665SOL     OW16453   3.545   3.776  11.490  0.1243  0.3485  0.4599
 1665SOL    HW116454   3.519   3.733  11.572  1.3338 -1.1475  0.0675
 1665SOL    HW216455   3.638   3.756  11.485  0.1153  0.2099  0.8721
 1666SOL     OW16456   3.264   2.675   0.594  0.4113  0.0286  0.0452
 1666SOL    HW116457   3.221   2.758   0.614  0.7203  0.4080 -0.8612
 1666SOL    HW216458   3.200   2.630   0.538  0.2523  0.4273 -0.0895
 1667SOL     OW16459   2.506   1.648   5.207  0.1335 -0.5483 -0.5546
 1667SOL    HW116460   2.480   1.559   5.229 -2.0125 -0.4415 -2.5965
 1667SOL    HW216461   2.522   1.653   5.112  2.2600  2.1654 -0.0516
 1668SOL     OW16462   1.668   4.019   6.821  0.0893 -0.5961 -0.1200
 1668SOL    HW116463   1.710   4.087   6.768  0.7933 -1.0481 -0.1357
 1668SOL    HW216464   1.734   3.995   6.885 -0.9722 -1.9188  0.4758
 1669SOL     OW16465   3.945   2.714   3.968 -0.1366  0.0720  0.2275
 1669SOL    HW116466   4.030   2.671   3.961 -0.1589  0.0904 -0.1446
 1669SOL    HW216467   3.891   2.660   4.027 -2.7997 -0.8200 -3.0501
 1670SOL     OW16468   1.786   2.902   4.645 -0.2966  0.4073 -0.0928
 1670SOL    HW116469   1.819   2.873   4.731  0.0875 -1.0234 -0.7272
 1670SOL    HW216470   1.868   2.899   4.596 -0.0999  0.1909  0.2544
 1671SOL     OW16471   0.072   1.738   2.843 -0.0035 -0.0071  0.9375
 1671SOL    HW116472   0.137   1.684   2.888  1.0271  0.0261 -0.4887
 1671SOL    HW216473   0.047   1.670   2.780  1.1390 -1.3504  1.9249
 1672SOL     OW16474   1.178   3.455   3.089 -0.3519 -0.6460 -0.4578
 1672SOL    HW116475   1.217   3.401   3.020 -1.4327 -1.0261 -0.7769
 1672SOL    HW216476   1.259   3.473   3.136 -2.2807  0.6006  2.3940
 1673SOL     OW16477   1.758   3.935   6.320 -0.6976 -0.3863 -0.1828
 1673SOL    HW116478   1.728   3.903   6.236  0.9995  0.3595 -1.0696
 1673SOL    HW216479   1.777   3.849   6.359  1.3245  0.6540  1.1471
 1674SOL     OW16480   1.023   3.588  10.724 -0.3622  0.1624  0.2332
 1674SOL    HW116481   1.039   3.680  10.746  0.3243  0.3574 -1.0972
 1674SOL    HW216482   1.074   3.572  10.645  0.5406  0.8309  0.6810
 1675SOL     OW16483   1.130   3.847   8.830  0.1919  0.1453 -0.0831
 1675SOL    HW116484   1.192   3.844   8.902 -0.2268  1.1723  0.3295
 1675SOL    HW216485   1.092   3.759   8.836  1.2026 -0.2186  1.0133
 1676SOL     OW16486   1.108   4.248   6.659  0.1430 -0.4101 -0.4462
 1676SOL    HW116487   1.055   4.282   6.587 -0.6247  0.2364  0.4240
 1676SOL    HW216488   1.174   4.316   6.674 -0.8396  0.7985 -1.5824
 1677SOL     OW16489   1.216   4.532   7.996 -0.0776 -0.3834 -0.6327
 1677SOL    HW116490   1.298   4.489   7.973 -0.1314 -0.4170 -0.7598
 1677SOL    HW216491   1.204   4.593   7.924 -1.4547  0.2146  0.0954
 1678SOL     OW16492   3.287   4.544   2.783 -0.5023  0.5648 -0.8087
 1678SOL    HW116493   3.294   4.475   2.716 -0.5667  0.4452 -0.6918
 1678SOL    HW216494   3.321   4.627   2.748 -1.3833  0.4208 -2.0265
 1679SOL     OW16495   3.176   4.271  17.203 -0.6279 -0.0928 -0.2412
 1679SOL    HW116496   3.105   4.304  17.148 -0.9080  1.3781  0.9718
 1679SOL    HW216497   3.136   4.188  17.229 -1.4926  0.1467 -0.7983
 1680SOL     OW16498   4.520   2.264   3.369  0.4983 -0.4559 -0.2140
 1680SOL    HW116499   4.572   2.215   3.305 -0.8532 -0.4435 -1.3091
 1680SOL    HW216500   4.517   2.340   3.312  3.8309 -0.8713 -0.9827
 1681SOL     OW16501   2.063   1.476  11.926 -0.3707 -0.8425 -0.0659
 1681SOL    HW116502   2.157   1.472  11.909 -0.3080 -0.8922  0.2747
 1681SOL    HW216503   2.032   1.462  11.837 -2.8113 -1.6651  0.9183
 1682SOL     OW16504   2.633   1.253   5.542 -0.4716  0.1070 -0.4365
 1682SOL    HW116505   2.672   1.334   5.575 -2.0423  1.3824 -1.7302
 1682SOL    HW216506   2.616   1.211   5.627 -0.8963  0.1787 -0.4828
 1683SOL     OW16507   1.251   1.787   2.527  0.2065  0.5903 -0.2733
 1683SOL    HW116508   1.302   1.830   2.595  0.2263  0.3672 -0.1475
 1683SOL    HW216509   1.285   1.698   2.528 -2.4342 -0.3956  0.6823
 1684SOL     OW16510   2.568   2.082   9.828 -0.2876  0.3460 -0.1853
 1684SOL    HW116511   2.581   2.007   9.770 -0.0352 -0.6178  1.1294
 1684SOL    HW216512   2.652   2.124   9.811  0.7262 -1.1679  1.1498
 1685SOL     OW16513   3.911   1.642   9.181 -0.1106  0.1898  0.2007
 1685SOL    HW116514   3.908   1.570   9.244 -0.0112  0.7697  0.8700
 1685SOL    HW216515   3.903   1.718   9.240 -1.9411 -0.8153  1.2449
 1686SOL     OW16516   3.841   2.510   0.487  0.0877 -0.2288  0.0922
 1686SOL    HW116517   3.782   2.582   0.511 -0.0861  0.0710 -1.2408
 1686SOL    HW216518   3.819   2.490   0.397  0.6959 -2.2221  0.3936
 1687SOL     OW16519   0.092   1.128   6.006 -0.8183 -0.4599  0.0008
 1687SOL    HW116520   0.139   1.202   6.045 -0.8953 -2.5557  4.0771
 1687SOL    HW216521   0.013   1.132   6.060 -1.2745  1.8915 -0.8008
 1688SOL     OW16522   3.307   1.554   5.716  0.2747  0.2148  0.7294
 1688SOL    HW116523   3.259   1.475   5.742 -0.5131  0.4311 -0.0849
 1688SOL    HW216524   3.361   1.556   5.796  0.5768 -0.9959  0.5623
 1689SOL     OW16525   3.079   4.359   6.319 -0.1606  0.7951  0.2017
 1689SOL    HW116526   3.130   4.306   6.258 -0.4611  0.0237  0.6062
 1689SOL    HW216527   3.056   4.293   6.385  3.1043 -0.6759 -0.1283
 1690SOL     OW16528   3.252   3.345  15.347  0.2150  0.0480 -0.2064
 1690SOL    HW116529   3.292   3.383  15.269  3.6270 -1.6318  0.7213
 1690SOL    HW216530   3.165   3.328  15.312 -0.3674 -1.0055  1.7312
 1691SOL     OW16531   2.724   3.984  11.033  0.3631 -0.3659  0.6343
 1691SOL    HW116532   2.643   4.028  11.060 -0.1453  0.3984 -2.1887
 1691SOL    HW216533   2.706   3.893  11.055 -1.1907 -0.4369 -0.9558
 1692SOL     OW16534   4.687   2.768  14.620 -0.0195  0.2286  0.1911
 1692SOL    HW116535   4.650   2.755  14.532 -1.3477 -0.5457  0.8663
 1692SOL    HW216536   4.613   2.819  14.652 -0.6020 -0.8609  0.5745
 1693SOL     OW16537   4.018   4.555  13.283 -0.1250  0.0502 -0.3910
 1693SOL    HW116538   4.112   4.549  13.265 -0.0270  0.7324 -0.1321
 1693SOL    HW216539   4.018   4.561  13.379 -1.1155  1.2665 -0.4604
 1694SOL     OW16540   1.287   2.355   8.399 -0.8136 -0.0315 -0.0794
 1694SOL    HW116541   1.320   2.370   8.310  0.6534  1.1320  0.6699
 1694SOL    HW216542   1.218   2.421   8.393  0.7001  1.4663 -0.9344
 1695SOL     OW16543   0.616   3.174   9.360  0.2551 -0.3934  0.0183
 1695SOL    HW116544   0.643   3.213   9.443 -0.6556  1.3449 -0.5078
 1695SOL    HW216545   0.555   3.108   9.393  0.7863 -1.7493 -1.6531
 1696SOL     OW16546   2.740   1.205  14.101  0.2586 -0.5416 -0.0375
 1696SOL    HW116547   2.669   1.261  14.069 -0.0227 -1.5526 -1.1829
 1696SOL    HW216548   2.701   1.155  14.172 -0.5529  1.0312  0.6263
 1697SOL     OW16549   0.743   1.799   7.356  0.5933  0.0503  0.1530
 1697SOL    HW116550   0.799   1.725   7.335 -1.9835 -1.9888  0.5839
 1697SOL    HW216551   0.654   1.769   7.342  1.0237 -1.3579  0.5191
 1698SOL     OW16552   3.132   3.581  15.567 -0.4764  0.3332 -0.2860
 1698SOL    HW116553   3.132   3.655  15.627  0.3076  1.5325 -1.7963
 1698SOL    HW216554   3.044   3.584  15.528 -1.5578  1.0040  2.1672
 1699SOL     OW16555   2.290   0.421   4.082  0.3897  0.9641 -0.2193
 1699SOL    HW116556   2.286   0.475   4.003 -0.6930  0.5897 -0.4165
 1699SOL    HW216557   2.314   0.479   4.155  0.1381  0.0151  0.6160
 1700SOL     OW16558   1.019   0.483  13.837 -0.1736 -0.5041  0.1420
 1700SOL    HW116559   1.055   0.443  13.916  3.6454  3.0101  0.1805
 1700SOL    HW216560   0.946   0.537  13.868 -0.0149  1.0584 -2.1499
 1701SOL     OW16561   3.919   3.727  12.317 -0.7179 -0.1664  0.4444
 1701SOL    HW116562   3.934   3.634  12.300  0.8360  0.1217  0.2365
 1701SOL    HW216563   3.826   3.736  12.298 -0.5911 -0.1567 -0.1605
 1702SOL     OW16564   0.972   1.047   1.438  0.6202  0.3960 -0.3355
 1702SOL    HW116565   0.908   1.117   1.450  0.0362 -0.3778  1.0908
 1702SOL    HW216566   1.016   1.053   1.522 -0.3400  2.4171  0.0128
 1703SOL     OW16567   0.883   2.739  13.951  0.1587 -0.6038  0.2640
 1703SOL    HW116568   0.913   2.757  14.040 -0.4922  2.3996 -0.1347
 1703SOL    HW216569   0.788   2.742  13.966  0.1877  0.5382  0.2454
 1704SOL     OW16570   4.211   2.888   0.563 -0.4551  0.0083  0.1985
 1704SOL    HW116571   4.197   2.913   0.654  2.0457 -3.3192  1.4839
 1704SOL    HW216572   4.169   2.802   0.560 -2.6402  1.1435 -1.2745
 1705SOL     OW16573   2.264   1.223  17.287  0.2080 -0.1929  0.1008
 1705SOL    HW116574   2.324   1.154  17.260  1.0714  1.1789 -1.4943
 1705SOL    HW216575   2.271   1.271  17.204  0.5962  0.4243  0.4882
 1706SOL     OW16576   1.921   2.865   5.418  0.3011 -0.3442 -0.0079
 1706SOL    HW116577   1.879   2.779   5.416  0.3025 -0.3644  0.6769
 1706SOL    HW216578   1.904   2.887   5.510 -0.7095  3.2979 -1.0695
 1707SOL     OW16579   0.184   3.901   1.354  0.4111  0.6369  0.7464
 1707SOL    HW116580   0.103   3.914   1.306  0.6526 -1.3526 -0.2112
 1707SOL    HW216581   0.219   3.826   1.305  0.7499  0.5925  1.0579
 1708SOL     OW16582   0.226   3.120   2.571 -0.2169 -0.2275  0.1529
 1708SOL    HW116583   0.300   3.095   2.516  0.0973 -0.1208  0.5238
 1708SOL    HW216584   0.150   3.080   2.529 -0.9737  3.7494 -2.1975
 1709SOL     OW16585   1.523   3.907   5.454 -0.1461  0.1048  0.0877
 1709SOL    HW116586   1.568   3.991   5.456  0.6242 -0.3484  1.5430
 1709SOL    HW216587   1.592   3.844   5.434  0.3880  1.0147 -0.8807
 1710SOL     OW16588   3.619   1.099   6.939  0.4768 -0.0855  0.2221
 1710SOL    HW116589   3.603   1.008   6.914 -0.2265 -0.2999  1.4413
 1710SOL    HW216590   3.572   1.092   7.022  0.9168 -0.7272  0.4162
 1711SOL     OW16591   0.647   0.952   9.084  0.0853  0.9470 -0.2506
 1711SOL    HW116592   0.659   1.032   9.034  0.1841 -0.2858 -2.1796
 1711SOL    HW216593   0.703   0.971   9.160 -0.3670  0.5705  0.1729
 1712SOL     OW16594   1.050   3.757   8.038 -0.3776  0.0571 -0.0118
 1712SOL    HW116595   1.056   3.755   7.942 -1.7094 -0.5351 -0.0680
 1712SOL    HW216596   0.962   3.719   8.040  0.4574 -1.9102 -0.4786
 1713SOL     OW16597   0.290   4.056   2.495 -0.1250  0.5011  0.0680
 1713SOL    HW116598   0.342   4.076   2.573  1.5180  1.2360 -1.2077
 1713SOL    HW216599   0.351   4.062   2.422  0.5486 -1.6274  0.4728
 1714SOL     OW16600   3.547   3.187   3.865  0.0147  0.7404  0.4218
 1714SOL    HW116601   3.540   3.129   3.789  0.9832  2.1149 -0.6947
 1714SOL    HW216602   3.586   3.262   3.822 -2.0421  0.3852 -2.0259
 1715SOL     OW16603   1.070   3.038  17.598  0.1076  0.0787  0.1566
 1715SOL    HW116604   0.991   3.034  17.543  0.5152  0.3177 -0.4575
 1715SOL    HW216605   1.128   2.972  17.561  0.4114 -0.2209  1.1894
 1716SOL     OW16606   4.607   0.545   8.324  0.4911 -0.3564 -0.2864
 1716SOL    HW116607   4.595   0.484   8.251  0.3423 -2.1407  1.2202
 1716SOL    HW216608   4.676   0.496   8.369 -1.3716 -0.7391  2.1938
 1717SOL     OW16609   0.186   2.363   3.125 -0.7812  0.6216  0.2183
 1717SOL    HW116610   0.144   2.331   3.045 -0.6235 -0.0649  0.4124
 1717SOL    HW216611   0.231   2.287   3.162 -2.3523 -0.8640 -0.9343
 1718SOL     OW16612   4.145   0.443   1.408  0.1592 -0.2163 -0.0218
 1718SOL    HW116613   4.110   0.378   1.468  3.0425 -1.9741 -0.2526
 1718SOL    HW216614   4.229   0.401   1.388 -0.1905  0.0894 -2.2256
 1719SOL     OW16615   2.479   0.267  13.644 -0.1239  0.4780  0.1905
 1719SOL    HW116616   2.469   0.180  13.682  2.0246 -0.3641 -1.1752
 1719SOL    HW216617   2.426   0.318  13.706  1.3407  1.8190  0.3657
 1720SOL     OW16618   3.208   0.776   8.873 -0.0922 -0.1450 -0.2850
 1720SOL    HW116619   3.134   0.830   8.901 -0.6134 -0.5232 -0.9319
 1720SOL    HW216620   3.166   0.691   8.877 -0.3666 -0.0379 -0.9038
 1721SOL     OW16621   3.347   1.789   2.506 -0.1305 -0.2929  0.9674
 1721SOL    HW116622   3.359   1.857   2.572  3.9475  1.5502 -1.7265
 1721SOL    HW216623   3.324   1.842   2.430  0.8381 -0.3094  0.6625
 1722SOL     OW16624   4.120   3.806   6.783 -0.0620  0.1583 -0.1871
 1722SOL    HW116625   4.069   3.866   6.729 -0.8653 -0.5527 -0.2156
 1722SOL    HW216626   4.054   3.753   6.828 -1.1010  1.0637 -0.6394
 1723SOL     OW16627   0.703   1.974   7.133  0.1775 -0.3882  0.5388
 1723SOL    HW116628   0.770   2.038   7.110  0.4279 -0.5133  0.9225
 1723SOL    HW216629   0.734   1.951   7.221 -1.0246  0.4728  1.1906
 1724SOL     OW16630   4.254   3.022   1.674 -0.3537  0.4687 -0.3888
 1724SOL    HW116631   4.332   2.984   1.635  1.0444  0.5102  2.3284
 1724SOL    HW216632   4.215   2.950   1.724  1.3837  1.2946  2.1452
 1725SOL     OW16633   1.379   0.024  16.082  0.0244  0.5258  0.3576
 1725SOL    HW116634   1.387   4.654  16.117  0.9888 -0.1057 -1.4573
 1725SOL    HW216635   1.428   0.073  16.148  1.0199  0.8873 -0.6495
 1726SOL     OW16636   4.312   4.084  14.432  0.0776  0.5386 -0.5731
 1726SOL    HW116637   4.245   4.127  14.378 -0.8091 -1.1691 -0.8280
 1726SOL    HW216638   4.267   4.001  14.449  0.9369  0.2312  0.1733
 1727SOL     OW16639   2.780   2.293   3.248  0.5944  0.1957  0.4999
 1727SOL    HW116640   2.800   2.305   3.341  0.0912  2.4686  0.3178
 1727SOL    HW216641   2.809   2.202   3.240  0.2294 -0.0798  2.2930
 1728SOL     OW16642   2.891   0.497   5.032  0.1488 -0.3390  0.1339
 1728SOL    HW116643   2.879   0.503   5.126  1.4195  0.1366  0.2599
 1728SOL    HW216644   2.969   0.444   5.018  0.3066  0.4193 -1.8094
 1729SOL     OW16645   1.958   1.046   0.226  0.3499 -0.6888  0.4199
 1729SOL    HW116646   1.918   0.960   0.241  0.7442 -0.7960  0.8863
 1729SOL    HW216647   1.887   1.108   0.239 -0.1540 -1.4499  1.2313
 1730SOL     OW16648   1.035   1.518   5.573  0.3275 -0.8000  0.3376
 1730SOL    HW116649   0.964   1.454   5.580 -1.3792  1.1108  0.4454
 1730SOL    HW216650   1.091   1.484   5.503 -0.8705  1.2307 -1.6045
 1731SOL     OW16651   1.240   1.107   4.690  0.4287  0.4646  0.2947
 1731SOL    HW116652   1.217   1.105   4.783 -2.4678 -1.1493 -0.4397
 1731SOL    HW216653   1.174   1.176   4.677  0.0179 -0.2401 -1.4202
 1732SOL     OW16654   4.613   1.730   0.321  0.3143 -0.0174  0.3824
 1732SOL    HW116655   4.658   1.723   0.406 -0.0206 -0.4431  0.5270
 1732SOL    HW216656   4.539   1.671   0.336  0.0141  0.4564  0.7671
 1733SOL     OW16657   4.582   2.473   1.905 -0.0921  0.3158 -0.3398
 1733SOL    HW116658   4.506   2.529   1.921  1.0705  1.5885  0.7860
 1733SOL    HW216659   4.557   2.393   1.952 -1.0207  0.5114 -0.4975
 1734SOL     OW16660   1.880   3.059   2.605 -0.7571  0.0616  0.3657
 1734SOL    HW116661   1.881   3.015   2.690 -0.5305 -1.1610 -0.2660
 1734SOL    HW216662   1.884   2.985   2.544 -0.8458 -0.7743  1.3836
 1735SOL     OW16663   2.515   3.567  15.172 -0.0362  0.3610  0.0167
 1735SOL    HW116664   2.424   3.557  15.200 -0.2134  0.9716 -0.3559
 1735SOL    HW216665   2.529   3.566  15.078  0.5939 -1.4456  0.1257
 1736SOL     OW16666   3.922   0.900  11.260  0.3285 -0.5289  0.5565
 1736SOL    HW116667   3.994   0.839  11.278  0.3515 -0.7772 -0.3836
 1736SOL    HW216668   3.930   0.974  11.321  1.9473 -1.0038  0.9167
 1737SOL     OW16669   4.005   3.762   6.026 -0.0856 -0.0427  0.7139
 1737SOL    HW116670   4.060   3.689   6.056  2.6282  1.5691 -0.3445
 1737SOL    HW216671   3.916   3.741   6.055 -0.3120  1.4641  1.1179
 1738SOL     OW16672   4.412   3.317   5.857  0.0418  0.0266 -0.0915
 1738SOL    HW116673   4.465   3.362   5.923  0.6016  1.2092 -1.3587
 1738SOL    HW216674   4.467   3.239   5.867  1.1635  0.7826 -0.4662
 1739SOL     OW16675   2.510   2.188   2.859 -0.5716  0.4762 -0.8193
 1739SOL    HW116676   2.500   2.180   2.954  1.7146  0.6486 -0.5704
 1739SOL    HW216677   2.489   2.098   2.833  1.3168  0.0664 -0.9169
 1740SOL     OW16678   4.429   2.401   8.274  0.1410 -0.2087 -0.1497
 1740SOL    HW116679   4.360   2.396   8.341  0.7778  1.9977  0.6402
 1740SOL    HW216680   4.494   2.452   8.321 -0.1595 -1.4450  1.5900
 1741SOL     OW16681   0.963   2.324   8.025 -0.2375 -0.0448  0.2299
 1741SOL    HW116682   0.897   2.264   8.060 -0.3491 -1.0914 -1.8023
 1741SOL    HW216683   1.050   2.297   8.056 -0.9757 -0.1258  2.2422
 1742SOL     OW16684   2.734   0.021  14.436  0.0018  0.1284  0.1264
 1742SOL    HW116685   2.817   4.698  14.416 -0.8761 -2.6347  2.3019
 1742SOL    HW216686   2.744   0.102  14.387 -0.7583  0.0292 -0.1970
 1743SOL     OW16687   3.593   0.033  12.931 -0.2792  0.0585 -0.2167
 1743SOL    HW116688   3.537   4.698  12.877 -0.7090  0.5900 -0.3036
 1743SOL    HW216689   3.652   4.690  12.974 -1.3759 -0.4437  0.5357
 1744SOL     OW16690   4.023   0.912   6.137 -0.4545  0.6428 -0.9641
 1744SOL    HW116691   3.972   0.896   6.217  2.2771  1.1282  0.8936
 1744SOL    HW216692   3.995   1.002   6.127 -1.3023  0.4798 -0.0867
 1745SOL     OW16693   0.500   2.043   3.011 -0.0850 -0.0314  0.6950
 1745SOL    HW116694   0.568   2.109   3.021 -1.4008  1.4583 -0.3165
 1745SOL    HW216695   0.535   1.978   3.073  1.1222  0.8282  0.9138
 1746SOL     OW16696   1.974   3.163   7.416  0.3831  0.4197  0.2603
 1746SOL    HW116697   1.955   3.196   7.328 -0.5181 -2.2250 -0.5634
 1746SOL    HW216698   1.882   3.149   7.441 -0.2502  0.4434 -1.9820
 1747SOL     OW16699   3.145   1.620   8.043 -0.7289  0.2713 -0.0425
 1747SOL    HW116700   3.103   1.534   8.035 -0.5201  0.3072 -1.5792
 1747SOL    HW216701   3.101   1.657   8.120 -0.1663 -1.6088  1.1900
 1748SOL     OW16702   1.943   0.008   2.816  0.2477 -0.2410 -0.3102
 1748SOL    HW116703   1.889   4.665   2.864 -0.8761  0.1087 -1.1304
 1748SOL    HW216704   1.979   4.666   2.751 -1.3051 -0.7894 -0.6492
 1749SOL     OW16705   2.959   3.561   5.549  0.1881 -0.0386 -0.4712
 1749SOL    HW116706   3.034   3.515   5.586  1.1209  0.1953 -2.0731
 1749SOL    HW216707   2.967   3.547   5.455 -0.9703 -2.3082 -0.2210
 1750SOL     OW16708   1.153   4.490  17.564 -0.0235 -0.0101 -0.3121
 1750SOL    HW116709   1.141   4.584  17.555  0.9607  0.1008 -0.4232
 1750SOL    HW216710   1.225   4.486  17.626 -0.3702  0.3803  0.1122
 1751SOL     OW16711   1.865   3.886  13.873 -0.0543  0.0945 -0.4225
 1751SOL    HW116712   1.850   3.894  13.968  1.7600  1.3369 -0.2516
 1751SOL    HW216713   1.938   3.825  13.880 -0.3998 -0.2111  0.6570
 1752SOL     OW16714   2.276   4.433   2.057 -0.6897  0.2253 -0.4355
 1752SOL    HW116715   2.251   4.377   1.984 -0.5137  0.5965 -0.7808
 1752SOL    HW216716   2.370   4.448   2.042 -0.9059  3.0986  1.1151
 1753SOL     OW16717   0.328   1.619  11.362 -0.6211 -0.2858 -0.0954
 1753SOL    HW116718   0.407   1.582  11.323  1.3304  2.7500  0.9741
 1753SOL    HW216719   0.310   1.683  11.293 -2.4409 -2.3641 -1.5555
 1754SOL     OW16720   2.783   3.382   8.585 -0.3991 -0.0885 -0.3199
 1754SOL    HW116721   2.693   3.389   8.554 -1.0172 -3.4086  0.6850
 1754SOL    HW216722   2.779   3.439   8.661 -0.5497 -2.9322  1.7946
 1755SOL     OW16723   1.430   4.219  17.519 -0.5172  0.2496  0.4207
 1755SOL    HW116724   1.368   4.148  17.535  0.7426 -1.0467 -0.4939
 1755SOL    HW216725   1.443   4.251  17.609  0.4020 -1.5894  0.9451
 1756SOL     OW16726   4.085   4.612   3.754 -0.0446  0.1113 -0.1358
 1756SOL    HW116727   4.053   4.543   3.810 -0.2646  1.3133  1.2156
 1756SOL    HW216728   4.174   4.588   3.727 -0.1453 -2.2044  1.6503
 1757SOL     OW16729   0.369   4.312   8.351 -0.5920  0.0379 -1.1676
 1757SOL    HW116730   0.285   4.311   8.397 -0.2718 -1.3444 -0.6016
 1757SOL    HW216731   0.426   4.268   8.415 -0.3072  0.7664 -0.9195
 1758SOL     OW16732   3.362   4.312  13.790 -0.1888 -0.6046  0.6050
 1758SOL    HW116733   3.452   4.333  13.815 -0.2756  3.2827 -2.2681
 1758SOL    HW216734   3.333   4.274  13.873  1.1288  0.2688  1.4770
 1759SOL     OW16735   3.552   3.495  17.446  0.2840 -0.2325  0.0176
 1759SOL    HW116736   3.535   3.587  17.425 -0.5662 -0.1447  1.1230
 1759SOL    HW216737   3.522   3.440  17.373  1.4232 -0.6910 -0.1029
 1760SOL     OW16738   3.398   0.240   5.140  0.4697  0.1250 -0.3852
 1760SOL    HW116739   3.458   0.263   5.211 -0.1801  2.7291 -0.6999
 1760SOL    HW216740   3.439   0.171   5.088  1.5719 -0.4651  1.2718
 1761SOL     OW16741   3.204   2.289   1.344 -0.2248  0.0326 -0.2386
 1761SOL    HW116742   3.142   2.361   1.341  1.2504  1.4467  2.3445
 1761SOL    HW216743   3.268   2.335   1.400  0.5160  1.3037 -2.1164
 1762SOL     OW16744   1.590   2.378   4.643 -0.6957 -0.1226  0.2222
 1762SOL    HW116745   1.536   2.457   4.648  2.6519  2.1666  0.5486
 1762SOL    HW216746   1.571   2.348   4.554  1.6570 -1.3271  0.1260
 1763SOL     OW16747   1.945   1.422  11.693 -0.2938  0.1266  0.0066
 1763SOL    HW116748   1.946   1.329  11.670  0.5776 -0.0018  0.5721
 1763SOL    HW216749   1.868   1.455  11.645  0.1686 -0.3017 -1.0213
 1764SOL     OW16750   0.561   2.818   3.689 -0.2243  0.1429  0.2881
 1764SOL    HW116751   0.517   2.733   3.695  0.1376 -0.0185  0.6350
 1764SOL    HW216752   0.647   2.781   3.711  0.3031  1.3428  0.2475
 1765SOL     OW16753   0.201   0.720   8.607  0.6422 -0.3150  0.2006
 1765SOL    HW116754   0.121   0.676   8.635  0.8249 -1.0512 -0.4226
 1765SOL    HW216755   0.230   0.671   8.529 -1.1696  0.5491 -1.0093
 1766SOL     OW16756   2.771   0.757   9.201  0.3651 -0.1879 -0.1684
 1766SOL    HW116757   2.719   0.682   9.230 -1.2663  1.7023  1.7893
 1766SOL    HW216758   2.802   0.790   9.285  2.3473 -3.5989  0.4651
 1767SOL     OW16759   2.239   1.125   7.782  0.1522 -0.4195  0.6024
 1767SOL    HW116760   2.317   1.115   7.836 -0.0773 -2.6459  0.5220
 1767SOL    HW216761   2.258   1.073   7.704  0.0095 -0.9071  0.8932
 1768SOL     OW16762   2.022   1.951   3.810 -0.1766  0.0086  0.3811
 1768SOL    HW116763   2.001   1.872   3.859 -2.8182 -0.7188 -1.9532
 1768SOL    HW216764   2.117   1.950   3.805 -0.2724  1.7905 -1.4937
 1769SOL     OW16765   2.686   0.176   4.363 -0.3773  0.2399 -0.0820
 1769SOL    HW116766   2.747   0.244   4.336  1.5218 -2.6833 -3.1926
 1769SOL    HW216767   2.746   0.146   4.432 -0.6484  1.5323  0.7207
 1770SOL     OW16768   2.705   2.792  15.417 -0.4695  0.9126 -0.2085
 1770SOL    HW116769   2.682   2.814  15.326  3.4631 -0.6287 -1.5835
 1770SOL    HW216770   2.779   2.853  15.420  0.6172 -0.3413 -1.4546
 1771SOL     OW16771   4.330   1.665   0.014  0.3761  0.3812 -0.0641
 1771SOL    HW116772   4.400   1.730   0.014  0.0834  0.6787 -1.3570
 1771SOL    HW216773   4.328   1.648   0.108 -0.4812 -2.2643 -0.5590
 1772SOL     OW16774   3.628   0.576   6.630  0.4346  0.0808  0.6477
 1772SOL    HW116775   3.630   0.557   6.724 -2.0936  2.7172  1.2493
 1772SOL    HW216776   3.722   0.591   6.620  0.0463  1.9277 -0.3034
 1773SOL     OW16777   2.246   0.125  16.219  0.0728 -0.4659 -0.3613
 1773SOL    HW116778   2.309   0.184  16.178 -1.0628  0.4048 -0.8546
 1773SOL    HW216779   2.208   0.182  16.286  3.0093  2.2541 -1.0685
 1774SOL     OW16780   1.186   1.672   0.295 -0.3818  0.1168 -0.2299
 1774SOL    HW116781   1.271   1.714   0.288  0.4891 -1.8674 -1.2947
 1774SOL    HW216782   1.189   1.609   0.224  2.3575 -0.8318  0.7575
 1775SOL     OW16783   3.484   1.114  16.925 -0.2529 -0.2220 -0.2272
 1775SOL    HW116784   3.509   1.087  16.837 -1.3316  0.4815 -0.7474
 1775SOL    HW216785   3.527   1.044  16.975  1.9489  0.7438 -0.7919
 1776SOL     OW16786   2.300   2.764  13.438  0.2593 -0.3485  0.1095
 1776SOL    HW116787   2.375   2.813  13.471 -0.2299  1.4388 -1.4047
 1776SOL    HW216788   2.352   2.709  13.380 -0.4801 -0.4407 -0.4679
 1777SOL     OW16789   2.148   0.636   1.066 -0.0531  0.6653 -0.1834
 1777SOL    HW116790   2.156   0.567   1.000  3.9271 -0.3427  1.3723
 1777SOL    HW216791   2.073   0.605   1.116 -0.5179  0.4214 -1.0298
 1778SOL     OW16792   1.351   2.767  10.981  0.1453 -0.3308 -0.7662
 1778SOL    HW116793   1.316   2.709  10.914  1.3081 -1.7286 -0.1503
 1778SOL    HW216794   1.274   2.760  11.037  1.0591  0.2931  0.5496
 1779SOL     OW16795   0.483   4.676   7.019 -0.2414 -0.9020 -0.0319
 1779SOL    HW116796   0.569   4.646   6.992 -0.1213 -0.6970  0.1226
 1779SOL    HW216797   0.467   4.624   7.098  0.6066 -0.5553  0.3699
 1780SOL     OW16798   1.270   4.576   5.975  0.0893  0.2824  0.0032
 1780SOL    HW116799   1.191   4.572   6.029  0.2229 -2.0793  0.0415
 1780SOL    HW216800   1.266   4.662   5.935  1.2759  0.7901  0.9998
 1781SOL     OW16801   3.750   3.944   9.522 -0.0601  0.0532  0.2437
 1781SOL    HW116802   3.809   3.985   9.459 -0.8939 -1.3436 -1.4496
 1781SOL    HW216803   3.812   3.877   9.549  0.5197  0.1827 -0.7378
 1782SOL     OW16804   2.709   0.987   0.186 -0.5836  0.3032  0.0080
 1782SOL    HW116805   2.778   1.050   0.206 -0.1245 -1.1906  3.1121
 1782SOL    HW216806   2.726   0.914   0.245  0.0786  0.1625 -0.3580
 1783SOL     OW16807   3.659   0.033   6.862  0.0940 -0.0164 -0.7054
 1783SOL    HW116808   3.570   0.003   6.880 -0.1012  1.0725  0.1677
 1783SOL    HW216809   3.709   0.008   6.939 -0.9268  1.1235  0.3380
 1784SOL     OW16810   1.684   1.407   3.485 -0.0280  0.5784 -0.0787
 1784SOL    HW116811   1.761   1.458   3.511  0.9418 -0.8882 -0.0579
 1784SOL    HW216812   1.623   1.413   3.559 -0.1384  0.7059 -0.1820
 1785SOL     OW16813   1.257   2.506  17.438  0.1793  0.2738 -0.4672
 1785SOL    HW116814   1.211   2.442  17.384 -1.4346 -1.6907  3.2552
 1785SOL    HW216815   1.226   2.477  17.524  1.3469 -1.6189 -0.6958
 1786SOL     OW16816   3.786   0.371   4.452  0.4331  0.3044  0.1816
 1786SOL    HW116817   3.810   0.417   4.371 -1.5454  0.6610 -0.2113
 1786SOL    HW216818   3.840   0.422   4.512 -1.6779  0.0715  2.2775
 1787SOL     OW16819   3.985   4.005   6.190  0.6018 -0.4843  0.3552
 1787SOL    HW116820   3.906   3.978   6.236  1.3363  0.6593  2.2429
 1787SOL    HW216821   4.009   3.928   6.137 -2.4545 -0.3737 -1.2065
 1788SOL     OW16822   1.197   2.011  13.394  0.4833 -0.3494 -0.1394
 1788SOL    HW116823   1.277   2.027  13.443 -0.1912 -0.5317  1.0222
 1788SOL    HW216824   1.202   2.066  13.315 -1.5771  0.1883  0.0931
 1789SOL     OW16825   1.754   2.431  12.295 -0.0529 -0.1887 -0.2237
 1789SOL    HW116826   1.742   2.409  12.203  0.3068  0.4783 -0.4330
 1789SOL    HW216827   1.830   2.488  12.289 -1.3992  1.5067 -1.0952
 1790SOL     OW16828   2.935   4.634   5.615 -0.0823  0.1530  0.2246
 1790SOL    HW116829   2.879   4.559   5.635  2.9463 -1.9259  0.9736
 1790SOL    HW216830   2.998   4.598   5.553  2.3224  1.4426  1.8727
 1791SOL     OW16831   2.425   0.487   3.390 -0.8851 -0.0883 -0.1467
 1791SOL    HW116832   2.481   0.451   3.459 -1.7447  0.7139  0.9717
 1791SOL    HW216833   2.386   0.411   3.345 -1.1803 -0.2655  0.4094
 1792SOL     OW16834   3.764   0.514   0.041  0.0062 -0.3711 -0.2135
 1792SOL    HW116835   3.711   0.467  17.658 -2.2438 -0.0929  1.4841
 1792SOL    HW216836   3.721   0.599   0.044 -0.3214 -0.5664  0.5963
 1793SOL     OW16837   2.909   2.565   8.466  0.9021  0.4029  0.2078
 1793SOL    HW116838   2.890   2.532   8.378 -0.6640  1.8139  0.0164
 1793SOL    HW216839   3.005   2.568   8.467  1.0741 -3.8042 -1.1782
 1794SOL     OW16840   4.630   2.180   8.516 -0.8081 -0.4226  0.1668
 1794SOL    HW116841   4.535   2.178   8.512 -0.7664  0.4069 -1.4529
 1794SOL    HW216842   4.654   2.144   8.430  1.1916  2.6697 -0.6032
 1795SOL     OW16843   1.370   4.054   9.823 -0.2092 -0.4298 -0.0808
 1795SOL    HW116844   1.380   4.126   9.760 -0.1647  0.6801  1.1909
 1795SOL    HW216845   1.324   4.104   9.890  1.1392  1.4146 -0.5403
 1796SOL     OW16846   3.876   2.698  10.054 -1.3317  0.3484  0.1238
 1796SOL    HW116847   3.952   2.644  10.034 -0.8502  1.1885 -0.3251
 1796SOL    HW216848   3.815   2.624  10.053  0.5573 -1.1964 -0.2871
 1797SOL     OW16849   2.302   1.039   2.511 -0.0709  0.5896  0.4656
 1797SOL    HW116850   2.263   0.962   2.470  0.8541  0.2413  0.2637
 1797SOL    HW216851   2.309   1.105   2.442 -3.3131 -0.4728 -0.8915
 1798SOL     OW16852   1.893   1.929   4.952 -0.1849  0.6745  0.0961
 1798SOL    HW116853   1.959   1.996   4.971  1.9059 -1.6649  1.0730
 1798SOL    HW216854   1.826   1.959   4.891 -0.2458  1.5329  0.5921
 1799SOL     OW16855   3.735   0.322  13.094 -0.3252  0.3670 -0.2013
 1799SOL    HW116856   3.724   0.400  13.040  0.6776  1.3200  0.9689
 1799SOL    HW216857   3.717   0.358  13.181  1.8140 -0.2409  0.5105
 1800SOL     OW16858   2.623   0.578   7.123 -0.3470  0.4674  0.2295
 1800SOL    HW116859   2.639   0.516   7.052 -0.4513  1.4815 -0.6647
 1800SOL    HW216860   2.687   0.644   7.096 -0.5352  0.9302  0.9175
 1801SOL     OW16861   0.820   1.140   4.655 -0.4989 -0.3406 -0.1842
 1801SOL    HW116862   0.727   1.134   4.677  0.0366  0.0605  2.1952
 1801SOL    HW216863   0.817   1.077   4.583 -2.9565  1.0694 -1.3229
 1802SOL     OW16864   1.731   2.705   6.805 -0.2533 -0.1488  0.0546
 1802SOL    HW116865   1.645   2.729   6.770 -0.0277  1.9858  1.0316
 1802SOL    HW216866   1.741   2.772   6.872  0.6995  0.8331 -1.0679
 1803SOL     OW16867   3.654   2.109   6.361 -0.0921  0.2559 -0.3404
 1803SOL    HW116868   3.695   2.181   6.313 -0.3847  1.7111  1.6146
 1803SOL    HW216869   3.586   2.153   6.412 -0.6506 -0.7148 -0.2508
 1804SOL     OW16870   0.258   2.322   8.748  0.1817  0.1930  0.5106
 1804SOL    HW116871   0.223   2.406   8.716  0.2086  0.4284  1.0974
 1804SOL    HW216872   0.247   2.271   8.667 -1.1412  1.4157 -0.0991
 1805SOL     OW16873   3.493   2.402   3.789 -0.2730 -0.1720 -0.5450
 1805SOL    HW116874   3.499   2.446   3.873 -3.1301  1.9242 -1.4669
 1805SOL    HW216875   3.582   2.365   3.794 -1.1278 -2.3373 -1.0135
 1806SOL     OW16876   0.671   3.593  10.926  0.7705 -0.0338  0.0054
 1806SOL    HW116877   0.666   3.668  10.867  0.1198  0.7551  1.0651
 1806SOL    HW216878   0.633   3.640  11.001  2.5481 -0.2854  1.0798
 1807SOL     OW16879   4.664   0.039  15.883 -0.1141 -0.0398  0.4187
 1807SOL    HW116880   0.025   0.087  15.862  1.7760 -2.6471  1.6682
 1807SOL    HW216881   4.707   4.695  15.940 -2.2873 -2.1962 -0.3079
 1808SOL     OW16882   0.994   0.073   1.360  0.0192 -0.4896 -0.2640
 1808SOL    HW116883   0.960   0.162   1.356  1.5385  0.1038  0.1346
 1808SOL    HW216884   0.924   0.023   1.319  0.1579 -1.3032  0.4786
 1809SOL     OW16885   3.902   3.647   1.359  0.2804 -0.6742 -0.1947
 1809SOL    HW116886   3.922   3.561   1.395  3.3558  0.3493  0.5808
 1809SOL    HW216887   3.983   3.696   1.374 -0.0889  0.7890 -3.0065
 1810SOL     OW16888   0.235   0.914   4.364  0.2968 -0.1233  0.8663
 1810SOL    HW116889   0.260   0.993   4.411  1.2268 -0.0069  0.1747
 1810SOL    HW216890   0.143   0.905   4.389 -0.1583  0.8123 -0.4900
 1811SOL     OW16891   3.351   2.968   7.353 -0.5458 -0.4977 -0.4161
 1811SOL    HW116892   3.276   3.017   7.386 -2.8394 -1.7832 -3.7882
 1811SOL    HW216893   3.397   3.027   7.294 -0.7415 -0.6616 -0.7316
 1812SOL     OW16894   2.977   3.123  11.979 -0.0484 -0.2603  0.5785
 1812SOL    HW116895   2.921   3.194  12.008  0.0354 -0.6972  1.8113
 1812SOL    HW216896   2.990   3.130  11.884  0.4940 -3.3911  0.4251
 1813SOL     OW16897   0.322   4.616  16.807 -0.3872 -0.2532 -0.3586
 1813SOL    HW116898   0.256   4.547  16.815  1.4488 -1.8952  0.6818
 1813SOL    HW216899   0.338   4.632  16.900  0.9347  1.5609 -0.8907
 1814SOL     OW16900   1.166   0.696   0.343 -0.0171  0.1171 -0.1914
 1814SOL    HW116901   1.221   0.624   0.374  0.8836  0.8607 -0.0613
 1814SOL    HW216902   1.112   0.708   0.421 -0.7371  1.4720 -0.8933
 1815SOL     OW16903   2.388   1.049   8.174  0.3299  0.3230  0.3619
 1815SOL    HW116904   2.297   1.079   8.180  0.3731  0.6094 -0.4927
 1815SOL    HW216905   2.408   1.060   8.267 -1.3050  1.1738  0.6103
 1816SOL     OW16906   2.266   1.808   4.958  0.2988 -0.3954  0.4534
 1816SOL    HW116907   2.347   1.815   5.008 -0.0409  1.4072  0.7550
 1816SOL    HW216908   2.208   1.859   5.013 -0.3207  0.3580 -0.8885
 1817SOL     OW16909   0.215   3.446   1.846  0.1901 -0.3088  1.1263
 1817SOL    HW116910   0.256   3.485   1.769 -0.4642 -1.9185 -0.0217
 1817SOL    HW216911   0.164   3.524   1.869 -0.2364 -0.2793  0.0841
 1818SOL     OW16912   1.623   3.390   4.381  0.0430  0.1947 -0.1926
 1818SOL    HW116913   1.556   3.435   4.433 -0.9666 -0.2481 -1.1224
 1818SOL    HW216914   1.566   3.354   4.313 -0.1367  0.4697 -0.1872
 1819SOL     OW16915   3.273   4.012   9.626  0.5190 -0.1066 -0.5367
 1819SOL    HW116916   3.244   4.056   9.706  1.0162 -1.8914  0.6249
 1819SOL    HW216917   3.366   4.029   9.616  0.5255  0.8661  1.1569
 1820SOL     OW16918   0.017   2.265   2.897 -0.1951 -0.1310  0.7394
 1820SOL    HW116919   0.012   2.197   2.829 -0.9975  1.8998 -1.2283
 1820SOL    HW216920   0.023   2.349   2.852  1.6109 -0.0835  1.0983
 1821SOL     OW16921   3.705   3.940  15.672 -0.7083  0.4711 -0.3533
 1821SOL    HW116922   3.786   3.936  15.621 -0.0103 -0.5520  0.8489
 1821SOL    HW216923   3.729   4.012  15.731  0.5309 -1.2424  1.2362
 1822SOL     OW16924   2.306   0.554   3.068 -0.4320  0.2512 -0.4697
 1822SOL    HW116925   2.386   0.590   3.106 -1.1529  0.0313  1.2207
 1822SOL    HW216926   2.342   0.498   2.999 -1.4526  2.9741 -3.2239
 1823SOL     OW16927   1.358   0.707   4.630 -0.5068  0.0746 -0.3783
 1823SOL    HW116928   1.402   0.785   4.661 -0.2288  0.4244 -1.6346
 1823SOL    HW216929   1.424   0.644   4.658  1.9574  1.8246 -2.2278
 1824SOL     OW16930   0.286   2.622  11.677  0.2838  0.4164  0.0700
 1824SOL    HW116931   0.323   2.697  11.629  0.4728 -0.4028 -1.0752
 1824SOL    HW216932   0.370   2.587  11.707  0.3268  0.9753  0.6062
 1825SOL     OW16933   0.317   4.718   8.580  0.5095  0.0157 -0.3086
 1825SOL    HW116934   0.388   4.674   8.532  1.4217  0.4639  0.6439
 1825SOL    HW216935   0.241   4.669   8.548 -1.3528  1.8844  1.1984
 1826SOL     OW16936   3.732   3.086   7.270  0.0898  0.0706 -0.2111
 1826SOL    HW116937   3.808   3.028   7.264 -1.2699 -1.7923  0.4047
 1826SOL    HW216938   3.765   3.165   7.312 -0.5625  1.2512 -1.9566
 1827SOL     OW16939   0.377   1.484   3.886  0.1199  0.5658  0.2291
 1827SOL    HW116940   0.397   1.515   3.797 -1.2924  0.1149 -0.2371
 1827SOL    HW216941   0.369   1.570   3.926 -1.5290  0.1206  0.8294
 1828SOL     OW16942   3.098   1.209   5.581  0.3188 -0.2555  0.3991
 1828SOL    HW116943   3.069   1.211   5.672  1.3002 -0.7834  0.7195
 1828SOL    HW216944   3.039   1.141   5.551 -0.9006  1.1542 -0.4247
 1829SOL     OW16945   0.243   0.113   8.053  0.1960  0.1483  0.2186
 1829SOL    HW116946   0.282   0.038   8.008 -2.3174 -1.7353  1.1270
 1829SOL    HW216947   0.285   0.109   8.139 -0.5289  0.4004  0.5906
 1830SOL     OW16948   2.000   0.407  16.140 -0.1344  0.2432  0.5014
 1830SOL    HW116949   2.028   0.346  16.072 -1.3227 -0.5019  0.6788
 1830SOL    HW216950   1.913   0.432  16.111 -0.7520  0.0972  2.2029
 1831SOL     OW16951   3.968   4.344  10.495 -0.1728 -0.6421 -0.5862
 1831SOL    HW116952   3.914   4.359  10.418 -0.1962 -2.2549 -0.8693
 1831SOL    HW216953   3.903   4.367  10.561  0.6986  1.4232 -0.4463
 1832SOL     OW16954   0.829   2.675   2.529 -0.7608  0.2937  0.7923
 1832SOL    HW116955   0.828   2.605   2.594 -0.5250  0.7459  1.2807
 1832SOL    HW216956   0.916   2.670   2.490 -1.1976 -0.6261 -0.0677
 1833SOL     OW16957   0.959   4.338   5.047  0.2421  0.1591  0.2728
 1833SOL    HW116958   0.916   4.407   4.996 -0.9591  1.0065  2.4137
 1833SOL    HW216959   1.046   4.374   5.062  0.3428  0.1818 -0.3818
 1834SOL     OW16960   4.030   2.103  16.904 -0.6890  0.0757  0.4578
 1834SOL    HW116961   3.986   2.020  16.919  1.7677 -1.5075 -0.9679
 1834SOL    HW216962   3.985   2.149  16.974 -0.0675  0.9615  0.2765
 1835SOL     OW16963   2.301   4.214  15.548 -0.5536  0.0679 -0.1780
 1835SOL    HW116964   2.341   4.297  15.571  0.7340 -0.0504 -2.0562
 1835SOL    HW216965   2.226   4.239  15.494  0.0726  0.2371 -0.9469
 1836SOL     OW16966   2.318   2.010   3.375 -0.2174 -0.0561  0.0770
 1836SOL    HW116967   2.403   1.966   3.369  0.1251  0.4010  1.5776
 1836SOL    HW216968   2.316   2.048   3.462  0.2195  0.4890 -0.1511
 1837SOL     OW16969   0.619   2.015   7.606 -0.1011 -0.5425  0.1739
 1837SOL    HW116970   0.604   1.936   7.657  0.6533 -0.7372  0.0987
 1837SOL    HW216971   0.553   1.999   7.538 -0.6336  0.4506  0.4559
 1838SOL     OW16972   4.664   0.608   8.995  0.4152  0.3401  0.2316
 1838SOL    HW116973   4.685   0.527   8.948  1.7106 -0.2490  1.8227
 1838SOL    HW216974   4.571   0.617   8.975  0.1408  0.0250  1.3565
 1839SOL     OW16975   4.263   3.552   7.553 -0.5501  0.2202 -0.3307
 1839SOL    HW116976   4.263   3.479   7.614  0.1780 -0.4580 -1.1485
 1839SOL    HW216977   4.349   3.544   7.512  0.2312  0.4855  1.2733
 1840SOL     OW16978   3.305   1.183   9.074 -0.4656 -0.0521 -0.6439
 1840SOL    HW116979   3.388   1.175   9.122  0.5859  0.6135 -2.3302
 1840SOL    HW216980   3.258   1.103   9.095  1.3893 -0.9610  0.0847
 1841SOL     OW16981   4.697   4.517   5.096  0.4969  0.0079  0.0449
 1841SOL    HW116982   0.063   4.484   5.125 -0.3424 -1.8192  0.4527
 1841SOL    HW216983   4.636   4.494   5.166  2.7464 -1.0568  1.6455
 1842SOL     OW16984   3.205   3.300   4.559 -0.2330 -0.0551  0.5474
 1842SOL    HW116985   3.206   3.332   4.650  0.1291 -0.6827  0.7660
 1842SOL    HW216986   3.183   3.208   4.573  1.3653 -0.5537 -0.1820
 1843SOL     OW16987   0.591   0.082   7.962 -0.0923  0.4283 -0.7547
 1843SOL    HW116988   0.602   0.116   8.051  1.8029 -1.1925 -0.3576
 1843SOL    HW216989   0.541   0.003   7.983  1.0963 -0.4211 -1.0585
 1844SOL     OW16990   2.252   0.172  17.237 -0.5508  0.6376 -0.2752
 1844SOL    HW116991   2.329   0.116  17.230 -2.9785 -2.7774  0.7567
 1844SOL    HW216992   2.266   0.245  17.176  2.3865  0.3778  0.0908
 1845SOL     OW16993   1.902   0.192  14.777  0.1201  0.3717 -0.4430
 1845SOL    HW116994   1.973   0.247  14.810  0.3530  0.6497 -1.4381
 1845SOL    HW216995   1.845   0.261  14.745 -0.3872  1.4204  2.7192
 1846SOL     OW16996   2.126   1.917   6.578 -0.5922 -0.2122 -0.1911
 1846SOL    HW116997   2.140   1.854   6.508  1.1323 -1.0364  0.9113
 1846SOL    HW216998   2.033   1.937   6.574 -0.4558  0.3731 -0.6217
 1847SOL     OW16999   0.129   1.961   2.731  0.2643 -0.4054 -0.2249
 1847SOL    HW117000   0.107   1.877   2.771  3.5083 -1.2389 -0.2022
 1847SOL    HW217001   0.161   1.998   2.813  0.5149  0.0133 -0.5101
 1848SOL     OW17002   4.208   4.107  13.759  0.3132 -0.8070 -0.6565
 1848SOL    HW117003   4.157   4.039  13.804  1.4175 -0.2949  1.3407
 1848SOL    HW217004   4.148   4.180  13.743 -0.2913 -0.9394  1.0565
 1849SOL     OW17005   3.455   3.007   4.527 -0.0683  0.0311  0.4723
 1849SOL    HW117006   3.376   2.965   4.560 -1.0071  0.7279 -0.9124
 1849SOL    HW217007   3.428   3.020   4.437  1.5899 -1.2070 -0.2145
 1850SOL     OW17008   1.596   2.706   6.392  0.2055 -0.1500 -0.3438
 1850SOL    HW117009   1.644   2.722   6.310  0.3234  0.6694 -0.1136
 1850SOL    HW217010   1.517   2.665   6.357 -1.0801  1.4134  0.7483
 1851SOL     OW17011   0.968   1.138  13.557 -0.7829  0.0659  0.0937
 1851SOL    HW117012   0.912   1.135  13.480  1.1365 -0.9495 -1.2494
 1851SOL    HW217013   0.925   1.200  13.616 -2.7197 -1.0549 -0.1188
 1852SOL     OW17014   3.121   1.917   8.355  0.8336  0.2931  0.5748
 1852SOL    HW117015   3.124   1.944   8.263 -0.5958  1.4722  0.8727
 1852SOL    HW217016   3.196   1.859   8.365 -0.2436 -1.1053  0.4697
 1853SOL     OW17017   2.140   2.676   5.006  0.6268  0.1090 -0.2135
 1853SOL    HW117018   2.232   2.699   5.020  0.0430  3.4018 -1.8379
 1853SOL    HW217019   2.146   2.639   4.918 -2.7516  1.0072 -0.8275
 1854SOL     OW17020   4.610   3.271  17.213  0.7235 -0.2308  0.4808
 1854SOL    HW117021   4.538   3.333  17.197 -0.0190 -0.5638  2.5177
 1854SOL    HW217022   4.619   3.244  17.122  2.2902 -0.3678  0.6669
 1855SOL     OW17023   3.425   3.321  14.853 -0.0518 -0.1917 -0.3894
 1855SOL    HW117024   3.422   3.282  14.940  3.0643 -1.3655 -0.8386
 1855SOL    HW217025   3.423   3.414  14.874 -1.8952 -0.7408  1.8886
 1856SOL     OW17026   0.174   0.683  10.850 -0.4043  0.1995  0.1984
 1856SOL    HW117027   0.161   0.778  10.853  1.0830  0.3772  1.3626
 1856SOL    HW217028   0.235   0.675  10.777 -1.0598  0.9273 -0.4251
 1857SOL     OW17029   1.523   1.475  11.175 -0.1518  0.3653 -0.3834
 1857SOL    HW117030   1.540   1.568  11.161 -1.0142  0.4974 -0.5704
 1857SOL    HW217031   1.428   1.471  11.171 -0.2834  1.5105  1.6926
 1858SOL     OW17032   0.472   4.031   7.131 -0.3607 -0.3002  0.3467
 1858SOL    HW117033   0.506   4.103   7.184 -2.6939  0.4291  0.8574
 1858SOL    HW217034   0.536   3.961   7.146  0.3478  0.3710  0.4755
 1859SOL     OW17035   1.901   3.751   8.245  0.2473 -0.2238 -0.7827
 1859SOL    HW117036   1.812   3.740   8.210 -0.0549  0.1785 -0.1365
 1859SOL    HW217037   1.949   3.750   8.162  1.7721 -0.1113  0.0983
 1860SOL     OW17038   0.257   4.370   6.529  0.6632 -0.7827  0.4519
 1860SOL    HW117039   0.272   4.434   6.598  0.8655 -0.9897  0.5985
 1860SOL    HW217040   0.194   4.421   6.477  0.4165 -1.0959  0.4407
 1861SOL     OW17041   2.854   2.247   5.190  0.1222 -0.0378 -0.0607
 1861SOL    HW117042   2.925   2.276   5.249  0.1980 -1.9998  0.8129
 1861SOL    HW217043   2.782   2.300   5.225 -0.0675 -0.4621  0.1856
 1862SOL     OW17044   2.440   2.301   4.250  0.3649 -1.0513  0.3731
 1862SOL    HW117045   2.383   2.269   4.320 -1.4309  2.1739  0.4039
 1862SOL    HW217046   2.507   2.234   4.237  0.2726 -0.7944 -1.4879
 1863SOL     OW17047   0.816   2.097   5.675 -0.7671  0.5394  0.4226
 1863SOL    HW117048   0.731   2.136   5.654  0.4109  3.1684  0.6069
 1863SOL    HW217049   0.823   2.046   5.594 -0.4967  0.2264  0.6448
 1864SOL     OW17050   3.539   3.200   4.691  0.1934  0.0822 -0.3375
 1864SOL    HW117051   3.609   3.165   4.746 -0.6508  1.0743  1.3413
 1864SOL    HW217052   3.514   3.115   4.653 -1.2472  0.1180  0.5135
 1865SOL     OW17053   1.370   3.661  10.376 -0.0159 -0.2110  0.1609
 1865SOL    HW117054   1.332   3.717  10.309 -0.0684  0.2633  0.5850
 1865SOL    HW217055   1.367   3.726  10.446  0.7379 -0.3802  0.3531
 1866SOL     OW17056   0.736   1.147  12.198  0.2731  0.3855 -1.1114
 1866SOL    HW117057   0.766   1.111  12.115  0.8547  0.4773 -0.9417
 1866SOL    HW217058   0.679   1.219  12.168 -0.2558 -0.7756 -2.8718
 1867SOL     OW17059   2.317   1.168   4.374 -0.1451  0.1491  0.1146
 1867SOL    HW117060   2.343   1.133   4.459  1.3966  0.4177 -0.2435
 1867SOL    HW217061   2.296   1.257   4.404 -1.3507 -0.4109  0.9359
 1868SOL     OW17062   1.189   0.205   4.105  0.0680 -0.4793  0.4755
 1868SOL    HW117063   1.185   0.259   4.026 -0.2573 -1.4402 -0.1662
 1868SOL    HW217064   1.128   0.135   4.080  0.1248 -0.5292  0.4743
 1869SOL     OW17065   4.669   3.841   8.991 -0.2253  0.0336  0.0924
 1869SOL    HW117066   0.025   3.869   9.042  0.2624  0.0095 -0.6197
 1869SOL    HW217067   4.631   3.919   8.950  1.3858  1.7494  1.8991
 1870SOL     OW17068   3.619   2.953   3.380 -0.0603 -0.1646  0.3672
 1870SOL    HW117069   3.693   3.009   3.355 -0.5693  0.0343 -0.6901
 1870SOL    HW217070   3.660   2.872   3.352 -1.5971 -1.9574  3.2903
 1871SOL     OW17071   2.593   1.638  14.043 -0.2439 -0.0872  0.0577
 1871SOL    HW117072   2.502   1.611  14.049  0.2195 -1.3519  1.3760
 1871SOL    HW217073   2.625   1.585  13.970 -3.5779  1.4770 -2.5198
 1872SOL     OW17074   0.479   1.806   9.454  0.5712  0.1397  0.7161
 1872SOL    HW117075   0.573   1.817   9.444  0.3506  0.4618 -1.0177
 1872SOL    HW217076   0.481   1.720   9.494 -2.1998  0.4877  1.6494
 1873SOL     OW17077   3.908   4.133   4.098  0.2675 -0.4257 -0.2580
 1873SOL    HW117078   3.884   4.206   4.041 -0.3419 -1.1099 -0.8884
 1873SOL    HW217079   3.818   4.109   4.119  0.5620  0.2701  1.7602
 1874SOL     OW17080   3.297   0.144   6.111 -0.2121 -0.1167 -0.0082
 1874SOL    HW117081   3.203   0.162   6.115 -0.5558 -2.0580  0.2190
 1874SOL    HW217082   3.325   0.225   6.067  0.8116 -0.2564  0.3942
 1875SOL     OW17083   3.199   1.778   9.297  0.0553  0.1126  0.1327
 1875SOL    HW117084   3.274   1.743   9.343  1.3489  2.3727 -0.2419
 1875SOL    HW217085   3.132   1.779   9.365  0.3228  0.5691  0.3848
 1876SOL     OW17086   3.827   1.228   3.659 -0.3768 -0.0825  0.5710
 1876SOL    HW117087   3.817   1.184   3.574 -0.8691  0.3948  0.3775
 1876SOL    HW217088   3.736   1.238   3.687 -1.1042 -1.0948 -1.4153
 1877SOL     OW17089   4.679   1.799   7.561  0.2455  0.1776  0.2807
 1877SOL    HW117090   4.643   1.710   7.564 -0.3960  0.4518  0.6505
 1877SOL    HW217091   0.031   1.795   7.498  0.0153 -1.8937  0.1604
 1878SOL     OW17092   1.383   3.522   2.289 -0.6202  0.6161  0.2514
 1878SOL    HW117093   1.362   3.478   2.207  1.2865  1.3115 -0.6061
 1878SOL    HW217094   1.466   3.478   2.309 -0.2485  0.8946 -0.6927
 1879SOL     OW17095   1.992   2.149   7.142 -0.1439 -0.6983 -0.7622
 1879SOL    HW117096   2.005   2.110   7.229  1.3111  1.6188  0.0689
 1879SOL    HW217097   2.072   2.122   7.096  1.2607  1.2873  0.4755
 1880SOL     OW17098   3.480   0.215  15.592 -0.5045  0.0340 -0.0529
 1880SOL    HW117099   3.481   0.120  15.579 -1.1605 -0.1941  1.6025
 1880SOL    HW217100   3.399   0.234  15.639  2.4335  2.3360  4.0607
 1881SOL     OW17101   4.397   2.769   5.703 -0.0188  0.7019 -0.3800
 1881SOL    HW117102   4.481   2.774   5.748  0.7122  0.9192 -1.7643
 1881SOL    HW217103   4.352   2.729   5.777  0.0596  2.0090  0.3693
 1882SOL     OW17104   3.454   4.010   8.527  0.0954  0.4967 -0.0927
 1882SOL    HW117105   3.438   3.985   8.436 -1.1523  2.8988 -0.5345
 1882SOL    HW217106   3.514   3.945   8.564  0.3023  0.5089 -0.4049
 1883SOL     OW17107   1.177   2.414   2.773  0.7756 -0.5054 -0.3649
 1883SOL    HW117108   1.237   2.376   2.837  0.2489  0.3895  0.6499
 1883SOL    HW217109   1.182   2.507   2.795  0.5992 -1.1336  2.2593
 1884SOL     OW17110   3.259   4.168   1.381  0.0180  0.1711  0.0162
 1884SOL    HW117111   3.245   4.135   1.292 -0.1559 -4.7712  1.8478
 1884SOL    HW217112   3.272   4.262   1.372  0.8485  0.1798  1.4335
 1885SOL     OW17113   2.602   3.071   5.189 -0.6610  0.0346 -0.3721
 1885SOL    HW117114   2.514   3.034   5.183 -0.8189  0.3487 -0.0179
 1885SOL    HW217115   2.655   3.007   5.143 -0.3549 -1.3719  1.9218
 1886SOL     OW17116   2.031   3.304  15.277  0.5162  0.2180 -0.2167
 1886SOL    HW117117   2.057   3.321  15.367  0.4361 -0.8659  0.0173
 1886SOL    HW217118   1.952   3.358  15.269 -0.3043 -0.7856  1.0833
 1887SOL     OW17119   1.721   0.634   4.853  0.2833 -0.0612 -0.0489
 1887SOL    HW117120   1.675   0.609   4.773  0.5286 -2.0191  0.4267
 1887SOL    HW217121   1.693   0.571   4.919 -0.8823  0.6917  0.1713
 1888SOL     OW17122   4.298   1.003   5.143 -0.0547 -0.3012 -0.0075
 1888SOL    HW117123   4.319   0.912   5.122  2.8103  0.1998  0.7225
 1888SOL    HW217124   4.245   0.993   5.222  0.2332 -2.9677 -0.1491
 1889SOL     OW17125   4.272   1.284   3.430  0.1944 -0.1836 -0.7059
 1889SOL    HW117126   4.258   1.342   3.355 -1.9213  2.0268  1.4163
 1889SOL    HW217127   4.368   1.291   3.435  0.0565  1.8271 -0.9161
 1890SOL     OW17128   0.291   1.011  12.281 -0.3376  0.0296 -0.0001
 1890SOL    HW117129   0.350   0.987  12.353  1.3442 -2.8195 -2.3272
 1890SOL    HW217130   0.334   0.979  12.201  0.4704 -1.1145  0.8903
 1891SOL     OW17131   2.539   2.680   1.944 -0.1667  0.2444  0.6225
 1891SOL    HW117132   2.471   2.747   1.948 -0.4754  0.0024 -0.4277
 1891SOL    HW217133   2.492   2.600   1.920 -1.8757  1.7729 -1.0547
 1892SOL     OW17134   4.459   0.277   4.889 -0.2061  0.4740 -0.0729
 1892SOL    HW117135   4.527   0.214   4.863  0.3822  0.5081  1.4141
 1892SOL    HW217136   4.377   0.228   4.875 -0.1506 -0.1699  1.8909
 1893SOL     OW17137   0.165   4.254  11.116 -0.1143  0.9325  0.0796
 1893SOL    HW117138   0.091   4.281  11.171 -0.5747 -0.4636  0.1399
 1893SOL    HW217139   0.179   4.166  11.150 -1.5484  0.1630 -1.3349
 1894SOL     OW17140   0.599   3.979   4.649  0.4331 -0.0793  0.0138
 1894SOL    HW117141   0.577   4.045   4.583  0.3140 -2.6101 -2.4993
 1894SOL    HW217142   0.664   3.921   4.609 -0.0115 -0.5900  0.0455
 1895SOL     OW17143   1.786   1.611   6.688 -0.3315  0.0029  0.2819
 1895SOL    HW117144   1.805   1.517   6.687  0.5586  0.1683  1.0478
 1895SOL    HW217145   1.831   1.644   6.610 -0.2860 -1.2107 -0.1984
 1896SOL     OW17146   0.582   2.386   0.668  0.6378 -0.5044 -0.1771
 1896SOL    HW117147   0.548   2.469   0.634  1.4925 -0.0182  0.1453
 1896SOL    HW217148   0.552   2.392   0.759  0.1347  0.8520 -0.4172
 1897SOL     OW17149   2.444   3.959   4.164  0.1648 -0.1946 -0.3386
 1897SOL    HW117150   2.444   3.999   4.251 -3.4975  0.6865 -0.7307
 1897SOL    HW217151   2.536   3.967   4.140  0.8075 -3.2485  1.2085
 1898SOL     OW17152   2.178   0.075   4.713  0.3312 -0.4461  0.0041
 1898SOL    HW117153   2.156   0.069   4.806 -0.1898 -1.2770 -0.1680
 1898SOL    HW217154   2.246   0.008   4.703  0.4780 -0.2330 -0.3880
 1899SOL     OW17155   2.527   0.335   2.538  0.5479  0.0805  0.7031
 1899SOL    HW117156   2.482   0.402   2.589 -2.3171 -1.7453  0.5896
 1899SOL    HW217157   2.520   0.379   2.454  0.8103  0.8356  1.0822
 1900SOL     OW17158   3.545   0.533   7.095 -0.0385  0.1662 -0.6726
 1900SOL    HW117159   3.487   0.608   7.092 -0.6587 -0.3939 -2.6441
 1900SOL    HW217160   3.479   0.464   7.093  0.0098  0.0793  0.5481
 1901SOL     OW17161   0.847   1.095   7.712  0.2367  0.0298 -0.3344
 1901SOL    HW117162   0.932   1.131   7.739 -0.4272  0.2751  1.4624
 1901SOL    HW217163   0.819   1.033   7.779 -1.6046 -0.6111 -1.7149
 1902SOL     OW17164   1.102   2.194   5.123  0.1717  0.6260 -0.0010
 1902SOL    HW117165   1.155   2.201   5.043 -0.7008  1.7432 -0.4852
 1902SOL    HW217166   1.032   2.133   5.102 -0.0061  0.4628  1.0812
 1903SOL     OW17167   0.440   3.519   1.372 -0.1790 -1.0507 -0.1468
 1903SOL    HW117168   0.516   3.537   1.316 -0.3937  1.0115  0.2451
 1903SOL    HW217169   0.377   3.484   1.309 -1.5553 -1.3895  1.4202
 1904SOL     OW17170   0.498   1.938   4.898 -0.3612  0.3391 -0.0862
 1904SOL    HW117171   0.523   1.914   4.808  0.4649  1.2518 -0.0972
 1904SOL    HW217172   0.412   1.979   4.891 -0.5924 -0.0887  0.2631
 1905SOL     OW17173   1.055   3.495   4.172 -0.0786 -0.6419 -0.1390
 1905SOL    HW117174   1.058   3.565   4.107  0.3527 -0.7691 -0.2615
 1905SOL    HW217175   1.091   3.424   4.118 -2.3705 -3.2201  1.7605
 1906SOL     OW17176   1.517   0.273   2.828  0.3488 -0.2698 -0.4283
 1906SOL    HW117177   1.571   0.347   2.853  0.0550 -0.3929  0.5535
 1906SOL    HW217178   1.435   0.322   2.820  0.0875 -0.3658  1.8670
 1907SOL     OW17179   4.216   4.040   0.393 -0.2015  0.1753  0.5010
 1907SOL    HW117180   4.143   4.096   0.369 -1.2187 -0.9609  0.9652
 1907SOL    HW217181   4.161   3.981   0.444  0.0585  0.4688  1.1221
 1908SOL     OW17182   4.426   0.082   2.669 -0.1688 -0.0372  0.3868
 1908SOL    HW117183   4.332   0.087   2.656  0.3894  2.0689 -2.9350
 1908SOL    HW217184   4.451   0.079   2.576 -1.9267 -2.4327 -0.0263
 1909SOL     OW17185   1.418   4.463   3.218  0.9506 -0.3280  0.4097
 1909SOL    HW117186   1.364   4.540   3.236 -1.2285 -1.7665  0.0612
 1909SOL    HW217187   1.402   4.449   3.125  2.6302 -1.8648  0.3516
 1910SOL     OW17188   3.226   0.863   2.882 -0.3102 -0.0546 -0.6788
 1910SOL    HW117189   3.223   0.954   2.852  0.4138  0.1533 -0.1147
 1910SOL    HW217190   3.254   0.809   2.809  0.2468 -1.2726  0.4345
 1911SOL     OW17191   2.357   3.815  10.474  0.1517  0.4574  0.4645
 1911SOL    HW117192   2.351   3.832  10.568  0.7200 -0.7639  0.7173
 1911SOL    HW217193   2.450   3.791  10.470  0.3216  1.2387 -0.3453
 1912SOL     OW17194   2.108   1.863   8.184  0.1821  0.3363  0.1766
 1912SOL    HW117195   2.105   1.839   8.091 -2.1198 -0.3364  0.4227
 1912SOL    HW217196   2.195   1.901   8.197  0.0415  0.5939  0.3447
 1913SOL     OW17197   2.267   4.373   6.220  0.0123  0.7681  0.1455
 1913SOL    HW117198   2.300   4.283   6.217  1.6070  1.3908 -1.6752
 1913SOL    HW217199   2.184   4.358   6.264  0.3048 -0.3167  0.3347
 1914SOL     OW17200   4.130   3.348  10.100 -0.3798  1.2302  0.3093
 1914SOL    HW117201   4.138   3.290  10.025 -0.9874  0.0185  1.1722
 1914SOL    HW217202   4.206   3.405  10.091  1.0565 -0.3311  2.4377
 1915SOL     OW17203   3.539   1.771   7.689 -0.4686  0.4313  0.1109
 1915SOL    HW117204   3.584   1.845   7.648 -0.1516 -1.1145 -2.3062
 1915SOL    HW217205   3.541   1.798   7.781 -0.1442  0.2801  0.1483
 1916SOL     OW17206   2.828   0.307  15.275  0.3054 -0.1517  0.3511
 1916SOL    HW117207   2.879   0.366  15.219 -1.4903 -1.3612 -2.5867
 1916SOL    HW217208   2.740   0.335  15.247  0.5955 -0.1205 -0.5311
 1917SOL     OW17209   1.897   3.093   5.274  0.0991  0.2834  0.3146
 1917SOL    HW117210   1.930   3.024   5.331  1.3909 -0.5845 -1.5123
 1917SOL    HW217211   1.879   3.038   5.198  1.8218 -2.0919  1.6388
 1918SOL     OW17212   3.274   4.233   7.820 -0.3213  0.3755  0.7177
 1918SOL    HW117213   3.183   4.253   7.841 -0.8783 -0.4307 -0.9168
 1918SOL    HW217214   3.269   4.154   7.766 -1.2774  0.9555 -0.0257
 1919SOL     OW17215   2.338   3.461   8.642  0.4686 -0.1783  0.6083
 1919SOL    HW117216   2.243   3.463   8.655  0.4288  2.7236 -0.2079
 1919SOL    HW217217   2.379   3.463   8.728  3.2828 -0.6943 -0.7155
 1920SOL     OW17218   3.233   0.078  17.666 -0.9357 -0.0107 -0.2350
 1920SOL    HW117219   3.198   0.126  17.591  0.0951 -0.4136 -0.9737
 1920SOL    HW217220   3.240   0.141   0.057  2.2192 -1.2419  0.5687
 1921SOL     OW17221   2.429   4.307   5.785  0.6020 -0.1429  0.6090
 1921SOL    HW117222   2.336   4.329   5.790  1.0487  1.9007 -0.0268
 1921SOL    HW217223   2.447   4.322   5.692 -1.9413 -1.8986 -0.1965
 1922SOL     OW17224   4.116   1.557  10.137  0.7368 -0.2868  0.4619
 1922SOL    HW117225   4.105   1.468  10.171  1.9736 -0.5132  0.2834
 1922SOL    HW217226   4.127   1.606  10.218  0.4671  0.8224 -0.1688
 1923SOL     OW17227   2.386   3.669   6.248  0.3106 -0.1603  0.3893
 1923SOL    HW117228   2.383   3.701   6.158 -0.3419 -3.0083 -0.5863
 1923SOL    HW217229   2.416   3.580   6.228  2.8868  0.5400  1.1627
 1924SOL     OW17230   2.670   2.325   2.693 -0.4532  0.4255  0.0682
 1924SOL    HW117231   2.617   2.269   2.750  0.9231 -2.6991 -1.7564
 1924SOL    HW217232   2.624   2.321   2.609  2.7644  0.1770 -1.6758
 1925SOL     OW17233   2.246   1.168   9.309 -0.3179 -0.4995  0.8223
 1925SOL    HW117234   2.255   1.264   9.312  1.4922 -0.6214 -1.0515
 1925SOL    HW217235   2.193   1.158   9.388 -0.6369  0.8396  0.7882
 1926SOL     OW17236   2.562   1.217   3.684  0.0192 -0.1580 -0.8654
 1926SOL    HW117237   2.493   1.172   3.733 -1.5362  1.7018 -1.3145
 1926SOL    HW217238   2.506   1.260   3.619 -1.8099  0.6240  1.2226
 1927SOL     OW17239   2.235   1.917   5.238  0.1589  0.7242  0.5145
 1927SOL    HW117240   2.310   1.907   5.297 -1.4017 -1.6858  2.0755
 1927SOL    HW217241   2.165   1.924   5.303  0.0803 -3.0597  0.8418
 1928SOL     OW17242   3.498   1.597   2.656  0.3686 -0.2791 -0.0206
 1928SOL    HW117243   3.456   1.667   2.605  1.3367  0.4354  0.1580
 1928SOL    HW217244   3.586   1.602   2.618  0.5602 -1.3016  0.2899
 1929SOL     OW17245   1.984   0.522   5.418  0.0946 -0.2454 -0.4226
 1929SOL    HW117246   1.931   0.531   5.339  0.5764  0.4950 -0.6640
 1929SOL    HW217247   1.930   0.556   5.489  0.4202  0.5874 -0.5667
 1930SOL     OW17248   4.222   3.113  16.915 -0.3781 -0.5456 -0.5414
 1930SOL    HW117249   4.139   3.148  16.884  0.1230  1.7023  0.6114
 1930SOL    HW217250   4.256   3.068  16.838  0.8439  1.4045 -1.1439
 1931SOL     OW17251   0.520   0.315   0.082  0.1129 -0.2636 -0.1100
 1931SOL    HW117252   0.540   0.372   0.156 -0.3635 -1.6118  1.0768
 1931SOL    HW217253   0.435   0.285   0.115 -0.1059  0.8592  0.3491
 1932SOL     OW17254   3.577   1.786   8.420 -0.6736 -0.3471  0.7290
 1932SOL    HW117255   3.636   1.732   8.472  0.9453 -0.9635 -1.7594
 1932SOL    HW217256   3.621   1.866   8.449  1.7405 -0.9287 -1.4550
 1933SOL     OW17257   2.515   3.263   3.997  0.2852  0.1146  0.3608
 1933SOL    HW117258   2.433   3.234   3.955  0.6252  0.8959 -0.8489
 1933SOL    HW217259   2.518   3.208   4.075 -2.7457  0.4860  0.7523
 1934SOL     OW17260   2.964   0.524   2.955  0.1525  0.5848  0.1363
 1934SOL    HW117261   3.038   0.464   2.950  0.0109  0.5132 -1.3665
 1934SOL    HW217262   2.931   0.519   3.044  1.3901 -0.7085  0.5083
 1935SOL     OW17263   0.472   0.163   1.299 -0.0339 -0.1492 -0.0867
 1935SOL    HW117264   0.555   0.123   1.273 -1.3106 -1.3413 -2.3056
 1935SOL    HW217265   0.475   0.255   1.271 -1.0520 -0.0264  0.2138
 1936SOL     OW17266   2.961   3.038  14.498 -0.0183  0.6511 -0.0032
 1936SOL    HW117267   3.016   3.115  14.509  0.1288  0.8147 -1.8687
 1936SOL    HW217268   2.928   3.048  14.408 -0.7177 -1.7847 -0.0300
 1937SOL     OW17269   2.269   2.064  10.366  0.4203 -0.0885 -0.6788
 1937SOL    HW117270   2.270   2.081  10.272 -0.4028  0.0678 -0.6579
 1937SOL    HW217271   2.345   2.116  10.393 -1.1621  1.3727  0.9706
 1938SOL     OW17272   1.185   4.382  14.322 -0.0139  0.5204 -0.4328
 1938SOL    HW117273   1.233   4.320  14.376 -0.0782  2.0200  1.2999
 1938SOL    HW217274   1.168   4.332  14.241  3.2939  2.4867 -2.3400
 1939SOL     OW17275   1.069   2.012   8.070 -0.3241 -0.2405  0.5465
 1939SOL    HW117276   0.996   2.037   8.127  0.4268 -1.2366  1.9489
 1939SOL    HW217277   1.038   2.035   7.983  0.5298  1.2442  0.6234
 1940SOL     OW17278   1.775   0.087   0.694  0.3000  0.7284  0.4073
 1940SOL    HW117279   1.823   0.160   0.734  0.0521  1.1083  0.0190
 1940SOL    HW217280   1.692   0.087   0.741  0.3383  4.1433  0.5057
 1941SOL     OW17281   0.799   4.229  15.744 -0.0921  0.4195  0.3648
 1941SOL    HW117282   0.805   4.240  15.650 -0.6911 -1.1274  0.1399
 1941SOL    HW217283   0.879   4.183  15.769 -0.4440  0.1414  0.9885
 1942SOL     OW17284   3.564   4.048   7.883 -0.2690  0.0437 -0.2741
 1942SOL    HW117285   3.473   4.071   7.861 -0.4633 -1.5300 -1.0981
 1942SOL    HW217286   3.578   4.099   7.962 -2.6578 -1.5992  1.1934
 1943SOL     OW17287   0.269   2.427   2.137  0.8597  0.7412  0.1924
 1943SOL    HW117288   0.227   2.372   2.070  1.9151  1.0210 -0.6925
 1943SOL    HW217289   0.277   2.511   2.091  1.0710 -0.6932 -2.3795
 1944SOL     OW17290   1.361   3.527   8.167  0.1426  0.5202 -0.2253
 1944SOL    HW117291   1.317   3.610   8.187  1.9876  1.6217 -0.7186
 1944SOL    HW217292   1.401   3.502   8.250  0.8196  0.7005 -0.4915
 1945SOL     OW17293   1.766   0.806  13.457  0.2669 -0.4062  0.0091
 1945SOL    HW117294   1.827   0.871  13.422  0.5693  0.7623  2.6908
 1945SOL    HW217295   1.827   0.733  13.450  2.0450  1.1962 -1.4575
 1946SOL     OW17296   3.665   1.579   0.238  0.1836 -0.0683  0.2617
 1946SOL    HW117297   3.739   1.640   0.247  0.0987  0.1042 -0.1910
 1946SOL    HW217298   3.601   1.642   0.272  0.4356 -0.2777  1.1140
 1947SOL     OW17299   2.929   2.845   8.440  0.1877  0.4855 -0.2532
 1947SOL    HW117300   2.875   2.769   8.419  1.1967 -0.0989 -0.7397
 1947SOL    HW217301   3.016   2.813   8.419 -0.7076 -1.3158 -1.1924
 1948SOL     OW17302   2.168   1.069  10.527 -0.2695  0.3250  0.0221
 1948SOL    HW117303   2.156   1.012  10.451  1.7179 -0.6479  0.4550
 1948SOL    HW217304   2.182   1.007  10.598  0.6370  1.2432  0.6420
 1949SOL     OW17305   2.197   1.531  17.352  0.4878 -0.0215  1.0367
 1949SOL    HW117306   2.214   1.556  17.261  1.7257  0.2538  1.3383
 1949SOL    HW217307   2.121   1.473  17.345  1.1710 -1.2810  3.8159
 1950SOL     OW17308   3.132   3.238   4.083 -0.0309  0.4739  0.6268
 1950SOL    HW117309   3.188   3.297   4.133 -1.7268  0.0274  3.0721
 1950SOL    HW217310   3.061   3.221   4.145  1.0656 -1.4798  1.3487
 1951SOL     OW17311   3.275   0.896   9.125 -0.1182  0.2861  0.1212
 1951SOL    HW117312   3.298   0.830   9.059  1.7583 -0.0485  1.1082
 1951SOL    HW217313   3.196   0.847   9.145  0.6722 -0.2465  1.9736
 1952SOL     OW17314   4.097   0.289   4.003  0.6817  0.2219  0.2694
 1952SOL    HW117315   4.020   0.260   4.052  0.4749 -0.8453 -0.6886
 1952SOL    HW217316   4.070   0.372   3.964 -1.1243 -0.0610  0.9067
 1953SOL     OW17317   3.914   1.819   8.773 -0.4865 -0.1355 -0.0198
 1953SOL    HW117318   4.006   1.845   8.772 -0.8309  1.1085 -0.2851
 1953SOL    HW217319   3.921   1.733   8.732 -0.3951 -1.1707  2.1572
 1954SOL     OW17320   2.103   2.564   5.488 -0.0047 -0.2715  0.0013
 1954SOL    HW117321   2.194   2.534   5.485  0.0904  0.0169 -0.0095
 1954SOL    HW217322   2.065   2.504   5.424 -2.2753  2.1608 -0.9210
 1955SOL     OW17323   0.327   4.605  12.992  0.6243  0.4530  0.1766
 1955SOL    HW117324   0.300   4.695  13.011 -1.2926  0.0085 -0.5077
 1955SOL    HW217325   0.407   4.614  13.045  0.8923  0.5770 -0.2513
 1956SOL     OW17326   1.207   1.387  13.245 -0.2790  0.1100 -0.1687
 1956SOL    HW117327   1.141   1.334  13.200  1.2404 -0.9647 -1.1150
 1956SOL    HW217328   1.267   1.394  13.171  1.8057  2.1808  1.7283
 1957SOL     OW17329   1.549   0.228  10.969  0.4668 -0.1868  0.1978
 1957SOL    HW117330   1.584   0.300  10.917  2.2084 -0.9386  0.3499
 1957SOL    HW217331   1.518   0.285  11.039  1.2309 -0.3986  0.7068
 1958SOL     OW17332   0.396   3.101   8.334  0.4401 -0.8275 -0.1159
 1958SOL    HW117333   0.479   3.058   8.356 -0.6813 -2.4939  0.8284
 1958SOL    HW217334   0.386   3.154   8.414  0.1488 -1.2630  0.1394
 1959SOL     OW17335   0.694   4.564   1.358 -0.5833 -0.0514  0.2290
 1959SOL    HW117336   0.663   4.610   1.436  0.0411  2.0491 -0.7540
 1959SOL    HW217337   0.723   4.641   1.310  1.5666  0.4656  2.3729
 1960SOL     OW17338   4.428   1.936   8.890  0.0358  0.3866  0.7158
 1960SOL    HW117339   4.476   2.017   8.876 -0.0158  0.2115 -0.5470
 1960SOL    HW217340   4.431   1.910   8.982  1.7627  1.2076  0.8847
 1961SOL     OW17341   2.093   0.127   5.913  0.0543  0.0628 -0.5301
 1961SOL    HW117342   2.026   0.059   5.904  1.6062 -2.2082  5.2270
 1961SOL    HW217343   2.149   0.109   5.837 -0.9148  0.7236 -1.3907
 1962SOL     OW17344   2.576   3.044   5.656 -0.2222 -0.3979 -0.2194
 1962SOL    HW117345   2.612   3.121   5.699 -0.2955 -0.1726 -0.5668
 1962SOL    HW217346   2.559   2.980   5.725 -0.6927 -1.0812 -0.9622
 1963SOL     OW17347   0.628   2.631   6.783  0.2970  0.3897  0.2566
 1963SOL    HW117348   0.715   2.600   6.807  0.3935 -1.5464 -2.5310
 1963SOL    HW217349   0.615   2.593   6.696  0.1090  3.2368 -0.9652
 1964SOL     OW17350   4.016   0.054   9.524  0.1261 -0.2482 -0.7877
 1964SOL    HW117351   4.108   0.062   9.550 -0.8064 -0.0243  2.4947
 1964SOL    HW217352   4.018   0.026   9.433  2.2686  1.3866 -1.2285
 1965SOL     OW17353   3.342   0.422   4.846  0.4365 -0.6353 -0.3556
 1965SOL    HW117354   3.423   0.471   4.830 -0.0146 -0.9285 -3.6640
 1965SOL    HW217355   3.348   0.356   4.777 -2.2644  0.7113 -1.8936
 1966SOL     OW17356   2.199   0.117   3.532  0.3858  0.1434 -0.5980
 1966SOL    HW117357   2.240   0.036   3.562 -1.0100 -0.5720 -0.6165
 1966SOL    HW217358   2.137   0.086   3.466  1.5445 -2.1311 -0.6343
 1967SOL     OW17359   2.209   0.438   1.813  0.2755 -0.5483  0.6507
 1967SOL    HW117360   2.177   0.371   1.873 -1.3494  0.3230  0.7527
 1967SOL    HW217361   2.262   0.386   1.753  0.7353  0.4675  0.1619
 1968SOL     OW17362   0.108   0.839  15.380 -0.2715  0.0485  0.4165
 1968SOL    HW117363   0.027   0.820  15.427 -0.0396  0.1313  0.8576
 1968SOL    HW217364   0.166   0.776  15.423  1.9818  2.3818  0.8483
 1969SOL     OW17365   3.547   3.804   9.603 -0.1166 -0.3438  0.9966
 1969SOL    HW117366   3.505   3.801   9.517 -0.4492  1.5665  1.1069
 1969SOL    HW217367   3.623   3.860   9.586 -0.4237 -0.0924  0.4640
 1970SOL     OW17368   1.942   2.654  17.067 -0.0313 -1.0612 -0.0118
 1970SOL    HW117369   1.854   2.636  17.099  0.3265 -0.3333  1.3645
 1970SOL    HW217370   1.926   2.704  16.986  2.9316  0.9131  0.5911
 1971SOL     OW17371   1.883   3.102  11.974 -0.0860 -0.4822  0.3166
 1971SOL    HW117372   1.792   3.127  11.990 -0.1228  0.0682 -0.7321
 1971SOL    HW217373   1.929   3.184  11.993 -3.9596  1.4459  1.4104
 1972SOL     OW17374   0.245   1.249   6.566 -0.4584  0.2557 -0.3711
 1972SOL    HW117375   0.212   1.254   6.656  1.1120 -5.2218  0.4931
 1972SOL    HW217376   0.190   1.174   6.542 -0.4017  0.5457 -1.4022
 1973SOL     OW17377   1.100   2.133  11.307 -0.3808 -0.3545 -0.2098
 1973SOL    HW117378   1.144   2.201  11.358  0.0740 -0.2663 -0.7279
 1973SOL    HW217379   1.011   2.138  11.343 -0.7677 -0.0530 -1.2340
 1974SOL     OW17380   2.341   3.043  16.756 -0.5781 -0.4508  0.2084
 1974SOL    HW117381   2.355   3.122  16.704 -1.0824 -1.4807 -1.4981
 1974SOL    HW217382   2.393   2.982  16.704  0.9419  0.9409  0.1257
 1975SOL     OW17383   1.356   3.039   2.979 -0.1402 -0.3463  0.5555
 1975SOL    HW117384   1.312   2.955   2.986 -1.4258  0.4829  2.5812
 1975SOL    HW217385   1.445   3.006   2.967 -0.2448 -0.0677 -0.9441
 1976SOL     OW17386   1.156   3.241   4.063 -0.4317 -0.9557  0.2527
 1976SOL    HW117387   1.200   3.219   4.146 -2.0808  0.6620  1.5503
 1976SOL    HW217388   1.234   3.243   4.007  0.5699 -0.4548  1.6735
 1977SOL     OW17389   3.923   0.804  12.062  0.4659 -0.0001  0.2801
 1977SOL    HW117390   3.923   0.899  12.054 -0.6889  0.1534  2.1823
 1977SOL    HW217391   3.940   0.782  11.970  1.3071 -3.9664  1.3525
 1978SOL     OW17392   0.324   2.569   1.737  0.4389  0.3617  0.5576
 1978SOL    HW117393   0.367   2.620   1.668 -1.4911 -2.2734 -2.5770
 1978SOL    HW217394   0.369   2.600   1.815  1.1440  1.0878 -0.1321
 1979SOL     OW17395   4.420   2.658   9.180 -0.0812 -0.1591 -0.2902
 1979SOL    HW117396   4.447   2.734   9.129  0.1242 -0.8195 -1.1544
 1979SOL    HW217397   4.486   2.663   9.250 -0.6236 -0.4044  0.2408
 1980SOL     OW17398   0.704   3.873   7.063  0.2220  0.1096  0.8062
 1980SOL    HW117399   0.721   3.828   7.146  1.7550 -1.7786 -0.5012
 1980SOL    HW217400   0.791   3.903   7.035  0.7309 -2.2415 -0.2134
 1981SOL     OW17401   2.748   0.809   8.952  0.0005 -0.1410  0.0590
 1981SOL    HW117402   2.773   0.779   9.039 -0.3277 -2.1175 -0.5286
 1981SOL    HW217403   2.670   0.755   8.940 -1.5503  2.5055 -1.7135
 1982SOL     OW17404   3.864   4.313  11.017  0.9006  0.5989 -0.7746
 1982SOL    HW117405   3.887   4.257  10.943  1.8702  1.8249 -1.3980
 1982SOL    HW217406   3.783   4.353  10.986  0.6422  1.2980  0.7523
 1983SOL     OW17407   4.650   1.234   1.013  0.1314  0.4236  0.3535
 1983SOL    HW117408   4.580   1.217   1.075 -0.0251 -1.5766 -0.3441
 1983SOL    HW217409   0.008   1.225   1.068  1.0433  2.6191 -0.5588
 1984SOL     OW17410   2.581   3.670   9.211 -0.0138  0.2801  0.8812
 1984SOL    HW117411   2.486   3.673   9.196 -0.0212 -1.7873  0.5440
 1984SOL    HW217412   2.609   3.715   9.131  1.4709  0.3026  1.4177
 1985SOL     OW17413   4.176   3.678   4.708  0.2437  0.3472 -0.3223
 1985SOL    HW117414   4.233   3.698   4.634 -0.4205 -1.1373 -1.2511
 1985SOL    HW217415   4.115   3.752   4.717 -0.2613 -0.1743  0.5317
 1986SOL     OW17416   1.023   4.201   4.392 -0.1310  0.0236  0.1082
 1986SOL    HW117417   1.051   4.206   4.301  0.6639  1.1154  0.4270
 1986SOL    HW217418   1.047   4.108   4.399 -1.3449 -0.3514 -0.7214
 1987SOL     OW17419   3.787   0.834  16.526  0.0905  0.1776  0.7293
 1987SOL    HW117420   3.699   0.842  16.489  0.7717  0.4405 -0.8017
 1987SOL    HW217421   3.836   0.882  16.459  0.1413 -0.4178  0.3428
 1988SOL     OW17422   1.731   0.006   8.567 -0.1995  0.1978  0.3960
 1988SOL    HW117423   1.699   4.672   8.495 -0.1741  0.6041  0.0820
 1988SOL    HW217424   1.824   4.707   8.573 -0.5044 -1.7248 -1.0627
 1989SOL     OW17425   3.303   0.514  15.103  0.7784  0.4326 -0.4250
 1989SOL    HW117426   3.348   0.589  15.141  0.5632  0.1233  0.4628
 1989SOL    HW217427   3.322   0.443  15.166 -0.7926  0.6195  0.2576
 1990SOL     OW17428   2.581   2.811  15.645  0.0214  0.2900  0.0699
 1990SOL    HW117429   2.512   2.855  15.594  2.0422  2.6280 -0.6506
 1990SOL    HW217430   2.642   2.809  15.571 -0.8954 -2.3799 -0.5979
 1991SOL     OW17431   4.532   4.113   7.062  0.1713  0.2818  0.0031
 1991SOL    HW117432   4.551   4.064   7.142  0.1974 -1.0922 -0.8371
 1991SOL    HW217433   4.617   4.100   7.018  0.4032 -3.1396  1.4222
 1992SOL     OW17434   3.583   3.538   8.718  0.2866  0.7175  0.3094
 1992SOL    HW117435   3.506   3.482   8.728 -1.9232  3.4259 -1.5463
 1992SOL    HW217436   3.624   3.486   8.649 -0.6222  0.3618  0.0428
 1993SOL     OW17437   2.666   1.492  17.470  0.5355  0.2632  0.2103
 1993SOL    HW117438   2.686   1.426  17.537  0.6229  1.3147  1.2137
 1993SOL    HW217439   2.571   1.483  17.485 -0.0601  2.0168 -2.6254
 1994SOL     OW17440   1.357   0.180   4.303 -0.2160  0.6677  0.4627
 1994SOL    HW117441   1.301   0.208   4.231 -0.2954 -0.4059  0.0961
 1994SOL    HW217442   1.315   0.094   4.307 -0.5545  0.8058 -0.0792
 1995SOL     OW17443   0.031   3.068  15.032  0.3715  0.4360 -0.1681
 1995SOL    HW117444   0.110   3.029  14.996  0.2096 -1.6657  1.7384
 1995SOL    HW217445   0.032   3.012  15.109  1.4773  0.8666  0.1310
 1996SOL     OW17446   0.012   1.090  14.869 -0.0261 -0.3176  0.2533
 1996SOL    HW117447   0.037   1.028  14.938  0.8455 -1.3238 -0.9677
 1996SOL    HW217448   4.712   1.031  14.796 -1.6714 -0.6419  0.9499
 1997SOL     OW17449   2.097   2.211  14.320 -0.6258 -0.0392  0.2234
 1997SOL    HW117450   2.144   2.293  14.337 -0.4492 -0.0272 -0.3116
 1997SOL    HW217451   2.025   2.216  14.382 -0.2811  0.5755  0.5682
 1998SOL     OW17452   2.215   0.497  14.129 -0.1523 -0.3510 -0.0386
 1998SOL    HW117453   2.240   0.429  14.192 -1.4227 -0.1487  0.6757
 1998SOL    HW217454   2.124   0.502  14.157  0.2968  0.6724  1.1966
 1999SOL     OW17455   3.275   4.517   5.458  0.4842 -0.0354  0.1358
 1999SOL    HW117456   3.246   4.470   5.536  2.0430 -2.0824 -0.5214
 1999SOL    HW217457   3.197   4.503   5.404  0.4743  0.9990 -0.1107
 2000SOL     OW17458   4.137   0.927  15.780 -0.9351 -0.4847 -0.1122
 2000SOL    HW117459   4.212   0.975  15.746 -1.0064  0.8652  1.6633
 2000SOL    HW217460   4.094   0.993  15.834  0.1555 -0.6141  0.9130
 2001SOL     OW17461   3.767   3.222   5.869 -0.0686 -0.3033 -0.0066
 2001SOL    HW117462   3.783   3.188   5.781  1.6738 -0.6544  0.4458
 2001SOL    HW217463   3.857   3.243   5.894  0.1115 -0.7158 -0.3065
 2002SOL     OW17464   3.852   1.933   8.197  0.3659 -0.4848 -0.5862
 2002SOL    HW117465   3.866   1.843   8.166 -0.4738 -1.4531  1.8840
 2002SOL    HW217466   3.925   1.937   8.259  1.1818  0.1704 -1.5886
 2003SOL     OW17467   1.600   3.159  11.949 -0.9442 -0.1978  0.1607
 2003SOL    HW117468   1.536   3.135  12.016  0.6454 -0.3413  1.6594
 2003SOL    HW217469   1.568   3.113  11.872 -0.7267  1.5705 -1.0012
 2004SOL     OW17470   2.603   1.116   7.056 -0.2845 -0.3861  0.1100
 2004SOL    HW117471   2.531   1.154   7.006  0.7495  1.2490 -0.1546
 2004SOL    HW217472   2.671   1.183   7.056 -1.9218  1.2909  0.2927
 2005SOL     OW17473   3.323   2.256  12.100 -0.0570 -0.1540  0.0618
 2005SOL    HW117474   3.405   2.248  12.052 -0.4376  1.4169 -0.8410
 2005SOL    HW217475   3.347   2.251  12.193 -1.2400 -1.0450  0.3208
 2006SOL     OW17476   0.930   0.789   1.514 -0.0031  0.5121  0.4861
 2006SOL    HW117477   0.886   0.789   1.599  1.3713 -1.1470  1.1824
 2006SOL    HW217478   0.907   0.875   1.477 -2.7498 -0.5985 -0.3952
 2007SOL     OW17479   2.896   3.269   6.367  0.0279 -0.6779  0.1273
 2007SOL    HW117480   2.972   3.269   6.424 -0.1205 -1.1010  0.3272
 2007SOL    HW217481   2.912   3.328   6.293  0.0874  0.4116  1.0092
 2008SOL     OW17482   3.218   3.818   8.708  0.3856 -0.1618  0.4215
 2008SOL    HW117483   3.310   3.836   8.729 -0.4623  1.4280  2.7223
 2008SOL    HW217484   3.224   3.781   8.620  2.0360  0.9504  0.0794
 2009SOL     OW17485   4.250   3.387   6.385 -0.0302 -0.6487 -0.1105
 2009SOL    HW117486   4.159   3.360   6.398 -0.3803  1.2162  1.4955
 2009SOL    HW217487   4.292   3.303   6.367  1.0285  0.2905 -1.9951
 2010SOL     OW17488   2.951   0.892   8.795 -0.2111 -0.1850  0.7598
 2010SOL    HW117489   2.918   0.933   8.715  1.0380  1.4603  1.0933
 2010SOL    HW217490   2.872   0.869   8.844 -0.5910 -1.3699 -0.3847
 2011SOL     OW17491   1.833   1.835   6.087 -0.4886 -0.2392  0.0616
 2011SOL    HW117492   1.756   1.813   6.034 -0.8523 -1.7319  1.1980
 2011SOL    HW217493   1.793   1.830   6.174  0.9882  0.0342  0.7412
 2012SOL     OW17494   4.231   2.505   8.829 -0.7198 -0.2537 -0.2197
 2012SOL    HW117495   4.276   2.441   8.774  1.6790 -0.3714  1.8652
 2012SOL    HW217496   4.233   2.462   8.915  0.2490 -1.2051 -0.7194
 2013SOL     OW17497   1.943   3.176   4.836 -0.3365 -0.0369  0.2495
 2013SOL    HW117498   1.972   3.125   4.761 -0.2688  1.9526 -1.0777
 2013SOL    HW217499   1.871   3.121   4.867 -1.7069  0.8163 -1.4399
 2014SOL     OW17500   3.525   3.992  14.089  0.4570  0.2390  0.6729
 2014SOL    HW117501   3.442   3.972  14.045 -0.7135 -0.5910  3.3129
 2014SOL    HW217502   3.497   4.018  14.176 -0.7418 -0.2386  0.4348
 2015SOL     OW17503   2.463   3.608   5.976 -0.1218 -0.1543 -0.5128
 2015SOL    HW117504   2.500   3.536   6.028 -0.8814  0.9059  1.4856
 2015SOL    HW217505   2.441   3.561   5.895  1.0069 -1.8198  0.1567
 2016SOL     OW17506   1.229   3.615   5.045 -0.3488  0.4153 -0.7507
 2016SOL    HW117507   1.293   3.651   5.107  1.5675  0.4678 -2.7701
 2016SOL    HW217508   1.151   3.620   5.100  1.3203  0.1330  1.6993
 2017SOL     OW17509   1.377   1.860   7.574  0.4115 -0.1139 -0.3889
 2017SOL    HW117510   1.370   1.804   7.652 -1.2037  0.5806 -0.0454
 2017SOL    HW217511   1.288   1.874   7.543  0.6318  0.2565 -0.8591
 2018SOL     OW17512   4.660   2.881   3.212  0.9766  0.2804  0.0977
 2018SOL    HW117513   0.017   2.846   3.165 -0.7136 -0.9336 -1.7800
 2018SOL    HW217514   4.693   2.942   3.277  0.6111  0.4458  0.1290
 2019SOL     OW17515   3.896   2.974   6.982 -0.0829  0.2042  0.6097
 2019SOL    HW117516   3.868   3.062   7.006 -1.5975  0.0896 -0.6494
 2019SOL    HW217517   3.850   2.963   6.898  0.0505  0.7438  0.4685
 2020SOL     OW17518   0.635   1.515   7.395  0.0132  0.3786 -0.2585
 2020SOL    HW117519   0.619   1.529   7.302 -0.9246 -1.2717 -0.3447
 2020SOL    HW217520   0.623   1.421   7.408 -1.1154  0.6076  0.4205
 2021SOL     OW17521   1.546   0.878   6.634  0.3101 -0.6787  0.2629
 2021SOL    HW117522   1.493   0.845   6.707  1.1565  0.5379  1.4368
 2021SOL    HW217523   1.588   0.795   6.612 -0.8468 -0.4774 -2.7305
 2022SOL     OW17524   3.567   0.407   9.407 -0.7021  0.3662  0.0337
 2022SOL    HW117525   3.515   0.428   9.329 -2.4775 -2.4985  0.4844
 2022SOL    HW217526   3.546   0.483   9.462  1.4934 -1.1227  2.8902
 2023SOL     OW17527   4.075   2.755  12.518  0.0480  0.1864  0.1901
 2023SOL    HW117528   3.981   2.759  12.502  0.0770 -1.0016 -0.3043
 2023SOL    HW217529   4.106   2.775  12.429  2.1322 -2.6817  0.2709
 2024SOL     OW17530   0.941   3.614   4.688 -0.2910 -0.2549  0.6674
 2024SOL    HW117531   1.034   3.631   4.674 -1.1536  2.6171 -1.5872
 2024SOL    HW217532   0.929   3.674   4.761  1.4165 -0.4694  1.1182
 2025SOL     OW17533   3.575   4.121   1.295 -0.7104 -0.1821 -0.1623
 2025SOL    HW117534   3.540   4.040   1.332  0.2346 -0.3115  0.4569
 2025SOL    HW217535   3.616   4.151   1.377  2.9917 -1.1817 -1.6159
 2026SOL     OW17536   2.424   4.034  16.065  0.2762  0.3059  0.0694
 2026SOL    HW117537   2.394   4.109  16.013  1.1281 -0.1218 -1.0477
 2026SOL    HW217538   2.501   4.012  16.012  1.1873  1.2091  1.0298
 2027SOL     OW17539   2.362   1.410   6.430  0.2083  0.3232  0.0542
 2027SOL    HW117540   2.288   1.431   6.486 -1.0932 -0.2236 -1.4644
 2027SOL    HW217541   2.349   1.478   6.363  0.6688 -1.7858 -2.2073
 2028SOL     OW17542   2.485   1.079   2.063 -0.2689 -0.0277 -0.2545
 2028SOL    HW117543   2.551   1.126   2.115 -0.9616  1.4231 -0.6703
 2028SOL    HW217544   2.507   0.986   2.071  3.6950  0.9591  0.6777
 2029SOL     OW17545   1.525   1.009   5.908 -0.8140 -0.1746  0.2246
 2029SOL    HW117546   1.474   1.070   5.855  2.8546  3.5805  0.9954
 2029SOL    HW217547   1.456   0.953   5.945 -1.0260  0.4489  0.7824
 2030SOL     OW17548   0.636   1.074  14.317  0.4621  0.3337  0.1443
 2030SOL    HW117549   0.732   1.072  14.319  0.4543  1.0966  1.2677
 2030SOL    HW217550   0.630   0.987  14.357 -1.3438  0.0098 -0.8656
 2031SOL     OW17551   2.826   3.297   9.468  0.0641 -0.0408  0.5479
 2031SOL    HW117552   2.796   3.372   9.415 -1.2352 -1.0794 -0.2042
 2031SOL    HW217553   2.791   3.231   9.408 -1.8519  1.3313  0.1168
 2032SOL     OW17554   0.749   2.629   1.666  0.7812  0.4281 -0.4068
 2032SOL    HW117555   0.770   2.672   1.748  0.4168  0.2295 -0.2111
 2032SOL    HW217556   0.664   2.667   1.643  0.8876  2.0996  2.0441
 2033SOL     OW17557   3.007   2.742   4.534 -0.2142 -0.0805  0.3065
 2033SOL    HW117558   2.932   2.758   4.476  0.5410  1.2350 -0.2893
 2033SOL    HW217559   3.031   2.669   4.476  0.1271 -0.9239  1.5244
 2034SOL     OW17560   1.882   0.287   4.217 -0.2892 -0.2910 -1.7242
 2034SOL    HW117561   1.878   0.307   4.124 -0.3769 -1.3700 -1.9468
 2034SOL    HW217562   1.923   0.201   4.225  0.9038  0.5024  0.5961
 2035SOL     OW17563   2.633   3.481   4.785 -0.1385  0.6778  0.2536
 2035SOL    HW117564   2.655   3.442   4.700 -0.0497  0.2041  0.4955
 2035SOL    HW217565   2.696   3.553   4.783  0.8305 -0.1816 -0.2030
 2036SOL     OW17566   1.372   3.636  11.248 -0.3978  0.6046  0.0033
 2036SOL    HW117567   1.407   3.723  11.266  0.5042 -0.3195  2.6219
 2036SOL    HW217568   1.305   3.624  11.315 -0.3243 -0.5973 -0.1479
 2037SOL     OW17569   0.821   3.637   0.580  0.3367 -0.0853  0.3064
 2037SOL    HW117570   0.835   3.729   0.556 -0.6701  0.0826  0.3956
 2037SOL    HW217571   0.911   3.623   0.609  0.3040 -0.1087  0.3972
 2038SOL     OW17572   2.595   1.110   0.826  0.3818 -0.0073  0.2904
 2038SOL    HW117573   2.526   1.078   0.768  0.0615 -0.0027  0.6714
 2038SOL    HW217574   2.579   1.088   0.918 -0.6752 -2.0099 -0.3998
 2039SOL     OW17575   0.088   1.185   4.715  0.2645 -1.0777 -0.3559
 2039SOL    HW117576   0.056   1.111   4.766  0.0065 -1.0244 -0.4428
 2039SOL    HW217577   0.131   1.239   4.781 -1.2826 -1.0921  0.6372
 2040SOL     OW17578   0.747   3.762   4.091 -0.1869 -0.1797  0.3661
 2040SOL    HW117579   0.684   3.698   4.125 -0.6821  0.1612  0.0908
 2040SOL    HW217580   0.729   3.760   3.997  0.1308 -0.0644  0.3044
 2041SOL     OW17581   2.277   3.198   5.898 -0.4878  0.0366 -0.4321
 2041SOL    HW117582   2.344   3.136   5.871 -0.2461 -0.6157  1.7213
 2041SOL    HW217583   2.242   3.223   5.812  2.2852  0.0655 -1.5616
 2042SOL     OW17584   4.383   2.584   4.644  0.1291  0.0254  0.0027
 2042SOL    HW117585   4.318   2.516   4.627 -0.3075  0.5146 -0.2961
 2042SOL    HW217586   4.380   2.590   4.740 -0.1522  2.6808 -0.1712
 2043SOL     OW17587   1.487   3.224  16.156  0.2810 -0.5031 -0.0789
 2043SOL    HW117588   1.476   3.162  16.228 -1.1273  1.6300  1.5690
 2043SOL    HW217589   1.434   3.182  16.089 -0.2475 -1.2163  0.7882
 2044SOL     OW17590   1.741   1.581   8.030 -0.0909 -0.4252 -0.7615
 2044SOL    HW117591   1.801   1.538   7.970  1.5100 -0.0498  0.5742
 2044SOL    HW217592   1.776   1.670   8.031  0.4056 -0.6224 -0.8036
 2045SOL     OW17593   0.998   3.037   3.143 -0.1871 -0.6741 -0.2420
 2045SOL    HW117594   1.070   3.056   3.083  0.0885  0.1081  0.3281
 2045SOL    HW217595   1.008   3.114   3.200  1.0680 -0.8332 -0.2442
 2046SOL     OW17596   3.734   3.424  11.581 -0.3084  0.1681  0.2089
 2046SOL    HW117597   3.649   3.411  11.537 -0.5319  0.1554  0.6435
 2046SOL    HW217598   3.767   3.340  11.549 -1.7638 -0.8184  1.2899
 2047SOL     OW17599   4.303   3.485   6.888 -0.0851 -0.2139 -0.0294
 2047SOL    HW117600   4.327   3.574   6.865  0.7056 -0.4090  0.0316
 2047SOL    HW217601   4.208   3.493   6.891 -0.0937 -0.3933  0.2294
 2048SOL     OW17602   1.353   2.448  11.647  0.4399  0.1411 -0.5181
 2048SOL    HW117603   1.438   2.458  11.604 -1.3598  0.6889 -3.9259
 2048SOL    HW217604   1.322   2.538  11.656  0.1979 -0.2713  2.6996
 2049SOL     OW17605   4.304   1.198  14.773 -0.1484 -0.4006  0.2647
 2049SOL    HW117606   4.302   1.184  14.678 -1.9390  0.1817  0.2315
 2049SOL    HW217607   4.390   1.233  14.797 -1.0168  1.0140  1.2773
 2050SOL     OW17608   1.388   1.597   8.923  0.1550  0.2793  0.0441
 2050SOL    HW117609   1.450   1.526   8.906  0.1604  0.8502 -2.2425
 2050SOL    HW217610   1.412   1.670   8.866 -0.7501  0.1162 -0.5341
 2051SOL     OW17611   2.613   2.098   4.208  0.3179 -0.0135 -0.0706
 2051SOL    HW117612   2.622   2.030   4.275 -2.0745  1.1576  1.4583
 2051SOL    HW217613   2.705   2.115   4.187  0.3679  1.7125  1.4510
 2052SOL     OW17614   2.564   2.464   1.512 -0.2421 -0.8861  0.0995
 2052SOL    HW117615   2.483   2.496   1.552 -0.5292 -3.2421  1.4014
 2052SOL    HW217616   2.522   2.403   1.452 -0.6279  1.9216 -2.4627
 2053SOL     OW17617   1.949   3.182  15.026  0.6885  0.5449  0.3369
 2053SOL    HW117618   1.947   3.268  14.985 -0.4623 -0.4908 -1.7388
 2053SOL    HW217619   2.000   3.203  15.104 -0.2763  2.2895  0.4894
 2054SOL     OW17620   4.246   0.657   5.893  0.3734 -0.3123 -0.0456
 2054SOL    HW117621   4.301   0.703   5.957 -0.9188 -1.9194  2.2240
 2054SOL    HW217622   4.307   0.600   5.846  1.2165 -1.5536  2.5551
 2055SOL     OW17623   1.253   4.381   5.041 -0.0615 -0.3319 -0.0292
 2055SOL    HW117624   1.337   4.378   5.087  0.5971  0.5125 -1.1821
 2055SOL    HW217625   1.261   4.308   4.980 -0.8149 -0.1037 -0.4067
 2056SOL     OW17626   0.201   3.152  11.686  0.0617 -0.0438 -0.3369
 2056SOL    HW117627   0.165   3.192  11.766  0.4457  0.2494 -0.3133
 2056SOL    HW217628   0.210   3.066  11.728 -0.0190 -0.4960 -1.2623
 2057SOL     OW17629   1.291   0.034   7.103  0.2238 -0.6776 -0.1646
 2057SOL    HW117630   1.239   0.092   7.048  4.1851  1.6462 -1.4187
 2057SOL    HW217631   1.222   4.706   7.150 -0.2685 -1.0775 -1.3048
 2058SOL     OW17632   4.678   1.077   7.749  0.5534 -0.1654  0.0831
 2058SOL    HW117633   4.654   0.988   7.724  0.5818  0.3899 -1.9184
 2058SOL    HW217634   0.053   1.066   7.747  0.4033 -1.6356  0.9756
 2059SOL     OW17635   0.975   4.340  12.416 -0.1526 -0.2364 -0.5180
 2059SOL    HW117636   0.920   4.416  12.436  0.7756 -0.4477  2.7027
 2059SOL    HW217637   0.939   4.275  12.477  0.0551 -0.2437 -0.4046
 2060SOL     OW17638   0.380   0.199   5.810 -0.6781  0.5779  0.2568
 2060SOL    HW117639   0.290   0.198   5.843 -0.5960 -1.8388  0.4531
 2060SOL    HW217640   0.422   0.118   5.840  0.1631  1.1129  0.5051
 2061SOL     OW17641   2.008   3.455   4.913 -0.0075  0.0752 -0.1785
 2061SOL    HW117642   1.982   3.364   4.898  0.9091  0.0837 -1.7765
 2061SOL    HW217643   1.935   3.502   4.874 -0.2558  0.8719  1.2202
 2062SOL     OW17644   0.052   1.714  17.539  0.2335 -0.6400  0.8689
 2062SOL    HW117645   0.092   1.778  17.481  1.1509 -1.9667  0.0334
 2062SOL    HW217646   4.719   1.772  17.594  1.6117  1.7999 -0.4054
 2063SOL     OW17647   0.014   2.552  11.656 -0.1045  0.0307 -0.3365
 2063SOL    HW117648   4.677   2.572  11.731 -0.2012 -0.5278 -0.2586
 2063SOL    HW217649   0.092   2.600  11.685  0.1281  0.0842 -1.0461
 2064SOL     OW17650   2.070   2.770   2.671 -0.2981  0.7201 -0.3886
 2064SOL    HW117651   2.127   2.776   2.595 -0.5058  0.7597 -0.5408
 2064SOL    HW217652   2.117   2.699   2.716  0.0377  0.2788 -1.4274
 2065SOL     OW17653   4.080   1.753  13.139  0.1867  0.2144 -0.0482
 2065SOL    HW117654   4.050   1.698  13.212 -0.0089 -1.0906 -1.1019
 2065SOL    HW217655   4.030   1.830  13.165  1.9177  0.8741  1.3324
 2066SOL     OW17656   0.206   2.820   2.196  0.2501  0.6044 -0.1838
 2066SOL    HW117657   0.170   2.748   2.247 -1.3000  2.1478  0.9169
 2066SOL    HW217658   0.128   2.841   2.144  0.7864 -0.8094 -1.5468
 2067SOL     OW17659   1.801   0.007   4.119  0.1643 -0.3590  0.0606
 2067SOL    HW117660   1.754   0.063   4.057  1.7695  0.3369 -0.5286
 2067SOL    HW217661   1.760   0.034   4.201 -2.4200 -2.1475 -0.6497
 2068SOL     OW17662   1.508   2.457   6.609  0.7362 -0.0163  0.3244
 2068SOL    HW117663   1.478   2.543   6.639 -1.9706 -0.8102 -0.0891
 2068SOL    HW217664   1.494   2.457   6.514  1.0044 -1.5150  0.2912
 2069SOL     OW17665   1.395   1.151  10.664  0.1323 -0.0055  0.6924
 2069SOL    HW117666   1.316   1.105  10.692 -0.8566  1.0536 -0.3770
 2069SOL    HW217667   1.441   1.150  10.748 -0.0723 -1.4266  0.7880
 2070SOL     OW17668   3.153   1.104  10.240 -0.1403  0.3228 -0.2068
 2070SOL    HW117669   3.132   1.177  10.298  2.3502 -0.3036  1.4622
 2070SOL    HW217670   3.217   1.146  10.182  0.4652  1.0420  0.9853
 2071SOL     OW17671   1.849   3.347   6.164  0.2219 -0.3457 -0.1448
 2071SOL    HW117672   1.875   3.331   6.254 -3.6727 -0.7781  0.8950
 2071SOL    HW217673   1.935   3.337   6.122  0.4542  0.3051  0.1877
 2072SOL     OW17674   0.249   2.367   7.661  0.9506 -0.3383 -0.2568
 2072SOL    HW117675   0.229   2.377   7.568 -2.4707  1.0703  0.6505
 2072SOL    HW217676   0.159   2.381   7.691  1.4758  2.8810 -0.1984
 2073SOL     OW17677   3.416   1.703   5.044 -0.4135  0.1197  0.2159
 2073SOL    HW117678   3.370   1.633   5.090 -1.6048 -0.4726 -1.8563
 2073SOL    HW217679   3.371   1.780   5.079 -1.5638 -0.1760 -0.6266
 2074SOL     OW17680   3.993   0.667   2.246 -0.7480  0.1935  0.0986
 2074SOL    HW117681   4.008   0.710   2.161  0.7806 -0.6648 -0.0670
 2074SOL    HW217682   4.068   0.698   2.297 -1.0675 -0.5046  0.9851
 2075SOL     OW17683   0.501   0.532   5.414  0.0246  0.2396  0.0516
 2075SOL    HW117684   0.495   0.450   5.464  2.1171 -0.8548 -1.5051
 2075SOL    HW217685   0.596   0.541   5.401  0.6034 -2.3484  2.4039
 2076SOL     OW17686   2.361   0.487  14.790  0.0194  0.3557  0.0164
 2076SOL    HW117687   2.378   0.581  14.796  1.3735  0.0760  0.3646
 2076SOL    HW217688   2.351   0.479  14.695 -0.5627  0.0258  0.1046
 2077SOL     OW17689   3.884   0.597  11.433  0.1096  0.0571 -0.0015
 2077SOL    HW117690   3.970   0.609  11.394 -0.1712 -0.4571 -0.7817
 2077SOL    HW217691   3.869   0.504  11.450  1.1037 -0.4264 -1.7226
 2078SOL     OW17692   0.452   3.949   0.204 -0.2065  0.1792  0.3896
 2078SOL    HW117693   0.535   3.979   0.242 -1.1097  0.0166  2.4445
 2078SOL    HW217694   0.478   3.859   0.180 -2.7322 -0.7263  1.0575
 2079SOL     OW17695   2.055   4.108  11.366 -0.2173  0.1731  0.0268
 2079SOL    HW117696   2.013   4.162  11.299 -0.9858  0.0575  0.4095
 2079SOL    HW217697   2.118   4.169  11.406 -0.0188 -0.9687  1.4538
 2080SOL     OW17698   3.724   1.316   4.052  0.1202  0.2227  0.2440
 2080SOL    HW117699   3.750   1.228   4.024 -0.6661  1.1545 -3.3853
 2080SOL    HW217700   3.652   1.334   3.993  0.2718 -2.1288 -0.6537
 2081SOL     OW17701   2.148   2.753   2.099  0.2727 -0.3592  0.1554
 2081SOL    HW117702   2.130   2.660   2.086  0.0158 -0.3718  0.6305
 2081SOL    HW217703   2.057   2.780   2.105  0.1332 -0.4268 -1.6342
 2082SOL     OW17704   3.832   1.316   4.306 -0.3726 -1.0223 -0.1057
 2082SOL    HW117705   3.918   1.355   4.291 -0.6471 -0.7787 -1.0196
 2082SOL    HW217706   3.801   1.314   4.216  2.6008  3.2187 -1.2174
 2083SOL     OW17707   3.745   3.773   6.493 -0.1340  0.1584  0.0658
 2083SOL    HW117708   3.656   3.740   6.477 -1.4232  2.5399  2.4317
 2083SOL    HW217709   3.718   3.865   6.494 -0.0874  0.1788 -0.5075
 2084SOL     OW17710   2.085   2.769   6.647  0.1272  0.1989  0.5590
 2084SOL    HW117711   2.006   2.766   6.593  0.0605  2.0778  0.5228
 2084SOL    HW217712   2.055   2.840   6.704  0.9113 -0.7369  2.1006
 2085SOL     OW17713   0.128   2.551   8.689 -0.0054 -0.4458 -0.4991
 2085SOL    HW117714   0.123   2.642   8.718 -1.0169 -0.6235 -0.1311
 2085SOL    HW217715   0.058   2.509   8.738 -0.1282  1.4220  0.9076
 2086SOL     OW17716   0.701   3.419  10.243  0.8137  0.1098 -0.0804
 2086SOL    HW117717   0.688   3.355  10.313 -2.7669 -1.7134 -2.4509
 2086SOL    HW217718   0.628   3.478  10.264  0.5017  0.0494 -1.0143
 2087SOL     OW17719   4.176   2.796   2.348 -0.5229 -0.2226  0.2995
 2087SOL    HW117720   4.180   2.794   2.252  1.0587  0.4457  0.3473
 2087SOL    HW217721   4.147   2.886   2.363 -0.2849 -0.3866  1.7309
 2088SOL     OW17722   0.784   2.514  11.340  0.2835 -0.6479  0.2798
 2088SOL    HW117723   0.808   2.517  11.247  1.3414  4.9102  0.7494
 2088SOL    HW217724   0.863   2.548  11.380 -0.1846  0.0823  0.5908
 2089SOL     OW17725   2.863   1.096   0.807 -0.1827  0.8520 -0.0727
 2089SOL    HW117726   2.767   1.098   0.816  0.0087  0.2662  2.0187
 2089SOL    HW217727   2.874   1.140   0.722 -0.3431  0.2641 -0.4000
 2090SOL     OW17728   1.693   0.559   5.503 -0.0649  0.4024 -0.0621
 2090SOL    HW117729   1.669   0.473   5.468  1.1956 -0.1771  0.4986
 2090SOL    HW217730   1.665   0.614   5.430 -1.7970  1.9255  1.7727
 2091SOL     OW17731   1.909   0.927  17.099 -0.0092 -0.1279  0.6305
 2091SOL    HW117732   1.977   0.859  17.102 -0.3220 -0.4807 -0.1276
 2091SOL    HW217733   1.834   0.883  17.139  1.0872  0.8719  3.7922
 2092SOL     OW17734   1.588   0.308   5.650 -0.1846  0.3885 -0.0515
 2092SOL    HW117735   1.675   0.336   5.676  0.2576  1.0416 -2.1891
 2092SOL    HW217736   1.586   0.298   5.554  1.0778 -1.3480  0.0967
 2093SOL     OW17737   1.311   3.094   0.146 -0.2381 -0.2230 -0.2134
 2093SOL    HW117738   1.360   3.025   0.192 -0.3822  1.1780  2.0519
 2093SOL    HW217739   1.340   3.159   0.210  0.7034 -0.6425 -0.2038
 2094SOL     OW17740   3.359   3.489  15.769 -0.3603 -0.4409  0.3542
 2094SOL    HW117741   3.353   3.579  15.802 -0.9835 -0.5817  0.6336
 2094SOL    HW217742   3.338   3.443  15.850  2.9235 -0.7769  1.0157
 2095SOL     OW17743   4.398   2.976   6.254 -0.0507  0.0434 -0.2603
 2095SOL    HW117744   4.368   3.037   6.320 -3.7442 -0.3155 -1.6383
 2095SOL    HW217745   4.492   2.993   6.258  0.3141 -2.2647  1.4138
 2096SOL     OW17746   3.043   4.014   2.174  0.0235 -0.0095 -0.3121
 2096SOL    HW117747   2.984   4.079   2.211  0.0815  1.6407 -3.0814
 2096SOL    HW217748   3.127   4.041   2.209  0.7406 -1.0056 -1.2744
 2097SOL     OW17749   4.517   1.872   8.437 -0.2367  0.5764 -0.0754
 2097SOL    HW117750   4.479   1.799   8.485  0.3633  0.2663 -0.0757
 2097SOL    HW217751   4.462   1.945   8.467  1.1042  1.9739 -1.0134
 2098SOL     OW17752   0.094   4.632   4.476  0.0802 -0.1994 -0.1330
 2098SOL    HW117753   0.115   4.585   4.557 -0.1781  0.9443  0.5951
 2098SOL    HW217754   4.719   4.624   4.488  0.2332 -0.6823  0.7451
 2099SOL     OW17755   0.597   1.559   7.682 -0.0748 -0.7496  0.0279
 2099SOL    HW117756   0.648   1.491   7.726  0.4871  0.8879  1.8710
 2099SOL    HW217757   0.619   1.556   7.589 -0.6242 -0.2477 -0.1185
 2100SOL     OW17758   4.077   1.230   5.520 -0.8651 -0.1046 -0.3700
 2100SOL    HW117759   4.170   1.221   5.542 -0.5401  0.8048 -1.4038
 2100SOL    HW217760   4.046   1.146   5.555  0.7996  0.2623  1.9729
 2101SOL     OW17761   2.766   1.129   4.920 -0.3838  0.1267 -0.1654
 2101SOL    HW117762   2.745   1.191   4.990 -3.1622 -0.9441 -0.0490
 2101SOL    HW217763   2.794   1.054   4.972  1.5368  0.0830 -1.2639
 2102SOL     OW17764   3.800   4.201   4.981 -0.1057 -0.4136  0.3201
 2102SOL    HW117765   3.789   4.215   5.075  0.0983 -0.7878  0.3963
 2102SOL    HW217766   3.809   4.290   4.946  1.3863 -0.1706  1.3655
 2103SOL     OW17767   3.600   3.146   1.247 -0.4398  0.4408 -0.5619
 2103SOL    HW117768   3.554   3.159   1.164  0.2652 -2.2918 -1.3918
 2103SOL    HW217769   3.617   3.237   1.271 -0.2639  0.6173 -1.3688
 2104SOL     OW17770   0.845   2.150   4.702  0.0201 -0.4298  0.5860
 2104SOL    HW117771   0.841   2.179   4.611  1.2619 -1.1421  0.3102
 2104SOL    HW217772   0.755   2.161   4.733 -0.3693  0.2578 -0.8141
 2105SOL     OW17773   3.006   4.240   9.114  0.3102  0.4037 -0.8688
 2105SOL    HW117774   3.011   4.332   9.139 -1.3453  0.5019 -0.8778
 2105SOL    HW217775   2.925   4.241   9.064  0.5616 -1.5433 -1.3216
 2106SOL     OW17776   0.488   3.746   4.461 -0.2854  0.1835 -0.2711
 2106SOL    HW117777   0.459   3.669   4.412  1.5765 -2.5520  2.9880
 2106SOL    HW217778   0.580   3.759   4.441 -0.2631 -1.1374 -1.0503
 2107SOL     OW17779   0.825   4.652   3.671 -0.2604  0.6183  0.6355
 2107SOL    HW117780   0.734   4.652   3.700 -0.3373 -0.6490  0.3882
 2107SOL    HW217781   0.865   4.647   3.758 -0.3142  2.2900  0.7483
 2108SOL     OW17782   1.726   1.575   0.444  0.3411 -0.4793  0.2650
 2108SOL    HW117783   1.817   1.604   0.434  0.3732 -0.8074 -0.4099
 2108SOL    HW217784   1.703   1.588   0.536  1.5752  0.3351  0.4690
 2109SOL     OW17785   0.708   1.477  14.767  0.0569  0.5306  0.4331
 2109SOL    HW117786   0.757   1.491  14.686 -1.2714 -0.2398 -0.4928
 2109SOL    HW217787   0.767   1.508  14.836 -0.5965 -0.6547  1.5206
 2110SOL     OW17788   2.198   0.192   4.255  0.5152 -0.1689  0.7985
 2110SOL    HW117789   2.243   0.263   4.208 -1.7153  0.2909 -0.6405
 2110SOL    HW217790   2.178   0.234   4.338 -0.4737  0.6898  0.1317
 2111SOL     OW17791   2.389   1.738  12.582  0.2251  0.2564 -0.3764
 2111SOL    HW117792   2.330   1.764  12.653  1.1726 -0.8337  0.8126
 2111SOL    HW217793   2.455   1.807  12.582 -0.1244  0.5842  0.6042
 2112SOL     OW17794   1.609   0.807  16.478 -0.4988 -0.3526 -0.4835
 2112SOL    HW117795   1.546   0.760  16.531  1.7233 -0.7800  1.7649
 2112SOL    HW217796   1.553   0.849  16.412 -1.6507  0.0631  0.7681
 2113SOL     OW17797   4.647   4.343   4.710  0.5995 -0.3906 -0.0881
 2113SOL    HW117798   4.667   4.273   4.771 -0.9928  1.0341  2.0540
 2113SOL    HW217799   4.705   4.410   4.746  0.6745  0.9473 -2.6498
 2114SOL     OW17800   0.210   1.685   6.800  0.1866  0.5029 -1.1806
 2114SOL    HW117801   0.283   1.624   6.812  0.4611  1.1746  0.6782
 2114SOL    HW217802   0.255   1.769   6.813  1.7743 -0.0726 -3.0430
 2115SOL     OW17803   2.391   4.121   5.256 -0.3098  0.4835  0.4903
 2115SOL    HW117804   2.393   4.167   5.340  1.3381  0.9667  0.1848
 2115SOL    HW217805   2.454   4.051   5.273 -0.8030 -0.1037 -0.1034
 2116SOL     OW17806   0.443   3.084   4.390  0.3670  0.2797 -1.1002
 2116SOL    HW117807   0.503   3.156   4.408 -1.7420  1.9801 -0.7976
 2116SOL    HW217808   0.440   3.036   4.473  0.8790  0.2314 -1.1124
 2117SOL     OW17809   4.390   2.934   1.070  0.1514  0.2341 -0.4869
 2117SOL    HW117810   4.372   2.900   1.158  0.3319 -0.9084 -0.8841
 2117SOL    HW217811   4.384   2.852   1.022 -0.8302 -0.3998  0.7058
 2118SOL     OW17812   1.552   3.858   0.818  0.0319 -0.0419  0.9385
 2118SOL    HW117813   1.603   3.925   0.773 -0.5652 -1.4003 -1.7613
 2118SOL    HW217814   1.597   3.780   0.784 -2.1644 -0.0152 -2.0550
 2119SOL     OW17815   2.777   2.367  16.651 -0.1397 -0.5598 -0.6950
 2119SOL    HW117816   2.705   2.346  16.710  0.0862  0.2313 -0.1318
 2119SOL    HW217817   2.738   2.326  16.574  0.2971 -1.1438 -0.6024
 2120SOL     OW17818   1.284   4.461   6.694 -0.1778  0.4136 -0.2206
 2120SOL    HW117819   1.205   4.513   6.712 -0.7524 -0.6797  0.4690
 2120SOL    HW217820   1.354   4.503   6.744  0.5357  0.1587 -1.0183
 2121SOL     OW17821   1.190   2.498  17.106 -0.4800 -0.5660 -0.5468
 2121SOL    HW117822   1.166   2.582  17.145 -0.0749 -0.4417 -0.5722
 2121SOL    HW217823   1.148   2.439  17.168 -4.7648  1.3330 -1.6357
 2122SOL     OW17824   1.589   2.810  10.882  0.7501 -0.5418  0.9168
 2122SOL    HW117825   1.628   2.734  10.839 -1.4179 -1.1429  0.0160
 2122SOL    HW217826   1.511   2.773  10.923 -0.0260  2.1291  1.8590
 2123SOL     OW17827   3.066   3.625   1.398  0.6366 -0.2509  0.3539
 2123SOL    HW117828   3.158   3.630   1.373  1.0592 -2.8711  1.3915
 2123SOL    HW217829   3.037   3.570   1.326 -1.7992  0.0128  1.1445
 2124SOL     OW17830   3.958   2.415   3.700  0.7520  0.2855  0.4881
 2124SOL    HW117831   3.986   2.411   3.609  0.6622  0.5238  0.4523
 2124SOL    HW217832   4.040   2.430   3.748  2.0103 -1.6921 -1.0110
 2125SOL     OW17833   2.903   2.238   8.646  0.5586 -0.3351  0.0329
 2125SOL    HW117834   2.915   2.328   8.676  0.8792 -1.0802  2.1174
 2125SOL    HW217835   2.952   2.185   8.709 -1.9145 -1.4332  1.0402
 2126SOL     OW17836   3.023   0.965  17.226  0.1588 -0.3025  0.6557
 2126SOL    HW117837   3.095   0.989  17.168 -0.1486 -0.5468  0.1728
 2126SOL    HW217838   2.959   1.031  17.199  2.3235  1.5379 -0.0104
 2127SOL     OW17839   3.184   2.319   8.769 -0.2341 -1.0881  0.2883
 2127SOL    HW117840   3.121   2.323   8.841 -1.3363 -1.9993 -0.6150
 2127SOL    HW217841   3.168   2.229   8.740 -0.9717 -0.7356 -0.3762
 2128SOL     OW17842   4.626   0.227  17.405 -0.0349  0.2129  0.0560
 2128SOL    HW117843   4.620   0.188  17.493 -1.4721 -0.6040 -0.3905
 2128SOL    HW217844   4.673   0.306  17.431  0.2983  0.6345 -1.8622
 2129SOL     OW17845   1.911   1.947   5.329  0.2149  0.2239  0.2419
 2129SOL    HW117846   1.941   1.942   5.420  0.9208 -1.9886 -0.1189
 2129SOL    HW217847   1.882   2.038   5.327 -1.1350 -0.2247 -0.5627
 2130SOL     OW17848   4.051   3.594   3.912  0.0744  0.1774  0.3934
 2130SOL    HW117849   4.025   3.673   3.959 -0.3012 -0.2569  0.9159
 2130SOL    HW217850   4.127   3.567   3.964  0.4784  1.8919  0.7186
 2131SOL     OW17851   4.449   1.813   4.205  0.5661 -0.0849  0.0398
 2131SOL    HW117852   4.484   1.730   4.173 -0.6502  0.3597 -2.4916
 2131SOL    HW217853   4.511   1.833   4.275  1.6708 -2.2223 -0.3122
 2132SOL     OW17854   0.466   2.285   7.895 -0.3010  0.0999  0.1722
 2132SOL    HW117855   0.462   2.189   7.895  2.7721 -0.0064 -0.5955
 2132SOL    HW217856   0.510   2.305   7.812 -1.1274 -0.4467 -0.3974
 2133SOL     OW17857   2.463   3.889  12.872 -1.1562 -0.2703 -0.8446
 2133SOL    HW117858   2.449   3.803  12.911  0.5053 -0.1692 -0.0218
 2133SOL    HW217859   2.519   3.929  12.939 -1.2199 -3.2999  1.0197
 2134SOL     OW17860   4.616   0.044  13.891  0.2640 -0.0157  0.5622
 2134SOL    HW117861   4.591   4.686  13.941 -1.8529  0.6272  0.5019
 2134SOL    HW217862   4.630   0.102  13.965 -2.0875 -0.9205  1.7098
 2135SOL     OW17863   2.049   4.050   4.863  0.0348 -0.1289  0.4041
 2135SOL    HW117864   2.007   4.136   4.855 -0.0035 -0.1287  0.6011
 2135SOL    HW217865   2.101   4.040   4.784  1.5245  0.0453  1.3748
 2136SOL     OW17866   1.049   2.035   2.641 -0.3843  0.2116 -0.1910
 2136SOL    HW117867   1.029   2.129   2.637  1.4035  0.5768 -0.3996
 2136SOL    HW217868   1.033   1.998   2.554 -1.0267 -0.1590  0.0813
 2137SOL     OW17869   3.331   0.951  13.757 -0.1775 -0.0358  0.0758
 2137SOL    HW117870   3.270   1.021  13.733 -0.7484 -0.5423  0.0793
 2137SOL    HW217871   3.282   0.917  13.832  0.7382 -1.4800  0.0240
 2138SOL     OW17872   4.103   2.229   5.063  0.4383 -0.2192  0.0513
 2138SOL    HW117873   4.064   2.259   4.980 -0.9894  0.1006  0.8405
 2138SOL    HW217874   4.176   2.291   5.066  1.1326 -1.1999  3.0821
 2139SOL     OW17875   2.185   1.319   2.076  0.0795  0.4241  0.6809
 2139SOL    HW117876   2.201   1.312   1.982  0.4737  0.3106  0.7564
 2139SOL    HW217877   2.090   1.322   2.066 -0.0433 -2.3091  0.8669
 2140SOL     OW17878   2.516   3.988   9.416 -0.3385 -0.1019 -0.9800
 2140SOL    HW117879   2.490   3.940   9.494 -0.3016 -0.9832 -1.5117
 2140SOL    HW217880   2.472   4.073   9.427  0.7373 -0.0384  2.6386
 2141SOL     OW17881   1.431   4.357   5.616  0.1684 -0.0327 -0.2025
 2141SOL    HW117882   1.386   4.328   5.695  1.3954 -0.9987  0.1502
 2141SOL    HW217883   1.374   4.323   5.546  0.1550 -0.8240  0.1886
 2142SOL     OW17884   4.236   2.056   4.827 -0.4549 -0.0164  0.1577
 2142SOL    HW117885   4.179   2.011   4.764  0.7240  1.5177 -2.0340
 2142SOL    HW217886   4.175   2.127   4.846  0.0366  0.7556 -1.1449
 2143SOL     OW17887   3.321   2.246  11.697 -0.2347  0.4649  0.2150
 2143SOL    HW117888   3.233   2.285  11.702 -0.2377  0.4799  0.0219
 2143SOL    HW217889   3.307   2.206  11.611  0.4588  0.5067  0.0843
 2144SOL     OW17890   0.785   1.037   2.736  0.2570  0.2547  0.1504
 2144SOL    HW117891   0.868   1.082   2.744 -0.2353  1.3313 -0.8541
 2144SOL    HW217892   0.774   0.996   2.650 -1.0563 -1.4183  1.0909
 2145SOL     OW17893   3.264   1.340   7.117  0.1320 -0.0626 -0.2847
 2145SOL    HW117894   3.213   1.346   7.037 -0.0474 -0.9411 -0.2358
 2145SOL    HW217895   3.259   1.431   7.146 -0.5256  0.1775 -1.1618
 2146SOL     OW17896   0.941   1.600   7.271  0.1370 -0.1732 -0.2875
 2146SOL    HW117897   1.035   1.610   7.289 -0.3643  3.4711  0.3636
 2146SOL    HW217898   0.929   1.514   7.313 -1.1278  1.0691  1.9369
 2147SOL     OW17899   0.611   1.596  10.259  0.6045  0.2352  0.4938
 2147SOL    HW117900   0.639   1.654  10.330 -0.9830  0.2210  1.1244
 2147SOL    HW217901   0.545   1.545  10.306  1.4034 -0.2594  1.0743
 2148SOL     OW17902   0.928   4.595   4.769 -0.3920  0.5270 -0.0353
 2148SOL    HW117903   1.004   4.559   4.722 -1.1352 -0.7787 -0.2383
 2148SOL    HW217904   0.855   4.558   4.719  0.2119  0.5274 -0.9184
 2149SOL     OW17905   0.190   3.482   5.455  0.4506  0.2086  0.4905
 2149SOL    HW117906   0.192   3.463   5.361  0.2696  0.4656  0.4331
 2149SOL    HW217907   0.262   3.545   5.454 -2.0131  3.0527  0.0301
 2150SOL     OW17908   0.340   2.129   3.245 -0.2344 -0.1278  1.0534
 2150SOL    HW117909   0.343   2.034   3.232  1.5563  0.0111  0.4213
 2150SOL    HW217910   0.431   2.141   3.273 -0.4495  0.2854  1.5778
 2151SOL     OW17911   1.459   0.282   4.003  0.1289 -0.0517 -0.3877
 2151SOL    HW117912   1.486   0.371   4.024  1.1154 -0.2557 -0.7854
 2151SOL    HW217913   1.445   0.259   4.095 -1.6778  2.1023 -0.1134
 2152SOL     OW17914   2.399   4.618   5.756  0.0597 -0.4519 -0.2358
 2152SOL    HW117915   2.419   4.542   5.702 -2.3246 -0.4617 -1.1407
 2152SOL    HW217916   2.376   4.574   5.837 -2.1855 -0.1438 -0.6854
 2153SOL     OW17917   4.686   3.090   9.002 -0.2222 -0.0569  0.0422
 2153SOL    HW117918   4.710   3.178   9.031 -0.2427 -0.2472  0.6192
 2153SOL    HW217919   4.694   3.102   8.907  0.0887  4.2706  0.5891
 2154SOL     OW17920   3.052   4.332   2.299  0.3267 -0.1956 -0.3082
 2154SOL    HW117921   3.045   4.423   2.272 -0.5308 -0.5846 -1.4028
 2154SOL    HW217922   3.146   4.320   2.313  0.3244 -1.6236 -1.4472
 2155SOL     OW17923   0.270   3.638   6.637 -0.0112 -0.3113 -0.6048
 2155SOL    HW117924   0.333   3.577   6.675 -0.7567 -0.8758 -0.2607
 2155SOL    HW217925   0.320   3.718   6.653  1.2441 -0.5378 -3.5809
 2156SOL     OW17926   4.362   1.286   3.761 -0.2859  0.1080  0.0633
 2156SOL    HW117927   4.283   1.273   3.708 -1.3428  1.3326  1.3555
 2156SOL    HW217928   4.410   1.359   3.721 -1.5692  1.2681  0.6405
 2157SOL     OW17929   2.650   3.277   6.710  0.1876 -0.3631  0.5662
 2157SOL    HW117930   2.696   3.211   6.763 -0.8030 -0.0195  1.8714
 2157SOL    HW217931   2.706   3.354   6.718 -0.3273 -0.0782  1.5506
 2158SOL     OW17932   1.500   3.493   5.352 -0.5614  0.7648 -0.2490
 2158SOL    HW117933   1.504   3.419   5.291  1.3947  1.1664 -0.5849
 2158SOL    HW217934   1.495   3.566   5.291 -0.9610  2.4133  1.7582
 2159SOL     OW17935   1.131   2.213   1.577  0.1638  0.2283  0.0583
 2159SOL    HW117936   1.107   2.201   1.668 -0.1326 -2.1545 -0.3397
 2159SOL    HW217937   1.169   2.129   1.550 -0.2223 -0.3514  1.3411
 2160SOL     OW17938   0.927   1.022  14.308  0.5164  0.6269  0.3904
 2160SOL    HW117939   0.972   0.966  14.372  1.0828 -0.5240 -1.0136
 2160SOL    HW217940   0.957   0.986  14.225  1.6055 -0.0708  1.0843
 2161SOL     OW17941   4.718   3.237   5.297 -0.5248 -0.2454 -0.4774
 2161SOL    HW117942   4.633   3.277   5.279 -0.8069 -0.6584 -0.0490
 2161SOL    HW217943   0.063   3.306   5.279 -3.3134  2.2236 -0.8763
 2162SOL     OW17944   3.271   3.801   0.999  0.3711  0.2354  0.6239
 2162SOL    HW117945   3.334   3.737   0.966  1.3446  0.1994  2.5095
 2162SOL    HW217946   3.251   3.842   0.915  0.4199 -3.1095 -1.0094
 2163SOL     OW17947   0.249   4.448   5.186 -0.3711 -0.2375  0.0278
 2163SOL    HW117948   0.333   4.490   5.206 -1.2940  1.6732 -0.0862
 2163SOL    HW217949   0.273   4.361   5.216 -2.3865 -0.1735  1.8070
 2164SOL     OW17950   2.188   3.300   3.248  0.0209  0.1358  0.1057
 2164SOL    HW117951   2.230   3.242   3.185 -0.7780 -1.2506  0.8766
 2164SOL    HW217952   2.185   3.381   3.196  1.2509 -0.2120 -0.5169
 2165SOL     OW17953   4.165   2.267   7.832 -0.2427 -0.4796  0.1579
 2165SOL    HW117954   4.099   2.248   7.765  0.2342  0.1516 -0.4891
 2165SOL    HW217955   4.130   2.223   7.909  2.1270 -1.4597  0.6835
 2166SOL     OW17956   0.642   3.203   7.267 -0.0904 -0.1896 -0.0815
 2166SOL    HW117957   0.549   3.223   7.270  0.4007  2.0435  0.3257
 2166SOL    HW217958   0.646   3.108   7.281 -0.5570 -0.4944 -2.1549
 2167SOL     OW17959   2.958   1.351  16.122 -0.1166  0.3911  0.1002
 2167SOL    HW117960   3.000   1.423  16.076  0.4933 -0.2529 -0.3406
 2167SOL    HW217961   2.937   1.390  16.206 -2.7067  1.7374 -1.1744
 2168SOL     OW17962   2.302   1.030   6.724  0.0543  0.8528 -0.4278
 2168SOL    HW117963   2.370   0.963   6.735 -1.4464 -0.7887 -1.2663
 2168SOL    HW217964   2.320   1.078   6.805  0.9066  2.5829 -1.6149
 2169SOL     OW17965   2.105   4.416  17.547 -0.3554  0.0308  0.3494
 2169SOL    HW117966   2.093   4.437  17.455  0.0125 -0.9580  0.0714
 2169SOL    HW217967   2.197   4.439  17.555  0.2656 -1.9602 -0.9486
 2170SOL     OW17968   4.474   3.951   1.993  0.1161 -0.8619 -0.3123
 2170SOL    HW117969   4.414   3.948   2.068 -1.3731  0.9802 -1.4046
 2170SOL    HW217970   4.420   3.910   1.925 -0.0025  0.8249 -1.2362
 2171SOL     OW17971   4.139   0.456  11.912  0.3798  0.1794  0.3160
 2171SOL    HW117972   4.164   0.540  11.874 -2.1779  0.0535 -1.6128
 2171SOL    HW217973   4.050   0.454  11.878 -0.3587  1.0447  2.2278
 2172SOL     OW17974   0.592   1.651   5.843  0.6447 -0.2956  0.0698
 2172SOL    HW117975   0.636   1.671   5.761 -0.9078  2.3203 -0.1318
 2172SOL    HW217976   0.498   1.654   5.825  0.5566  0.0627  0.5940
 2173SOL     OW17977   3.700   3.374   9.222  0.2754  1.0230  0.1079
 2173SOL    HW117978   3.766   3.437   9.191  1.4216 -0.2176  0.0292
 2173SOL    HW217979   3.660   3.426   9.292  0.8837  2.3856 -0.5553
 2174SOL     OW17980   3.280   0.230   1.674 -0.2588  0.3048  0.2752
 2174SOL    HW117981   3.266   0.325   1.669 -0.5973  0.2620  0.4441
 2174SOL    HW217982   3.328   0.217   1.756  1.5579  1.5314 -0.5871
 2175SOL     OW17983   3.985   0.206   2.439  0.5645  0.0488  0.9838
 2175SOL    HW117984   3.896   0.173   2.429  0.1764  2.0647 -1.9870
 2175SOL    HW217985   3.973   0.300   2.425 -1.1704 -0.2167  0.7237
 2176SOL     OW17986   0.629   3.436   5.943  0.2056  0.0599  0.0658
 2176SOL    HW117987   0.607   3.477   5.859  0.4118  0.5627  0.2605
 2176SOL    HW217988   0.543   3.405   5.970  0.3445 -0.8681 -0.5290
 2177SOL     OW17989   3.540   0.926   5.234  0.2494 -0.0746  0.3850
 2177SOL    HW117990   3.610   0.978   5.196 -0.6797  1.3531  0.6153
 2177SOL    HW217991   3.557   0.914   5.327 -0.4710  2.2806  0.8187
 2178SOL     OW17992   3.246   3.643   4.648  0.2017 -0.3758 -0.2486
 2178SOL    HW117993   3.183   3.711   4.624  0.5316 -1.1938 -3.4349
 2178SOL    HW217994   3.183   3.598   4.704 -2.0188  1.2547 -1.4214
 2179SOL     OW17995   0.314   3.650   5.042  0.3350  0.5113  0.2207
 2179SOL    HW117996   0.329   3.642   4.948 -1.3555 -0.8680  0.0711
 2179SOL    HW217997   0.334   3.562   5.073  1.3325  0.4075 -0.6918
 2180SOL     OW17998   3.970   0.788   4.338 -0.0097  0.2204 -0.4798
 2180SOL    HW117999   3.952   0.707   4.386  0.1528  0.4241 -0.0775
 2180SOL    HW218000   4.046   0.758   4.287  0.6663  1.2035 -0.0471
 2181SOL     OW18001   3.869   3.323   4.100  0.2166  0.4638  0.3694
 2181SOL    HW118002   3.800   3.295   4.040 -0.2780  3.4749 -0.4284
 2181SOL    HW218003   3.950   3.280   4.071  0.2170  1.1078 -0.5755
 2182SOL     OW18004   3.455   1.963   8.702  0.4473 -0.2340  0.0537
 2182SOL    HW118005   3.428   1.872   8.716 -0.8159 -0.0052 -0.9466
 2182SOL    HW218006   3.536   1.958   8.752  0.5486 -1.6747 -0.2518
 2183SOL     OW18007   2.076   2.952  12.821  0.3986 -0.2155  0.4080
 2183SOL    HW118008   2.033   2.966  12.905  0.8149 -0.2793  0.6296
 2183SOL    HW218009   2.151   2.903  12.853  0.4804 -0.8179 -0.7015
 2184SOL     OW18010   2.470   0.240   3.202 -0.8563  0.2970  0.1736
 2184SOL    HW118011   2.503   0.150   3.207 -0.7457  0.0768 -4.2153
 2184SOL    HW218012   2.410   0.241   3.128  0.3130  0.2481 -0.7800
 2185SOL     OW18013   2.813   0.693  10.216  0.5460  0.5402  0.2984
 2185SOL    HW118014   2.737   0.740  10.248  0.5684  2.6572 -2.8335
 2185SOL    HW218015   2.813   0.627  10.286  0.0577  1.0760  0.7959
 2186SOL     OW18016   3.176   1.118   7.254 -0.2439  0.1138  0.2573
 2186SOL    HW118017   3.167   1.113   7.349 -0.0831  0.3253  0.2817
 2186SOL    HW218018   3.193   1.211   7.247  1.5003 -0.1751  0.6614
 2187SOL     OW18019   1.098   0.442   6.742 -0.0220  0.0688  0.1709
 2187SOL    HW118020   1.020   0.443   6.797  0.4495  0.2523  0.8365
 2187SOL    HW218021   1.053   0.463   6.660 -3.1159 -0.5385  1.7276
 2188SOL     OW18022   0.368   4.370   1.546  0.1316 -0.1082 -0.1722
 2188SOL    HW118023   0.386   4.314   1.470  0.2650 -1.1441  0.6188
 2188SOL    HW218024   0.273   4.373   1.534 -0.0498 -1.9854  0.8108
 2189SOL     OW18025   2.936   1.278   3.981 -0.1057  0.2469  0.0336
 2189SOL    HW118026   2.937   1.270   3.886 -1.1064 -0.1656  0.0635
 2189SOL    HW218027   3.029   1.288   4.002  0.0148 -2.0173  0.5834
 2190SOL     OW18028   2.134   0.752   3.317  0.1695 -0.4949 -0.4619
 2190SOL    HW118029   2.194   0.810   3.271  1.1639 -0.6277  0.6879
 2190SOL    HW218030   2.054   0.806   3.316 -0.8187 -1.9550 -1.8841
 2191SOL     OW18031   2.911   0.485  12.373 -0.1464  0.4984  0.0536
 2191SOL    HW118032   2.958   0.554  12.326  1.4939  1.6921  3.4097
 2191SOL    HW218033   2.983   0.422  12.370 -0.6808 -0.0974 -0.2533
 2192SOL     OW18034   4.393   1.563  13.826  0.6401 -0.2003 -0.3141
 2192SOL    HW118035   4.475   1.576  13.778  0.9432  0.3583  0.3648
 2192SOL    HW218036   4.350   1.647  13.811 -0.7031 -0.6422  1.1231
 2193SOL     OW18037   2.910   2.776   5.609  0.1616 -0.0738  0.4829
 2193SOL    HW118038   2.985   2.718   5.603  0.3252 -0.1706  3.3106
 2193SOL    HW218039   2.960   2.854   5.631 -1.0763  1.6150 -2.6364
 2194SOL     OW18040   0.359   4.145   5.238 -0.4708  0.4145  0.4542
 2194SOL    HW118041   0.300   4.071   5.242 -0.7494  0.6967  1.4635
 2194SOL    HW218042   0.400   4.145   5.324 -0.6209 -0.7031  0.5175
 2195SOL     OW18043   4.168   1.790  14.004  0.3912  0.1658  0.4187
 2195SOL    HW118044   4.121   1.762  14.082  0.9753 -2.0192  0.0105
 2195SOL    HW218045   4.258   1.787  14.036  0.8914 -1.9251 -1.1619
 2196SOL     OW18046   3.623   3.334   8.253  0.1464  0.0402 -0.3119
 2196SOL    HW118047   3.528   3.331   8.265  0.1376  0.9678 -0.1176
 2196SOL    HW218048   3.651   3.379   8.333  0.0040 -2.1360  0.9642
 2197SOL     OW18049   2.686   4.018   7.031 -0.5692  0.0181 -0.1079
 2197SOL    HW118050   2.645   3.950   7.084  0.7215 -0.0561  0.7909
 2197SOL    HW218051   2.655   4.097   7.075 -1.3433 -0.3878  0.0763
 2198SOL     OW18052   2.540   0.191   0.195  0.3045 -0.1411  0.4081
 2198SOL    HW118053   2.586   0.113   0.163 -2.6738 -1.9543  0.5511
 2198SOL    HW218054   2.486   0.201   0.117 -1.9627  0.0753  2.0165
 2199SOL     OW18055   2.781   4.419   4.781 -0.0856 -0.2666 -0.9849
 2199SOL    HW118056   2.790   4.431   4.875 -0.9581 -0.0169 -0.9381
 2199SOL    HW218057   2.690   4.445   4.769  0.7320  2.4082 -1.5096
 2200SOL     OW18058   0.167   0.080  10.174 -0.3238  0.0115 -0.6275
 2200SOL    HW118059   0.159   0.174  10.188 -0.2220 -0.1042  0.1757
 2200SOL    HW218060   0.161   0.041  10.261  3.8222 -0.9072 -0.7686
 2201SOL     OW18061   1.533   0.530  17.620 -0.0903 -0.5239  0.1883
 2201SOL    HW118062   1.617   0.484  17.617  1.2529  1.9208  0.2572
 2201SOL    HW218063   1.477   0.453  17.629  2.3385 -2.4489 -1.2991
 2202SOL     OW18064   3.790   0.236   7.537 -0.5206 -0.1032 -0.0588
 2202SOL    HW118065   3.723   0.186   7.583 -0.5454 -1.8266 -2.0049
 2202SOL    HW218066   3.799   0.187   7.456 -1.0029  1.2625 -0.9507
 2203SOL     OW18067   0.920   0.868   1.800  0.3854  0.6292 -0.1820
 2203SOL    HW118068   0.994   0.808   1.789  1.3949  1.7415  0.6307
 2203SOL    HW218069   0.972   0.944   1.825  2.0211 -0.2575 -0.8652
 2204SOL     OW18070   2.911   0.760   9.436  0.1360 -0.0696  0.5376
 2204SOL    HW118071   2.920   0.665   9.448  0.0928 -0.2859 -1.2496
 2204SOL    HW218072   2.942   0.789   9.522  1.5116 -0.7084  0.2610
 2205SOL     OW18073   1.074   4.226   9.750 -0.6245 -0.0592 -0.3158
 2205SOL    HW118074   1.156   4.229   9.701 -0.9533  1.7270 -0.7932
 2205SOL    HW218075   1.105   4.205   9.838 -0.4355  0.8760 -0.1527
 2206SOL     OW18076   1.980   0.701  17.361  0.1797 -0.1522 -0.7188
 2206SOL    HW118077   2.061   0.727  17.405 -1.1346  0.6053  1.2437
 2206SOL    HW218078   2.007   0.717  17.271  0.8482 -0.2488 -0.5397
 2207SOL     OW18079   3.122   2.699  10.315 -0.1267  0.1534 -0.1988
 2207SOL    HW118080   3.132   2.697  10.410  1.9977  0.2403 -0.4238
 2207SOL    HW218081   3.179   2.774  10.301  0.5283 -0.5678 -1.3992
 2208SOL     OW18082   0.989   0.033  14.811 -0.0029 -1.1986  0.4238
 2208SOL    HW118083   1.010   4.685  14.877  1.2071 -0.4826  0.7694
 2208SOL    HW218084   0.949   4.699  14.743 -3.1233 -0.3250  1.6079
 2209SOL     OW18085   2.696   2.097  10.845 -0.4593 -0.0878  0.1594
 2209SOL    HW118086   2.663   2.055  10.924  0.9405 -0.4700  0.5290
 2209SOL    HW218087   2.757   2.031  10.811  0.4049  0.4372  0.7006
 2210SOL     OW18088   0.776   1.359   4.846 -0.6921 -0.4776  0.4501
 2210SOL    HW118089   0.806   1.285   4.792 -0.0557 -0.4669  0.7942
 2210SOL    HW218090   0.693   1.387   4.807 -1.7672 -2.5780  1.1648
 2211SOL     OW18091   2.344   2.753   6.566  0.1854  0.5557 -0.2565
 2211SOL    HW118092   2.263   2.758   6.617  0.2299 -0.4002 -0.0853
 2211SOL    HW218093   2.317   2.704   6.487 -0.5262  1.4405 -0.5566
 2212SOL     OW18094   4.380   2.957   6.608  0.0778  0.2583  0.0624
 2212SOL    HW118095   4.443   2.932   6.676  0.2056 -0.2626 -0.2517
 2212SOL    HW218096   4.443   3.012   6.561  0.3806 -0.4377 -0.3395
 2213SOL     OW18097   0.520   4.424   4.337  0.0081  0.7789 -0.6729
 2213SOL    HW118098   0.532   4.504   4.287 -1.2384  2.1096  1.1684
 2213SOL    HW218099   0.531   4.358   4.268  1.2899 -0.1512  0.4201
 2214SOL     OW18100   2.646   3.176   9.280  0.0876 -0.4085  0.6345
 2214SOL    HW118101   2.627   3.234   9.206  0.6566  1.8315  2.2405
 2214SOL    HW218102   2.725   3.123   9.268  0.4591 -0.1961  2.0569
 2215SOL     OW18103   1.835   0.140  17.670 -0.1424 -0.0970 -0.1135
 2215SOL    HW118104   1.861   0.072  17.608 -1.3294  0.1465 -0.8792
 2215SOL    HW218105   1.908   0.198  17.647  0.7471 -0.7869  0.9843
 2216SOL     OW18106   2.826   0.805  14.923 -0.1070 -0.0485  0.2768
 2216SOL    HW118107   2.793   0.767  15.004  3.5889  1.9392  2.7032
 2216SOL    HW218108   2.757   0.868  14.902  1.2076  0.8664 -1.2892
 2217SOL     OW18109   3.272   3.962  14.535  0.1918 -0.0939  0.0815
 2217SOL    HW118110   3.289   3.949  14.628 -0.4018  1.8671  0.4520
 2217SOL    HW218111   3.178   3.973  14.526  0.2884  1.0056  0.4107
 2218SOL     OW18112   2.659   4.111   3.818 -0.3488  0.6307  0.3861
 2218SOL    HW118113   2.666   4.206   3.805 -0.5466  0.5372 -0.3513
 2218SOL    HW218114   2.746   4.093   3.855 -0.7285  1.2054  1.5537
 2219SOL     OW18115   3.659   0.171   5.531  0.1067  0.3788 -0.2224
 2219SOL    HW118116   3.575   0.141   5.566 -0.1994 -0.0275 -1.2986
 2219SOL    HW218117   3.625   0.231   5.464  1.0251  0.4551 -0.6170
 2220SOL     OW18118   4.474   1.654   9.043 -0.1830 -0.1417  0.5718
 2220SOL    HW118119   4.513   1.725   9.093  0.9814  1.0014 -1.9573
 2220SOL    HW218120   4.396   1.642   9.097 -0.5735  0.5783  0.1756
 2221SOL     OW18121   2.966   4.135   2.962  0.3362 -0.0662 -0.1521
 2221SOL    HW118122   2.954   4.040   2.962 -0.7631  0.0448 -3.0109
 2221SOL    HW218123   3.012   4.142   2.878  0.6110 -0.9336 -0.0744
 2222SOL     OW18124   0.322   3.251   3.610 -0.1205  0.2120  0.1220
 2222SOL    HW118125   0.357   3.174   3.564  2.2884  1.8354 -0.8071
 2222SOL    HW218126   0.259   3.215   3.671 -0.3553  0.1166 -0.1757
 2223SOL     OW18127   4.475   3.856   5.385  0.2655 -0.4614 -0.5068
 2223SOL    HW118128   4.531   3.914   5.436  1.1983 -1.4062 -0.4552
 2223SOL    HW218129   4.394   3.907   5.390  1.2842  1.1711 -1.0491
 2224SOL     OW18130   3.304   1.902   5.244  0.1962  0.7234 -0.0814
 2224SOL    HW118131   3.253   1.854   5.309  1.9028 -1.3354 -0.2405
 2224SOL    HW218132   3.285   1.992   5.269  0.9810  1.5067 -2.2840
 2225SOL     OW18133   4.607   1.099  13.223 -0.4617  0.0641  0.7338
 2225SOL    HW118134   4.667   1.073  13.154 -2.2380 -1.0234 -0.4072
 2225SOL    HW218135   4.663   1.129  13.295  0.7957 -0.8478  0.1259
 2226SOL     OW18136   2.152   2.176   2.238  0.4826  0.2481  0.6275
 2226SOL    HW118137   2.104   2.102   2.277  0.5859 -0.6599 -0.9749
 2226SOL    HW218138   2.230   2.128   2.212  0.1298  0.0731 -0.1029
 2227SOL     OW18139   3.431   1.323  17.094  0.0403  0.8200 -0.2996
 2227SOL    HW118140   3.350   1.304  17.143  0.4743 -0.4760 -0.0821
 2227SOL    HW218141   3.424   1.255  17.028 -1.7544  0.7775 -0.0848
 2228SOL     OW18142   3.646   1.016  12.842 -0.4907  0.2334  0.2552
 2228SOL    HW118143   3.674   0.925  12.844 -0.0000  0.3688 -0.4420
 2228SOL    HW218144   3.615   1.025  12.932 -0.0540 -0.5890  0.4823
 2229SOL     OW18145   1.196   3.242  11.969 -0.3692  0.3904  0.0737
 2229SOL    HW118146   1.279   3.239  12.016  0.0165 -1.8787 -0.7463
 2229SOL    HW218147   1.151   3.305  12.026  0.4355  0.6905  0.3762
 2230SOL     OW18148   3.341   0.982   1.926 -0.3913 -0.2591 -0.6476
 2230SOL    HW118149   3.271   0.925   1.895 -0.3624 -0.7275  0.1672
 2230SOL    HW218150   3.298   1.047   1.982  0.4417  0.9241 -1.3679
 2231SOL     OW18151   0.413   3.931  12.212 -0.3553  0.5309 -0.6458
 2231SOL    HW118152   0.346   3.976  12.159 -2.0307  1.4507  2.2870
 2231SOL    HW218153   0.368   3.854  12.246  0.3195  0.7229  0.6615
 2232SOL     OW18154   0.729   0.492   5.972  0.0835 -0.3394  0.1204
 2232SOL    HW118155   0.645   0.448   5.982 -0.3352  0.7932  1.5318
 2232SOL    HW218156   0.761   0.489   6.062 -1.7279  0.7293  0.7805
 2233SOL     OW18157   3.942   3.198   0.835  0.0667 -0.2363 -0.1358
 2233SOL    HW118158   3.913   3.212   0.745 -0.1197  0.0051 -0.0402
 2233SOL    HW218159   3.857   3.205   0.879  0.0113  0.4854 -0.3509
 2234SOL     OW18160   0.341   4.596   1.343 -0.7224  0.1070  0.6282
 2234SOL    HW118161   0.395   4.673   1.326  1.0449 -0.8316  2.0704
 2234SOL    HW218162   0.295   4.611   1.426 -1.5649  2.7816 -0.3298
 2235SOL     OW18163   3.981   1.687   8.493 -0.2664 -0.1486  0.6541
 2235SOL    HW118164   4.014   1.771   8.460  0.9428 -1.2567 -0.9050
 2235SOL    HW218165   4.059   1.635   8.478 -1.2578 -1.7382  0.9546
 2236SOL     OW18166   3.142   3.025   4.584  0.0405 -0.0504  0.9099
 2236SOL    HW118167   3.116   2.936   4.562 -1.6565  1.3188 -2.5405
 2236SOL    HW218168   3.151   3.022   4.679  0.9448 -0.2609  0.8145
 2237SOL     OW18169   2.723   2.733   7.435  0.0168  0.0136  0.6707
 2237SOL    HW118170   2.812   2.769   7.439  0.8502 -1.9526 -0.0770
 2237SOL    HW218171   2.689   2.761   7.520  2.7715 -0.4870  1.9608
 2238SOL     OW18172   3.454   1.632   5.940 -0.3400 -0.2423  0.2247
 2238SOL    HW118173   3.406   1.630   6.023 -1.5304 -1.5540 -0.5001
 2238SOL    HW218174   3.472   1.726   5.940 -2.7086  0.1938 -4.0279
 2239SOL     OW18175   4.193   3.925   5.386  0.0777 -0.3240  0.1944
 2239SOL    HW118176   4.152   3.859   5.331  0.4299  0.2733 -0.7887
 2239SOL    HW218177   4.119   3.956   5.439 -0.0422 -1.9248  0.9798
 2240SOL     OW18178   4.261   0.741   5.293  0.0974 -0.6597 -0.3361
 2240SOL    HW118179   4.248   0.745   5.388  1.5873  1.2604 -0.2222
 2240SOL    HW218180   4.305   0.656   5.282  2.2943  0.4661 -0.1564
 2241SOL     OW18181   3.868   2.214   0.022 -0.0851  0.9993  0.6767
 2241SOL    HW118182   3.790   2.183  17.656 -0.4248 -0.1833  2.0578
 2241SOL    HW218183   3.893   2.294  17.656 -1.1986  2.3918  2.5020
 2242SOL     OW18184   1.867   2.120   6.809 -0.0482  0.2199 -0.1310
 2242SOL    HW118185   1.821   2.163   6.881 -0.4027 -1.0507  0.4099
 2242SOL    HW218186   1.849   2.174   6.733  0.3509  0.3811 -0.1104
 2243SOL     OW18187   2.511   1.861   8.567  0.1580  0.0164  0.0160
 2243SOL    HW118188   2.534   1.775   8.532 -1.1592 -0.3427  0.0435
 2243SOL    HW218189   2.451   1.883   8.496  2.2115 -0.6380 -1.8913
 2244SOL     OW18190   0.163   2.780  12.631  0.5492 -0.3197  0.2232
 2244SOL    HW118191   0.106   2.856  12.640  0.8359 -0.0062 -0.6701
 2244SOL    HW218192   0.144   2.749  12.720 -0.2161 -1.6649 -0.4194
 2245SOL     OW18193   3.015   3.911   6.785 -0.4033  0.3357  0.3222
 2245SOL    HW118194   3.074   3.836   6.778 -0.0636  0.6028  0.3198
 2245SOL    HW218195   2.928   3.881   6.757  0.8227 -1.6555 -1.3638
 2246SOL     OW18196   0.018   2.922  13.014  0.2066  0.5181 -0.4856
 2246SOL    HW118197   4.692   3.000  12.980 -1.0363 -0.1236 -0.3023
 2246SOL    HW218198   4.701   2.913  13.102 -2.4013  0.4506 -1.5424
 2247SOL     OW18199   1.338   3.255   9.034 -0.4324  0.0934 -0.1343
 2247SOL    HW118200   1.345   3.161   9.051 -1.8035 -0.0502 -0.3442
 2247SOL    HW218201   1.272   3.272   9.102 -1.0405  0.5287 -0.8410
 2248SOL     OW18202   2.285   2.069   5.990 -0.4171  0.2908 -0.0323
 2248SOL    HW118203   2.337   2.084   5.911 -0.1284  0.1739  0.1352
 2248SOL    HW218204   2.196   2.054   5.959 -0.0999 -1.8389  0.1133
 2249SOL     OW18205   4.667   3.544   2.475 -0.0911 -0.2463 -0.2045
 2249SOL    HW118206   4.603   3.581   2.536 -0.0337  0.9258 -0.8403
 2249SOL    HW218207   0.014   3.612   2.489  0.3437 -0.8534  0.6630
 2250SOL     OW18208   2.631   0.968  14.873 -0.1201  0.6703 -0.4768
 2250SOL    HW118209   2.658   1.051  14.836  1.2502  1.9656  3.4394
 2250SOL    HW218210   2.568   1.003  14.936 -1.2861 -1.2372 -0.5798
 2251SOL     OW18211   2.250   1.527  14.307 -0.0821  0.4646 -0.1363
 2251SOL    HW118212   2.227   1.444  14.349 -0.8134  0.5043 -0.4589
 2251SOL    HW218213   2.171   1.560  14.265 -0.2752  0.9865  0.6462
 2252SOL     OW18214   1.760   0.783   8.381 -0.4811  0.2112  0.0464
 2252SOL    HW118215   1.845   0.800   8.340 -0.2789 -1.6570 -0.3162
 2252SOL    HW218216   1.763   0.688   8.390 -1.7928  0.1568 -0.0509
 2253SOL     OW18217   4.250   0.742   2.333  0.0567 -0.0510 -0.2195
 2253SOL    HW118218   4.304   0.802   2.385 -0.9521  2.7405 -2.3447
 2253SOL    HW218219   4.307   0.724   2.259  0.3522 -0.3178  0.0731
 2254SOL     OW18220   4.443   3.049  15.017  1.1426  0.0925  0.3330
 2254SOL    HW118221   4.524   3.079  15.057  1.3765  0.0452 -0.0973
 2254SOL    HW218222   4.457   3.094  14.934 -0.1261  1.1746  0.7140
 2255SOL     OW18223   3.214   3.331  10.089 -0.0868 -0.1327 -0.0192
 2255SOL    HW118224   3.160   3.339  10.011 -2.0360 -1.5450  1.1968
 2255SOL    HW218225   3.229   3.419  10.124 -1.2079 -0.1478  0.5082
 2256SOL     OW18226   3.938   4.022   9.356  0.2611 -0.2516 -0.6960
 2256SOL    HW118227   4.027   4.056   9.361  0.0928 -0.1899  1.6182
 2256SOL    HW218228   3.930   4.012   9.261 -1.7437 -1.3232 -0.4237
 2257SOL     OW18229   2.067   3.314   3.739 -0.0712 -0.5807 -0.2793
 2257SOL    HW118230   2.126   3.303   3.664 -0.4403 -0.6290 -0.5644
 2257SOL    HW218231   2.008   3.382   3.706  0.8669  0.9411  1.1669
 2258SOL     OW18232   3.567   4.127   6.927  0.2262  0.4743 -1.1470
 2258SOL    HW118233   3.625   4.057   6.900 -1.3305 -0.6749 -1.5116
 2258SOL    HW218234   3.496   4.085   6.976  0.4265  1.3060 -0.1377
 2259SOL     OW18235   2.242   0.709   1.873 -0.5092  0.0194  0.3431
 2259SOL    HW118236   2.215   0.635   1.820 -0.0473  0.7026 -0.8362
 2259SOL    HW218237   2.270   0.770   1.805 -0.5672 -0.8625 -0.4598
 2260SOL     OW18238   0.646   0.114   4.003 -0.4746  0.2183 -0.1083
 2260SOL    HW118239   0.567   0.075   3.968  0.4491  0.4380 -2.4043
 2260SOL    HW218240   0.681   0.165   3.930  0.8293 -0.4633  0.0319
 2261SOL     OW18241   2.371   1.579   3.333  0.0121  0.1498 -0.3328
 2261SOL    HW118242   2.341   1.498   3.373  1.1199  0.1832  0.5380
 2261SOL    HW218243   2.465   1.566   3.320  0.7754  3.9994  1.3815
 2262SOL     OW18244   3.124   0.395   9.546 -0.2887 -0.2597 -0.1497
 2262SOL    HW118245   3.199   0.402   9.606  0.2163 -0.0703 -0.7992
 2262SOL    HW218246   3.059   0.446   9.595  1.6307  1.8968  0.1645
 2263SOL     OW18247   2.935   1.004   5.539 -0.0541  0.2192  0.4267
 2263SOL    HW118248   2.845   0.995   5.570  0.1297 -2.7369  0.1412
 2263SOL    HW218249   2.932   0.983   5.446  0.4355 -1.5132  0.7985
 2264SOL     OW18250   0.576   0.217  13.527  0.2730 -0.0827  0.1199
 2264SOL    HW118251   0.631   0.165  13.469 -0.3570  0.8891 -1.3554
 2264SOL    HW218252   0.634   0.280  13.569  2.2513 -3.6028  2.6874
 2265SOL     OW18253   0.592   1.526   4.694 -0.3507  0.6373 -0.8258
 2265SOL    HW118254   0.554   1.444   4.663 -1.6198  0.7986  0.3159
 2265SOL    HW218255   0.624   1.552   4.608  1.2182  0.6233 -0.2410
 2266SOL     OW18256   3.048   4.183   4.508 -0.1878 -0.8833 -0.6256
 2266SOL    HW118257   3.084   4.259   4.553 -1.9765  0.0545 -0.7504
 2266SOL    HW218258   3.014   4.128   4.579  0.0693 -0.2038  0.0208
 2267SOL     OW18259   2.320   2.943   5.203  0.1917  0.3617  0.4142
 2267SOL    HW118260   2.309   3.024   5.253 -0.1073  0.5557  0.0324
 2267SOL    HW218261   2.250   2.892   5.243  0.6873  0.4572  1.3974
 2268SOL     OW18262   3.411   0.002   9.291 -0.4375 -0.0882 -0.5534
 2268SOL    HW118263   3.469   4.650   9.265  0.4730  0.4508 -0.0212
 2268SOL    HW218264   3.480   0.048   9.339  1.2298 -1.4925 -1.6102
 2269SOL     OW18265   0.865   2.968   1.522  0.6856 -0.2260 -0.1335
 2269SOL    HW118266   0.813   2.893   1.492 -0.8224 -0.2933  2.6856
 2269SOL    HW218267   0.948   2.957   1.476  0.4248  1.0733 -0.9045
 2270SOL     OW18268   3.346   0.087   6.904 -0.5958  0.1124 -0.3370
 2270SOL    HW118269   3.324   0.126   6.820  0.7821  1.7413  0.0675
 2270SOL    HW218270   3.318   0.163   6.956 -0.2597  0.4519 -0.6546
 2271SOL     OW18271   4.109   1.226  10.752 -0.2895 -0.1189  0.6905
 2271SOL    HW118272   4.066   1.158  10.803  0.6565 -0.7820  0.6068
 2271SOL    HW218273   4.145   1.284  10.818 -1.8236  1.9103 -0.2601
 2272SOL     OW18274   0.628   1.047  11.728  0.2170  0.4422 -0.4975
 2272SOL    HW118275   0.688   1.000  11.670 -0.9332 -0.0868 -1.2547
 2272SOL    HW218276   0.676   1.058  11.811 -0.5661  0.8516 -0.1015
 2273SOL     OW18277   0.737   1.841   9.444  0.3759  0.4148 -0.1388
 2273SOL    HW118278   0.773   1.840   9.355 -2.8644  0.7267 -1.4527
 2273SOL    HW218279   0.811   1.838   9.505  0.5386 -1.2197 -0.4190
 2274SOL     OW18280   3.756   1.028   2.774  0.5958 -0.3115  0.3241
 2274SOL    HW118281   3.758   0.965   2.701  1.7226 -0.0417  0.1205
 2274SOL    HW218282   3.824   1.086   2.740  0.0629  0.5222  0.7050
 2275SOL     OW18283   0.103   2.608  10.535 -0.5369  0.3203 -0.5808
 2275SOL    HW118284   0.079   2.520  10.507 -0.7633  0.1820  0.0379
 2275SOL    HW218285   0.099   2.664  10.457 -2.3289  1.0447  0.0098
 2276SOL     OW18286   3.964   0.159   3.793 -0.2596 -0.0517 -0.2264
 2276SOL    HW118287   4.021   0.083   3.784 -2.4361 -1.7950  0.7933
 2276SOL    HW218288   4.026   0.206   3.850 -1.9986  1.7456  0.1605
 2277SOL     OW18289   3.060   2.754   4.821  0.2515  0.7847  0.1973
 2277SOL    HW118290   3.034   2.761   4.729 -0.2611  1.8177  0.4258
 2277SOL    HW218291   3.026   2.669   4.850 -0.6976  0.6228 -1.3724
 2278SOL     OW18292   1.709   3.999   7.870 -0.1819  0.8556  0.7604
 2278SOL    HW118293   1.670   3.934   7.928 -1.1824  1.0595  0.3171
 2278SOL    HW218294   1.654   3.980   7.794  0.1437 -2.4629  1.3514
 2279SOL     OW18295   3.542   0.818  11.196 -0.1367 -0.0878  0.5014
 2279SOL    HW118296   3.466   0.767  11.224 -0.3451  0.5905  1.1899
 2279SOL    HW218297   3.538   0.811  11.101  0.7203 -0.0627  0.4609
 2280SOL     OW18298   2.276   4.688  15.626  0.1937  0.6608 -0.2546
 2280SOL    HW118299   2.245   0.055  15.653 -0.9174  0.1259  0.1743
 2280SOL    HW218300   2.215   4.637  15.679  0.1505 -0.0801 -1.0319
 2281SOL     OW18301   3.670   0.590   1.935 -0.0550 -0.0224 -0.2738
 2281SOL    HW118302   3.748   0.536   1.918 -0.2449 -0.5656  0.6064
 2281SOL    HW218303   3.676   0.661   1.871  0.1371 -0.2801 -0.5478
 2282SOL     OW18304   1.188   3.540  10.520  0.4314  0.0961 -0.3272
 2282SOL    HW118305   1.255   3.583  10.465  0.8939 -2.4598 -1.7478
 2282SOL    HW218306   1.215   3.449  10.518 -1.5207 -0.5176  1.6831
 2283SOL     OW18307   4.170   1.096   7.049 -0.3086  0.0128  0.2283
 2283SOL    HW118308   4.238   1.161   7.068 -0.9229  0.1537  1.9706
 2283SOL    HW218309   4.095   1.144   7.013 -1.5581 -1.0741  1.3820
 2284SOL     OW18310   4.663   0.619   8.680  0.0949 -0.5376  0.2692
 2284SOL    HW118311   4.570   0.638   8.674  0.1370 -0.0150  1.1874
 2284SOL    HW218312   4.659   0.525   8.698  2.3966 -0.7191 -0.1934
 2285SOL     OW18313   2.847   3.113   8.446 -0.5260  0.1584 -0.1090
 2285SOL    HW118314   2.755   3.128   8.468 -0.0910  2.1705  0.4109
 2285SOL    HW218315   2.856   3.018   8.446 -0.8023  0.1364 -2.3085
 2286SOL     OW18316   1.771   0.077   8.210  0.0847  0.2506 -0.2211
 2286SOL    HW118317   1.752   0.120   8.126 -0.5423 -0.5777 -0.5051
 2286SOL    HW218318   1.712   0.002   8.205  0.4363 -0.1286  1.5836
 2287SOL     OW18319   2.607   3.887   8.167 -0.3965  0.2783  0.2141
 2287SOL    HW118320   2.538   3.892   8.233  1.6193  0.1042  2.3315
 2287SOL    HW218321   2.676   3.925   8.221  1.0549 -0.2130 -1.3151
 2288SOL     OW18322   0.651   2.385   0.332  0.1955 -0.3324 -0.3196
 2288SOL    HW118323   0.646   2.309   0.389  0.1107  0.5796  0.8842
 2288SOL    HW218324   0.724   2.359   0.276  0.6331  0.6959 -0.2327
 2289SOL     OW18325   4.407   1.612   7.670  0.2036 -0.2612 -0.0169
 2289SOL    HW118326   4.422   1.698   7.709  0.4918  0.5353 -1.8874
 2289SOL    HW218327   4.376   1.639   7.583  1.1197 -0.1934 -0.3249
 2290SOL     OW18328   0.056   3.431  10.607 -0.6509  0.0984 -0.2124
 2290SOL    HW118329   4.712   3.484  10.656 -0.2383 -0.9798  1.4883
 2290SOL    HW218330   0.019   3.428  10.518  0.4884 -0.6153 -0.6578
 2291SOL     OW18331   0.659   0.124   6.326  0.2539  0.1814  0.1358
 2291SOL    HW118332   0.722   0.196   6.328 -1.2908  1.4948  0.7057
 2291SOL    HW218333   0.716   0.048   6.344 -0.9501 -0.5986  0.6324
 2292SOL     OW18334   3.325   4.477  13.016 -0.2609 -0.4723 -0.3289
 2292SOL    HW118335   3.390   4.538  12.980 -2.3934  0.6728 -2.3089
 2292SOL    HW218336   3.274   4.523  13.083  0.7892 -0.3627  0.3860
 2293SOL     OW18337   3.696   3.677   7.689 -0.0577 -0.5855 -0.2003
 2293SOL    HW118338   3.687   3.754   7.633 -0.2261 -3.1405 -3.7253
 2293SOL    HW218339   3.777   3.689   7.738  0.2194 -1.3829 -0.4631
 2294SOL     OW18340   1.660   2.950   4.287 -0.1808  0.6069  0.0128
 2294SOL    HW118341   1.709   2.971   4.207 -1.5298 -1.9021 -1.5031
 2294SOL    HW218342   1.573   2.926   4.257 -0.3228  3.1568 -1.6376
 2295SOL     OW18343   0.458   2.100  17.116  0.3290  0.0647 -0.3298
 2295SOL    HW118344   0.435   2.119  17.207 -1.9510  2.4612 -1.4300
 2295SOL    HW218345   0.410   2.018  17.104 -0.9179  0.8501 -0.7042
 2296SOL     OW18346   1.882   1.198  17.160 -0.0170 -0.4012  0.3978
 2296SOL    HW118347   1.845   1.234  17.079 -0.3401  0.7507  1.0659
 2296SOL    HW218348   1.901   1.109  17.130  0.6418  0.6095 -2.1803
 2297SOL     OW18349   4.039   0.624  16.052 -0.2221  0.2435 -0.5500
 2297SOL    HW118350   3.983   0.551  16.026 -0.2896  0.9235 -2.2826
 2297SOL    HW218351   4.111   0.611  15.990 -0.7981  0.8406 -1.3384
 2298SOL     OW18352   4.439   0.958   1.469  0.1127 -0.3824  0.4262
 2298SOL    HW118353   4.355   0.918   1.494 -0.9047  0.9586 -0.8765
 2298SOL    HW218354   4.437   1.030   1.531 -0.0725  0.6062 -0.7399
 2299SOL     OW18355   2.900   0.642   7.896 -0.0802 -0.6756  0.5463
 2299SOL    HW118356   2.972   0.606   7.844  0.4709 -1.0256  1.5263
 2299SOL    HW218357   2.916   0.735   7.882  0.8818 -0.8157  0.6941
 2300SOL     OW18358   2.687   0.685   8.191  0.5823 -0.1160 -0.5791
 2300SOL    HW118359   2.608   0.642   8.225  0.5005  1.9847  1.9131
 2300SOL    HW218360   2.739   0.606   8.175  0.9933 -0.2749  1.5906
 2301SOL     OW18361   3.718   3.908   1.645 -0.3534 -0.1586 -0.0348
 2301SOL    HW118362   3.624   3.924   1.652  0.2749  2.7547  1.3600
 2301SOL    HW218363   3.725   3.814   1.662  0.9539  0.5129  2.9578
 2302SOL     OW18364   0.816   1.871   8.928 -0.0993  0.9131  0.5053
 2302SOL    HW118365   0.793   1.844   8.839 -3.8459  0.4228  1.6425
 2302SOL    HW218366   0.773   1.956   8.924 -1.3237  0.3501  1.8580
 2303SOL     OW18367   0.176   3.920  16.602 -0.4127  0.3827 -0.5047
 2303SOL    HW118368   0.191   3.967  16.684  0.1321  0.5665 -0.7125
 2303SOL    HW218369   0.089   3.884  16.622 -0.0821 -0.3908 -0.4703
 2304SOL     OW18370   4.373   3.088  17.135  0.1215 -0.5847 -0.0778
 2304SOL    HW118371   4.415   3.139  17.066 -0.9400 -0.8536 -0.9263
 2304SOL    HW218372   4.285   3.091  17.098 -0.1772  0.0274  0.6671
 2305SOL     OW18373   3.614   2.598   3.527  0.4442  0.3362 -0.0223
 2305SOL    HW118374   3.664   2.618   3.606  2.0892 -0.5781 -0.8345
 2305SOL    HW218375   3.619   2.677   3.474 -0.4482 -2.5610 -4.4438
 2306SOL     OW18376   0.374   3.703   9.169  0.7349 -0.1366 -0.1263
 2306SOL    HW118377   0.458   3.676   9.206 -0.5230 -3.1544  0.6136
 2306SOL    HW218378   0.367   3.638   9.098 -1.5155  2.2831 -2.1141
 2307SOL     OW18379   4.716   1.103  11.367 -0.2710 -0.2015 -0.3627
 2307SOL    HW118380   4.676   1.179  11.409  1.2554 -0.1061  0.9086
 2307SOL    HW218381   0.019   1.137  11.280  1.5741 -1.5066 -0.3868
 2308SOL     OW18382   0.606   1.561   4.288  0.4608  0.2594 -0.2035
 2308SOL    HW118383   0.559   1.627   4.238  4.4143  2.7585 -0.6376
 2308SOL    HW218384   0.534   1.525   4.340 -0.0838  0.0231 -1.1391
 2309SOL     OW18385   0.589   1.469   2.139  0.1108  0.0032  0.1083
 2309SOL    HW118386   0.629   1.517   2.067  0.8851  1.4690  1.5108
 2309SOL    HW218387   0.649   1.494   2.210  1.5717 -1.3890 -0.6445
 2310SOL     OW18388   0.338   3.717   1.214  0.7240 -0.0347 -0.0893
 2310SOL    HW118389   0.363   3.631   1.179 -1.8956 -0.8507  0.0990
 2310SOL    HW218390   0.399   3.773   1.166  3.2706 -0.9842  2.0605
 2311SOL     OW18391   4.558   3.099  12.919 -0.1351  0.3292 -0.3878
 2311SOL    HW118392   4.489   3.100  12.985 -0.2670  0.0582 -0.5198
 2311SOL    HW218393   4.565   3.187  12.881 -0.9356  1.1203  1.3092
 2312SOL     OW18394   2.245   4.297   1.817  0.3465 -0.3441 -0.2477
 2312SOL    HW118395   2.294   4.259   1.744 -0.5234 -3.2552  0.7067
 2312SOL    HW218396   2.171   4.330   1.765  1.0564  2.3259  0.3984
 2313SOL     OW18397   1.741   3.704   3.031 -0.0799 -0.8276  0.4280
 2313SOL    HW118398   1.715   3.743   2.948 -0.3321  0.7899  1.2816
 2313SOL    HW218399   1.697   3.762   3.093 -0.3516 -0.7002  0.1156
 2314SOL     OW18400   2.186   4.403   5.646  0.0551  0.3276 -0.0429
 2314SOL    HW118401   2.188   4.318   5.603 -0.0991 -0.6590  1.8806
 2314SOL    HW218402   2.110   4.385   5.702 -0.6481  0.8199 -0.8354
 2315SOL     OW18403   1.549   3.818  17.525  0.1253 -0.2535  0.1831
 2315SOL    HW118404   1.608   3.873  17.472  0.1197  0.6110  1.0737
 2315SOL    HW218405   1.597   3.803  17.607 -2.9945  1.2237  2.2738
 2316SOL     OW18406   1.416   0.135  11.219 -0.0945 -0.2227  0.4839
 2316SOL    HW118407   1.445   0.226  11.210 -1.5546  0.2512  0.6092
 2316SOL    HW218408   1.484   0.084  11.175  1.5049 -1.2218  4.1341
 2317SOL     OW18409   4.475   4.394   1.788 -0.3479 -0.3970 -0.6790
 2317SOL    HW118410   4.495   4.480   1.752  1.0072  0.1311  1.3146
 2317SOL    HW218411   4.393   4.403   1.837  1.1694  0.4458  1.7308
 2318SOL     OW18412   0.536   2.340   7.644 -0.4853  0.2789 -0.4012
 2318SOL    HW118413   0.442   2.355   7.636 -0.4840  1.4794  1.8811
 2318SOL    HW218414   0.564   2.430   7.630  2.1810 -0.5224 -0.2941
 2319SOL     OW18415   0.701   0.737   4.457  0.2694  0.6114 -0.4851
 2319SOL    HW118416   0.758   0.695   4.522  1.4145  1.4629 -0.9418
 2319SOL    HW218417   0.652   0.656   4.442 -1.4623  1.6277 -0.3064
 2320SOL     OW18418   4.165   0.689   4.831 -0.6950  0.7092 -0.4491
 2320SOL    HW118419   4.120   0.605   4.825 -0.4990  0.5706  0.0332
 2320SOL    HW218420   4.164   0.711   4.924  2.1534  0.4468 -0.3611
 2321SOL     OW18421   0.288   3.703   8.619  0.6672  0.6641 -0.1285
 2321SOL    HW118422   0.375   3.666   8.637 -0.5718 -1.6570  1.0433
 2321SOL    HW218423   0.240   3.624   8.594 -1.4538  1.5290  1.2132
 2322SOL     OW18424   0.159   1.582   4.167 -0.4730  0.2936  0.2515
 2322SOL    HW118425   0.124   1.496   4.192  3.1196 -1.2991 -0.2593
 2322SOL    HW218426   0.119   1.636   4.236  0.5382  1.5257 -0.1356
 2323SOL     OW18427   0.106   4.439   2.289  0.0238  0.3654 -0.2293
 2323SOL    HW118428   0.047   4.367   2.269 -0.9561  1.5785 -1.6560
 2323SOL    HW218429   0.099   4.447   2.385 -0.6479  1.3242 -0.3644
 2324SOL     OW18430   0.858   1.233   8.646  0.4462 -0.1849 -0.4124
 2324SOL    HW118431   0.924   1.297   8.618 -0.6643  1.9062  1.6833
 2324SOL    HW218432   0.777   1.284   8.644 -0.5423 -1.7296  0.1712
 2325SOL     OW18433   3.642   2.743   2.820  0.4174 -0.2668 -0.3078
 2325SOL    HW118434   3.575   2.687   2.861  0.6686 -0.7022 -0.4963
 2325SOL    HW218435   3.701   2.674   2.790 -0.4701 -1.2226  0.1273
 2326SOL     OW18436   3.166   0.889  11.137  0.9782 -0.3170 -0.3799
 2326SOL    HW118437   3.130   0.806  11.108  1.8749 -0.8840  0.1026
 2326SOL    HW218438   3.243   0.856  11.184  0.3673 -0.6994  0.3514
 2327SOL     OW18439   4.552   2.430  13.725 -0.4176  0.3902 -0.0453
 2327SOL    HW118440   4.530   2.520  13.701  3.3569  1.3088  0.0370
 2327SOL    HW218441   4.646   2.446  13.725 -0.4339  0.4913 -0.5287
 2328SOL     OW18442   2.442   0.838  15.129  0.4205  0.2885  0.1196
 2328SOL    HW118443   2.356   0.807  15.103  0.4221  0.6449 -0.3062
 2328SOL    HW218444   2.446   0.925  15.090  2.4352  0.2336  0.2067
 2329SOL     OW18445   3.415   1.032   0.305  0.0451  0.8513  0.8409
 2329SOL    HW118446   3.362   0.992   0.374 -0.7043  0.7201  0.1885
 2329SOL    HW218447   3.499   1.030   0.351  0.5063  1.9262  0.0503
 2330SOL     OW18448   2.906   1.852   6.402  0.2333  0.0916  0.4283
 2330SOL    HW118449   2.990   1.897   6.392 -0.4496  2.0178  3.4243
 2330SOL    HW218450   2.866   1.908   6.469 -0.1212 -0.4921  0.7047
 2331SOL     OW18451   0.521   1.138   4.516  0.2062  0.2914  0.0237
 2331SOL    HW118452   0.566   1.140   4.431 -1.3284  0.6090 -0.7777
 2331SOL    HW218453   0.430   1.139   4.488  0.6515 -0.8194 -1.4807
 2332SOL     OW18454   2.212   0.619   9.314  0.2180  0.2275  0.6533
 2332SOL    HW118455   2.298   0.634   9.352  1.0201  0.3803 -1.2425
 2332SOL    HW218456   2.206   0.523   9.320  3.2791 -0.2158 -3.6607
 2333SOL     OW18457   0.758   0.646   5.427 -0.2610 -0.2338 -0.2592
 2333SOL    HW118458   0.815   0.584   5.382  0.1108  0.3203 -0.5431
 2333SOL    HW218459   0.760   0.617   5.518  0.1226 -2.7765 -1.0938
 2334SOL     OW18460   1.871   0.620   2.010  0.8071 -0.7340 -1.0009
 2334SOL    HW118461   1.817   0.579   1.943 -0.6243 -0.3001 -0.1064
 2334SOL    HW218462   1.913   0.551   2.062 -2.2049 -0.7428  1.3866
 2335SOL     OW18463   3.890   4.449  15.825 -0.1677 -0.6166 -0.1299
 2335SOL    HW118464   3.863   4.381  15.887 -1.0889 -1.5914 -1.5932
 2335SOL    HW218465   3.946   4.495  15.886 -1.7453  1.5051 -0.2783
 2336SOL     OW18466   0.923   1.225   3.110 -0.4348 -0.5121  0.1942
 2336SOL    HW118467   0.937   1.318   3.094 -0.1568 -0.8296 -1.3852
 2336SOL    HW218468   0.828   1.216   3.112 -0.4526 -0.6727 -1.5082
 2337SOL     OW18469   3.873   1.821   4.735  0.0727  0.5810  0.5496
 2337SOL    HW118470   3.778   1.822   4.727  0.2564 -0.7929 -1.8208
 2337SOL    HW218471   3.889   1.850   4.825  1.1513  0.7316  0.3038
 2338SOL     OW18472   4.706   3.416   4.610  0.0329 -0.2030  0.0516
 2338SOL    HW118473   4.719   3.358   4.685  0.2408  0.0385  0.2034
 2338SOL    HW218474   4.629   3.467   4.635  1.5404  0.7701  2.7066
 2339SOL     OW18475   0.129   4.296  10.841 -0.0914 -0.2357 -0.1921
 2339SOL    HW118476   0.165   4.303  10.929  1.2447  0.3948 -0.7921
 2339SOL    HW218477   0.035   4.311  10.849 -0.4792 -0.8659 -3.3315
 2340SOL     OW18478   0.968   3.710  12.286 -0.1638  0.0298  0.5120
 2340SOL    HW118479   1.058   3.740  12.299  0.3694 -1.1394 -0.4975
 2340SOL    HW218480   0.985   3.616  12.293 -0.3116  0.1213  2.1689
 2341SOL     OW18481   2.464   1.066   5.262  0.9568 -0.1969  0.3807
 2341SOL    HW118482   2.448   1.159   5.279 -3.9739 -0.5728 -2.1565
 2341SOL    HW218483   2.457   1.067   5.167  2.4851 -0.6808  0.2617
 2342SOL     OW18484   1.017   1.292   4.578  0.0512  0.3063  0.0891
 2342SOL    HW118485   0.995   1.378   4.614 -1.2327 -0.4331  1.0669
 2342SOL    HW218486   0.950   1.234   4.612  1.0815 -1.2662 -0.5654
 2343SOL     OW18487   3.494   2.478   5.373  0.2600  0.0004 -0.0151
 2343SOL    HW118488   3.559   2.543   5.398  0.3311  0.5552 -1.6688
 2343SOL    HW218489   3.539   2.397   5.396 -2.0549 -1.8289 -1.9836
 2344SOL     OW18490   0.838   4.609   3.407  0.6290 -0.0527  0.1517
 2344SOL    HW118491   0.829   4.626   3.501 -0.3258  1.3793 -0.2002
 2344SOL    HW218492   0.824   4.697   3.372 -2.3447 -0.2340  0.9444
 2345SOL     OW18493   1.448   3.670  13.288  0.0000 -0.2501 -0.6439
 2345SOL    HW118494   1.477   3.634  13.372 -2.0564 -0.2186  0.0795
 2345SOL    HW218495   1.384   3.734  13.317 -1.2694 -1.2560 -1.2316
 2346SOL     OW18496   4.623   1.249   5.291  0.1966  0.0524 -0.2739
 2346SOL    HW118497   4.692   1.314   5.306  2.1344 -1.9530 -0.4272
 2346SOL    HW218498   4.665   1.174   5.334  1.3934  1.4666  1.0097
 2347SOL     OW18499   1.473   1.156   3.518  0.0925  0.1280  0.4817
 2347SOL    HW118500   1.451   1.128   3.607  0.0318 -2.7666 -0.4429
 2347SOL    HW218501   1.472   1.252   3.521  2.6086  0.1633 -0.6079
 2348SOL     OW18502   0.656   3.930   1.830 -0.1850  0.4174 -0.2938
 2348SOL    HW118503   0.638   3.848   1.876  1.6097 -0.1275 -0.5527
 2348SOL    HW218504   0.633   3.910   1.739 -0.0482 -1.1301  0.0047
 2349SOL     OW18505   4.064   2.586   4.317 -0.0385  0.0431 -0.3461
 2349SOL    HW118506   3.974   2.557   4.333 -0.3592  1.0717 -0.2395
 2349SOL    HW218507   4.113   2.530   4.378  0.7255  0.6299 -0.4179
 2350SOL     OW18508   1.175   0.169   2.143 -0.6995 -0.0062  0.2858
 2350SOL    HW118509   1.169   0.175   2.048  0.3414 -1.3495  0.1335
 2350SOL    HW218510   1.260   0.125   2.145 -0.6956 -0.0676 -1.2969
 2351SOL     OW18511   0.881   3.857   8.539 -0.4441  0.7008  0.3125
 2351SOL    HW118512   0.927   3.773   8.531  3.8712  3.1378 -0.3917
 2351SOL    HW218513   0.795   3.835   8.503  0.9008  0.5775 -2.8408
 2352SOL     OW18514   4.141   2.361   0.323  0.1167 -0.0057 -0.3582
 2352SOL    HW118515   4.190   2.333   0.246  0.8291 -1.3919  0.6067
 2352SOL    HW218516   4.193   2.434   0.357  0.9120 -0.5232 -0.4855
 2353SOL     OW18517   1.619   1.064   7.597 -0.6220  0.1386  0.4208
 2353SOL    HW118518   1.535   1.103   7.621 -1.5660 -1.4705 -0.2625
 2353SOL    HW218519   1.608   1.068   7.502 -0.8196  1.9695  0.5329
 2354SOL     OW18520   4.162   0.217  16.481  0.1368 -0.1217 -0.2469
 2354SOL    HW118521   4.183   0.307  16.505  2.0492 -0.6867  0.2419
 2354SOL    HW218522   4.178   0.170  16.562 -1.3241 -0.1427  0.0293
 2355SOL     OW18523   3.231   2.523   6.262 -0.0795 -0.1710 -0.6650
 2355SOL    HW118524   3.160   2.481   6.214  0.3174  1.6383 -2.8448
 2355SOL    HW218525   3.184   2.534   6.345  0.9493 -0.8490  0.0143
 2356SOL     OW18526   3.126   4.482   5.933  0.6507  0.0084  0.0242
 2356SOL    HW118527   3.063   4.505   6.001  0.0909  0.5892 -0.6925
 2356SOL    HW218528   3.089   4.397   5.912 -1.7178  0.9137  0.6050
 2357SOL     OW18529   0.528   3.792   0.576 -0.4197 -0.4484 -0.1910
 2357SOL    HW118530   0.497   3.855   0.512  0.6572 -0.5309 -0.7914
 2357SOL    HW218531   0.619   3.821   0.582 -0.7790  0.3869  1.3287
 2358SOL     OW18532   3.839   3.616   9.125  0.3114 -0.7837 -0.0423
 2358SOL    HW118533   3.872   3.567   9.049  3.3093  0.2920  0.5777
 2358SOL    HW218534   3.775   3.677   9.087  0.7183 -0.7252 -0.6296
 2359SOL     OW18535   0.978   1.986  15.257 -0.0636  0.4522  0.4360
 2359SOL    HW118536   0.951   1.999  15.166 -0.0732 -0.1837  0.3466
 2359SOL    HW218537   1.050   2.049  15.257  0.4521 -0.1422  0.9303
 2360SOL     OW18538   3.544   4.052   6.516 -0.0785 -0.2103 -0.9057
 2360SOL    HW118539   3.539   4.140   6.553  3.9973 -0.3847  0.0231
 2360SOL    HW218540   3.558   4.066   6.423  0.0458  2.6935 -0.4483
 2361SOL     OW18541   0.434   1.783   7.291 -0.5922 -0.3911 -0.3186
 2361SOL    HW118542   0.422   1.829   7.374 -1.6433  0.9993 -1.2417
 2361SOL    HW218543   0.377   1.829   7.229  0.1173 -0.2908 -0.8985
 2362SOL     OW18544   3.216   0.942   8.472  0.0699 -0.1277 -0.9866
 2362SOL    HW118545   3.291   0.923   8.527  0.5913  0.0589 -1.6354
 2362SOL    HW218546   3.158   0.994   8.528  1.4881 -0.3352  0.6502
 2363SOL     OW18547   2.978   1.217  15.034 -0.0338 -0.0436  0.2768
 2363SOL    HW118548   3.002   1.195  14.945  2.1189  1.5954  0.4387
 2363SOL    HW218549   3.062   1.247  15.072 -0.2263  1.9707 -0.9001
 2364SOL     OW18550   4.479   4.117   0.774 -0.2939  0.0177 -0.1147
 2364SOL    HW118551   4.408   4.059   0.747  1.2807 -1.4303 -1.0968
 2364SOL    HW218552   4.443   4.201   0.747 -0.0056  0.0432 -0.4193
 2365SOL     OW18553   1.814   1.082   5.949  0.3271 -0.3593  0.0675
 2365SOL    HW118554   1.725   1.049   5.935 -0.8967  3.4053 -1.0772
 2365SOL    HW218555   1.826   1.122   5.863  1.7522  0.9083  0.8547
 2366SOL     OW18556   4.175   0.476  16.554  0.9339 -0.0753 -0.3369
 2366SOL    HW118557   4.178   0.514  16.466 -0.0726  0.3652 -0.1823
 2366SOL    HW218558   4.095   0.521  16.581  1.4840  0.6050  0.1349
 2367SOL     OW18559   0.671   0.684  11.642  0.2546 -0.2417 -0.1795
 2367SOL    HW118560   0.604   0.683  11.574 -0.9017  0.6245  0.9573
 2367SOL    HW218561   0.649   0.605  11.692 -0.0658 -0.7680 -1.1477
 2368SOL     OW18562   0.351   1.272   7.391  0.2459 -0.2509  0.2182
 2368SOL    HW118563   0.364   1.301   7.481 -0.7025 -1.0795  0.6124
 2368SOL    HW218564   0.419   1.207   7.372  1.6226  0.7444  1.7248
 2369SOL     OW18565   1.138   2.738  14.455 -0.2446  0.5764  0.0066
 2369SOL    HW118566   1.212   2.790  14.487  0.5191 -1.6033  1.7413
 2369SOL    HW218567   1.097   2.721  14.539  0.9747  0.0362  0.4847
 2370SOL     OW18568   4.124   1.736   6.255 -0.1118  0.4267 -0.5673
 2370SOL    HW118569   4.045   1.781   6.226 -0.3791 -0.5408 -1.3487
 2370SOL    HW218570   4.148   1.782   6.335  1.8700 -1.5894  0.0177
 2371SOL     OW18571   2.608   3.280   3.449  0.4031  0.1199  0.0754
 2371SOL    HW118572   2.673   3.242   3.390  1.2157  1.0349  0.3759
 2371SOL    HW218573   2.537   3.217   3.436  1.2131 -0.5169 -1.2188
 2372SOL     OW18574   1.925   1.772   3.537 -0.1679 -0.6281 -0.1918
 2372SOL    HW118575   1.997   1.759   3.476 -0.0138  0.3328 -0.2012
 2372SOL    HW218576   1.961   1.845   3.586  0.5413  0.2934 -2.1017
 2373SOL     OW18577   1.895   4.366   3.971  0.0997 -0.8847  0.9660
 2373SOL    HW118578   1.878   4.331   4.058 -2.2138 -1.8558  0.1160
 2373SOL    HW218579   1.867   4.305   3.903 -2.2511  3.2595 -1.8351
 2374SOL     OW18580   3.898   2.442  17.552  0.5811 -0.3684  0.0957
 2374SOL    HW118581   3.958   2.514  17.572  0.3265 -0.1313  0.0058
 2374SOL    HW218582   3.810   2.470  17.579 -0.5028 -1.7110 -2.0334
 2375SOL     OW18583   2.854   3.595  10.148 -0.1154  0.4785 -0.2313
 2375SOL    HW118584   2.831   3.505  10.124 -1.8378  0.2751  2.2132
 2375SOL    HW218585   2.816   3.650  10.080  1.7164 -0.9216 -2.3867
 2376SOL     OW18586   4.357   0.141  11.367  0.3107 -0.8684 -0.1028
 2376SOL    HW118587   4.347   0.119  11.274 -0.2373 -1.5132  0.1107
 2376SOL    HW218588   4.327   0.057  11.400  1.0902 -1.6667 -1.4215
 2377SOL     OW18589   4.695   2.176   3.188 -0.2227 -0.7684  0.2306
 2377SOL    HW118590   0.015   2.089   3.176  0.7841  0.0145 -2.1308
 2377SOL    HW218591   0.016   2.223   3.115 -0.4898 -0.5354  0.2334
 2378SOL     OW18592   0.207   1.187  15.923 -0.4976 -0.0608  0.0814
 2378SOL    HW118593   0.142   1.221  15.985  0.9781 -1.0023  2.1312
 2378SOL    HW218594   0.247   1.123  15.981 -1.2755 -2.5032 -2.0713
 2379SOL     OW18595   4.273   3.236   5.612  0.6217  0.2047 -0.1914
 2379SOL    HW118596   4.314   3.161   5.569 -1.9756 -2.0064  1.2195
 2379SOL    HW218597   4.326   3.247   5.691  0.5711 -0.8763 -0.0079
 2380SOL     OW18598   3.147   1.099   2.767  0.2164  0.1934 -0.0398
 2380SOL    HW118599   3.115   1.184   2.797 -0.3670  0.2243 -0.7159
 2380SOL    HW218600   3.144   1.108   2.671 -0.2670 -0.0178 -0.0436
 2381SOL     OW18601   1.619   2.090   4.202  0.2670 -0.0608  0.4550
 2381SOL    HW118602   1.561   2.018   4.176 -1.3150  0.4742  2.4933
 2381SOL    HW218603   1.673   2.047   4.268  0.1009 -0.0408  0.6045
 2382SOL     OW18604   4.007   2.933  10.124 -0.2103 -0.3461 -0.0324
 2382SOL    HW118605   3.956   2.854  10.106 -0.9071 -0.0337  0.5827
 2382SOL    HW218606   3.970   2.991  10.058  0.4281 -1.6345 -1.5052
 2383SOL     OW18607   3.060   0.643   7.148  0.0948 -0.2469 -0.2721
 2383SOL    HW118608   3.154   0.663   7.145  0.4123 -1.2158  2.8839
 2383SOL    HW218609   3.046   0.632   7.242 -0.0360 -1.0275 -0.3853
 2384SOL     OW18610   0.686   3.604   9.377  0.0559 -0.3113 -0.2207
 2384SOL    HW118611   0.701   3.678   9.319  1.6122 -0.4470 -0.0023
 2384SOL    HW218612   0.641   3.642   9.453  0.8537 -0.3782  0.2870
 2385SOL     OW18613   3.114   0.166   5.737  0.3510  0.5045 -0.0597
 2385SOL    HW118614   3.050   0.128   5.676 -0.4352 -0.7082  1.5183
 2385SOL    HW218615   3.055   0.203   5.803 -0.6246  0.0873 -0.7035
 2386SOL     OW18616   2.365   1.369   8.312 -0.0665 -0.2152 -0.1641
 2386SOL    HW118617   2.284   1.320   8.300 -0.7436  0.7371  0.5492
 2386SOL    HW218618   2.378   1.373   8.406  0.3216  2.5050 -0.3467
 2387SOL     OW18619   2.798   0.579   8.513  0.6332  0.1526 -0.6629
 2387SOL    HW118620   2.850   0.627   8.578  2.6186 -1.3463 -1.1306
 2387SOL    HW218621   2.864   0.519   8.477  1.2515  1.3656 -1.5682
 2388SOL     OW18622   3.609   4.030   2.791  0.0088  0.2666  0.0320
 2388SOL    HW118623   3.605   4.055   2.698 -0.1046 -0.2193 -0.0927
 2388SOL    HW218624   3.514   4.039   2.805 -0.3931 -0.8493 -1.9482
 2389SOL     OW18625   1.308   1.017   0.473 -0.3275 -0.0097  0.4706
 2389SOL    HW118626   1.326   1.044   0.564  0.7112  1.2120 -0.1020
 2389SOL    HW218627   1.363   0.938   0.473 -1.6721 -0.9320  1.1313
 2390SOL     OW18628   0.287   2.977  16.022  0.6930  0.0728  0.1631
 2390SOL    HW118629   0.236   3.050  15.986  1.8999  0.8531  0.0274
 2390SOL    HW218630   0.322   2.930  15.946 -1.4350 -0.1381 -0.6920
 2391SOL     OW18631   0.121   0.519   3.718 -0.2338 -0.0892 -0.1827
 2391SOL    HW118632   0.045   0.569   3.689  0.8349  0.8864 -1.3092
 2391SOL    HW218633   0.117   0.546   3.809 -1.0083  3.9928 -1.4258
 2392SOL     OW18634   2.253   4.163  15.122 -0.1906  0.1441 -0.4631
 2392SOL    HW118635   2.344   4.190  15.132 -0.3584 -0.0104  1.5739
 2392SOL    HW218636   2.257   4.124  15.035  0.4361  0.2008 -0.4571
 2393SOL     OW18637   0.030   4.124   2.297  0.6061 -0.0134  0.0497
 2393SOL    HW118638   4.665   4.153   2.331 -0.6140  0.0795 -3.0770
 2393SOL    HW218639   0.011   4.094   2.208 -0.0273 -0.3868  0.3168
 2394SOL     OW18640   3.527   4.321   6.573 -0.3350  0.1888 -0.7016
 2394SOL    HW118641   3.455   4.367   6.531 -0.1804 -1.2866 -2.5956
 2394SOL    HW218642   3.548   4.385   6.641 -3.1070  0.1671  0.1909
 2395SOL     OW18643   3.401   1.984  14.719 -0.1626  0.2426 -0.2218
 2395SOL    HW118644   3.463   2.030  14.776 -0.8946  0.5035  0.3723
 2395SOL    HW218645   3.457   1.925  14.669  0.1322 -0.7745  1.3123
 2396SOL     OW18646   1.418   1.036   4.992 -0.3044 -0.0383 -0.3861
 2396SOL    HW118647   1.463   1.037   5.076 -2.3118  1.5796  0.6741
 2396SOL    HW218648   1.355   0.968   5.013  0.8586 -1.3267 -1.0788
 2397SOL     OW18649   3.062   1.984  14.792 -1.1329  0.1472 -0.1294
 2397SOL    HW118650   3.126   1.913  14.803 -2.3866 -0.7382  1.5075
 2397SOL    HW218651   3.049   2.004  14.885  0.6519  2.4171 -0.3609
 2398SOL     OW18652   3.365   2.125  16.273 -0.1869 -0.6529  0.4058
 2398SOL    HW118653   3.284   2.164  16.306  2.5327  0.9766  5.1080
 2398SOL    HW218654   3.364   2.037  16.310 -0.8607 -1.1074 -0.6770
 2399SOL     OW18655   3.697   0.650   3.407 -0.5953  0.3107 -0.0881
 2399SOL    HW118656   3.767   0.599   3.447 -1.0855  0.5703  1.1228
 2399SOL    HW218657   3.760   0.719   3.388 -1.5968  1.5047  0.8957
 2400SOL     OW18658   1.089   0.752   5.260  0.1063 -0.0946 -0.6758
 2400SOL    HW118659   1.059   0.662   5.273 -2.4185  0.7344 -0.7972
 2400SOL    HW218660   1.082   0.793   5.346  1.5225 -2.4613  0.5589
 2401SOL     OW18661   0.117   0.077   5.562  0.7327 -0.2220  0.4482
 2401SOL    HW118662   0.126   0.165   5.599  0.6916  0.5311 -1.2943
 2401SOL    HW218663   0.128   0.017   5.636 -1.3785 -2.6332 -1.1936
 2402SOL     OW18664   1.723   3.367   6.537 -0.7824  0.1303 -0.4638
 2402SOL    HW118665   1.663   3.315   6.591  0.5811  0.7136  1.5846
 2402SOL    HW218666   1.671   3.397   6.462 -1.6301 -0.8348 -0.2729
 2403SOL     OW18667   4.019   4.042   6.645  0.7438  0.4129  0.1385
 2403SOL    HW118668   3.933   4.078   6.668 -0.4027 -0.1979 -3.0885
 2403SOL    HW218669   4.076   4.106   6.686 -3.1538  2.1000  2.9998
 2404SOL     OW18670   3.172   1.182   0.246 -0.5524  0.6155  0.2032
 2404SOL    HW118671   3.223   1.252   0.287  1.0810 -0.2163 -0.3763
 2404SOL    HW218672   3.236   1.111   0.239 -0.6889  0.6516 -1.6095
 2405SOL     OW18673   3.600   2.804   6.638 -0.7170 -0.0983 -0.4017
 2405SOL    HW118674   3.621   2.752   6.716  1.4236 -2.4739 -2.5483
 2405SOL    HW218675   3.683   2.847   6.616 -0.3102 -0.6493  0.0397
 2406SOL     OW18676   3.045   3.571  11.004  0.2865  0.1651  0.3046
 2406SOL    HW118677   3.109   3.609  11.064  1.1596  2.4121 -2.0209
 2406SOL    HW218678   2.967   3.591  11.054  0.7762  1.2224  0.6381
 2407SOL     OW18679   1.770   2.884   8.962 -1.0164  0.0159  0.0136
 2407SOL    HW118680   1.770   2.868   9.057  0.5107 -3.5707 -0.5957
 2407SOL    HW218681   1.826   2.811   8.937  0.8211  1.3060  0.3236
 2408SOL     OW18682   3.332   1.851  16.330  0.2433 -0.5363 -0.4715
 2408SOL    HW118683   3.327   1.758  16.307 -0.7382 -0.3589 -0.9953
 2408SOL    HW218684   3.376   1.851  16.414  1.1393  2.5722 -0.9374
 2409SOL     OW18685   1.938   1.299   7.646 -0.3251 -0.3497 -0.5372
 2409SOL    HW118686   1.976   1.381   7.677  2.3570 -1.8154  0.0417
 2409SOL    HW218687   1.861   1.311   7.702  0.1653 -0.9016  0.2344
 2410SOL     OW18688   1.540   3.453   6.371 -0.1304 -0.3446  0.4081
 2410SOL    HW118689   1.450   3.469   6.399  0.1920  0.1104  1.1908
 2410SOL    HW218690   1.561   3.530   6.319  1.2151  0.9038  2.8142
 2411SOL     OW18691   2.719   3.403   2.021  0.2746  0.1362  0.6788
 2411SOL    HW118692   2.759   3.368   2.101 -0.9722 -0.9978  0.8109
 2411SOL    HW218693   2.716   3.494   2.048 -0.7847 -0.2773  1.9727
 2412SOL     OW18694   1.191   2.637   2.070 -0.2241 -0.2209  0.4565
 2412SOL    HW118695   1.237   2.554   2.081 -2.4250 -1.4645  0.2443
 2412SOL    HW218696   1.106   2.596   2.053 -0.3584  0.0382  0.4982
 2413SOL     OW18697   4.461   3.632   4.263 -0.1008 -0.4211  0.3566
 2413SOL    HW118698   4.522   3.701   4.236  2.4128 -3.4252 -1.6600
 2413SOL    HW218699   4.522   3.585   4.320  0.1961  1.3177  1.4923
 2414SOL     OW18700   2.340   1.558   6.177 -0.1440  0.1366 -0.0568
 2414SOL    HW118701   2.278   1.493   6.146  1.5026 -1.3315 -0.2941
 2414SOL    HW218702   2.308   1.636   6.131  1.6677  1.5601  1.0594
 2415SOL     OW18703   0.451   2.763   6.324 -0.1220 -0.2841  0.0973
 2415SOL    HW118704   0.365   2.806   6.328  0.3280  0.6042  0.1235
 2415SOL    HW218705   0.426   2.673   6.304 -1.7767  0.2016 -0.0931
 2416SOL     OW18706   4.438   1.876   2.604  0.6595  0.2036 -0.2162
 2416SOL    HW118707   4.516   1.821   2.596  0.0066 -1.0631  2.2082
 2416SOL    HW218708   4.407   1.856   2.692  0.3330 -0.0116 -0.3784
 2417SOL     OW18709   1.531   0.143   5.882  0.4509 -0.0041  0.0382
 2417SOL    HW118710   1.559   0.166   5.794  1.2521 -0.9419  0.0428
 2417SOL    HW218711   1.442   0.111   5.868  1.2501 -2.2446  0.0007
 2418SOL     OW18712   0.819   2.811   3.780  0.1560 -0.2643  0.0822
 2418SOL    HW118713   0.872   2.883   3.745 -0.6558  1.1733  1.8327
 2418SOL    HW218714   0.803   2.857   3.862 -2.0207 -0.8243 -0.0415
 2419SOL     OW18715   4.424   2.671   0.960 -0.5343  0.1425 -0.8525
 2419SOL    HW118716   4.414   2.640   1.050 -1.0992  2.0180 -0.2715
 2419SOL    HW218717   4.335   2.653   0.931 -0.2061 -3.0106  0.0809
 2420SOL     OW18718   0.831   0.558  10.115 -0.3215 -0.0221  0.4607
 2420SOL    HW118719   0.874   0.474  10.102 -0.8751 -0.3824  0.9532
 2420SOL    HW218720   0.745   0.545  10.157 -0.3095  1.7011  1.0581
 2421SOL     OW18721   3.156   2.219   5.887 -0.1540  0.5193 -0.5920
 2421SOL    HW118722   3.221   2.280   5.922  0.0820  0.1547 -0.4048
 2421SOL    HW218723   3.098   2.279   5.839  3.1033  2.4374 -2.1327
 2422SOL     OW18724   0.026   2.741   6.833  0.0414  0.3052  0.0754
 2422SOL    HW118725   4.661   2.697   6.838  0.6277 -0.9967 -1.5236
 2422SOL    HW218726   0.071   2.683   6.771  0.1568  1.6080 -1.0511
 2423SOL     OW18727   4.079   3.942   4.776 -0.3352 -0.2765  0.5720
 2423SOL    HW118728   4.129   3.996   4.715 -0.1994  0.9525  1.7909
 2423SOL    HW218729   4.074   3.990   4.859 -1.2106 -1.5813  1.2751
 2424SOL     OW18730   1.273   2.417   1.664  0.0030 -0.1758 -0.6260
 2424SOL    HW118731   1.295   2.393   1.754  2.3011 -0.0321 -1.1537
 2424SOL    HW218732   1.221   2.337   1.652 -0.1647 -0.0866 -0.4971
 2425SOL     OW18733   4.663   1.761  13.473  0.1519  0.0427  0.0500
 2425SOL    HW118734   4.698   1.849  13.464  3.0104 -0.9519  1.2686
 2425SOL    HW218735   4.611   1.751  13.393 -0.7277  0.4037  0.5877
 2426SOL     OW18736   3.292   2.623  12.412 -0.4198  0.2655  0.1342
 2426SOL    HW118737   3.216   2.568  12.396 -0.6164  0.8215 -0.8373
 2426SOL    HW218738   3.292   2.666  12.326 -0.0985  2.6812  1.3272
 2427SOL     OW18739   1.201   0.589   5.610 -0.0081 -0.2517  0.3153
 2427SOL    HW118740   1.134   0.655   5.591 -0.9508 -1.2023  0.3062
 2427SOL    HW218741   1.282   0.640   5.608 -0.1810 -0.0826 -2.2469
 2428SOL     OW18742   0.936   3.939   4.185 -0.0310 -0.3266 -0.0454
 2428SOL    HW118743   0.849   3.901   4.177 -0.9789  2.0854 -1.4272
 2428SOL    HW218744   0.985   3.876   4.132  2.0761  0.5431  0.8926
 2429SOL     OW18745   3.594   4.679   5.880 -0.0856 -0.0324 -0.2749
 2429SOL    HW118746   3.547   4.658   5.799  3.3234 -0.7840 -2.0475
 2429SOL    HW218747   3.517   4.661   5.934  0.6060 -1.5119  0.2293
 2430SOL     OW18748   0.064   1.958   7.756 -0.0618  0.0012  0.4611
 2430SOL    HW118749   4.716   1.970   7.823  0.2346  0.0789  0.7458
 2430SOL    HW218750   0.033   1.885   7.703  0.1689 -0.3101  0.7569
 2431SOL     OW18751   0.174   3.143  12.379  0.1758 -0.1086 -0.4419
 2431SOL    HW118752   0.155   3.103  12.463  0.5188 -0.1218 -0.3733
 2431SOL    HW218753   0.262   3.107  12.372  0.4211  0.6963 -1.6781
 2432SOL     OW18754   1.958   2.449   2.386 -0.4611 -0.5231 -0.2893
 2432SOL    HW118755   1.930   2.492   2.306 -0.7744  3.6145  2.0452
 2432SOL    HW218756   2.041   2.415   2.354 -0.4210  1.0600 -1.8383
 2433SOL     OW18757   0.381   4.353  10.724 -0.0374  0.1814 -0.2792
 2433SOL    HW118758   0.368   4.430  10.668  1.8557 -0.6826 -1.8915
 2433SOL    HW218759   0.304   4.360  10.780 -0.0017  1.0644 -0.3380
 2434SOL     OW18760   2.938   4.097   6.977 -0.2969 -0.2974  0.2417
 2434SOL    HW118761   2.967   4.024   6.922  0.9571  1.0708 -0.9239
 2434SOL    HW218762   2.854   4.064   7.008  1.0328 -2.7534  1.2092
 2435SOL     OW18763   1.108   0.044   9.516 -0.1893  0.5269 -0.0726
 2435SOL    HW118764   1.067   4.702   9.577  2.0659  1.1844  2.1202
 2435SOL    HW218765   1.105   0.124   9.569 -0.5522 -0.8997  2.0627
 2436SOL     OW18766   1.407   2.406   8.129  0.0998  1.0632 -0.2759
 2436SOL    HW118767   1.399   2.352   8.050  0.6999 -1.8248  1.6509
 2436SOL    HW218768   1.496   2.390   8.158 -0.4446 -2.1851 -0.3529
 2437SOL     OW18769   1.000   3.580   9.475 -0.0039 -0.0230 -0.6830
 2437SOL    HW118770   0.973   3.621   9.558 -1.7630 -2.1347 -0.2138
 2437SOL    HW218771   0.949   3.501   9.459  0.0461 -0.2137  0.1025
 2438SOL     OW18772   0.365   4.061  17.100  0.0757  1.0342  0.4389
 2438SOL    HW118773   0.361   4.065  17.196  0.4441  1.1515  0.4504
 2438SOL    HW218774   0.440   4.004  17.088 -0.6152  0.1678  0.2498
 2439SOL     OW18775   0.025   0.350   0.778 -0.3182  0.0357 -0.4987
 2439SOL    HW118776   4.695   0.319   0.854 -1.5198  0.1457 -1.2424
 2439SOL    HW218777   4.676   0.353   0.712  0.4448  1.9776 -1.2040
 2440SOL     OW18778   2.596   4.074  13.902  0.5709 -0.0364  0.4762
 2440SOL    HW118779   2.614   4.167  13.885 -0.2580 -0.0118 -0.3069
 2440SOL    HW218780   2.539   4.058  13.826  0.2915 -0.6163  0.8128
 2441SOL     OW18781   4.636   0.609  11.983 -0.6218  0.2305 -0.1642
 2441SOL    HW118782   4.617   0.703  11.984 -2.2508 -0.1150  0.2019
 2441SOL    HW218783   4.643   0.602  11.888 -2.1183 -0.2636 -0.2353
 2442SOL     OW18784   4.551   3.853   3.069  0.2430  0.3797  0.2988
 2442SOL    HW118785   4.527   3.941   3.038  0.3436  1.1435  2.3964
 2442SOL    HW218786   4.554   3.874   3.163 -1.6010  2.1462 -0.0218
 2443SOL     OW18787   2.907   1.278   1.891 -0.2379 -0.4726 -0.0048
 2443SOL    HW118788   2.951   1.354   1.927 -1.0641  0.1929 -0.3925
 2443SOL    HW218789   2.884   1.233   1.973 -1.5318 -0.1962 -0.2108
 2444SOL     OW18790   4.327   4.289   3.767 -0.7316  0.7412 -0.1268
 2444SOL    HW118791   4.327   4.234   3.689  1.1977  0.6014 -0.0437
 2444SOL    HW218792   4.269   4.245   3.830  2.2299  0.1911  2.2520
 2445SOL     OW18793   3.899   2.075   4.126  0.6558  0.0112  0.2112
 2445SOL    HW118794   3.852   2.157   4.141  0.6656 -0.0160  0.3812
 2445SOL    HW218795   3.958   2.098   4.054  0.0477  1.7639  0.2720
 2446SOL     OW18796   0.632   3.944  10.206  0.2808 -0.1486  0.3045
 2446SOL    HW118797   0.560   3.966  10.265  0.7714 -1.2892  1.3310
 2446SOL    HW218798   0.655   3.860  10.247  1.1025  0.1005  0.3688
 2447SOL     OW18799   0.640   3.751   5.554  0.2870  0.3206  0.5862
 2447SOL    HW118800   0.673   3.782   5.470 -5.4470  1.1058 -1.3394
 2447SOL    HW218801   0.643   3.829   5.609  0.5747  0.1705  0.7851
 2448SOL     OW18802   4.549   0.755   3.064  0.4631  0.1109  0.2629
 2448SOL    HW118803   4.568   0.848   3.053  0.2819  0.1083 -0.0874
 2448SOL    HW218804   4.628   0.710   3.035  1.0291  0.9252  0.5235
 2449SOL     OW18805   3.288   0.494  12.122 -0.8929 -0.2501  0.8600
 2449SOL    HW118806   3.277   0.432  12.050  0.3285  1.6079 -0.9303
 2449SOL    HW218807   3.265   0.430  12.191  2.4973 -0.4596  1.7973
 2450SOL     OW18808   2.059   4.025   5.189 -0.4764  0.0703 -0.3301
 2450SOL    HW118809   2.101   4.090   5.132  2.2197 -0.0615  1.4838
 2450SOL    HW218810   2.125   3.959   5.212 -0.0152  0.6008 -0.1255
 2451SOL     OW18811   3.190   2.178   1.938  0.1311  0.7500 -0.4338
 2451SOL    HW118812   3.220   2.226   2.015  0.7914  0.3349 -0.4300
 2451SOL    HW218813   3.185   2.247   1.873 -1.3375  1.0569  0.0157
 2452SOL     OW18814   2.947   2.448   2.975 -0.4837 -0.3789  0.4986
 2452SOL    HW118815   2.986   2.535   2.984  0.6228 -0.7911 -0.3572
 2452SOL    HW218816   2.870   2.470   3.028  0.8325  0.3933  2.0639
 2453SOL     OW18817   0.964   0.885  16.607 -0.4144  0.3074  0.0886
 2453SOL    HW118818   0.984   0.832  16.684  1.6332  0.1846 -0.5356
 2453SOL    HW218819   1.037   0.862  16.549 -0.2381 -1.4330  1.0146
 2454SOL     OW18820   3.356   0.975   6.788  0.1746  0.0484  0.7827
 2454SOL    HW118821   3.316   0.914   6.726 -1.2603  2.7157 -0.9243
 2454SOL    HW218822   3.305   0.958   6.867  0.2090 -1.8075  0.4151
 2455SOL     OW18823   1.210   0.357  16.719  0.1657  0.2544  0.2814
 2455SOL    HW118824   1.165   0.401  16.647 -1.8634 -4.1429 -1.1838
 2455SOL    HW218825   1.136   0.330  16.774 -1.2966  2.8666 -0.4247
 2456SOL     OW18826   1.068   0.513   8.879  0.4280 -0.8622 -0.6129
 2456SOL    HW118827   1.096   0.599   8.913 -0.9657 -0.3339 -0.7932
 2456SOL    HW218828   1.109   0.450   8.939 -0.0980  0.9025  1.6429
 2457SOL     OW18829   3.154   4.350   7.194 -0.2259 -0.6322 -0.2143
 2457SOL    HW118830   3.195   4.432   7.165  2.4148 -1.8752 -0.0230
 2457SOL    HW218831   3.228   4.292   7.177  0.1837  0.3784 -1.8519
 2458SOL     OW18832   3.505   2.490  12.172 -0.5399 -0.3047 -0.3232
 2458SOL    HW118833   3.428   2.524  12.128  0.1004 -1.5046 -2.3398
 2458SOL    HW218834   3.525   2.407  12.129  1.8182 -0.1974  0.5377
 2459SOL     OW18835   3.369   3.421   9.337 -0.5995  0.4309  0.6863
 2459SOL    HW118836   3.328   3.389   9.417  0.9035 -1.6037  0.6484
 2459SOL    HW218837   3.299   3.404   9.273 -0.9510 -2.7374  1.9108
 2460SOL     OW18838   4.403   3.778   2.401 -0.4210  0.3270 -0.0751
 2460SOL    HW118839   4.347   3.799   2.476  1.2016 -0.5584  1.4028
 2460SOL    HW218840   4.384   3.684   2.398 -2.0073  0.6889 -1.1014
 2461SOL     OW18841   3.399   4.247  10.870 -0.2614 -0.0040  0.3187
 2461SOL    HW118842   3.320   4.195  10.887 -1.0080  1.3260  0.9199
 2461SOL    HW218843   3.357   4.329  10.841  1.2047 -0.7353 -3.8906
 2462SOL     OW18844   2.625   4.510   8.743 -0.1855  0.1892 -0.2537
 2462SOL    HW118845   2.545   4.459   8.756 -0.7628  1.4741  1.1632
 2462SOL    HW218846   2.623   4.516   8.648  0.8333 -0.3255 -0.3091
 2463SOL     OW18847   2.930   1.827   8.530  0.4118 -0.3857  0.4648
 2463SOL    HW118848   2.850   1.875   8.508 -0.3850 -2.4710 -1.1873
 2463SOL    HW218849   2.990   1.860   8.463  1.1399  1.0620  1.8308
 2464SOL     OW18850   4.488   3.859  10.179 -0.3920  0.0462 -0.4055
 2464SOL    HW118851   4.538   3.928  10.135 -2.4583  1.5426 -0.3953
 2464SOL    HW218852   4.441   3.908  10.246 -2.9438 -3.0848  0.1348
 2465SOL     OW18853   0.964   0.679   2.482  0.0097  0.5426 -0.2621
 2465SOL    HW118854   1.006   0.756   2.444  1.0898 -0.0283 -0.2275
 2465SOL    HW218855   0.933   0.652   2.395 -1.0232  0.8076  0.0180
 2466SOL     OW18856   1.748   1.754   0.844  0.0885 -0.0794 -0.3583
 2466SOL    HW118857   1.731   1.745   0.937  1.7265  1.7063  0.1148
 2466SOL    HW218858   1.824   1.697   0.836  1.2975  1.5772 -0.5999
 2467SOL     OW18859   0.483   0.389   6.017 -0.6537  0.2049 -0.1192
 2467SOL    HW118860   0.415   0.345   5.965 -0.0518  0.1640 -0.8833
 2467SOL    HW218861   0.445   0.426   6.096  0.3547  0.3340  0.3042
 2468SOL     OW18862   4.665   2.581   3.518 -0.0812  0.2832  0.0212
 2468SOL    HW118863   0.017   2.562   3.458 -0.6684 -0.7406 -0.3534
 2468SOL    HW218864   4.693   2.648   3.580  1.5055 -0.4719  0.1191
 2469SOL     OW18865   0.857   1.406   6.120 -0.5265 -0.1955 -0.2931
 2469SOL    HW118866   0.927   1.387   6.182 -0.3671  3.2303  0.5998
 2469SOL    HW218867   0.797   1.343   6.160 -3.3854  2.8477  0.2159
 2470SOL     OW18868   4.091   0.557   1.744 -0.0479  0.5901  0.6647
 2470SOL    HW118869   4.094   0.507   1.663  1.2841  0.2311  0.9287
 2470SOL    HW218870   4.181   0.586   1.759 -0.1936  1.7025 -0.6073
 2471SOL     OW18871   2.511   0.684  12.770  0.2479 -0.1500  0.4010
 2471SOL    HW118872   2.541   0.751  12.709 -0.6365 -0.5432 -0.4471
 2471SOL    HW218873   2.457   0.727  12.836  0.1272 -0.2426  0.3637
 2472SOL     OW18874   3.597   0.939  13.108 -0.2506  0.1522 -0.1127
 2472SOL    HW118875   3.607   0.940  13.204  0.7567  0.1459 -0.2160
 2472SOL    HW218876   3.533   0.868  13.106 -0.0383 -0.0406 -0.0631
 2473SOL     OW18877   0.689   1.042   0.154 -0.0778  0.1899  0.3009
 2473SOL    HW118878   0.745   0.974   0.190  0.1099 -0.5566 -1.4097
 2473SOL    HW218879   0.639   1.061   0.234 -2.2313 -1.0427 -0.7355
 2474SOL     OW18880   0.291   3.821   2.308  0.0912 -0.4759  0.2778
 2474SOL    HW118881   0.346   3.743   2.309 -2.3975 -2.2514 -0.3102
 2474SOL    HW218882   0.321   3.847   2.221  0.8798  0.4436  0.8199
 2475SOL     OW18883   2.425   1.756   4.027 -0.3581 -0.3352  0.4558
 2475SOL    HW118884   2.511   1.798   4.025  0.4145 -1.9316 -0.3894
 2475SOL    HW218885   2.437   1.690   3.959  1.3816  0.0909  0.3452
 2476SOL     OW18886   1.598   1.137   7.301 -0.2853 -0.6761  0.0896
 2476SOL    HW118887   1.652   1.214   7.317  1.6259 -1.9084 -0.3897
 2476SOL    HW218888   1.532   1.187   7.253  1.4301 -0.9479 -2.5652
 2477SOL     OW18889   2.757   2.417   1.683  0.3945 -0.3933  0.0980
 2477SOL    HW118890   2.686   2.457   1.633 -0.4063 -0.5797  1.0819
 2477SOL    HW218891   2.817   2.381   1.618  1.6603 -3.4574  2.9742
 2478SOL     OW18892   1.982   2.960  10.737 -0.8690 -0.1771 -0.0603
 2478SOL    HW118893   2.039   2.933  10.665 -0.6712 -0.5854  0.2492
 2478SOL    HW218894   2.032   3.036  10.765 -1.1152 -0.4720  1.1870
 2479SOL     OW18895   0.461   2.892   3.211  0.0185 -0.6427 -0.9736
 2479SOL    HW118896   0.432   2.954   3.277  0.1096 -2.7121  1.0317
 2479SOL    HW218897   0.551   2.918   3.191  0.0725 -1.0432 -1.2518
 2480SOL     OW18898   1.926   1.245   4.787 -0.3269 -0.0914 -0.0701
 2480SOL    HW118899   1.946   1.151   4.794 -2.0160 -0.3622  1.4369
 2480SOL    HW218900   1.847   1.242   4.732  0.3223 -0.6144 -0.9591
 2481SOL     OW18901   2.035   3.736   7.528  0.3800  0.1099  0.5430
 2481SOL    HW118902   1.999   3.806   7.473  0.8148 -0.6539 -0.7032
 2481SOL    HW218903   1.977   3.748   7.603  0.2631  0.6389  0.3700
 2482SOL     OW18904   4.628   3.780  13.665 -0.8929 -0.1518  0.6064
 2482SOL    HW118905   4.549   3.819  13.627 -0.1693  0.8948  0.1590
 2482SOL    HW218906   4.595   3.749  13.749  0.7160 -1.7194  0.6481
 2483SOL     OW18907   3.426   1.447   8.649 -0.7213  0.2158 -0.1879
 2483SOL    HW118908   3.335   1.457   8.678  0.7741 -0.4634  4.8755
 2483SOL    HW218909   3.460   1.518   8.704 -1.6178  0.1444  0.4652
 2484SOL     OW18910   4.570   2.379  15.989 -0.2479  0.0801  0.2993
 2484SOL    HW118911   4.496   2.419  15.944  1.0640 -1.4916 -3.2648
 2484SOL    HW218912   4.642   2.373  15.927 -3.9621 -0.1998 -3.9745
 2485SOL     OW18913   1.717   1.662   4.538  0.3393  0.1891 -0.1227
 2485SOL    HW118914   1.648   1.649   4.603 -0.9167  1.3975 -1.2128
 2485SOL    HW218915   1.775   1.723   4.584  0.3499  0.5602 -0.6240
 2486SOL     OW18916   4.498   1.919   8.194  0.0992 -0.2431 -0.7559
 2486SOL    HW118917   4.514   1.897   8.286 -1.6325 -0.3387 -0.4751
 2486SOL    HW218918   4.407   1.891   8.189 -0.3568  0.6634  1.8932
 2487SOL     OW18919   4.270   1.921   2.398  0.1816  0.0994  0.5572
 2487SOL    HW118920   4.307   1.879   2.476 -1.3737 -2.5949 -0.1364
 2487SOL    HW218921   4.336   1.987   2.378 -0.5813  0.1732 -1.6724
 2488SOL     OW18922   1.299   3.497   7.001  0.4385  0.4043 -0.1283
 2488SOL    HW118923   1.248   3.452   6.934  0.7672  1.1431 -0.8843
 2488SOL    HW218924   1.335   3.418   7.040  2.2349 -0.3442 -3.2734
 2489SOL     OW18925   0.666   0.997   4.967 -0.1335  0.0194  0.8288
 2489SOL    HW118926   0.586   1.045   4.947  0.1639 -0.3774 -1.3424
 2489SOL    HW218927   0.689   1.023   5.056  2.0414  0.5300  0.1138
 2490SOL     OW18928   0.974   3.089  12.038 -0.3481 -0.5582  0.0009
 2490SOL    HW118929   0.959   3.031  11.962 -1.8527 -0.9533  0.5949
 2490SOL    HW218930   1.053   3.136  12.011 -0.6731 -0.8397 -1.4483
 2491SOL     OW18931   4.586   1.210  14.054 -0.0419  0.3751 -0.0753
 2491SOL    HW118932   4.647   1.280  14.033  1.2346  0.1014  2.7395
 2491SOL    HW218933   4.645   1.136  14.066 -2.5193 -1.2944  1.7447
 2492SOL     OW18934   1.392   4.613   4.596  0.1050  0.7594  0.3586
 2492SOL    HW118935   1.405   4.694   4.646  0.8715 -0.1416  1.6241
 2492SOL    HW218936   1.482   4.579   4.593 -0.0277  0.5478 -1.2249
 2493SOL     OW18937   2.534   1.449   8.109 -0.5950  0.7621  0.4669
 2493SOL    HW118938   2.485   1.443   8.191  2.1824 -2.0981  1.9127
 2493SOL    HW218939   2.513   1.360   8.081 -1.5684  0.7900  1.1163
 2494SOL     OW18940   2.989   4.017  12.821 -0.0223 -0.5299  0.3358
 2494SOL    HW118941   2.964   3.969  12.901 -1.9639  0.3333  0.2417
 2494SOL    HW218942   3.013   3.945  12.764 -0.1718  1.4143 -2.1549
 2495SOL     OW18943   1.436   4.134  16.048  0.3493  0.2427 -0.0971
 2495SOL    HW118944   1.475   4.110  16.132  0.9940  0.4432 -0.3420
 2495SOL    HW218945   1.347   4.164  16.068 -0.4441 -1.2256 -1.4710
 2496SOL     OW18946   3.306   1.439   0.357 -0.2345  0.9421 -0.2532
 2496SOL    HW118947   3.243   1.446   0.429  2.0269  1.1372  1.7300
 2496SOL    HW218948   3.361   1.512   0.388  0.8949  0.1296 -0.3158
 2497SOL     OW18949   0.777   1.699   6.862  0.8850 -0.0918 -0.0967
 2497SOL    HW118950   0.809   1.775   6.814  0.4782 -0.4631 -0.9543
 2497SOL    HW218951   0.727   1.655   6.794 -2.1548 -1.9078  3.3079
 2498SOL     OW18952   2.079   2.663  16.697 -0.4256  0.1395 -0.1323
 2498SOL    HW118953   2.118   2.612  16.768  0.2995  1.7121  0.6062
 2498SOL    HW218954   2.015   2.714  16.747  1.5482  1.7408  0.7821
 2499SOL     OW18955   4.538   4.562  16.139  0.0137  0.0134  0.6603
 2499SOL    HW118956   4.625   4.580  16.103 -0.7422 -2.9612 -2.7165
 2499SOL    HW218957   4.553   4.491  16.200 -1.1238 -0.2055  0.6955
 2500SOL     OW18958   2.973   1.883   5.227 -0.5330 -0.3690 -0.3687
 2500SOL    HW118959   2.879   1.894   5.213 -0.6891  0.5015  1.4531
 2500SOL    HW218960   2.973   1.802   5.175 -0.7266  0.1453 -1.1743
 2501SOL     OW18961   0.776   2.043   0.911 -0.0417  0.1934 -0.8647
 2501SOL    HW118962   0.796   2.122   0.860  1.3748  1.2593  1.3393
 2501SOL    HW218963   0.825   2.086   0.981  3.9921  0.3221 -3.7993
 2502SOL     OW18964   2.324   2.918   2.006  0.0299  0.2524 -0.6660
 2502SOL    HW118965   2.265   2.845   2.024 -0.6419  1.6573  2.7138
 2502SOL    HW218966   2.325   2.904   1.911  1.3354  0.9471 -0.7411
 2503SOL     OW18967   3.245   0.812   6.591 -0.2626 -1.0538 -0.2344
 2503SOL    HW118968   3.192   0.856   6.524  3.4876  1.1677 -1.7213
 2503SOL    HW218969   3.300   0.753   6.539 -0.2370 -1.9627  0.8464
 2504SOL     OW18970   3.124   3.320   8.140  0.0589 -0.3394 -0.1019
 2504SOL    HW118971   3.041   3.336   8.184  0.1656  0.8176 -0.3171
 2504SOL    HW218972   3.101   3.342   8.050  1.5889  0.2954 -0.3462
 2505SOL     OW18973   0.376   2.442   4.378  0.1974 -0.4104  0.1257
 2505SOL    HW118974   0.443   2.494   4.422 -0.4971  0.4140  0.2232
 2505SOL    HW218975   0.320   2.506   4.334 -0.6316 -0.8972  0.4724
 2506SOL     OW18976   3.180   4.522   7.569  0.0253  0.4616 -0.5822
 2506SOL    HW118977   3.162   4.503   7.477  0.3465 -0.2865 -0.4919
 2506SOL    HW218978   3.139   4.444   7.606  1.5855  0.1319  0.4949
 2507SOL     OW18979   2.552   3.655   8.541  0.1006 -0.2767 -0.0206
 2507SOL    HW118980   2.481   3.717   8.523  1.3371  0.2320 -3.2310
 2507SOL    HW218981   2.513   3.570   8.561  0.3311 -0.1580  0.9478
 2508SOL     OW18982   1.665   2.326  15.040  0.0306  0.3591  0.0654
 2508SOL    HW118983   1.756   2.354  15.035 -0.2164  0.8832 -1.4191
 2508SOL    HW218984   1.625   2.408  15.012 -2.4217 -1.7062 -2.3939
 2509SOL     OW18985   0.285   2.181   2.384  0.0951  0.5259 -0.4191
 2509SOL    HW118986   0.210   2.124   2.367 -1.3560  2.2542  0.0666
 2509SOL    HW218987   0.244   2.267   2.392  2.3471  1.4069  1.8086
 2510SOL     OW18988   0.962   0.525   1.489  0.1895  0.0587  0.4584
 2510SOL    HW118989   0.938   0.618   1.498  0.2911  0.1098  0.2079
 2510SOL    HW218990   1.032   0.523   1.424  0.7642  0.2659  1.0756
 2511SOL     OW18991   1.838   0.719  14.676  0.3217 -0.1072 -0.0428
 2511SOL    HW118992   1.780   0.785  14.713  1.8921 -0.1382  2.4253
 2511SOL    HW218993   1.923   0.745  14.711  0.3875 -0.6085  0.1759
 2512SOL     OW18994   1.230   0.558   4.031 -0.1136 -0.2093  0.2374
 2512SOL    HW118995   1.153   0.587   4.080  0.7133  0.4861  1.1152
 2512SOL    HW218996   1.191   0.492   3.973  0.0119  0.5088 -0.6643
 2513SOL     OW18997   3.960   3.725   9.579  0.2118  0.6791  0.2107
 2513SOL    HW118998   4.051   3.695   9.585  0.4149  0.8734 -1.9990
 2513SOL    HW218999   3.934   3.704   9.668  0.6595 -0.9424 -0.0470
 2514SOL     OW19000   0.967   2.807   8.829 -0.2862  0.7667 -0.2147
 2514SOL    HW119001   1.023   2.751   8.882  0.9713  2.0703 -0.1758
 2514SOL    HW219002   0.905   2.846   8.891 -2.2346 -2.9871  0.1737
 2515SOL     OW19003   3.900   0.442   5.639 -0.0852 -0.0270 -0.0912
 2515SOL    HW119004   3.814   0.429   5.679 -0.7294 -0.0722 -1.4765
 2515SOL    HW219005   3.960   0.401   5.701 -0.1083 -1.2323 -0.8491
 2516SOL     OW19006   2.416   1.850   2.323  0.2678 -0.5411 -0.2992
 2516SOL    HW119007   2.402   1.932   2.274  1.9499 -0.4020 -0.5497
 2516SOL    HW219008   2.494   1.834   2.269 -0.5174  2.6021 -2.3719
 2517SOL     OW19009   4.398   4.219   4.324 -0.1098  0.3484  0.6507
 2517SOL    HW119010   4.402   4.301   4.275 -2.2722 -0.9264 -1.6618
 2517SOL    HW219011   4.468   4.232   4.388 -0.0751  1.4240  0.4007
 2518SOL     OW19012   1.986   2.908  12.124 -0.3959 -0.0686 -0.4253
 2518SOL    HW119013   1.958   2.988  12.080  0.3004  0.7349  0.5813
 2518SOL    HW219014   2.076   2.928  12.149 -0.4553 -0.7089  0.2881
 2519SOL     OW19015   2.370   3.120   1.781 -0.0556  0.0181  0.3229
 2519SOL    HW119016   2.441   3.070   1.822  0.3004  0.4668  0.2557
 2519SOL    HW219017   2.307   3.148   1.848 -2.3777 -0.7332 -1.5700
 2520SOL     OW19018   1.069   2.618   4.439 -0.5512 -0.0111 -0.3360
 2520SOL    HW119019   1.069   2.578   4.352  1.5990  1.5395 -1.0554
 2520SOL    HW219020   0.977   2.614   4.464  0.4541 -2.7259  2.9105
 2521SOL     OW19021   2.741   3.008   6.490  0.6140  0.7568  0.1054
 2521SOL    HW119022   2.788   2.955   6.426  2.0427  1.2005  0.7935
 2521SOL    HW219023   2.764   3.096   6.459  0.4785  0.6196 -0.3880
 2522SOL     OW19024   4.640   1.207   4.472 -0.0786  0.5948  0.1098
 2522SOL    HW119025   4.547   1.204   4.496 -0.2257 -2.8708 -0.7904
 2522SOL    HW219026   4.673   1.224   4.560 -2.1749  1.2222  0.7746
 2523SOL     OW19027   2.372   0.911   1.712 -0.2708  0.3646  0.0005
 2523SOL    HW119028   2.404   0.973   1.647 -0.7922 -0.0598 -0.6609
 2523SOL    HW219029   2.423   0.837   1.678  1.2728  0.9588  1.0028
 2524SOL     OW19030   4.629   2.114   7.564  0.0101  0.6390 -0.2784
 2524SOL    HW119031   4.560   2.050   7.584  0.0644  0.3219 -1.1271
 2524SOL    HW219032   4.703   2.072   7.607  0.0465 -1.0716 -2.0228
 2525SOL     OW19033   3.943   0.749  13.558  0.1605 -0.1491  0.5102
 2525SOL    HW119034   3.973   0.808  13.627 -2.4098 -1.5884  2.8652
 2525SOL    HW219035   3.863   0.796  13.535 -0.0398 -0.2121  1.0653
 2526SOL     OW19036   3.026   3.125   0.499  0.5351 -0.2995 -0.5167
 2526SOL    HW119037   2.971   3.177   0.558  3.6034  2.3637 -0.0195
 2526SOL    HW219038   2.998   3.177   0.423  1.4462 -0.2788 -0.8326
 2527SOL     OW19039   3.621   0.676   8.997 -0.0691 -0.3002  0.1317
 2527SOL    HW119040   3.568   0.613   8.947  0.0802  0.5054 -1.0321
 2527SOL    HW219041   3.700   0.677   8.944 -2.1675 -0.8901 -3.0270
 2528SOL     OW19042   2.085   0.275  16.805  0.1643  0.2268  0.4190
 2528SOL    HW119043   2.022   0.310  16.867  0.1530  2.4702 -0.8433
 2528SOL    HW219044   2.107   0.187  16.836 -1.3420 -0.3659 -0.2043
 2529SOL     OW19045   1.245   3.799   7.099  0.1470 -0.1728  0.3260
 2529SOL    HW119046   1.219   3.724   7.045  0.7124 -0.3171  0.2502
 2529SOL    HW219047   1.339   3.798   7.077 -0.5058 -2.2573 -2.2652
 2530SOL     OW19048   0.241   3.401   9.351 -0.3554  0.0908  0.2548
 2530SOL    HW119049   0.313   3.408   9.413  0.0027  1.9500 -0.3643
 2530SOL    HW219050   0.271   3.467   9.287 -0.7157 -0.1678 -0.1797
 2531SOL     OW19051   0.841   3.292  11.888 -1.0198  0.0234  0.0820
 2531SOL    HW119052   0.795   3.375  11.875 -0.1538  0.6292  0.9877
 2531SOL    HW219053   0.785   3.230  11.935 -0.7849  0.0182  0.3533
 2532SOL     OW19054   0.158   0.838  13.906 -0.2451 -0.4508 -0.1096
 2532SOL    HW119055   0.123   0.772  13.846 -2.7006  0.4309  0.3487
 2532SOL    HW219056   0.203   0.778  13.966  1.0757  1.2320  0.5550
 2533SOL     OW19057   1.521   2.773   9.179 -0.4370 -0.2684 -0.1933
 2533SOL    HW119058   1.612   2.789   9.204 -0.3986 -0.1321 -0.4172
 2533SOL    HW219059   1.464   2.808   9.247 -1.1477 -0.6734 -0.5798
 2534SOL     OW19060   3.243   4.369   9.310  0.4009  0.5740 -0.0466
 2534SOL    HW119061   3.224   4.454   9.350 -0.6905 -0.0746  0.8270
 2534SOL    HW219062   3.270   4.387   9.220  0.9288 -1.3416 -0.2724
 2535SOL     OW19063   1.265   3.116   2.358 -0.1064 -0.8025 -0.2535
 2535SOL    HW119064   1.328   3.119   2.286 -0.5339  2.4813 -0.4745
 2535SOL    HW219065   1.278   3.024   2.383  0.7807 -0.2488  1.3397
 2536SOL     OW19066   4.636   3.152   8.101  0.3268  0.1860 -0.3986
 2536SOL    HW119067   4.573   3.112   8.161  2.1246 -1.5081  0.4056
 2536SOL    HW219068   0.003   3.135   8.139  0.2283 -2.4628 -1.3701
 2537SOL     OW19069   1.732   0.360  13.998  0.0397 -0.2813  0.0547
 2537SOL    HW119070   1.777   0.402  13.925 -0.5576  0.5319  0.1629
 2537SOL    HW219071   1.799   0.308  14.043 -0.1920  0.7115  1.5512
 2538SOL     OW19072   2.257   2.289   8.715 -0.7223  0.0673 -0.2599
 2538SOL    HW119073   2.169   2.280   8.753  0.1627 -1.2248  1.5300
 2538SOL    HW219074   2.297   2.218   8.767 -0.1244  0.1150 -0.6598
 2539SOL     OW19075   1.879   0.291   6.680 -0.5321 -0.0174 -0.1003
 2539SOL    HW119076   1.821   0.366   6.670 -1.3937 -0.3005  2.7328
 2539SOL    HW219077   1.836   0.222   6.630 -0.3690  0.3879 -0.7995
 2540SOL     OW19078   3.863   0.109   1.706 -0.0448  0.1470 -0.1929
 2540SOL    HW119079   3.896   0.024   1.732 -2.1621 -0.7701 -0.5376
 2540SOL    HW219080   3.788   0.116   1.765  1.4982  0.6403  1.7238
 2541SOL     OW19081   1.273   3.510   6.394 -0.2187  0.7202  0.3578
 2541SOL    HW119082   1.181   3.532   6.381 -0.1070  0.6401 -0.6030
 2541SOL    HW219083   1.289   3.562   6.473  0.5309 -0.8276  1.2357
 2542SOL     OW19084   2.476   4.244   4.052 -0.0110 -0.5090  0.1371
 2542SOL    HW119085   2.543   4.234   3.984  0.4386  0.7269  0.4001
 2542SOL    HW219086   2.530   4.281   4.123  2.1115 -2.3348 -0.5180
 2543SOL     OW19087   3.614   2.664   6.873  0.1823  0.4205 -0.5320
 2543SOL    HW119088   3.652   2.662   6.961 -3.6208  0.1819  1.1276
 2543SOL    HW219089   3.519   2.657   6.884  0.6303 -0.4982  2.7569
 2544SOL     OW19090   4.178   4.514   8.080  0.2959 -0.2525  0.4547
 2544SOL    HW119091   4.220   4.548   8.001 -1.4483  0.1680 -0.2975
 2544SOL    HW219092   4.234   4.538   8.154  0.2914 -1.2893  0.7963
 2545SOL     OW19093   2.066   3.804   8.035  0.1418 -0.1506 -0.0077
 2545SOL    HW119094   2.063   3.821   7.941 -1.2574 -0.0270  0.0563
 2545SOL    HW219095   2.156   3.828   8.055 -0.1971  2.3715 -1.5251
 2546SOL     OW19096   0.969   2.984   2.656 -0.3716 -0.5854 -0.4356
 2546SOL    HW119097   0.982   2.982   2.562 -0.3511 -2.2860 -0.4103
 2546SOL    HW219098   0.921   2.904   2.679  2.0252 -1.6200  1.0323
 2547SOL     OW19099   3.947   4.666   7.806  0.3403 -0.0373 -0.1232
 2547SOL    HW119100   3.864   4.618   7.813  0.1527  0.3679  0.4273
 2547SOL    HW219101   3.927   0.007   7.877  1.9294  0.9655 -0.5427
 2548SOL     OW19102   2.965   0.417  12.721 -0.8994 -0.1529 -0.1745
 2548SOL    HW119103   3.046   0.382  12.758  0.5345  2.0941 -1.2310
 2548SOL    HW219104   2.994   0.482  12.657  0.7809 -1.0150 -0.2856
 2549SOL     OW19105   2.889   3.461  12.580 -0.0659  0.4350 -0.1410
 2549SOL    HW119106   2.964   3.449  12.638 -0.5679  0.1204  0.4515
 2549SOL    HW219107   2.854   3.372  12.584  0.2777  0.3505  1.1476
 2550SOL     OW19108   4.125   1.276  10.205 -0.1364  0.2200  0.2436
 2550SOL    HW119109   4.147   1.279  10.298 -2.9304 -0.6746  0.9476
 2550SOL    HW219110   4.208   1.249  10.168  0.1566  2.0104 -0.4018
 2551SOL     OW19111   2.552   0.377   1.854  0.5676 -0.3930  0.4098
 2551SOL    HW119112   2.529   0.469   1.838 -0.5780 -0.9433 -1.1473
 2551SOL    HW219113   2.500   0.338   1.783  0.8156  0.8904 -0.4874
 2552SOL     OW19114   3.695   3.542  13.579  0.1763  0.3469 -0.1734
 2552SOL    HW119115   3.774   3.504  13.617  0.5359  0.8428 -0.4349
 2552SOL    HW219116   3.659   3.606  13.641  0.7858  0.4373  0.0890
 2553SOL     OW19117   3.626   1.769  12.452 -0.6140 -0.2232 -0.3997
 2553SOL    HW119118   3.578   1.757  12.534 -0.3033 -0.4379 -0.2511
 2553SOL    HW219119   3.684   1.694  12.439 -2.5214 -1.8133  0.1819
 2554SOL     OW19120   1.200   2.263   8.757  0.1389  0.3900  0.1634
 2554SOL    HW119121   1.166   2.261   8.846 -0.1920  1.9815  0.0665
 2554SOL    HW219122   1.270   2.199   8.769  0.1299  0.5171  0.9159
 2555SOL     OW19123   3.036   0.521  11.134 -0.3931 -0.1634  0.1234
 2555SOL    HW119124   3.013   0.435  11.168  0.8774 -0.1027  1.1028
 2555SOL    HW219125   3.027   0.576  11.211 -3.5464 -1.3420  0.6077
 2556SOL     OW19126   0.944   0.464   3.109  0.1406  0.5309  0.2345
 2556SOL    HW119127   0.911   0.543   3.152  1.6989  1.9834 -1.2339
 2556SOL    HW219128   0.927   0.401   3.178  0.5962  1.4797  1.2068
 2557SOL     OW19129   0.731   1.503   3.418 -0.2015  0.4809 -0.5690
 2557SOL    HW119130   0.820   1.528   3.391 -0.3365  0.3771 -1.1054
 2557SOL    HW219131   0.714   1.566   3.488  1.7739  0.0459  0.3057
 2558SOL     OW19132   2.888   0.938  11.441 -0.2903 -0.2137  0.1146
 2558SOL    HW119133   2.939   1.017  11.459  1.5762 -1.8990  2.2341
 2558SOL    HW219134   2.893   0.895  11.527 -0.9070  0.4868  0.5060
 2559SOL     OW19135   3.653   2.973  12.458  0.0298  0.2392 -0.4489
 2559SOL    HW119136   3.606   2.968  12.541  2.1163 -1.0819  0.6553
 2559SOL    HW219137   3.586   3.020  12.408 -0.0679  0.4921 -0.0773
 2560SOL     OW19138   0.408   1.921   7.946  0.0544  0.3687 -0.2338
 2560SOL    HW119139   0.446   1.943   7.860  0.1537 -1.6474 -0.6995
 2560SOL    HW219140   0.327   1.970   7.958 -0.8007 -0.8364 -1.1495
 2561SOL     OW19141   0.982   0.780   2.082 -0.5632 -1.0160 -0.8456
 2561SOL    HW119142   0.936   0.805   2.002 -1.1360  0.9117  0.0789
 2561SOL    HW219143   1.057   0.740   2.040 -0.6199 -0.0677 -1.8506
 2562SOL     OW19144   1.277   4.171   4.843 -0.4299 -0.1446 -0.2026
 2562SOL    HW119145   1.326   4.171   4.761  1.5406 -0.1507  0.9757
 2562SOL    HW219146   1.189   4.189   4.809 -0.0495 -0.2916 -1.2739
 2563SOL     OW19147   1.909   2.928   3.644 -0.1672  0.1884 -0.5613
 2563SOL    HW119148   1.932   2.851   3.591 -1.2418 -1.2331  1.0128
 2563SOL    HW219149   1.888   2.993   3.577  0.7970  1.8858  0.8044
 2564SOL     OW19150   3.435   1.854  16.567 -0.2302 -0.4310  0.3642
 2564SOL    HW119151   3.476   1.911  16.633 -0.0861 -0.4927  0.3278
 2564SOL    HW219152   3.510   1.797  16.551 -0.1190  0.4780 -2.2863
 2565SOL     OW19153   0.786   4.476  12.568 -0.3125  0.2201 -0.4118
 2565SOL    HW119154   0.837   4.451  12.645 -0.5676  1.1949  0.0731
 2565SOL    HW219155   0.710   4.503  12.619  0.2904  0.7651  0.1959
 2566SOL     OW19156   2.719   2.861   3.197 -0.3242 -0.4226  0.5678
 2566SOL    HW119157   2.715   2.766   3.206 -1.4036 -0.3856  0.4258
 2566SOL    HW219158   2.686   2.879   3.109  3.0125 -1.1944 -0.8712
 2567SOL     OW19159   1.363   1.329   6.919  0.2517  0.2410  0.0403
 2567SOL    HW119160   1.438   1.356   6.972  1.2740 -0.0548 -1.2401
 2567SOL    HW219161   1.289   1.358   6.972  0.2277 -0.5038  0.4083
 2568SOL     OW19162   0.712   0.074   1.195  0.0017 -0.0142 -0.4401
 2568SOL    HW119163   0.793   0.108   1.156  2.0422 -0.4879  3.4311
 2568SOL    HW219164   0.668   0.091   1.112 -0.0964 -0.0569 -0.3964
 2569SOL     OW19165   0.272   1.168   3.513 -0.0232  0.1166 -0.2169
 2569SOL    HW119166   0.187   1.210   3.512 -1.0616 -1.9628 -0.2901
 2569SOL    HW219167   0.330   1.235   3.548 -1.0309  1.6450 -1.5004
 2570SOL     OW19168   0.319   2.543   6.480 -0.5283 -0.2725  0.3847
 2570SOL    HW119169   0.362   2.478   6.535  0.0248  0.3359  0.6762
 2570SOL    HW219170   0.259   2.492   6.426  0.1596  1.4362 -2.0106
 2571SOL     OW19171   2.416   1.233  15.498  0.2032 -0.3831  0.2192
 2571SOL    HW119172   2.487   1.296  15.496 -0.9583  0.9141  0.3326
 2571SOL    HW219173   2.467   1.162  15.459 -0.9577 -0.3696 -1.3479
 2572SOL     OW19174   0.077   2.590   7.975  0.0885 -0.3263  0.3795
 2572SOL    HW119175   0.131   2.630   8.043 -1.3642  2.2066  0.0311
 2572SOL    HW219176   4.718   2.642   7.991 -0.3292 -0.4238 -1.4022
 2573SOL     OW19177   4.309   3.769   9.230 -0.0411 -0.0471  0.6717
 2573SOL    HW119178   4.343   3.817   9.305  0.8792  2.1343 -1.1320
 2573SOL    HW219179   4.237   3.829   9.209 -1.9355 -2.5729 -0.0377
 2574SOL     OW19180   4.555   4.390  13.224  0.1532  0.9937  0.1888
 2574SOL    HW119181   4.590   4.390  13.313  2.5229  2.4923 -0.7247
 2574SOL    HW219182   4.538   4.483  13.213 -0.2472  1.1998  2.6041
 2575SOL     OW19183   2.653   3.366   6.430 -0.1512  0.6506 -0.5002
 2575SOL    HW119184   2.621   3.355   6.520  0.6087  1.0298 -0.1872
 2575SOL    HW219185   2.744   3.341   6.441 -0.9584 -1.4427  1.3759
 2576SOL     OW19186   4.117   4.034   4.191  0.4751 -0.2125 -0.3828
 2576SOL    HW119187   4.031   4.047   4.151 -0.2172  1.1235  1.5266
 2576SOL    HW219188   4.101   4.085   4.271  2.1078 -0.7171  0.2737
 2577SOL     OW19189   3.729   1.637   8.564  0.0748 -0.5131 -0.1980
 2577SOL    HW119190   3.756   1.547   8.545  0.0391 -0.0779 -2.3175
 2577SOL    HW219191   3.815   1.671   8.540 -0.4380  2.0393  1.6123
 2578SOL     OW19192   0.624   1.641   4.956 -0.1108  0.2102  0.0705
 2578SOL    HW119193   0.680   1.706   4.914  0.8116  0.2117  1.2861
 2578SOL    HW219194   0.592   1.591   4.881 -0.7210 -0.7557  0.9685
 2579SOL     OW19195   3.932   4.097   7.333  0.2733  0.5200  0.2875
 2579SOL    HW119196   3.853   4.150   7.348 -0.1006 -0.2083  0.8528
 2579SOL    HW219197   3.981   4.155   7.274  0.6395 -1.4478 -1.3367
 2580SOL     OW19198   4.160   3.866  14.462  0.3638  0.0300 -0.4562
 2580SOL    HW119199   4.155   3.797  14.529 -0.4693 -2.1805 -2.7910
 2580SOL    HW219200   4.215   3.812  14.406  0.8797  0.6878 -0.5710
 2581SOL     OW19201   0.793   2.086   2.124  0.2454 -0.0703 -0.5694
 2581SOL    HW119202   0.707   2.088   2.082 -0.6984 -0.9211  1.3463
 2581SOL    HW219203   0.839   2.156   2.078  0.3954 -1.8656 -3.1364
 2582SOL     OW19204   3.536   3.736  13.702  0.5914  0.8105  0.1814
 2582SOL    HW119205   3.531   3.808  13.639 -3.1202  0.8668  0.5476
 2582SOL    HW219206   3.578   3.771  13.781  0.8503  2.0051 -0.4793
 2583SOL     OW19207   3.836   3.539   8.819  0.2234 -0.4563 -0.1476
 2583SOL    HW119208   3.749   3.556   8.782  0.2547  0.4994  0.2152
 2583SOL    HW219209   3.888   3.567   8.744  0.2085 -0.5701 -0.2003
 2584SOL     OW19210   4.535   4.159   6.658 -0.4335 -0.3601 -0.5354
 2584SOL    HW119211   4.464   4.103   6.691  0.6153 -0.4948  1.4801
 2584SOL    HW219212   4.610   4.126   6.708  0.6090  0.4657 -1.5785
 2585SOL     OW19213   2.880   2.186   2.891 -0.0140  0.2905  0.2715
 2585SOL    HW119214   2.915   2.258   2.944 -0.7895  0.5720  0.4042
 2585SOL    HW219215   2.809   2.229   2.843  2.4026  3.5353 -0.3963
 2586SOL     OW19216   0.043   4.152   5.078  0.2909  0.0056  0.2022
 2586SOL    HW119217   4.692   4.207   5.112 -0.4960 -0.3911 -0.7815
 2586SOL    HW219218   0.069   4.096   5.151  1.3340 -0.1494 -0.2963
 2587SOL     OW19219   2.422   0.153   6.021  0.7110 -0.4875 -0.3491
 2587SOL    HW119220   2.342   0.177   6.067  1.5239  2.6067 -0.5386
 2587SOL    HW219221   2.440   0.061   6.039 -1.8987 -1.0315 -0.5210
 2588SOL     OW19222   2.793   3.023   8.747 -0.5804  0.0694 -0.1474
 2588SOL    HW119223   2.868   3.029   8.688 -0.0970 -0.2385  0.4353
 2588SOL    HW219224   2.749   3.107   8.730  1.0227  1.1965  1.3001
 2589SOL     OW19225   0.409   4.380  13.326  0.2089 -0.0328 -0.0233
 2589SOL    HW119226   0.337   4.430  13.288 -1.7270 -0.9161  2.4602
 2589SOL    HW219227   0.420   4.424  13.411  0.6670  1.2202 -0.7272
 2590SOL     OW19228   0.957   1.585   1.093 -0.3285  0.4656  0.2470
 2590SOL    HW119229   1.017   1.650   1.131 -1.1669  0.8140  0.9535
 2590SOL    HW219230   1.018   1.511   1.094 -0.7473  0.1493  1.4135
 2591SOL     OW19231   1.146   2.183  13.205 -0.3511 -0.2222 -0.4978
 2591SOL    HW119232   1.168   2.260  13.152 -0.1467  0.3796  0.4560
 2591SOL    HW219233   1.062   2.156  13.168 -1.8341  0.5886  2.3134
 2592SOL     OW19234   2.567   4.629   4.400 -0.1121  0.5601  0.2394
 2592SOL    HW119235   2.544   4.668   4.485  3.6649  1.0172  1.0454
 2592SOL    HW219236   2.622   4.693   4.355  0.8075 -0.5730 -0.2175
 2593SOL     OW19237   0.497   1.497  12.267 -0.1172 -0.5516 -0.2760
 2593SOL    HW119238   0.561   1.449  12.319  0.1003  0.6386  0.5507
 2593SOL    HW219239   0.480   1.431  12.199  1.3801  0.5023 -1.6610
 2594SOL     OW19240   2.127   1.861  15.475  0.2256 -0.5826 -0.7741
 2594SOL    HW119241   2.173   1.777  15.470  0.4937 -0.4103 -1.1734
 2594SOL    HW219242   2.087   1.857  15.388  1.4263 -0.0802 -1.3468
 2595SOL     OW19243   0.882   2.542   6.882 -0.0211  0.0562  0.4434
 2595SOL    HW119244   0.852   2.467   6.934 -1.2224 -0.0061 -0.3218
 2595SOL    HW219245   0.974   2.518   6.882  0.6030  2.4892 -0.5814
 2596SOL     OW19246   3.828   0.641   4.653  0.8052 -0.6841 -0.4541
 2596SOL    HW119247   3.778   0.652   4.572  0.7248 -0.3086 -0.3547
 2596SOL    HW219248   3.768   0.678   4.718  0.7054 -1.9717  0.1891
 2597SOL     OW19249   2.206   3.125   0.515  0.1091 -0.2166 -0.0358
 2597SOL    HW119250   2.300   3.146   0.510  0.6912 -2.4866  1.1187
 2597SOL    HW219251   2.181   3.207   0.557  0.8356  1.0216 -2.0150
 2598SOL     OW19252   1.814   3.441  12.305  0.1754  0.3939 -0.4768
 2598SOL    HW119253   1.719   3.439  12.319 -0.0868 -0.2902 -2.2554
 2598SOL    HW219254   1.852   3.393  12.379 -1.6474 -3.1946 -1.8367
 2599SOL     OW19255   3.638   4.024   4.132  0.3473 -0.2760 -0.4041
 2599SOL    HW119256   3.573   4.094   4.131  2.2137  1.4781  1.7220
 2599SOL    HW219257   3.655   4.025   4.227  0.1937  1.6200 -0.4037
 2600SOL     OW19258   2.086   0.876  15.105  0.1134  0.0322 -0.1933
 2600SOL    HW119259   2.130   0.901  15.024  2.0107  1.0223  1.1403
 2600SOL    HW219260   2.078   0.962  15.147  1.9502  0.7500 -1.3039
 2601SOL     OW19261   1.592   4.487  17.502  0.5389 -0.2513  0.3312
 2601SOL    HW119262   1.634   4.402  17.512  0.9670 -0.4093 -2.7757
 2601SOL    HW219263   1.503   4.474  17.470  0.1974  0.0184  1.1796
 2602SOL     OW19264   0.329   1.063   8.337  0.0206  0.0537 -0.3629
 2602SOL    HW119265   0.280   1.141   8.364 -2.0454 -0.8148 -1.6059
 2602SOL    HW219266   0.285   1.040   8.255  0.1873 -0.6539 -0.2538
 2603SOL     OW19267   4.028   1.244   1.710 -0.1840 -0.1408  0.1241
 2603SOL    HW119268   3.951   1.193   1.733  0.9963 -1.5787  0.8466
 2603SOL    HW219269   4.103   1.191   1.738 -0.9964 -1.1645  0.3438
 2604SOL     OW19270   3.587   1.724   0.001 -0.2821 -0.0879  0.3676
 2604SOL    HW119271   3.559   1.633   0.001 -0.7270  0.0493  0.1975
 2604SOL    HW219272   3.677   1.712   0.032 -0.8663 -1.6461  1.4103
 2605SOL     OW19273   1.619   3.440  11.975 -0.3196 -0.0903 -0.2403
 2605SOL    HW119274   1.618   3.344  11.975  4.7670 -0.1648  1.3203
 2605SOL    HW219275   1.572   3.455  12.057  0.4117  1.8683 -0.1801
 2606SOL     OW19276   0.581   3.084   4.166 -0.3510 -0.0992  0.6344
 2606SOL    HW119277   0.532   3.059   4.244  0.1011 -1.2067  0.5671
 2606SOL    HW219278   0.558   3.175   4.151 -2.3177 -0.7416 -0.2250
 2607SOL     OW19279   0.640   3.205   2.159  0.1593  0.0792 -0.2448
 2607SOL    HW119280   0.670   3.127   2.205  1.1141 -0.2461 -1.4401
 2607SOL    HW219281   0.575   3.176   2.095  0.7318 -0.7158 -0.4574
 2608SOL     OW19282   4.305   0.017  16.950 -0.1822 -0.2868  0.1099
 2608SOL    HW119283   4.308   4.641  16.942 -0.3891 -0.2745 -0.1062
 2608SOL    HW219284   4.314   0.018  17.045  1.9379  1.7965 -0.1040
 2609SOL     OW19285   4.416   2.938   3.715  0.2574 -0.0185  0.2621
 2609SOL    HW119286   4.401   2.844   3.725  4.0023 -0.5547  0.6463
 2609SOL    HW219287   4.504   2.949   3.751  0.0549  1.6052  0.2682
 2610SOL     OW19288   4.069   2.145   2.403  0.0888  0.5551  0.0419
 2610SOL    HW119289   4.136   2.086   2.438  0.2817  1.2473  0.8501
 2610SOL    HW219290   4.023   2.184   2.477 -0.0529  1.0640 -0.3142
 2611SOL     OW19291   4.210   0.575  16.296 -0.2312 -0.6542  0.3039
 2611SOL    HW119292   4.231   0.485  16.271  0.3587  0.2921 -2.6952
 2611SOL    HW219293   4.163   0.599  16.217 -0.6791 -1.0584  0.4499
 2612SOL     OW19294   3.424   1.171   6.162 -0.1296 -0.0409 -0.7654
 2612SOL    HW119295   3.488   1.147   6.095  1.3806  1.5796  0.1172
 2612SOL    HW219296   3.471   1.219   6.230 -1.2285  1.1996 -0.8834
 2613SOL     OW19297   4.533   4.432   8.020  0.2424  0.4233 -0.2419
 2613SOL    HW119298   4.504   4.431   8.110  1.9661  0.7702  0.3285
 2613SOL    HW219299   4.518   4.345   7.983 -0.6365  0.0709  0.9575
 2614SOL     OW19300   1.317   2.266   0.635 -0.2473  0.3122  0.0259
 2614SOL    HW119301   1.410   2.247   0.633  0.0879  1.9836  0.2606
 2614SOL    HW219302   1.319   2.334   0.567  2.0048  2.0584  1.8651
 2615SOL     OW19303   3.942   0.269   5.050  0.3734 -0.1000 -0.1654
 2615SOL    HW119304   3.847   0.258   5.043  0.3100  0.4626 -0.1178
 2615SOL    HW219305   3.950   0.220   5.132  1.8659  0.1970 -0.1431
 2616SOL     OW19306   3.769   0.101   2.296 -0.3625 -0.3288 -0.0374
 2616SOL    HW119307   3.781   0.113   2.202  3.5341 -0.0717  0.4688
 2616SOL    HW219308   3.682   0.061   2.295 -1.1173  1.3022  0.1722
 2617SOL     OW19309   1.422   0.348   3.311 -0.0555 -0.0037  0.0546
 2617SOL    HW119310   1.398   0.424   3.258  4.2109 -0.5833 -2.7554
 2617SOL    HW219311   1.502   0.382   3.351  1.4589 -1.5129 -1.6494
 2618SOL     OW19312   3.477   2.249   2.775  0.5455 -0.1272 -0.0154
 2618SOL    HW119313   3.501   2.335   2.811  2.5046 -0.4833 -0.4291
 2618SOL    HW219314   3.507   2.188   2.842  0.0073 -0.6236 -0.2306
 2619SOL     OW19315   1.903   2.656   8.937 -0.3361  0.0462 -0.0099
 2619SOL    HW119316   1.931   2.615   9.019  1.7312 -0.6588 -1.0638
 2619SOL    HW219317   1.844   2.584   8.911  2.6357 -1.2124 -3.3265
 2620SOL     OW19318   0.781   3.897   0.498 -0.2868  0.0129 -0.3708
 2620SOL    HW119319   0.774   3.928   0.407  2.6411  1.2428 -0.1870
 2620SOL    HW219320   0.832   3.974   0.523 -0.1898  0.1966 -1.1354
 2621SOL     OW19321   4.187   4.283   2.455  0.1724 -0.3243  0.3575
 2621SOL    HW119322   4.092   4.270   2.458  0.3137 -1.6231 -0.7876
 2621SOL    HW219323   4.189   4.368   2.500 -1.6113 -0.5578  0.8723
 2622SOL     OW19324   4.718   0.230   1.726 -0.5393 -0.4009 -0.7985
 2622SOL    HW119325   4.689   0.276   1.805 -0.4670 -0.3797 -0.7842
 2622SOL    HW219326   0.060   0.165   1.758 -2.8181 -2.4427 -0.5574
 2623SOL     OW19327   2.095   1.728   1.491  0.3823  0.3523 -0.2351
 2623SOL    HW119328   2.138   1.646   1.513 -0.2095 -0.1931 -1.1240
 2623SOL    HW219329   2.143   1.781   1.555 -2.0634 -0.3480  2.1908
 2624SOL     OW19330   3.532   4.456   0.114  0.1175 -0.9547 -0.3520
 2624SOL    HW119331   3.521   4.533   0.058 -1.2494 -1.5971 -0.9917
 2624SOL    HW219332   3.484   4.483   0.192 -0.3957  0.6001 -1.2226
 2625SOL     OW19333   2.242   2.338   0.260  0.5805 -0.1339 -0.1265
 2625SOL    HW119334   2.247   2.243   0.250  1.2610 -0.0669 -0.4312
 2625SOL    HW219335   2.272   2.351   0.350 -1.2779  0.0998  0.4537
 2626SOL     OW19336   3.208   1.207   4.917  0.5550  0.0956 -0.3465
 2626SOL    HW119337   3.301   1.225   4.906  0.6474 -0.2345 -0.1026
 2626SOL    HW219338   3.194   1.210   5.012 -0.9986 -0.1853 -0.5534
 2627SOL     OW19339   0.455   2.605   4.061  0.4612  0.3547 -0.0700
 2627SOL    HW119340   0.399   2.554   4.002 -2.0423 -0.4421  3.0160
 2627SOL    HW219341   0.454   2.550   4.139 -0.4111  1.1820  0.5083
 2628SOL     OW19342   2.258   0.217   5.321  0.6427  0.4698  0.2710
 2628SOL    HW119343   2.228   0.305   5.344 -1.9643 -0.2857 -0.2630
 2628SOL    HW219344   2.315   0.243   5.249 -0.7262  0.7850 -0.6991
 2629SOL     OW19345   4.211   0.587   6.303 -0.1113 -0.7140  0.1203
 2629SOL    HW119346   4.116   0.598   6.300 -0.2693 -2.2478 -0.5517
 2629SOL    HW219347   4.227   0.632   6.220  1.1366  3.0279  2.3953
 2630SOL     OW19348   4.524   1.576   4.071  0.2357 -0.5124 -0.5023
 2630SOL    HW119349   4.619   1.584   4.066 -0.0079  1.5954 -1.8317
 2630SOL    HW219350   4.523   1.488   4.035  0.8567 -1.1570  1.0503
 2631SOL     OW19351   4.023   3.967  12.081 -0.7103 -0.1726  0.2899
 2631SOL    HW119352   4.091   4.027  12.111  0.0162 -1.6696  1.6361
 2631SOL    HW219353   3.983   3.926  12.157  0.3360  0.1377  1.0080
 2632SOL     OW19354   2.139   4.625  15.138 -0.2610  0.2097  0.1850
 2632SOL    HW119355   2.083   4.554  15.108 -0.5117  1.0212 -1.2569
 2632SOL    HW219356   2.211   4.570  15.167 -2.5709 -1.4240  2.8520
 2633SOL     OW19357   0.402   3.800   4.737  0.4749 -0.0211 -0.5449
 2633SOL    HW119358   0.458   3.860   4.689 -2.4296  0.7884 -2.9561
 2633SOL    HW219359   0.471   3.749   4.779  0.7397  1.1668  0.4737
 2634SOL     OW19360   4.202   0.291   7.348  0.0266 -0.3534  0.9816
 2634SOL    HW119361   4.241   0.378   7.342 -1.7998  0.4779  1.2775
 2634SOL    HW219362   4.188   0.266   7.257 -1.3580  0.1919  1.0474
 2635SOL     OW19363   3.710   0.491  17.222 -0.3828 -0.5217  0.1221
 2635SOL    HW119364   3.745   0.549  17.155  0.9412  0.1112  1.3420
 2635SOL    HW219365   3.668   0.424  17.169 -1.4286  2.9065 -3.3915
 2636SOL     OW19366   4.107   0.992   8.322 -0.5620 -0.2684 -0.3853
 2636SOL    HW119367   4.186   1.009   8.270 -0.8960 -1.3041 -1.2380
 2636SOL    HW219368   4.038   0.983   8.257 -0.9755 -3.7483  0.5641
 2637SOL     OW19369   2.648   2.416   4.648 -0.0238  0.0695 -1.1092
 2637SOL    HW119370   2.702   2.338   4.661 -2.6828 -1.4043  0.9475
 2637SOL    HW219371   2.558   2.393   4.669  0.7577 -2.1722 -0.2213
 2638SOL     OW19372   1.212   3.989   2.644 -0.1251  0.3133 -0.6565
 2638SOL    HW119373   1.264   3.909   2.641  0.3254  0.5138  1.2487
 2638SOL    HW219374   1.138   3.960   2.591  0.4497  0.0240 -1.2874
 2639SOL     OW19375   0.071   0.297   5.772 -0.0541  0.3232  0.2834
 2639SOL    HW119376   0.077   0.393   5.777 -1.6219  0.5391 -2.0494
 2639SOL    HW219377   0.008   0.284   5.843 -0.2063  0.9513  0.2693
 2640SOL     OW19378   0.033   3.065   8.752  0.0863  0.1548  0.2437
 2640SOL    HW119379   4.710   3.070   8.666  1.8626  2.1923 -0.4991
 2640SOL    HW219380   0.123   3.038   8.735 -0.7393 -2.3709 -0.1659
 2641SOL     OW19381   0.368   4.335   7.144 -0.5972 -0.5637  0.3260
 2641SOL    HW119382   0.368   4.408   7.206 -3.0219  1.9622 -2.7017
 2641SOL    HW219383   0.464   4.324   7.146 -0.9074 -3.3634  0.8259
 2642SOL     OW19384   1.750   3.504   3.674  0.5736  0.6677 -0.1390
 2642SOL    HW119385   1.829   3.557   3.682  0.0357  1.4926 -0.2346
 2642SOL    HW219386   1.716   3.520   3.762  2.5585  0.5430  0.6350
 2643SOL     OW19387   0.970   1.046   4.183 -0.4513  0.5894  0.0620
 2643SOL    HW119388   1.026   1.101   4.239  0.6011 -0.5106  0.0968
 2643SOL    HW219389   1.007   0.961   4.207 -0.8187  0.7219  1.1247
 2644SOL     OW19390   4.046   2.852   4.317 -1.3535  0.1879  0.1645
 2644SOL    HW119391   4.035   2.757   4.313 -2.6640  0.2542  2.2410
 2644SOL    HW219392   4.070   2.857   4.410 -0.6078 -1.5096  0.0561
 2645SOL     OW19393   1.130   1.102   5.270 -0.3542 -0.1425  0.1094
 2645SOL    HW119394   1.194   1.169   5.248 -1.8508  0.8803 -1.0850
 2645SOL    HW219395   1.090   1.142   5.347 -0.5419  0.2834 -0.2114
 2646SOL     OW19396   1.730   4.120   5.796  0.3021 -0.0081 -0.1809
 2646SOL    HW119397   1.716   4.029   5.767  0.3627  0.7206 -2.5050
 2646SOL    HW219398   1.650   4.128   5.847 -0.1203 -0.9117 -0.6893
 2647SOL     OW19399   4.189   3.227   9.868 -0.1620  0.2921  0.2511
 2647SOL    HW119400   4.110   3.196   9.823 -0.1869  0.4300  0.2001
 2647SOL    HW219401   4.243   3.150   9.887 -1.7380 -0.8864 -0.0905
 2648SOL     OW19402   4.518   0.235  12.321  0.1072  0.0519  0.1171
 2648SOL    HW119403   4.590   0.223  12.258 -0.1729  0.1738 -0.2221
 2648SOL    HW219404   4.474   0.303  12.271 -0.4688  1.6295  2.8073
 2649SOL     OW19405   3.163   2.347   7.415 -0.1498  0.2585  0.3843
 2649SOL    HW119406   3.192   2.281   7.478  0.1033 -0.4765 -0.4923
 2649SOL    HW219407   3.074   2.319   7.396 -0.2191  0.6366  0.1566
 2650SOL     OW19408   3.359   0.566   5.884  0.2664  0.1348 -0.0039
 2650SOL    HW119409   3.432   0.609   5.841 -0.1895 -0.0696 -0.9780
 2650SOL    HW219410   3.395   0.481   5.912 -0.2519 -0.5661 -1.4691
 2651SOL     OW19411   4.645   4.462   7.054  0.3030 -0.2339 -1.5015
 2651SOL    HW119412   4.707   4.532   7.072 -0.4761  0.1615 -0.3241
 2651SOL    HW219413   4.689   4.382   7.083  0.0115 -0.0893 -0.6533
 2652SOL     OW19414   1.439   4.136  17.186  0.2862 -0.0398 -0.4746
 2652SOL    HW119415   1.402   4.147  17.274  1.5152  1.1227 -0.1073
 2652SOL    HW219416   1.509   4.201  17.190 -0.8613  1.1071  0.7023
 2653SOL     OW19417   1.992   0.665   9.172 -0.0354 -0.2182  0.1367
 2653SOL    HW119418   1.920   0.637   9.229 -1.0026  0.4069 -0.7836
 2653SOL    HW219419   2.071   0.653   9.226  0.6240  0.8172 -0.5976
 2654SOL     OW19420   2.767   0.544   5.636  0.1949 -0.2284  0.0669
 2654SOL    HW119421   2.851   0.516   5.600  0.2586 -1.2555  1.0136
 2654SOL    HW219422   2.722   0.581   5.560  3.4500  3.7461  0.0622
 2655SOL     OW19423   0.162   0.397  15.308  0.5799 -0.4524 -0.1065
 2655SOL    HW119424   0.084   0.381  15.256  0.9028 -1.6498 -0.2235
 2655SOL    HW219425   0.129   0.472  15.359  0.3381 -0.8542  0.3319
 2656SOL     OW19426   4.243   3.044   2.630  0.1056  0.4800 -0.2472
 2656SOL    HW119427   4.304   3.066   2.559  1.3470 -0.3445  0.5656
 2656SOL    HW219428   4.286   3.078   2.709 -0.0772 -0.1888  0.1299
 2657SOL     OW19429   4.251   0.110   7.008  0.6148  0.1709 -0.4204
 2657SOL    HW119430   4.178   0.049   7.020  0.6720  0.0491 -0.6982
 2657SOL    HW219431   4.215   0.184   6.961  2.6963 -0.1098 -2.4243
 2658SOL     OW19432   2.089   3.477   8.744 -0.4591  0.2682 -0.6044
 2658SOL    HW119433   2.056   3.447   8.828 -0.3923 -0.0496 -0.6903
 2658SOL    HW219434   2.050   3.564   8.742  0.4264  0.6842  0.0436
 2659SOL     OW19435   4.071   0.363   5.834 -0.6078 -0.4775 -1.0428
 2659SOL    HW119436   4.026   0.392   5.913 -0.7969 -2.2850 -0.4754
 2659SOL    HW219437   4.088   0.269   5.846 -1.0077 -0.3034  0.9089
 2660SOL     OW19438   0.482   4.593   8.385  0.0381  0.3264  0.0373
 2660SOL    HW119439   0.464   4.525   8.319 -0.8492  1.0832 -0.4948
 2660SOL    HW219440   0.571   4.568   8.408 -0.1161 -0.7639 -0.5208
 2661SOL     OW19441   0.465   3.155   5.707 -0.0515 -0.0422 -0.3487
 2661SOL    HW119442   0.412   3.175   5.784  2.4620 -0.5242  1.4739
 2661SOL    HW219443   0.479   3.061   5.723  1.3238  0.2981  0.4320
 2662SOL     OW19444   0.691   1.357   0.277  0.3804  0.3022 -0.1067
 2662SOL    HW119445   0.648   1.442   0.285  0.1067 -0.0959  2.4219
 2662SOL    HW219446   0.625   1.302   0.319  0.1113 -0.7388 -1.8874
 2663SOL     OW19447   0.126   3.782   4.812 -0.1004 -0.2334 -0.1083
 2663SOL    HW119448   0.081   3.815   4.734  1.7742 -1.9404 -1.9074
 2663SOL    HW219449   0.217   3.796   4.785 -0.5626  0.8503 -1.1343
 2664SOL     OW19450   4.407   2.176   2.520 -0.2238 -0.5105  0.0974
 2664SOL    HW119451   4.470   2.153   2.588  1.7285  1.7877 -0.9290
 2664SOL    HW219452   4.406   2.271   2.525  1.4880 -0.3796 -1.6308
 2665SOL     OW19453   1.550   3.471  10.323 -0.1229 -0.1216 -0.0975
 2665SOL    HW119454   1.519   3.554  10.359 -1.5869 -0.8198  0.2409
 2665SOL    HW219455   1.626   3.446  10.376 -0.2998  0.6622  0.5235
 2666SOL     OW19456   0.752   2.643   2.277 -0.1519 -0.3073  0.4420
 2666SOL    HW119457   0.693   2.570   2.296 -1.9131  1.0493  0.1397
 2666SOL    HW219458   0.773   2.661   2.368 -0.8194  0.5262  0.4253
 2667SOL     OW19459   4.377   4.648   7.928 -0.0264 -0.3871 -0.2371
 2667SOL    HW119460   4.439   4.589   7.972 -0.2573 -0.9152 -0.6138
 2667SOL    HW219461   4.356   4.607   7.844  1.5127  0.1563 -0.8700
 2668SOL     OW19462   2.662   0.920  10.816  0.3479  0.5322 -0.0624
 2668SOL    HW119463   2.608   0.841  10.820  0.1971  0.5163 -2.0623
 2668SOL    HW219464   2.599   0.989  10.836 -0.4677 -0.1617 -0.1771
 2669SOL     OW19465   2.826   2.502   8.725  0.3511 -0.3820 -0.1100
 2669SOL    HW119466   2.793   2.589   8.750  0.1766  0.2595 -2.5901
 2669SOL    HW219467   2.849   2.522   8.634 -0.4020 -1.7728 -0.6035
 2670SOL     OW19468   0.038   1.174   3.872  0.1377 -0.0972  0.4120
 2670SOL    HW119469   0.040   1.079   3.880 -1.3628  0.1047  3.4014
 2670SOL    HW219470   0.128   1.200   3.895  1.3684 -2.2162 -1.9854
 2671SOL     OW19471   0.055   4.312   2.546 -0.1915  0.7200  0.2571
 2671SOL    HW119472   0.103   4.232   2.525  1.3675  1.0111  2.6955
 2671SOL    HW219473   4.688   4.284   2.515  0.4612  0.1628 -1.0857
 2672SOL     OW19474   2.717   1.963   6.579  0.0723  0.3145  1.0427
 2672SOL    HW119475   2.647   1.935   6.519  1.7648 -1.8322  0.0717
 2672SOL    HW219476   2.681   2.030   6.636  1.6108  1.4758  0.6411
 2673SOL     OW19477   0.682   4.385   8.744  0.2388 -0.0290 -0.4289
 2673SOL    HW119478   0.617   4.389   8.814  0.5009 -0.0375 -0.1854
 2673SOL    HW219479   0.744   4.321   8.778  0.1301 -0.0943 -0.3556
 2674SOL     OW19480   1.563   2.035   3.128  0.1399 -0.2569 -1.0104
 2674SOL    HW119481   1.547   1.941   3.125 -1.6018 -0.0526  2.4084
 2674SOL    HW219482   1.629   2.046   3.059 -1.9141  1.4743 -2.7325
 2675SOL     OW19483   3.340   2.330   6.059  0.3720 -0.2691 -0.1571
 2675SOL    HW119484   3.346   2.404   6.118  0.3268  1.1486 -1.9370
 2675SOL    HW219485   3.429   2.331   6.023  1.6310  0.6892  3.0041
 2676SOL     OW19486   2.751   2.594   7.199  0.0752  0.2016  0.3458
 2676SOL    HW119487   2.660   2.580   7.173  0.4338 -0.7292 -0.4232
 2676SOL    HW219488   2.729   2.641   7.279 -1.2843 -1.4224  0.9384
 2677SOL     OW19489   4.615   0.225   3.733  0.4220  0.3362  0.1688
 2677SOL    HW119490   4.662   0.195   3.655 -0.3154 -1.0706  0.2677
 2677SOL    HW219491   4.690   0.259   3.783 -0.5372  1.6558  0.7257
 2678SOL     OW19492   4.660   2.063   3.671  0.0430 -0.2371 -0.3505
 2678SOL    HW119493   4.567   2.072   3.653 -0.4921 -2.6277  1.1909
 2678SOL    HW219494   4.676   2.156   3.656 -1.2935 -0.3297 -2.3575
 2679SOL     OW19495   4.106   2.176   2.009  0.1091 -0.1376 -0.4955
 2679SOL    HW119496   4.088   2.099   2.063 -0.8877 -0.2621 -0.9903
 2679SOL    HW219497   4.170   2.138   1.949 -0.3303 -2.0538  0.2608
 2680SOL     OW19498   1.272   2.292   6.623 -0.2980  0.0399  0.1326
 2680SOL    HW119499   1.210   2.351   6.580 -0.2031  0.1062  0.0853
 2680SOL    HW219500   1.341   2.356   6.642 -0.6373 -0.0325  1.6245
 2681SOL     OW19501   3.664   0.062   7.286  0.0982  0.0861 -0.3232
 2681SOL    HW119502   3.672   0.150   7.249 -0.7426 -0.4222 -1.6956
 2681SOL    HW219503   3.712   0.007   7.225  0.8778 -0.3301  0.6782
 2682SOL     OW19504   4.345   1.274   7.120 -0.1695  0.2341  0.1250
 2682SOL    HW119505   4.439   1.264   7.110 -0.5687 -0.4597 -2.9904
 2682SOL    HW219506   4.338   1.368   7.138  1.7935  0.5388 -0.7563
 2683SOL     OW19507   3.163   0.966   7.028  0.1927  0.3402 -0.0447
 2683SOL    HW119508   3.154   1.011   7.112 -0.8415  1.2717 -0.6479
 2683SOL    HW219509   3.136   1.035   6.967  1.1883  2.1839  1.6122
 2684SOL     OW19510   2.242   2.167   6.620 -0.2301  0.5845  0.3952
 2684SOL    HW119511   2.235   2.177   6.525  1.1575  0.3954  0.2774
 2684SOL    HW219512   2.208   2.077   6.624 -3.1753  1.6680 -0.3522
 2685SOL     OW19513   3.451   2.006  11.928 -0.5825 -0.3066  0.0306
 2685SOL    HW119514   3.534   2.003  11.976  0.8029  2.0893 -2.1748
 2685SOL    HW219515   3.452   2.101  11.912 -0.6497 -0.2001  0.6553
 2686SOL     OW19516   3.869   1.535   3.100 -0.1128  0.0851 -0.5701
 2686SOL    HW119517   3.857   1.566   3.011  2.5552  1.8187 -0.3305
 2686SOL    HW219518   3.781   1.502   3.118  0.5839 -0.8258  1.1685
 2687SOL     OW19519   2.247   0.811   8.434 -0.0781  0.1675 -0.1105
 2687SOL    HW119520   2.301   0.887   8.456 -1.5545  0.9738  0.7119
 2687SOL    HW219521   2.311   0.743   8.413 -1.0837 -1.2150  1.3023
 2688SOL     OW19522   1.289   2.075   8.413 -0.2075 -0.3157  0.7293
 2688SOL    HW119523   1.217   2.101   8.356  0.0588  1.6302  1.2742
 2688SOL    HW219524   1.334   2.159   8.420  2.8243 -2.1049  2.6954
 2689SOL     OW19525   0.825   4.390   4.646 -0.1422  0.0891 -0.5442
 2689SOL    HW119526   0.739   4.350   4.660 -1.1660  0.9755 -4.2686
 2689SOL    HW219527   0.838   4.408   4.553  1.8394 -1.6804 -0.6121
 2690SOL     OW19528   1.135   0.036   9.894  0.4729 -0.1536  0.3915
 2690SOL    HW119529   1.074   0.100   9.857 -0.7879 -1.1786  0.6956
 2690SOL    HW219530   1.080   4.678   9.902 -1.1710  1.1886  2.0601
 2691SOL     OW19531   3.932   3.030   8.318  0.0318 -0.1178  0.0916
 2691SOL    HW119532   4.012   2.984   8.344 -0.9500 -0.6720  2.1942
 2691SOL    HW219533   3.969   3.068   8.239  0.9489 -1.7135 -0.2463
 2692SOL     OW19534   2.495   2.648   8.428  0.4824  0.2162 -0.4142
 2692SOL    HW119535   2.432   2.705   8.472 -2.7616 -3.1458 -0.7354
 2692SOL    HW219536   2.501   2.563   8.470 -2.0103  0.0057 -0.5054
 2693SOL     OW19537   3.024   4.157   6.545 -0.6475 -0.3764 -0.2259
 2693SOL    HW119538   2.971   4.082   6.571  1.5030 -1.3264  1.4890
 2693SOL    HW219539   3.100   4.148   6.602 -1.0146 -0.7493  0.2048
 2694SOL     OW19540   4.406   4.257  10.666  0.0058  0.4342  0.3539
 2694SOL    HW119541   4.387   4.300  10.749 -0.1913 -2.2401  1.6610
 2694SOL    HW219542   4.330   4.208  10.635 -0.6153  2.1965 -0.9393
 2695SOL     OW19543   0.719   2.271   3.842 -0.5821 -0.0304  0.0461
 2695SOL    HW119544   0.775   2.320   3.903 -2.3288  0.1949  1.4670
 2695SOL    HW219545   0.786   2.240   3.780 -0.4054  0.5835 -0.0625
 2696SOL     OW19546   2.998   1.187  16.681  0.1160 -0.0270  0.2846
 2696SOL    HW119547   3.061   1.123  16.648  1.4219  1.8430 -0.8517
 2696SOL    HW219548   3.018   1.199  16.774  0.8933 -1.0300  0.2498
 2697SOL     OW19549   2.643   4.323   9.324 -0.2113  0.3980 -0.6913
 2697SOL    HW119550   2.689   4.298   9.405 -2.5625 -1.2596  0.1268
 2697SOL    HW219551   2.557   4.283   9.341  0.2015 -1.0328 -1.9437
 2698SOL     OW19552   1.203   0.951   3.948  0.0951 -0.1677  0.2251
 2698SOL    HW119553   1.144   1.017   3.913  0.0972 -1.6839 -2.5821
 2698SOL    HW219554   1.164   0.918   4.029 -0.5743 -1.3614 -0.5881
 2699SOL     OW19555   3.266   0.921  10.552 -0.2569  0.0469 -0.0012
 2699SOL    HW119556   3.239   0.837  10.588  1.5555  0.0424  1.3597
 2699SOL    HW219557   3.190   0.944  10.497 -0.3091  2.2605  1.0072
 2700SOL     OW19558   1.295   1.312  12.785 -0.0597 -0.0461  0.1608
 2700SOL    HW119559   1.296   1.376  12.714  0.6247 -0.7673 -0.4719
 2700SOL    HW219560   1.311   1.227  12.745  1.5239  0.5125 -0.3782
 2701SOL     OW19561   1.114   2.026  16.324  0.0238  0.4023  0.1284
 2701SOL    HW119562   1.045   2.072  16.276 -0.9657 -0.3389  0.8600
 2701SOL    HW219563   1.079   1.937  16.325 -0.1389  0.4854  1.2102
 2702SOL     OW19564   0.925   4.337   6.481 -0.1970 -0.8624 -0.2037
 2702SOL    HW119565   0.845   4.339   6.534 -1.9308  0.3178 -2.8773
 2702SOL    HW219566   0.897   4.276   6.413  0.6286  1.1981 -2.3802
 2703SOL     OW19567   4.587   0.367   8.106 -0.0956  0.0239  0.1009
 2703SOL    HW119568   4.624   0.281   8.088  1.2078  0.6282 -0.1696
 2703SOL    HW219569   4.537   0.384   8.026 -2.9975 -0.6690  1.7945
 2704SOL     OW19570   4.542   3.984   8.126 -0.0178 -0.2492  0.6760
 2704SOL    HW119571   4.545   4.073   8.162 -0.1783  0.6370 -1.4985
 2704SOL    HW219572   4.630   3.950   8.141  1.2193  1.6362 -2.3804
 2705SOL     OW19573   1.037   0.883   9.676 -0.9304 -0.3901  0.1426
 2705SOL    HW119574   1.074   0.817   9.736 -1.0637  0.0262  0.6878
 2705SOL    HW219575   1.076   0.967   9.700  1.9627 -1.6654  0.0244
 2706SOL     OW19576   4.580   0.796   3.456 -0.1612  0.3132  0.0764
 2706SOL    HW119577   4.603   0.884   3.426  0.6980 -0.2320 -0.8310
 2706SOL    HW219578   4.657   0.752   3.420 -0.0211 -0.2327  1.0568
 2707SOL     OW19579   3.126   3.996   6.172  0.0086 -0.3425 -0.0043
 2707SOL    HW119580   3.031   3.991   6.181 -0.2278 -1.6354 -3.1957
 2707SOL    HW219581   3.165   3.944   6.242  2.9018  2.7373  0.6421
 2708SOL     OW19582   0.298   1.197  13.638 -0.9461  0.1529  0.2298
 2708SOL    HW119583   0.322   1.214  13.729  1.0635 -0.9418 -0.0841
 2708SOL    HW219584   0.323   1.107  13.619  0.3399  0.0791  2.2959
 2709SOL     OW19585   2.170   2.871   6.245 -0.1263  0.0718  0.5329
 2709SOL    HW119586   2.098   2.926   6.215 -2.2740 -2.8496  0.3361
 2709SOL    HW219587   2.211   2.927   6.311  0.3327  0.0441  0.2690
 2710SOL     OW19588   0.444   2.554   4.701  0.0230  0.0517 -0.4500
 2710SOL    HW119589   0.488   2.600   4.630 -0.7426  1.3441 -0.0824
 2710SOL    HW219590   0.353   2.560   4.672 -0.6435 -0.6046  1.5119
 2711SOL     OW19591   2.677   1.130  17.420  0.2154 -0.1477  0.8612
 2711SOL    HW119592   2.670   1.174  17.505  0.7600  1.1493  0.2223
 2711SOL    HW219593   2.623   1.054  17.444  2.2278 -0.3626  4.7193
 2712SOL     OW19594   0.130   0.011  10.433  0.4346  0.4887  0.5438
 2712SOL    HW119595   0.132   0.009  10.528  0.0335 -0.1514  0.5461
 2712SOL    HW219596   0.117   4.637  10.418 -0.2118  1.1862 -3.3723
 2713SOL     OW19597   0.560   2.288   2.775  0.9001 -0.3212 -0.4027
 2713SOL    HW119598   0.549   2.256   2.685  3.2979 -0.4024 -0.6839
 2713SOL    HW219599   0.526   2.215   2.826  0.1921  0.9817  1.0023
 2714SOL     OW19600   2.997   1.311   2.873 -0.0801 -0.3361  0.3247
 2714SOL    HW119601   3.036   1.329   2.958  1.2425  0.8601 -0.5334
 2714SOL    HW219602   2.904   1.309   2.897  0.1698  0.1609  1.3377
 2715SOL     OW19603   0.202   2.470   6.225 -0.3861 -0.5086 -0.0303
 2715SOL    HW119604   0.129   2.409   6.214 -0.4480 -0.4198 -0.1140
 2715SOL    HW219605   0.171   2.553   6.189 -0.6336 -0.3474  0.5429
 2716SOL     OW19606   0.635   4.716   8.902 -0.8253 -0.2206 -0.0758
 2716SOL    HW119607   0.605   0.017   8.991 -0.1589  0.7950 -0.0759
 2716SOL    HW219608   0.635   4.620   8.902  1.5279 -0.2335  1.7403
 2717SOL     OW19609   3.593   2.804   4.696 -0.0984  0.3374 -0.1648
 2717SOL    HW119610   3.525   2.848   4.645  1.6102  0.5394 -2.2650
 2717SOL    HW219611   3.636   2.879   4.738 -0.2733 -1.2356  2.7645
 2718SOL     OW19612   1.497   1.935   4.549 -0.2787  0.0582  0.5129
 2718SOL    HW119613   1.585   1.949   4.515 -0.6793 -2.5869 -1.5967
 2718SOL    HW219614   1.514   1.917   4.641  0.0954  1.4159  0.7054
 2719SOL     OW19615   4.337   3.083   7.998 -0.2362  0.2225 -0.3659
 2719SOL    HW119616   4.309   2.996   7.969  2.0993 -0.8666  0.5925
 2719SOL    HW219617   4.371   3.063   8.086 -0.4915  1.5492  0.0299
 2720SOL     OW19618   4.529   0.387  12.561 -0.5737 -0.2861 -0.0100
 2720SOL    HW119619   4.453   0.409  12.506 -1.1761 -1.1052  0.5029
 2720SOL    HW219620   4.569   0.327  12.499  1.7902  1.0633  0.2198
 2721SOL     OW19621   2.508   4.278  15.315 -0.1737 -0.4880  1.2702
 2721SOL    HW119622   2.590   4.310  15.277 -1.8559  3.4450  0.9195
 2721SOL    HW219623   2.535   4.191  15.344  1.3443 -0.6965 -0.7714
 2722SOL     OW19624   1.414   0.301  17.662  0.2990 -0.1196  0.6867
 2722SOL    HW119625   1.462   0.220  17.676  0.5907 -0.5297 -2.5468
 2722SOL    HW219626   1.325   0.277   0.007 -0.2845 -0.2677 -1.4323
 2723SOL     OW19627   0.039   3.047   7.391 -0.0905  0.3230 -0.2104
 2723SOL    HW119628   0.063   2.955   7.378  0.2348  0.6346 -1.8947
 2723SOL    HW219629   0.021   3.050   7.485  1.4821 -1.6005  0.1539
 2724SOL     OW19630   1.330   0.868   5.205  0.2237 -0.3190 -0.3285
 2724SOL    HW119631   1.311   0.936   5.270 -0.9331 -0.2256 -0.7561
 2724SOL    HW219632   1.241   0.831   5.200  0.1133 -0.0537 -0.3154
 2725SOL     OW19633   3.016   0.926   5.969 -0.2417  0.0498 -0.1440
 2725SOL    HW119634   3.112   0.920   5.964 -0.2357  0.5929 -0.6622
 2725SOL    HW219635   3.000   0.857   6.034 -0.1505 -0.5663 -0.7662
 2726SOL     OW19636   1.360   1.897   6.480  0.5575 -0.3113 -0.4596
 2726SOL    HW119637   1.278   1.939   6.502  0.4740 -0.9064  0.3750
 2726SOL    HW219638   1.418   1.967   6.509 -0.3678  0.2740 -0.0331
 2727SOL     OW19639   3.719   3.516   3.335  0.0421 -0.1565  0.5626
 2727SOL    HW119640   3.705   3.554   3.249  1.5292 -3.0287 -0.9643
 2727SOL    HW219641   3.815   3.519   3.334  0.1116 -1.9623  0.9280
 2728SOL     OW19642   1.526   0.492   7.342 -0.5182 -0.1582 -0.0981
 2728SOL    HW119643   1.542   0.475   7.249  0.9757  0.1613  0.1020
 2728SOL    HW219644   1.440   0.451   7.345 -0.7643  0.3806  0.1275
 2729SOL     OW19645   4.268   4.401   1.948 -0.5199 -0.8551  1.1114
 2729SOL    HW119646   4.213   4.474   1.976  0.1048 -0.0152  0.1348
 2729SOL    HW219647   4.271   4.355   2.032 -0.7856 -1.8265  0.5949
 2730SOL     OW19648   2.751   2.695   4.098  0.3657 -0.6548  0.4621
 2730SOL    HW119649   2.747   2.740   4.183 -0.2653 -1.5302  0.8905
 2730SOL    HW219650   2.679   2.632   4.101 -0.4146  0.1815 -0.4731
 2731SOL     OW19651   0.919   2.134   3.709  0.5034 -0.3698 -0.1674
 2731SOL    HW119652   0.976   2.077   3.656  0.6096  1.9998 -2.5975
 2731SOL    HW219653   0.890   2.057   3.759  2.1746  0.6774  2.3665
 2732SOL     OW19654   1.837   0.628  10.518  0.2856  0.2378  0.0562
 2732SOL    HW119655   1.852   0.715  10.555  0.2585 -0.0396  0.7178
 2732SOL    HW219656   1.858   0.567  10.588 -0.2199 -0.4026 -0.3554
 2733SOL     OW19657   4.292   4.719   8.255 -0.1279 -0.4172  0.2544
 2733SOL    HW119658   4.309   0.032   8.167  0.1255 -1.2651 -0.0121
 2733SOL    HW219659   4.233   0.065   8.292  0.7233  0.1096  0.6630
 2734SOL     OW19660   0.154   0.609   1.741  0.2459  0.0519  0.4918
 2734SOL    HW119661   0.094   0.658   1.797 -1.4090  0.0853 -1.2791
 2734SOL    HW219662   0.229   0.578   1.790  2.6061 -0.0547 -3.1409
 2735SOL     OW19663   2.790   2.642  13.988 -0.0001  0.2098 -0.3103
 2735SOL    HW119664   2.789   2.546  13.983  1.1806  0.1694  0.0596
 2735SOL    HW219665   2.883   2.665  13.987  0.2623 -0.7531  1.5526
 2736SOL     OW19666   3.343   1.205   6.634 -0.0521 -0.2246 -0.3480
 2736SOL    HW119667   3.402   1.192   6.560 -0.2695 -1.0698 -0.3718
 2736SOL    HW219668   3.347   1.114   6.665  0.6746  0.6479  2.1197
 2737SOL     OW19669   3.943   4.671   2.955 -0.0742 -0.4004 -0.6487
 2737SOL    HW119670   3.995   4.614   3.013 -0.4501  2.2755  2.2874
 2737SOL    HW219671   3.964   4.619   2.877  2.8634  0.0484 -0.1629
 2738SOL     OW19672   0.702   2.684   3.141  1.3106  0.1991  0.0111
 2738SOL    HW119673   0.618   2.691   3.095  1.6696 -0.1997 -0.7236
 2738SOL    HW219674   0.677   2.697   3.232  2.1660 -1.5930  0.5218
 2739SOL     OW19675   2.930   1.312   5.759  0.0740  0.5209  0.3618
 2739SOL    HW119676   2.992   1.347   5.823  1.2269  0.3701 -0.6796
 2739SOL    HW219677   2.885   1.390   5.728 -1.4829 -1.4476 -2.3919
 2740SOL     OW19678   0.953   0.297  13.388  0.0147 -0.1206  0.0145
 2740SOL    HW119679   0.998   0.349  13.455  2.1339  0.5403 -1.9001
 2740SOL    HW219680   0.889   0.363  13.361 -2.4504 -2.0470  1.2157
 2741SOL     OW19681   4.500   4.195   8.347 -0.3584 -1.1080  0.4595
 2741SOL    HW119682   4.481   4.161   8.435 -1.2155  0.4828  0.8777
 2741SOL    HW219683   4.551   4.272   8.371 -0.3836 -0.3905 -1.8546
 2742SOL     OW19684   3.924   1.002   5.552 -0.4118 -0.2164  0.0737
 2742SOL    HW119685   3.922   0.915   5.593 -1.1746  1.4450  3.5429
 2742SOL    HW219686   3.830   1.018   5.537 -0.6670 -0.5373  1.3753
 2743SOL     OW19687   4.515   1.573  14.067 -0.4585 -0.3743  0.1278
 2743SOL    HW119688   4.469   1.640  14.117  0.4321 -0.4897  1.0964
 2743SOL    HW219689   4.468   1.569  13.984  1.4580 -2.9394 -0.8397
 2744SOL     OW19690   0.834   0.720   9.244  0.0288  1.0139  0.1396
 2744SOL    HW119691   0.830   0.804   9.289 -0.4292  0.4342  1.1889
 2744SOL    HW219692   0.879   0.749   9.164 -2.0429 -0.3588 -1.5210
 2745SOL     OW19693   4.358   4.291   5.943  0.2133 -0.3752 -0.0405
 2745SOL    HW119694   4.308   4.265   5.866  0.2721  2.4524 -1.0380
 2745SOL    HW219695   4.296   4.312   6.013  1.2780  0.5903  0.6184
 2746SOL     OW19696   3.369   3.350   8.300 -0.8106  0.1840 -0.3902
 2746SOL    HW119697   3.344   3.417   8.364  0.5611  3.2120 -3.0300
 2746SOL    HW219698   3.284   3.322   8.267 -0.2502 -0.5411 -1.2134
 2747SOL     OW19699   0.641   3.517   1.575  0.2873  0.5598  0.0836
 2747SOL    HW119700   0.653   3.612   1.570 -1.5823  0.7957  0.2529
 2747SOL    HW219701   0.578   3.487   1.510  1.2853 -1.2038 -0.0623
 2748SOL     OW19702   4.476   2.627   7.740 -0.1874  0.2506 -0.1044
 2748SOL    HW119703   4.459   2.609   7.833  0.0003  0.4499 -0.0336
 2748SOL    HW219704   4.450   2.544   7.699  0.3613  0.1435 -0.2409
 2749SOL     OW19705   2.012   4.578   4.888  0.1427 -0.6074  0.3835
 2749SOL    HW119706   1.992   4.496   4.843 -0.4652 -1.0490  1.4543
 2749SOL    HW219707   2.102   4.560   4.913 -0.2413 -0.4732  1.8708
 2750SOL     OW19708   1.566   3.437  13.037  0.1092 -0.5916  0.2615
 2750SOL    HW119709   1.495   3.494  13.067  3.1927  2.6552  1.4313
 2750SOL    HW219710   1.608   3.432  13.123  2.6671 -1.9035 -1.0668
 2751SOL     OW19711   1.465   2.309  10.303  0.9093  0.0932 -0.0378
 2751SOL    HW119712   1.428   2.235  10.350  0.5766 -0.5431 -1.3142
 2751SOL    HW219713   1.551   2.271  10.289  1.1003  0.2787  0.6177
 2752SOL     OW19714   0.376   1.455   8.787  0.7471 -0.2283 -0.2383
 2752SOL    HW119715   0.367   1.521   8.855  1.2428 -0.7570  0.3342
 2752SOL    HW219716   0.362   1.372   8.832  2.2283  0.1207  0.8527
 2753SOL     OW19717   3.649   0.837  11.974 -0.0030 -0.0167 -0.4359
 2753SOL    HW119718   3.609   0.765  12.024 -0.5886  0.2758 -0.4864
 2753SOL    HW219719   3.744   0.826  11.981 -0.1433 -0.8588  0.2023
 2754SOL     OW19720   1.962   3.953   2.667 -0.0605 -0.4310 -0.1989
 2754SOL    HW119721   2.013   3.976   2.744  0.6303  1.5805 -1.2622
 2754SOL    HW219722   2.024   3.884   2.643 -1.0193 -1.5590  0.5363
 2755SOL     OW19723   3.204   1.136  15.899 -0.4692 -0.5519 -0.2220
 2755SOL    HW119724   3.193   1.071  15.830  2.1473 -1.4418  0.1770
 2755SOL    HW219725   3.147   1.202  15.860 -0.5069 -0.3914  0.1045
 2756SOL     OW19726   2.690   1.351   7.550  0.2203 -0.2339  0.5744
 2756SOL    HW119727   2.634   1.273   7.550 -0.3435  0.1657  0.0137
 2756SOL    HW219728   2.666   1.385   7.464 -1.0200 -1.4295  0.4314
 2757SOL     OW19729   4.646   2.508   8.861 -0.1936  0.2239 -0.0262
 2757SOL    HW119730   4.649   2.555   8.944 -1.2071 -3.8854  2.3297
 2757SOL    HW219731   4.684   2.425   8.889  1.3350  0.5676 -1.1194
 2758SOL     OW19732   3.584   2.853  10.625 -0.2242 -0.2146 -0.2220
 2758SOL    HW119733   3.600   2.898  10.709  1.5662  1.2191 -1.3250
 2758SOL    HW219734   3.547   2.914  10.562 -0.4995 -1.0692 -0.8707
 2759SOL     OW19735   0.962   1.379   8.934 -0.5496  0.2982  0.2552
 2759SOL    HW119736   0.954   1.288   8.963  0.6911  0.0654 -0.0985
 2759SOL    HW219737   0.869   1.388   8.914 -0.3690  1.5063 -0.0122
 2760SOL     OW19738   4.177   1.454   6.266 -0.1105  0.2965  0.8720
 2760SOL    HW119739   4.197   1.547   6.257  2.0597 -0.3830 -1.4176
 2760SOL    HW219740   4.140   1.441   6.353  0.8759 -0.8395  1.1334
 2761SOL     OW19741   1.979   2.501  14.288  0.1947  0.1850  0.3462
 2761SOL    HW119742   1.969   2.510  14.193 -0.4043 -0.0466  0.3932
 2761SOL    HW219743   2.071   2.474  14.296  0.4907  1.3585  0.9173
 2762SOL     OW19744   4.331   4.413  11.592 -0.2250 -0.1325 -0.3178
 2762SOL    HW119745   4.342   4.382  11.682  0.7493  1.6515  0.1897
 2762SOL    HW219746   4.365   4.345  11.535 -1.3231 -1.5821  0.7437
 2763SOL     OW19747   0.229   3.450   3.160  0.0974  0.5706 -0.0163
 2763SOL    HW119748   0.312   3.476   3.199  0.4538 -0.0661 -0.3397
 2763SOL    HW219749   0.218   3.495   3.076 -1.4313 -1.3669 -0.8634
 2764SOL     OW19750   3.364   1.982   9.681  0.2687 -0.0521  0.0692
 2764SOL    HW119751   3.372   2.077   9.673  0.5011 -0.0609  0.1793
 2764SOL    HW219752   3.391   1.978   9.773 -2.9618  1.3872  1.0895
 2765SOL     OW19753   1.137   2.832   7.957 -0.3003  0.2192 -0.6395
 2765SOL    HW119754   1.053   2.798   7.986  1.9768 -2.1497  3.1620
 2765SOL    HW219755   1.191   2.756   7.977 -2.2408 -1.0885 -0.3508
 2766SOL     OW19756   1.154   3.572   1.955 -0.1144 -0.8022  0.3088
 2766SOL    HW119757   1.223   3.569   2.022 -1.3993 -2.4528  1.5348
 2766SOL    HW219758   1.088   3.522   2.004 -0.4785  0.3374  0.9888
 2767SOL     OW19759   3.299   4.553   2.360 -0.2950 -0.1022 -0.4268
 2767SOL    HW119760   3.382   4.600   2.371 -1.1980  1.6397 -1.1214
 2767SOL    HW219761   3.324   4.463   2.339  0.6270  0.1280 -0.3021
 2768SOL     OW19762   4.213   3.490   1.852  0.5391  0.2798 -0.0947
 2768SOL    HW119763   4.206   3.394   1.856  0.1316  0.3949  1.6364
 2768SOL    HW219764   4.148   3.522   1.789 -0.4687 -2.2334 -0.3362
 2769SOL     OW19765   2.583   3.125  13.422 -0.2021  0.2850 -0.1666
 2769SOL    HW119766   2.534   3.137  13.503  1.7414 -2.5428  1.4458
 2769SOL    HW219767   2.527   3.174  13.361 -0.4228  1.5143  1.0401
 2770SOL     OW19768   1.186   0.820  14.698 -0.0498  0.1777 -0.3853
 2770SOL    HW119769   1.199   0.880  14.771 -0.7520  1.4248 -1.2866
 2770SOL    HW219770   1.277   0.799  14.680  0.1518  1.3157 -0.6599
 2771SOL     OW19771   1.525   0.183  14.050  0.3292 -0.0201  0.4662
 2771SOL    HW119772   1.484   0.199  14.135 -1.5576  2.0347 -0.8235
 2771SOL    HW219773   1.600   0.242  14.060  0.2788  0.4437 -1.8664
 2772SOL     OW19774   0.706   0.862   7.232 -0.4536 -0.4229  0.4910
 2772SOL    HW119775   0.738   0.801   7.166 -3.4620 -0.7996 -0.6297
 2772SOL    HW219776   0.678   0.929   7.170 -1.1108  0.4430  1.7103
 2773SOL     OW19777   4.689   1.854  12.450  0.2996  0.8509  0.5185
 2773SOL    HW119778   4.641   1.903  12.517  0.2941  0.6295  0.6792
 2773SOL    HW219779   0.057   1.891  12.449  0.7098 -0.1560 -1.2411
 2774SOL     OW19780   0.302   2.692   0.752  0.4771 -0.5130  0.1135
 2774SOL    HW119781   0.372   2.646   0.798  0.7103  1.2443  1.5573
 2774SOL    HW219782   0.231   2.663   0.810  0.1901  1.9965  1.0121
 2775SOL     OW19783   3.632   2.766   5.134 -0.3341  0.1521 -0.6967
 2775SOL    HW119784   3.560   2.708   5.157  0.2255 -0.3952 -0.3192
 2775SOL    HW219785   3.707   2.715   5.102  0.1586  0.9232 -0.7670
 2776SOL     OW19786   3.902   0.690  17.045 -0.9672  0.0162  0.2691
 2776SOL    HW119787   3.993   0.661  17.044 -1.3816 -1.3782  1.3696
 2776SOL    HW219788   3.887   0.686  16.951 -2.6902  0.5789  0.5157
 2777SOL     OW19789   2.906   2.359   4.270  1.1342 -0.3501  0.0850
 2777SOL    HW119790   2.932   2.312   4.350  1.3283 -0.8704 -0.2863
 2777SOL    HW219791   2.830   2.412   4.294  1.4004 -0.2277  0.6647
 2778SOL     OW19792   0.830   0.121   8.672  0.1378 -0.0080  0.3065
 2778SOL    HW119793   0.816   0.210   8.639  0.0980  0.0981  0.6095
 2778SOL    HW219794   0.780   0.118   8.753  0.1356 -0.8650  0.2789
 2779SOL     OW19795   0.904   1.463   8.025  0.1322 -0.0668 -0.4739
 2779SOL    HW119796   0.842   1.482   8.095 -0.5665  0.1544 -1.1557
 2779SOL    HW219797   0.989   1.447   8.067  0.8026  2.8178 -0.7657
 2780SOL     OW19798   3.207   3.078   8.437 -0.2797 -0.2346  0.1471
 2780SOL    HW119799   3.205   3.083   8.341 -1.1232 -0.0353  0.1741
 2780SOL    HW219800   3.187   3.170   8.456  0.2096  0.0867 -0.8745
 2781SOL     OW19801   4.433   2.402   6.293 -0.0937  0.0582  0.1282
 2781SOL    HW119802   4.451   2.395   6.386  1.1123  0.9806 -0.0329
 2781SOL    HW219803   4.521   2.377   6.263 -0.6893 -1.2027 -0.5885
 2782SOL     OW19804   4.276   3.659   8.559 -0.0339 -0.1439 -0.5926
 2782SOL    HW119805   4.288   3.724   8.628 -1.4705 -0.4946  0.0006
 2782SOL    HW219806   4.316   3.697   8.481 -0.7936  0.5695 -0.6376
 2783SOL     OW19807   0.189   1.823   4.962 -0.1077 -0.6781 -0.2745
 2783SOL    HW119808   0.148   1.802   5.046 -0.5241  0.5441 -0.1626
 2783SOL    HW219809   0.230   1.904   4.994  0.2984 -1.0080  0.0518
 2784SOL     OW19810   3.680   2.208   9.315  0.5985  0.1360  0.3846
 2784SOL    HW119811   3.670   2.126   9.362 -1.4340  0.8055  1.1271
 2784SOL    HW219812   3.590   2.240   9.319  0.1272 -1.2198  0.4406
 2785SOL     OW19813   0.337   1.712   4.746 -0.0012 -0.6565  0.2783
 2785SOL    HW119814   0.292   1.753   4.820  0.6106 -1.2270  0.9660
 2785SOL    HW219815   0.398   1.775   4.708 -3.4504  0.3704 -3.5371
 2786SOL     OW19816   1.248   3.827  10.881  0.3353 -0.5626  0.1084
 2786SOL    HW119817   1.217   3.913  10.853  0.0089 -1.2331 -1.6113
 2786SOL    HW219818   1.176   3.788  10.931 -0.6850  1.5596  0.2855
 2787SOL     OW19819   2.772   3.331  10.156  0.1732 -0.2382 -0.5389
 2787SOL    HW119820   2.736   3.333  10.067 -0.3611 -0.5605 -0.3268
 2787SOL    HW219821   2.691   3.338  10.207 -0.3265  3.6931 -1.7948
 2788SOL     OW19822   0.401   0.646  13.074 -0.8824  0.2627  0.2529
 2788SOL    HW119823   0.307   0.660  13.064 -0.9103  0.7669  1.2037
 2788SOL    HW219824   0.428   0.719  13.018  3.3886 -0.8479  0.8352
 2789SOL     OW19825   2.490   2.315   2.437  0.0083 -0.5021 -0.4570
 2789SOL    HW119826   2.469   2.224   2.455 -0.0609 -0.1897  1.0372
 2789SOL    HW219827   2.565   2.317   2.377  1.1793 -0.2859  1.0093
 2790SOL     OW19828   0.944   1.510   3.063  0.0689  0.4262 -0.1062
 2790SOL    HW119829   0.861   1.525   3.016  0.0179 -0.5846 -0.3470
 2790SOL    HW219830   0.939   1.593   3.111  0.7620  0.7984 -0.6823
 2791SOL     OW19831   0.769   2.823  14.837  0.3087  0.2501  0.4422
 2791SOL    HW119832   0.711   2.841  14.911 -0.0735 -1.8545  0.6618
 2791SOL    HW219833   0.704   2.793  14.774  2.4328  0.3238 -1.7654
 2792SOL     OW19834   1.893   3.405   8.188 -0.2519 -0.2228 -0.0222
 2792SOL    HW119835   1.847   3.381   8.108 -1.8136  1.9914  0.2071
 2792SOL    HW219836   1.874   3.499   8.190 -0.9705 -0.3666 -0.0666
 2793SOL     OW19837   1.596   4.601   2.572 -0.1327  0.4712 -0.3393
 2793SOL    HW119838   1.686   4.571   2.565  0.0603  1.2779 -1.2746
 2793SOL    HW219839   1.550   4.534   2.521 -0.8963  0.5901  0.1747
 2794SOL     OW19840   1.097   1.225   2.276 -0.1498 -0.1862 -0.1468
 2794SOL    HW119841   1.161   1.277   2.325 -1.3146  2.9224 -1.9678
 2794SOL    HW219842   1.150   1.146   2.260  0.4939  0.2452 -0.1321
 2795SOL     OW19843   1.826   0.280   6.018 -0.5764  0.3202 -0.2230
 2795SOL    HW119844   1.803   0.358   5.969  0.8579  1.1687  0.4372
 2795SOL    HW219845   1.871   0.312   6.097  0.6742 -0.5480 -0.5757
 2796SOL     OW19846   2.907   1.723  13.306  0.1543  0.3504  0.1025
 2796SOL    HW119847   2.821   1.758  13.328  0.9189  2.3832 -0.1294
 2796SOL    HW219848   2.957   1.792  13.350  0.8288 -0.1344  0.0953
 2797SOL     OW19849   0.258   3.071  16.281 -0.0857 -0.3796 -0.5423
 2797SOL    HW119850   0.264   3.021  16.200 -0.4492 -0.6699 -0.3907
 2797SOL    HW219851   0.339   3.122  16.278 -0.5889  0.3358 -1.7980
 2798SOL     OW19852   1.971   2.312   5.891 -0.0773  0.0696  0.5880
 2798SOL    HW119853   1.994   2.289   5.801 -0.1472 -1.5068  0.9729
 2798SOL    HW219854   1.885   2.270   5.881  0.7754 -1.8702  1.3685
 2799SOL     OW19855   3.284   0.472   7.309 -0.4867 -0.0225 -0.0364
 2799SOL    HW119856   3.354   0.416   7.343  0.3240  0.5491 -0.7605
 2799SOL    HW219857   3.300   0.565   7.323  3.2870 -0.4491 -1.4566
 2800SOL     OW19858   1.369   3.937  17.038 -0.4418 -0.1618  0.2570
 2800SOL    HW119859   1.389   4.027  17.065  0.3541 -1.2871  3.4116
 2800SOL    HW219860   1.388   3.883  17.115  1.8436 -0.5259 -0.5662
 2801SOL     OW19861   0.346   4.398   0.291 -0.4184  0.1013  0.3108
 2801SOL    HW119862   0.278   4.401   0.359 -0.8532 -2.0343 -0.0355
 2801SOL    HW219863   0.385   4.485   0.287  0.3928 -0.3536 -1.9458
 2802SOL     OW19864   0.087   3.478  13.375  0.1143  0.1634  0.2507
 2802SOL    HW119865   0.109   3.498  13.285 -1.6997  1.0831  0.0171
 2802SOL    HW219866   4.712   3.491  13.382  0.0574  0.4879 -1.2911
 2803SOL     OW19867   1.722   2.416   8.912 -0.3832  0.0739  0.4646
 2803SOL    HW119868   1.656   2.469   8.958  0.6276  0.9222  0.9400
 2803SOL    HW219869   1.682   2.331   8.931 -1.3687  1.0239  2.6445
 2804SOL     OW19870   0.747   0.987   9.555 -0.5234  0.0160 -0.1916
 2804SOL    HW119871   0.702   0.922   9.608  0.9341 -1.0446 -0.2610
 2804SOL    HW219872   0.819   1.001   9.617 -0.7379  1.7352 -0.3357
 2805SOL     OW19873   3.037   1.613  11.183  0.1194 -0.0979  0.1374
 2805SOL    HW119874   2.950   1.636  11.216  0.0152 -1.1786  0.6332
 2805SOL    HW219875   3.031   1.602  11.088 -0.3810  0.6253  0.0824
 2806SOL     OW19876   1.899   0.403  10.309  0.4003 -0.2868 -0.4322
 2806SOL    HW119877   1.964   0.371  10.371  0.8709  1.3441 -0.0877
 2806SOL    HW219878   1.895   0.336  10.240 -1.5604  0.1177 -0.7073
 2807SOL     OW19879   0.066   2.940   6.656  0.4043 -0.3032 -0.3742
 2807SOL    HW119880   0.148   2.952   6.703  0.7517 -1.1247 -0.7789
 2807SOL    HW219881   0.015   2.895   6.724 -1.8280 -0.3738 -2.0813
 2808SOL     OW19882   1.882   3.287  13.759 -0.2752 -0.1258 -0.1157
 2808SOL    HW119883   1.956   3.232  13.732 -0.0062 -0.0721  0.5009
 2808SOL    HW219884   1.874   3.266  13.852 -0.1177  2.7265  0.5338
 2809SOL     OW19885   3.445   3.661   5.691 -0.1269  0.2056  0.2603
 2809SOL    HW119886   3.508   3.676   5.761 -0.3801  1.6198  0.1916
 2809SOL    HW219887   3.383   3.732   5.708 -0.3305  0.3559 -1.0558
 2810SOL     OW19888   4.648   1.512   2.741 -0.4591  0.7716 -0.0416
 2810SOL    HW119889   4.707   1.440   2.722  1.3704  1.9405  1.2276
 2810SOL    HW219890   4.560   1.490   2.710 -1.2009  3.5785  0.1011
 2811SOL     OW19891   1.982   2.737   3.479  0.3264  0.2565  0.5291
 2811SOL    HW119892   1.902   2.686   3.482  1.7841 -2.0961 -0.6515
 2811SOL    HW219893   2.042   2.684   3.427  0.4287  0.5211  0.3771
 2812SOL     OW19894   4.133   2.817   1.786  0.0485  0.6416 -0.1105
 2812SOL    HW119895   4.153   2.844   1.875 -1.3742  1.0072  0.0919
 2812SOL    HW219896   4.045   2.778   1.791  0.0346  0.7728  0.6539
 2813SOL     OW19897   2.608   4.072  15.884 -0.4333  0.2883 -0.1121
 2813SOL    HW119898   2.673   4.063  15.815  0.3636 -0.7609  0.7685
 2813SOL    HW219899   2.604   4.167  15.894  0.2379  0.1172  1.9158
 2814SOL     OW19900   2.036   4.508  15.738 -0.0629 -0.3875 -0.0615
 2814SOL    HW119901   1.965   4.451  15.767  1.3970 -1.5806  1.1864
 2814SOL    HW219902   1.991   4.589  15.716 -0.2048 -0.0838  1.3721
 2815SOL     OW19903   2.459   0.173   0.448  0.3877  0.8048 -0.3674
 2815SOL    HW119904   2.493   0.183   0.359  0.6683 -0.7496 -0.4516
 2815SOL    HW219905   2.379   0.124   0.427 -0.5663  2.2307 -0.0356
 2816SOL     OW19906   2.479   1.111   1.563  0.6560 -0.6689  0.2842
 2816SOL    HW119907   2.565   1.153   1.560  1.1481 -1.7885 -1.2042
 2816SOL    HW219908   2.424   1.187   1.582  2.1405  0.6597 -0.6997
 2817SOL     OW19909   2.252   0.463   5.477  0.0361  0.0398  0.5312
 2817SOL    HW119910   2.284   0.510   5.400 -0.6809  0.7042  0.6307
 2817SOL    HW219911   2.167   0.506   5.479 -1.0090 -1.9762 -1.0991
 2818SOL     OW19912   3.798   4.574   5.588  0.1652  0.1583  0.1835
 2818SOL    HW119913   3.864   4.590   5.655 -1.3134  1.3912  1.3437
 2818SOL    HW219914   3.798   4.654   5.536  1.2466 -1.4995 -2.3467
 2819SOL     OW19915   1.077   1.761   5.282  0.3435 -0.6050 -0.5885
 2819SOL    HW119916   1.011   1.707   5.239  0.4786 -0.6200 -0.7741
 2819SOL    HW219917   1.129   1.774   5.203  0.4280 -0.3864 -0.4979
 2820SOL     OW19918   3.309   3.882   9.055  0.0141  0.0480  0.1126
 2820SOL    HW119919   3.216   3.862   9.056  0.1946 -0.7202  1.2789
 2820SOL    HW219920   3.314   3.977   9.056  2.2431 -0.0466 -1.3291
 2821SOL     OW19921   2.361   2.526   2.312 -0.0577 -0.1709 -0.2918
 2821SOL    HW119922   2.304   2.483   2.248 -1.2883 -0.7561  1.1994
 2821SOL    HW219923   2.422   2.462   2.347 -0.1253 -0.1754 -0.1816
 2822SOL     OW19924   4.035   4.503   2.765  0.3820  0.0021 -0.2364
 2822SOL    HW119925   4.073   4.541   2.686  0.7804  1.8086  0.8338
 2822SOL    HW219926   4.007   4.417   2.732 -0.0596  0.0512  0.0133
 2823SOL     OW19927   3.344   2.422   1.548 -0.1363 -0.2758 -0.1608
 2823SOL    HW119928   3.392   2.344   1.577  2.2792  0.4609 -2.1504
 2823SOL    HW219929   3.265   2.417   1.602  0.5314  1.0869  0.9731
 2824SOL     OW19930   3.730   1.216   6.719  0.5865 -0.3755 -0.2970
 2824SOL    HW119931   3.682   1.162   6.783  1.7860  1.5862  2.2848
 2824SOL    HW219932   3.724   1.303   6.758 -0.7536 -0.1709 -0.9659
 2825SOL     OW19933   1.667   1.264  17.309  0.1362  0.6165 -0.3732
 2825SOL    HW119934   1.747   1.227  17.271  0.3808  1.2926 -0.5280
 2825SOL    HW219935   1.601   1.195  17.303 -1.2321  1.7351  1.9188
 2826SOL     OW19936   0.320   3.152   9.180  0.0138  0.0713 -0.2779
 2826SOL    HW119937   0.354   3.105   9.257  0.6679 -1.5229 -1.5276
 2826SOL    HW219938   0.325   3.243   9.209  1.6105 -0.1884  0.2829
 2827SOL     OW19939   4.661   1.594   6.764 -0.3641  0.4310 -0.3860
 2827SOL    HW119940   0.036   1.601   6.776 -0.2636 -0.6468 -0.4941
 2827SOL    HW219941   4.629   1.595   6.854  1.2801  1.9866  0.1506
 2828SOL     OW19942   4.473   0.409  12.113  0.3789  0.3650 -0.4943
 2828SOL    HW119943   4.382   0.387  12.094  0.5610 -0.6192 -0.2237
 2828SOL    HW219944   4.482   0.479  12.049  0.5870 -1.2871 -2.3058
 2829SOL     OW19945   3.540   2.920   3.014  0.1418 -0.0027  0.0994
 2829SOL    HW119946   3.592   2.890   2.940  1.7132  1.7825  0.4820
 2829SOL    HW219947   3.535   2.840   3.067  0.1608  0.5291  0.9118
 2830SOL     OW19948   2.323   0.843   1.195 -0.3478 -0.0110  0.6126
 2830SOL    HW119949   2.272   0.772   1.155 -0.5633  0.7693 -0.5120
 2830SOL    HW219950   2.394   0.852   1.132 -0.6693 -1.0773  0.1117
 2831SOL     OW19951   2.622   1.872  12.603 -0.7844  0.2974  0.0059
 2831SOL    HW119952   2.676   1.793  12.595 -1.5383 -0.0459 -1.8706
 2831SOL    HW219953   2.681   1.925  12.656 -0.7753  2.3972 -2.0952
 2832SOL     OW19954   3.510   2.686   3.119  0.3950  0.0958 -0.0310
 2832SOL    HW119955   3.420   2.683   3.088  1.3424 -2.5604 -2.5401
 2832SOL    HW219956   3.541   2.612   3.067  0.1629  0.5359 -0.7938
 2833SOL     OW19957   1.014   1.210   5.519  0.3393  0.4804  0.0079
 2833SOL    HW119958   0.931   1.224   5.564  0.0703 -0.1873 -0.2824
 2833SOL    HW219959   1.016   1.115   5.511 -1.1044  0.6072 -1.8185
 2834SOL     OW19960   2.200   3.540  13.736 -0.0412  0.3084  0.3761
 2834SOL    HW119961   2.126   3.569  13.683  0.3704  1.9333  0.7013
 2834SOL    HW219962   2.207   3.452  13.699  3.4698  1.3772 -1.4489
 2835SOL     OW19963   2.377   2.450   1.940  0.6152  0.1450 -0.0972
 2835SOL    HW119964   2.301   2.413   1.985  0.7785 -0.2404 -0.1330
 2835SOL    HW219965   2.395   2.397   1.862  2.1847 -0.5055  0.6974
 2836SOL     OW19966   3.448   3.873   6.688 -0.3533  0.0428  0.1099
 2836SOL    HW119967   3.491   3.935   6.629 -0.7408  0.8936  0.7178
 2836SOL    HW219968   3.510   3.864   6.760 -0.3508  0.8555  0.2197
 2837SOL     OW19969   0.338   1.646   1.505  0.8059  0.4864  0.1400
 2837SOL    HW119970   0.426   1.639   1.541  0.2728 -0.8177  1.1931
 2837SOL    HW219971   0.288   1.597   1.570  1.1692  1.0294  0.8291
 2838SOL     OW19972   4.446   3.197  14.762 -0.1055 -0.1443  0.2318
 2838SOL    HW119973   4.449   3.103  14.746  0.8018 -0.4472  2.2582
 2838SOL    HW219974   4.446   3.230  14.672 -0.3251 -0.5888  0.0702
 2839SOL     OW19975   3.944   1.499   6.437  0.2821  0.2438  0.4061
 2839SOL    HW119976   4.002   1.571   6.412  0.8850 -0.8587 -1.3592
 2839SOL    HW219977   3.860   1.511   6.394  0.7090 -0.1925 -0.5491
 2840SOL     OW19978   4.369   2.685   5.206  0.7461  0.0767 -0.1629
 2840SOL    HW119979   4.385   2.646   5.291 -2.5705 -1.9110 -0.4271
 2840SOL    HW219980   4.402   2.769   5.236 -1.2385  1.3894 -1.5923
 2841SOL     OW19981   0.918   0.178   8.982  0.0412  0.7332 -0.2846
 2841SOL    HW119982   0.919   0.111   9.051  0.8950  0.4069 -0.6171
 2841SOL    HW219983   0.912   0.132   8.898  2.4302  1.3853 -0.8106
 2842SOL     OW19984   3.043   2.060   9.702  0.8364  0.4881  0.3577
 2842SOL    HW119985   2.994   2.140   9.725 -0.8753 -0.5474  0.3309
 2842SOL    HW219986   3.135   2.085   9.701  0.6271  1.2368 -1.9427
 2843SOL     OW19987   0.131   4.451   0.499 -0.2125  0.3033 -0.2548
 2843SOL    HW119988   0.087   4.534   0.484 -2.1242 -0.0835  3.3853
 2843SOL    HW219989   0.063   4.398   0.540  0.7334  0.4278  1.4647
 2844SOL     OW19990   0.022   0.513   7.695 -0.1084 -0.0404  0.1508
 2844SOL    HW119991   4.701   0.427   7.694 -0.1398 -0.1042  3.9810
 2844SOL    HW219992   0.077   0.495   7.772  0.5430 -0.4393 -0.4129
 2845SOL     OW19993   3.719   0.406   2.228 -0.4028 -0.1033 -0.3832
 2845SOL    HW119994   3.721   0.317   2.190 -1.9960  0.0698 -0.8856
 2845SOL    HW219995   3.630   0.424   2.199 -1.0298  1.6517  2.7235
 2846SOL     OW19996   2.639   0.728   3.969 -0.1817  0.3739 -0.4285
 2846SOL    HW119997   2.621   0.795   3.903 -1.1792 -0.0307 -0.5626
 2846SOL    HW219998   2.550   0.719   4.003  0.4667 -0.9451  0.9019
 2847SOL     OW19999   3.678   0.369  17.487 -0.1293  0.6621  0.2798
 2847SOL    HW120000   3.689   0.390  17.394  0.3238  1.9792  0.6305
 2847SOL    HW220001   3.583   0.382  17.498 -0.0692  1.7713 -0.4827
 2848SOL     OW20002   1.568   2.818   5.187 -0.2408  0.4501  0.2459
 2848SOL    HW120003   1.476   2.814   5.162 -0.8093 -1.2594  2.6229
 2848SOL    HW220004   1.566   2.782   5.276  0.6138  1.2358  0.5802
 2849SOL     OW20005   1.430   2.068  12.002  0.0112  0.2312  0.4085
 2849SOL    HW120006   1.375   1.990  12.000  0.8968 -0.3892  0.4868
 2849SOL    HW220007   1.508   2.022  11.970  2.4436  3.2031  1.9738
 2850SOL     OW20008   4.207   1.970  14.363  0.4257  0.7095  0.1852
 2850SOL    HW120009   4.238   2.014  14.284 -0.7881  0.9127 -0.1810
 2850SOL    HW220010   4.157   1.899  14.323  2.3035  0.1591 -1.1384
 2851SOL     OW20011   3.556   4.196   8.305  0.2876 -0.3467 -0.6724
 2851SOL    HW120012   3.521   4.224   8.221 -2.4495 -3.4265 -0.5820
 2851SOL    HW220013   3.478   4.228   8.350  1.7064 -0.4453  1.8780
 2852SOL     OW20014   0.779   3.900  12.272  0.5362  0.1852  0.0375
 2852SOL    HW120015   0.846   3.831  12.270  0.4950  0.1531 -0.1922
 2852SOL    HW220016   0.842   3.968  12.296  0.8407 -0.3676  0.8010
 2853SOL     OW20017   2.198   1.241   0.449  0.5014  0.3210 -1.0301
 2853SOL    HW120018   2.142   1.187   0.506  1.1328  1.6996  0.9069
 2853SOL    HW220019   2.195   1.202   0.362  1.0015  1.2082 -1.4475
 2854SOL     OW20020   0.044   4.437  14.731 -0.5578 -0.0381 -0.1894
 2854SOL    HW120021   4.680   4.471  14.698 -0.5110  1.2728  1.0531
 2854SOL    HW220022   0.026   4.437  14.825 -1.1112  0.1082 -0.2908
 2855SOL     OW20023   2.263   1.423   7.843  0.1036 -0.0270 -0.2125
 2855SOL    HW120024   2.247   1.338   7.803  1.6721 -0.4883  0.1308
 2855SOL    HW220025   2.230   1.410   7.932 -1.6335  1.5153 -0.6405
 2856SOL     OW20026   2.282   2.235  15.012 -0.1604 -0.0175 -0.3456
 2856SOL    HW120027   2.331   2.154  15.023 -0.4998 -0.3142 -0.9876
 2856SOL    HW220028   2.209   2.212  14.954  1.1788 -1.1996 -1.5443
 2857SOL     OW20029   0.892   3.891  10.095 -0.1508 -0.6454 -0.4056
 2857SOL    HW120030   0.973   3.873  10.047  0.0459  1.6120 -0.9573
 2857SOL    HW220031   0.856   3.803  10.091 -0.0064 -0.7993  1.8280
 2858SOL     OW20032   2.917   4.503  12.517  0.3947 -0.1033  0.3187
 2858SOL    HW120033   2.916   4.420  12.565 -1.7798 -0.1823  0.1561
 2858SOL    HW220034   2.864   4.469  12.444  1.8851  1.6654 -1.5723
 2859SOL     OW20035   1.977   0.367   0.247  0.0726 -0.0076  0.1849
 2859SOL    HW120036   1.958   0.322   0.164 -0.4929 -2.2727  1.5339
 2859SOL    HW220037   2.003   0.455   0.222  0.5888 -0.1583  0.1901
 2860SOL     OW20038   1.809   1.374  10.961 -0.4662  1.0110 -0.1465
 2860SOL    HW120039   1.773   1.430  10.892 -0.5388  0.8529 -0.2370
 2860SOL    HW220040   1.904   1.375  10.951 -0.6700 -1.8713 -2.3563
 2861SOL     OW20041   0.223   1.289   8.430  0.3542  0.0692 -0.0157
 2861SOL    HW120042   0.151   1.265   8.488  0.0918  2.4482  0.6377
 2861SOL    HW220043   0.265   1.357   8.483  0.6185  2.1193 -2.8239
 2862SOL     OW20044   2.699   4.125   2.624  0.4146 -0.0602  0.2485
 2862SOL    HW120045   2.735   4.038   2.608  1.2078  0.1851  0.7176
 2862SOL    HW220046   2.647   4.105   2.702 -1.4958  0.8508 -0.7773
 2863SOL     OW20047   0.899   0.108  16.590  0.0808  0.0838 -0.3459
 2863SOL    HW120048   0.825   0.138  16.538 -0.8328 -1.3562  0.1409
 2863SOL    HW220049   0.848   0.043  16.639  0.4587  3.0947  4.0279
 2864SOL     OW20050   2.055   0.635   0.224 -0.5546 -0.5785  0.4986
 2864SOL    HW120051   2.004   0.708   0.258 -1.4788 -1.0235  0.0691
 2864SOL    HW220052   2.136   0.678   0.197 -0.7055 -0.9805 -0.6181
 2865SOL     OW20053   4.582   2.104  14.838 -0.3264 -0.1668 -0.1097
 2865SOL    HW120054   4.608   2.013  14.825 -0.0689  0.0617 -1.2102
 2865SOL    HW220055   4.588   2.126  14.745 -0.8448  0.6114  0.0372
 2866SOL     OW20056   2.883   2.631  10.144 -0.7689  0.3057 -0.1638
 2866SOL    HW120057   2.926   2.671  10.220  0.2287 -3.8723  1.4304
 2866SOL    HW220058   2.944   2.654  10.074 -0.7289  0.3965 -0.0993
 2867SOL     OW20059   2.461   0.291   4.521 -0.6680  0.5526  0.1554
 2867SOL    HW120060   2.485   0.383   4.522 -0.8859  0.5987  0.7127
 2867SOL    HW220061   2.529   0.261   4.459 -1.9285  0.1174 -1.0194
 2868SOL     OW20062   2.380   2.840   3.291 -0.1878  0.9797 -0.6439
 2868SOL    HW120063   2.361   2.868   3.201 -2.3799  0.1101 -0.4526
 2868SOL    HW220064   2.303   2.795   3.324  0.3237  1.3072  1.0103
 2869SOL     OW20065   2.884   4.021   4.685  0.0481 -0.2581 -0.4797
 2869SOL    HW120066   2.864   4.073   4.762  2.3182  0.3720 -0.3107
 2869SOL    HW220067   2.805   4.003   4.634 -0.7438 -0.3942  0.8033
 2870SOL     OW20068   2.246   3.258   3.537  0.1722 -0.0535  0.0829
 2870SOL    HW120069   2.226   3.293   3.451  1.9060  1.6934  0.3970
 2870SOL    HW220070   2.250   3.162   3.529 -1.0311 -0.0689 -0.3443
 2871SOL     OW20071   1.500   1.491  11.589  0.4538 -0.2967 -0.3568
 2871SOL    HW120072   1.478   1.399  11.603  1.0861 -0.3191  0.4979
 2871SOL    HW220073   1.585   1.497  11.545  0.4831  1.0180 -0.1427
 2872SOL     OW20074   1.194   1.807   7.035 -0.1456 -0.3035  0.7347
 2872SOL    HW120075   1.145   1.736   6.994  0.4202 -1.1460  1.5037
 2872SOL    HW220076   1.285   1.779   7.030  0.6455  2.5404 -0.8032
 2873SOL     OW20077   3.906   0.686   1.148  0.1049 -0.1508 -0.2983
 2873SOL    HW120078   3.958   0.606   1.137  2.4758  1.3633 -0.0023
 2873SOL    HW220079   3.823   0.644   1.172 -0.7398 -0.2551 -3.3566
 2874SOL     OW20080   3.699   3.514   0.885  0.1452 -0.2727  1.2655
 2874SOL    HW120081   3.782   3.517   0.838  0.3138 -0.0982  1.5758
 2874SOL    HW220082   3.737   3.514   0.973 -2.2177  1.5308  2.2957
 2875SOL     OW20083   1.713   4.040   4.190 -0.0227 -0.0077  0.2872
 2875SOL    HW120084   1.697   4.093   4.113  0.3742 -1.4144 -0.7697
 2875SOL    HW220085   1.656   4.087   4.251 -2.6455 -0.5571 -1.7495
 2876SOL     OW20086   1.358   0.451   5.245  0.3676 -0.6117  0.6028
 2876SOL    HW120087   1.310   0.400   5.179  2.1249 -1.3721 -0.0785
 2876SOL    HW220088   1.289   0.471   5.308  0.0012 -1.6449  0.5315
 2877SOL     OW20089   2.840   0.914  12.236 -0.2255  0.6376  0.8431
 2877SOL    HW120090   2.842   0.873  12.149 -4.1977 -0.2198  1.1620
 2877SOL    HW220091   2.761   0.882  12.279 -0.2614  0.5120  0.6868
 2878SOL     OW20092   2.545   0.078   4.875 -0.0247  0.3467  0.4030
 2878SOL    HW120093   2.600   0.133   4.932  0.7466 -1.1647  1.1295
 2878SOL    HW220094   2.526   0.004   4.934  0.3357 -1.1727 -1.3993
 2879SOL     OW20095   1.115   4.608   1.807  0.7648  0.6825  0.6142
 2879SOL    HW120096   1.110   4.686   1.752 -1.0964  0.4919  0.5067
 2879SOL    HW220097   1.170   4.641   1.878  0.8155  0.4517  0.6821
 2880SOL     OW20098   2.302   4.442  15.227 -0.0029 -0.2777  0.2979
 2880SOL    HW120099   2.349   4.366  15.259 -0.9720 -0.1375  2.0786
 2880SOL    HW220100   2.234   4.443  15.294 -0.2422  1.9270  0.0143
 2881SOL     OW20101   4.095   1.322   8.858 -0.4155 -0.1433 -0.6754
 2881SOL    HW120102   4.031   1.263   8.896 -0.6250 -0.2835 -1.2450
 2881SOL    HW220103   4.134   1.270   8.787 -1.5082 -0.8794 -0.7350
 2882SOL     OW20104   3.929   0.388  12.659  0.4336  0.9682 -0.3305
 2882SOL    HW120105   4.019   0.418  12.643  1.0857 -0.8195  0.0156
 2882SOL    HW220106   3.874   0.464  12.640 -0.9984 -0.9724 -3.8604
 2883SOL     OW20107   2.993   2.186  17.439  0.6321  0.2751 -0.1783
 2883SOL    HW120108   3.077   2.201  17.482  1.7611 -0.1335 -2.2552
 2883SOL    HW220109   2.957   2.263  17.396 -0.1916  1.3994  2.4887
 2884SOL     OW20110   0.304   1.214   3.943  0.1326 -0.3685  0.6947
 2884SOL    HW120111   0.355   1.242   4.019  1.3003  0.3335 -0.3490
 2884SOL    HW220112   0.308   1.293   3.889  2.5867 -1.0657 -0.1915
 2885SOL     OW20113   4.414   0.595   8.812 -0.1119  0.1800 -0.9403
 2885SOL    HW120114   4.411   0.687   8.836  1.8473 -0.2476  0.9338
 2885SOL    HW220115   4.323   0.566   8.815  0.2436 -0.8228  0.7828
 2886SOL     OW20116   2.154   0.502   8.291 -0.0361  1.0011  0.1299
 2886SOL    HW120117   2.182   0.415   8.262 -2.0076  0.5280 -0.4135
 2886SOL    HW220118   2.067   0.486   8.254  1.0673  0.6772 -2.3533
 2887SOL     OW20119   2.629   0.104   5.626 -0.1786  0.2605  0.9640
 2887SOL    HW120120   2.549   0.155   5.613  0.3526  0.5196 -1.2310
 2887SOL    HW220121   2.604   0.044   5.697 -1.8527  1.9101  1.7576
 2888SOL     OW20122   0.566   4.531  12.756 -0.1105 -0.2375 -0.3830
 2888SOL    HW120123   0.605   4.597  12.813  1.8391 -2.1723  0.5377
 2888SOL    HW220124   0.547   4.459  12.816 -4.1033 -1.3799 -2.9893
 2889SOL     OW20125   0.947   2.360   7.454 -0.9760 -0.6373  0.0275
 2889SOL    HW120126   1.042   2.368   7.444 -1.1373  1.7173  0.2094
 2889SOL    HW220127   0.942   2.404   7.540 -0.1704 -4.3623  1.9899
 2890SOL     OW20128   3.834   0.805  16.076 -0.1660  0.0580  0.0234
 2890SOL    HW120129   3.764   0.746  16.106  1.7860 -2.4170 -0.3410
 2890SOL    HW220130   3.909   0.748  16.090  0.2110  0.8158  1.1456
 2891SOL     OW20131   1.782   2.478   7.392 -0.2067  0.1269 -0.1899
 2891SOL    HW120132   1.835   2.414   7.439  1.3015  0.3274 -1.6443
 2891SOL    HW220133   1.791   2.553   7.451  0.2384  1.3149 -1.7778
 2892SOL     OW20134   1.950   4.179  15.564  0.3976 -0.8584  0.2089
 2892SOL    HW120135   1.860   4.154  15.543  0.1869  0.8847 -0.9542
 2892SOL    HW220136   1.933   4.225  15.647 -0.5406  0.4198 -0.6956
 2893SOL     OW20137   1.441   4.194   7.265 -0.1171 -0.2373  0.4435
 2893SOL    HW120138   1.481   4.109   7.246  3.3610  1.5372 -0.1991
 2893SOL    HW220139   1.348   4.179   7.283 -0.9839  1.0359 -2.8792
 2894SOL     OW20140   2.242   4.243   4.303 -0.3743  0.2636  0.2200
 2894SOL    HW120141   2.278   4.329   4.321 -2.3864  1.5519 -1.8521
 2894SOL    HW220142   2.154   4.267   4.332  0.3486 -0.3069  2.8844
 2895SOL     OW20143   2.191   1.120  15.552  0.1926 -0.7274 -0.1351
 2895SOL    HW120144   2.277   1.157  15.535  0.1902 -0.9563 -0.6412
 2895SOL    HW220145   2.170   1.085  15.466  0.7432 -0.8923 -0.2005
 2896SOL     OW20146   3.329   3.400   3.807 -0.6192  0.4403  0.0339
 2896SOL    HW120147   3.308   3.466   3.742 -0.2956 -0.4507 -0.9734
 2896SOL    HW220148   3.416   3.381   3.772 -0.5202 -0.0877  0.5592
 2897SOL     OW20149   3.682   2.964  10.289 -0.0547 -0.0108  0.1564
 2897SOL    HW120150   3.598   2.968  10.334  0.3321  2.2778  0.6420
 2897SOL    HW220151   3.709   3.055  10.281 -0.1744 -0.0560 -0.8149
 2898SOL     OW20152   1.067   2.255   6.290 -0.5797  0.4569  0.0992
 2898SOL    HW120153   1.159   2.268   6.267 -0.0882  0.1286  1.8692
 2898SOL    HW220154   1.021   2.310   6.227 -2.4410 -2.5757 -1.1686
 2899SOL     OW20155   1.837   3.646  14.134  0.4694  0.3671 -0.0707
 2899SOL    HW120156   1.919   3.603  14.156 -0.9072 -2.3360 -0.2328
 2899SOL    HW220157   1.820   3.693  14.216  1.8287  1.0881 -0.2005
 2900SOL     OW20158   4.677   0.174   2.431  0.0632  0.1940  0.2499
 2900SOL    HW120159   4.689   0.207   2.342 -2.1693 -0.1255 -0.1847
 2900SOL    HW220160   4.718   0.241   2.485 -0.3427  0.1483  0.6129
 2901SOL     OW20161   2.700   3.471   3.618 -0.5657  0.1496 -0.0515
 2901SOL    HW120162   2.717   3.427   3.701  1.3895 -0.8963 -0.9947
 2901SOL    HW220163   2.672   3.401   3.559 -2.1526  0.5041  0.2934
 2902SOL     OW20164   3.181   1.828   1.576 -0.3675 -0.1612 -0.1668
 2902SOL    HW120165   3.181   1.923   1.586 -2.5038 -0.2766  0.8925
 2902SOL    HW220166   3.263   1.816   1.623  0.1338 -1.1275 -1.2713
 2903SOL     OW20167   1.471   2.988   5.890  0.1410  0.1063 -0.0770
 2903SOL    HW120168   1.563   3.003   5.913  0.7278 -0.4002 -2.1754
 2903SOL    HW220169   1.444   2.960   5.978  2.6190 -1.5333  0.1628
 2904SOL     OW20170   1.490   3.691   6.243  0.2077 -0.0193  0.1762
 2904SOL    HW120171   1.412   3.693   6.188  1.1513 -0.6869 -1.2066
 2904SOL    HW220172   1.566   3.714   6.189  0.1967  1.1211  0.6630
 2905SOL     OW20173   3.241   0.112  14.262  0.3949  0.3156 -0.2357
 2905SOL    HW120174   3.151   0.107  14.294  1.2624 -1.4774  1.9233
 2905SOL    HW220175   3.244   0.054  14.186  1.5730  2.1178 -1.5713
 2906SOL     OW20176   3.614   2.122   2.287  0.2807  0.6165  0.1615
 2906SOL    HW120177   3.635   2.033   2.316 -0.2507  0.3132 -0.3944
 2906SOL    HW220178   3.699   2.146   2.252  0.6169  0.1019  0.6374
 2907SOL     OW20179   1.894   0.998  10.251  0.2140 -0.1786  0.0198
 2907SOL    HW120180   1.902   1.076  10.196  2.1625  0.2141  0.8584
 2907SOL    HW220181   1.846   1.041  10.321 -2.9089 -1.9754 -1.0018
 2908SOL     OW20182   2.504   3.553   7.077 -0.1459 -0.0679  0.3628
 2908SOL    HW120183   2.473   3.481   7.131 -1.2175  1.8785  2.3275
 2908SOL    HW220184   2.504   3.515   6.990  1.5176  2.7864 -0.9047
 2909SOL     OW20185   1.839   0.615   0.784  0.2881 -0.3456 -0.1077
 2909SOL    HW120186   1.817   0.533   0.740 -2.0632 -0.2165  0.8499
 2909SOL    HW220187   1.907   0.645   0.724 -0.2869  0.0469 -0.5561
 2910SOL     OW20188   3.580   3.297   3.425  0.5080 -0.0635  0.0385
 2910SOL    HW120189   3.628   3.374   3.394 -1.1328  0.7370 -0.5416
 2910SOL    HW220190   3.628   3.231   3.376  1.6381 -0.1384  1.2507
 2911SOL     OW20191   1.378   2.685   2.367  0.0697 -0.4793  0.1269
 2911SOL    HW120192   1.469   2.707   2.348  0.0378  0.3899  1.0215
 2911SOL    HW220193   1.330   2.717   2.291  0.3045 -0.0100  0.1789
 2912SOL     OW20194   3.436   3.280   7.989 -0.2381  0.2546  0.0042
 2912SOL    HW120195   3.396   3.313   8.069  1.8084 -0.8211  1.5106
 2912SOL    HW220196   3.528   3.273   8.015  0.0183  2.6790 -0.2659
 2913SOL     OW20197   2.858   1.208  12.363  0.0764  0.0847 -0.3224
 2913SOL    HW120198   2.938   1.249  12.331  0.6676 -0.6498  0.2012
 2913SOL    HW220199   2.839   1.117  12.342  0.5313 -0.5520  2.0318
 2914SOL     OW20200   1.484   1.317   6.682  0.0467 -0.5479 -0.1071
 2914SOL    HW120201   1.555   1.260   6.712  0.4316 -0.7431 -1.3755
 2914SOL    HW220202   1.453   1.340   6.769  0.2497 -0.3643 -0.0843
 2915SOL     OW20203   3.724   0.973   8.872  0.4694  0.1439  0.1898
 2915SOL    HW120204   3.637   1.012   8.880  0.1198 -0.2009 -2.2032
 2915SOL    HW220205   3.714   0.889   8.917  0.1144  0.8452  1.4299
 2916SOL     OW20206   0.030   4.075   4.054 -0.1478  0.4714 -0.4156
 2916SOL    HW120207   0.041   4.163   4.091  0.0503  0.5318 -0.6183
 2916SOL    HW220208   4.677   4.078   3.992 -0.7509  0.0410  0.2741
 2917SOL     OW20209   4.437   0.963   7.548  0.3598 -0.4449 -0.1564
 2917SOL    HW120210   4.416   1.054   7.529  0.2882 -0.6966 -1.3035
 2917SOL    HW220211   4.347   0.930   7.552  0.6954 -1.2324  0.8155
 2918SOL     OW20212   3.332   0.264   3.175  0.7090 -0.0867 -0.0513
 2918SOL    HW120213   3.403   0.200   3.174  0.3489 -0.5305  2.2725
 2918SOL    HW220214   3.374   0.341   3.136 -0.0017 -1.5885 -3.7404
 2919SOL     OW20215   3.644   0.318   1.695 -0.4208 -0.0285  0.4970
 2919SOL    HW120216   3.588   0.366   1.756  0.1378 -1.7212  2.3508
 2919SOL    HW220217   3.624   0.233   1.735  0.4321  1.5389  4.2779
 2920SOL     OW20218   3.711   2.654   7.144  0.3316 -0.1917  0.3422
 2920SOL    HW120219   3.737   2.568   7.177  1.6055  0.4944  1.1485
 2920SOL    HW220220   3.622   2.674   7.171 -0.5626 -2.3658 -1.0679
 2921SOL     OW20221   1.248   4.668  13.145 -0.6932 -0.1836  0.0966
 2921SOL    HW120222   1.208   0.022  13.192 -0.6032 -1.0503  1.5339
 2921SOL    HW220223   1.332   4.688  13.184 -2.1018  1.6262  2.1550
 2922SOL     OW20224   0.637   1.844  14.285 -0.4399  0.2865  0.1410
 2922SOL    HW120225   0.595   1.904  14.347 -0.3315 -0.5359  1.0262
 2922SOL    HW220226   0.620   1.873  14.196 -3.8808  5.2936  2.4499
 2923SOL     OW20227   0.509   0.761   0.412  0.1822 -0.2552 -0.6767
 2923SOL    HW120228   0.484   0.851   0.390  1.8811 -0.4953 -3.6086
 2923SOL    HW220229   0.601   0.781   0.425 -0.1872  1.1086 -0.1757
 2924SOL     OW20230   2.101   2.597  17.283  0.1020 -0.8614 -0.9218
 2924SOL    HW120231   2.028   2.539  17.305  2.1044 -2.7637  0.7467
 2924SOL    HW220232   2.060   2.642  17.209 -4.5479 -1.4858  1.2766
 2925SOL     OW20233   1.226   2.579   4.973  0.4937  0.4601 -0.2503
 2925SOL    HW120234   1.177   2.579   4.891 -1.8832 -1.6338  1.1753
 2925SOL    HW220235   1.156   2.550   5.031  1.3453  0.3746  0.7377
 2926SOL     OW20236   2.642   3.974   1.284  0.1236 -0.5364 -0.1069
 2926SOL    HW120237   2.614   4.022   1.362  0.9704  2.2739 -1.5344
 2926SOL    HW220238   2.588   4.009   1.214  2.8783  1.5038 -1.2129
 2927SOL     OW20239   3.087   4.144   7.395  0.6728 -0.1949  0.4802
 2927SOL    HW120240   3.014   4.181   7.445  1.0020  0.8067  0.2288
 2927SOL    HW220241   3.093   4.217   7.333  0.9692 -0.0988  0.6222
 2928SOL     OW20242   0.321   1.473  10.937 -0.1671 -0.4870  0.2502
 2928SOL    HW120243   0.378   1.431  11.001  0.7000 -1.8335 -1.4111
 2928SOL    HW220244   0.236   1.431  10.953 -1.4386  2.4938  1.4064
 2929SOL     OW20245   4.349   3.285   3.643  0.4536 -0.2096  0.1284
 2929SOL    HW120246   4.336   3.266   3.736 -1.8201  1.0077  0.0516
 2929SOL    HW220247   4.384   3.374   3.648  1.8010 -0.7493  0.2597
 2930SOL     OW20248   4.228   2.237   9.087 -0.2977  0.0878 -0.1128
 2930SOL    HW120249   4.160   2.278   9.140  0.7073 -0.0062  1.2617
 2930SOL    HW220250   4.231   2.162   9.146 -1.4936 -0.4802 -0.7839
 2931SOL     OW20251   2.886   4.085  13.751 -0.3283 -0.2536 -0.1268
 2931SOL    HW120252   2.819   4.126  13.806 -1.0797 -2.2478  0.4167
 2931SOL    HW220253   2.846   3.999  13.743  1.0647 -1.1414  2.3977
 2932SOL     OW20254   2.611   2.141   8.422  0.0403  0.9103 -0.5824
 2932SOL    HW120255   2.701   2.153   8.393  0.4828 -1.1417 -0.0226
 2932SOL    HW220256   2.610   2.147   8.518  1.0551 -0.2108 -0.5081
 2933SOL     OW20257   1.469   1.055   4.510  0.3399  0.6102 -0.4613
 2933SOL    HW120258   1.395   1.084   4.563  0.8364  1.0724 -0.0271
 2933SOL    HW220259   1.445   1.085   4.422 -2.4735 -0.0835  0.0627
 2934SOL     OW20260   1.980   1.519  15.842 -0.0178 -0.2504 -0.1484
 2934SOL    HW120261   1.964   1.467  15.921 -0.3339  0.6799  0.3987
 2934SOL    HW220262   2.011   1.452  15.781  2.4785 -1.3650  2.3622
 2935SOL     OW20263   0.447   2.323   1.799 -0.2512 -0.1123 -0.1665
 2935SOL    HW120264   0.395   2.402   1.783  0.4434  0.6945  1.5566
 2935SOL    HW220265   0.389   2.252   1.771 -0.5577 -0.2718  0.8801
 2936SOL     OW20266   0.139   4.001   7.414 -0.0111 -0.1578 -0.3480
 2936SOL    HW120267   0.225   4.024   7.449  0.3515 -1.0551 -0.6561
 2936SOL    HW220268   0.116   3.933   7.478  2.0274 -1.0305 -0.5550
 2937SOL     OW20269   1.762   0.162   5.271  0.2104 -0.3269  0.2665
 2937SOL    HW120270   1.736   0.076   5.239  0.5444 -0.2974 -0.0942
 2937SOL    HW220271   1.846   0.127   5.301 -0.1264 -1.3036  0.0435
 2938SOL     OW20272   1.170   4.193   2.423  0.3413  0.3107 -0.4373
 2938SOL    HW120273   1.238   4.143   2.468 -2.0040 -1.0228  1.6213
 2938SOL    HW220274   1.193   4.197   2.330 -2.0731  4.4881 -0.8444
 2939SOL     OW20275   2.557   4.689   3.226  0.1944 -0.2301  0.1039
 2939SOL    HW120276   2.513   4.606   3.208 -0.6834  0.4857 -1.0412
 2939SOL    HW220277   2.585   4.714   3.138  0.8671 -0.1630  0.3372
 2940SOL     OW20278   4.629   2.009   7.968 -0.1334  0.4895  0.2970
 2940SOL    HW120279   4.603   2.095   8.003 -4.0616 -0.5238 -0.1173
 2940SOL    HW220280   4.626   1.965   8.053  0.8324 -0.6562 -0.2636
 2941SOL     OW20281   1.073   4.528   6.984 -0.5948  0.2619  0.3835
 2941SOL    HW120282   0.998   4.541   6.926 -2.1121  0.4779  2.3600
 2941SOL    HW220283   1.034   4.544   7.070  1.5824 -3.9135  2.1791
 2942SOL     OW20284   0.488   2.420   6.190  0.0780  0.4556 -0.0090
 2942SOL    HW120285   0.487   2.342   6.244  0.8076  0.5952  0.2187
 2942SOL    HW220286   0.396   2.446   6.189  0.1669  0.7398 -1.3338
 2943SOL     OW20287   1.419   3.513   5.929 -0.1166 -0.0276  0.0513
 2943SOL    HW120288   1.392   3.434   5.881  0.0122  0.4957 -0.8751
 2943SOL    HW220289   1.360   3.505   6.004 -0.8263 -2.5375 -0.7778
 2944SOL     OW20290   0.421   1.143  11.908  0.8312  0.7245  0.1573
 2944SOL    HW120291   0.388   1.058  11.937  0.2546  2.0185  3.2014
 2944SOL    HW220292   0.467   1.111  11.830 -0.5907 -0.7518 -0.0759
 2945SOL     OW20293   0.382   3.274   6.003  0.6268  0.5262 -0.0840
 2945SOL    HW120294   0.401   3.250   6.093 -0.1445 -2.1418 -0.6135
 2945SOL    HW220295   0.295   3.312   6.009  0.3906 -0.0524  0.1435
 2946SOL     OW20296   1.846   1.137   3.188 -0.0307 -0.2936  0.1085
 2946SOL    HW120297   1.824   1.072   3.121 -0.4087 -0.7278  0.6459
 2946SOL    HW220298   1.873   1.081   3.261  1.6198 -0.0808 -0.3379
 2947SOL     OW20299   4.334   1.885  10.242 -0.2428 -0.5442  0.1772
 2947SOL    HW120300   4.278   1.823  10.289  0.5742 -1.9145 -0.6631
 2947SOL    HW220301   4.334   1.961  10.299 -1.4582 -0.8220  0.5592
 2948SOL     OW20302   4.626   3.998  10.002 -0.3082  0.3148  0.3399
 2948SOL    HW120303   4.640   4.091   9.989 -3.7591  0.6288 -1.1729
 2948SOL    HW220304   4.632   3.971   9.911  0.2747 -0.2113  0.5291
 2949SOL     OW20305   0.998   2.578  15.557  0.2235  0.0624  0.3814
 2949SOL    HW120306   1.052   2.630  15.616 -0.1704 -0.3637  1.1174
 2949SOL    HW220307   1.016   2.493  15.597  0.9461  0.2617  0.4780
 2950SOL     OW20308   2.062   0.924   8.638  0.1014 -0.2635  0.2458
 2950SOL    HW120309   2.139   0.981   8.648 -0.8575  1.4373 -2.1573
 2950SOL    HW220310   2.057   0.910   8.543  6.2808 -0.0890 -0.1353
 2951SOL     OW20311   1.685   1.609  10.443 -0.0195 -0.1390  0.0491
 2951SOL    HW120312   1.732   1.662  10.508  0.4279  1.7992 -1.8633
 2951SOL    HW220313   1.694   1.528  10.494  2.5536  0.7793  1.1017
 2952SOL     OW20314   0.937   4.621   7.663  0.2781  0.5647 -0.3473
 2952SOL    HW120315   0.891   4.633   7.746 -0.9628  1.4689 -1.1689
 2952SOL    HW220316   1.026   4.645   7.688  0.1867  0.8061 -0.2592
 2953SOL     OW20317   1.122   0.677   4.707 -0.6727 -0.2393  0.1185
 2953SOL    HW120318   1.213   0.671   4.678 -0.6183  0.7666  0.0842
 2953SOL    HW220319   1.117   0.769   4.733 -1.8830 -0.6360  1.2602
 2954SOL     OW20320   0.967   1.553   4.813 -0.0834  0.1802  0.0109
 2954SOL    HW120321   0.902   1.484   4.825 -0.3814  0.0409 -2.3862
 2954SOL    HW220322   0.914   1.631   4.831  1.6760  0.7348  2.6871
 2955SOL     OW20323   2.750   2.488   6.792  0.4036  0.2547  0.0934
 2955SOL    HW120324   2.773   2.448   6.707  2.0339 -0.1182  0.7063
 2955SOL    HW220325   2.663   2.526   6.778  0.9079  1.0049 -0.9556
 2956SOL     OW20326   4.366   1.336   5.284  0.4157 -0.1322  0.6676
 2956SOL    HW120327   4.350   1.382   5.367  0.0470  1.2812 -0.1942
 2956SOL    HW220328   4.460   1.318   5.282  0.4767  0.3926 -0.7802
 2957SOL     OW20329   1.274   1.598   4.130 -0.6927 -0.5287 -0.3073
 2957SOL    HW120330   1.310   1.627   4.046  1.3455 -0.2838  0.6636
 2957SOL    HW220331   1.324   1.519   4.150  0.5666  0.7329  1.5290
 2958SOL     OW20332   2.964   0.603   4.295  0.1237  0.2132 -0.2292
 2958SOL    HW120333   2.937   0.632   4.209 -2.4412 -0.9022  0.1984
 2958SOL    HW220334   3.054   0.636   4.290  0.0079  0.1360 -2.6004
 2959SOL     OW20335   2.950   0.795  15.200  0.5751  0.0715  0.8224
 2959SOL    HW120336   2.911   0.882  15.201  0.0941 -0.1109 -1.6816
 2959SOL    HW220337   3.040   0.821  15.179  0.3018  0.3245 -0.0505
 2960SOL     OW20338   4.149   2.622  14.071 -0.2485 -0.2342  0.1997
 2960SOL    HW120339   4.098   2.699  14.047  1.4537  0.9635  0.4553
 2960SOL    HW220340   4.202   2.606  13.993  1.2191  2.1896  0.7178
 2961SOL     OW20341   3.742   1.750   9.484 -0.1935  0.2956  0.0545
 2961SOL    HW120342   3.654   1.712   9.483  1.9173 -4.5815 -0.6218
 2961SOL    HW220343   3.768   1.720   9.571  2.3596  0.0147 -0.7945
 2962SOL     OW20344   3.949   3.089   0.255  0.0377  0.6646  0.1429
 2962SOL    HW120345   4.007   3.016   0.274  0.4808  1.5345  2.1496
 2962SOL    HW220346   3.902   3.054   0.179 -1.6633  0.0045  1.5056
 2963SOL     OW20347   2.229   3.623  15.198  0.0687 -0.2501  0.8405
 2963SOL    HW120348   2.196   3.553  15.141  1.9042 -0.1776 -0.3027
 2963SOL    HW220349   2.144   3.659  15.224 -0.3123 -0.7218  0.2588
 2964SOL     OW20350   4.037   2.975   3.950  0.0579  0.2844  0.2899
 2964SOL    HW120351   4.013   2.883   3.963  2.7412 -0.7047 -1.7546
 2964SOL    HW220352   3.988   3.019   4.020 -1.7874 -0.0320 -0.7898
 2965SOL     OW20353   0.514   1.150  10.780 -0.2246  0.0983  0.0692
 2965SOL    HW120354   0.582   1.090  10.749 -0.6398 -0.6901  0.6664
 2965SOL    HW220355   0.449   1.142  10.710 -0.1113  2.2578 -0.2771
 2966SOL     OW20356   0.803   2.949  16.506 -0.3255 -0.4936 -0.4223
 2966SOL    HW120357   0.729   3.008  16.517  0.1558  0.3015 -1.4261
 2966SOL    HW220358   0.871   2.978  16.566 -2.2964 -1.4813  2.2623
 2967SOL     OW20359   0.432   4.586   7.271 -0.0847 -0.1657  0.5840
 2967SOL    HW120360   0.483   4.658   7.307  1.2343 -1.7316  1.8518
 2967SOL    HW220361   0.361   4.584   7.336 -0.9566  0.8306 -0.3534
 2968SOL     OW20362   0.614   4.417   3.430  0.5539  0.4534 -0.4925
 2968SOL    HW120363   0.648   4.506   3.422  1.0337  0.2657 -0.5787
 2968SOL    HW220364   0.618   4.399   3.336  0.0374  0.1983 -0.4641
 2969SOL     OW20365   3.596   4.171   0.385 -0.9269  0.2028 -0.0513
 2969SOL    HW120366   3.670   4.214   0.344  0.4710 -0.1616  2.0874
 2969SOL    HW220367   3.586   4.236   0.455  2.3064  0.3622  0.2290
 2970SOL     OW20368   0.111   1.750   6.358 -0.2719  0.3165 -0.1676
 2970SOL    HW120369   0.149   1.678   6.409 -0.8800  0.0361 -0.1191
 2970SOL    HW220370   0.141   1.824   6.412  2.0197 -1.0769  0.5014
 2971SOL     OW20371   3.103   3.749   3.206  0.2636 -0.4203 -0.2900
 2971SOL    HW120372   3.154   3.783   3.133 -0.6662 -1.6545 -1.4901
 2971SOL    HW220373   3.038   3.819   3.210 -0.0305 -0.7709  1.1377
 2972SOL     OW20374   4.363   0.485  11.480 -0.6356  0.4156  0.3118
 2972SOL    HW120375   4.290   0.539  11.450  0.2820  1.4129 -0.1451
 2972SOL    HW220376   4.421   0.480  11.404 -2.1089  0.6989 -0.8229
 2973SOL     OW20377   4.290   4.593   8.963 -0.2415  0.0835 -0.0879
 2973SOL    HW120378   4.309   4.597   9.057  0.9934 -1.6744 -0.2479
 2973SOL    HW220379   4.339   4.670   8.934  1.4484 -1.4394 -1.3007
 2974SOL     OW20380   3.382   0.631  17.112  0.4100 -0.6038  0.5397
 2974SOL    HW120381   3.456   0.595  17.063 -0.3744  0.1579 -1.2290
 2974SOL    HW220382   3.415   0.720  17.121 -0.4372 -0.1542 -0.7051
 2975SOL     OW20383   1.420   1.938   5.152 -0.0902 -0.5994 -0.6094
 2975SOL    HW120384   1.336   1.900   5.126  0.3476 -1.3713 -0.9231
 2975SOL    HW220385   1.450   1.895   5.232  2.1219  3.0333  0.4867
 2976SOL     OW20386   1.848   1.545   6.395  1.1113  0.1683  0.5614
 2976SOL    HW120387   1.915   1.479   6.411 -0.6947 -1.2064  2.5486
 2976SOL    HW220388   1.891   1.594   6.325  1.7421  0.6784  1.3063
 2977SOL     OW20389   0.360   1.696   7.600  0.3613  0.1069  0.4950
 2977SOL    HW120390   0.383   1.677   7.691 -0.1448  1.1759  0.8513
 2977SOL    HW220391   0.333   1.611   7.564 -0.7384  0.3004  0.8420
 2978SOL     OW20392   3.404   0.434  10.730  0.3119 -0.1662 -1.1337
 2978SOL    HW120393   3.451   0.447  10.647  3.2147  1.1466  0.7173
 2978SOL    HW220394   3.314   0.454  10.706 -0.2637 -0.6835  0.5773
 2979SOL     OW20395   1.238   1.769   6.213  0.5032 -0.0710 -0.4815
 2979SOL    HW120396   1.158   1.821   6.225  0.4023 -0.5514  0.9065
 2979SOL    HW220397   1.299   1.819   6.266  0.7818  0.1455 -1.0010
 2980SOL     OW20398   1.184   1.387   5.118 -0.1951  0.6255  0.1223
 2980SOL    HW120399   1.264   1.438   5.104  0.1578 -0.4684 -1.7412
 2980SOL    HW220400   1.174   1.407   5.211  0.6907  0.5018  0.2431
 2981SOL     OW20401   0.124   0.744   6.536 -0.0587  0.6212  0.2972
 2981SOL    HW120402   0.207   0.704   6.508  0.3460  1.7705 -0.1459
 2981SOL    HW220403   0.074   0.675   6.579  0.4556  0.5963  0.8624
 2982SOL     OW20404   2.137   0.213   6.158  0.1239  0.0070 -0.0300
 2982SOL    HW120405   2.117   0.189   6.068  0.7936 -0.3440 -0.0838
 2982SOL    HW220406   2.056   0.189   6.204 -0.7098  0.0815 -1.4642
 2983SOL     OW20407   0.973   0.499   5.305 -0.5117  0.6646  0.4920
 2983SOL    HW120408   1.024   0.432   5.350  0.7022 -0.3084 -2.2920
 2983SOL    HW220409   0.923   0.449   5.240 -0.1814  0.6871  0.2177
 2984SOL     OW20410   1.620   3.874  13.752 -0.8428  0.3119  0.2278
 2984SOL    HW120411   1.703   3.868  13.798 -0.2231 -0.5621 -1.0110
 2984SOL    HW220412   1.633   3.795  13.700 -0.0634  0.7363 -0.2193
 2985SOL     OW20413   0.396   2.316   6.613  0.5561  0.3245 -0.4370
 2985SOL    HW120414   0.372   2.325   6.706  1.6792  0.1860 -0.1337
 2985SOL    HW220415   0.469   2.253   6.616 -0.3256 -0.6761  0.1075
 2986SOL     OW20416   3.648   3.774   9.023  0.5393 -0.1792  0.0716
 2986SOL    HW120417   3.560   3.811   9.031  0.1830 -1.1334  0.6446
 2986SOL    HW220418   3.676   3.807   8.938  0.3411  0.9378  0.4484
 2987SOL     OW20419   3.476   3.111  11.183 -0.4603 -0.4852 -0.0563
 2987SOL    HW120420   3.424   3.092  11.106  0.2063  0.5172 -0.7517
 2987SOL    HW220421   3.476   3.026  11.227  0.7872 -0.0048  0.9128
 2988SOL     OW20422   3.742   3.017   6.053  0.7138  0.4727 -0.1852
 2988SOL    HW120423   3.761   2.944   5.994 -1.9012  0.4902 -1.0437
 2988SOL    HW220424   3.726   3.091   5.994  0.3168 -0.1502 -0.8730
 2989SOL     OW20425   1.292   3.029   1.682  0.1974 -0.2273 -0.3282
 2989SOL    HW120426   1.385   3.016   1.663  0.6013  0.0223  1.5038
 2989SOL    HW220427   1.290   3.088   1.758 -2.1385 -1.8098  0.8300
 2990SOL     OW20428   2.082   3.347   2.142 -0.6146  0.4536  0.6768
 2990SOL    HW120429   2.136   3.400   2.202  0.6681  0.2791 -0.3293
 2990SOL    HW220430   2.051   3.424   2.095 -1.9288  0.3450  1.3791
 2991SOL     OW20431   3.496   2.791   2.516  0.3734 -0.3675  0.1957
 2991SOL    HW120432   3.589   2.787   2.494  0.9732  0.6823  2.5000
 2991SOL    HW220433   3.460   2.704   2.500  1.5032 -0.8062  0.0547
 2992SOL     OW20434   2.686   1.298   5.132  0.1986 -0.2198  0.0981
 2992SOL    HW120435   2.745   1.271   5.203  0.2837 -0.5528 -0.0967
 2992SOL    HW220436   2.598   1.276   5.163  0.3003 -1.7133 -0.6732
 2993SOL     OW20437   4.096   3.011  12.805  0.1472 -0.2224 -0.4347
 2993SOL    HW120438   4.002   3.002  12.792 -0.1650  0.3233  1.4896
 2993SOL    HW220439   4.092   3.093  12.855  2.0073 -1.5839  1.9908
 2994SOL     OW20440   1.419   2.741   5.391 -0.0739 -0.1870  0.4520
 2994SOL    HW120441   1.325   2.730   5.402 -0.1216  0.2607  0.4840
 2994SOL    HW220442   1.442   2.649   5.376  1.7951 -0.1645  3.1082
 2995SOL     OW20443   1.524   4.501   6.034  0.2951  0.2977  0.6479
 2995SOL    HW120444   1.432   4.522   6.015  1.1007  2.3510 -0.9446
 2995SOL    HW220445   1.555   4.488   5.945 -1.3875 -1.2067  0.2942
 2996SOL     OW20446   0.120   3.534   7.605 -0.0784  0.1366  0.6726
 2996SOL    HW120447   0.201   3.521   7.654  1.7065  2.3113 -1.7247
 2996SOL    HW220448   0.127   3.461   7.544  0.8162  0.9397 -0.1845
 2997SOL     OW20449   1.566   1.938   2.611 -0.8985  0.4150 -0.1940
 2997SOL    HW120450   1.505   2.010   2.622 -0.2005  0.9098  0.4288
 2997SOL    HW220451   1.602   1.939   2.522  0.4399  1.4469  0.3696
 2998SOL     OW20452   3.277   2.422  15.622 -0.0746  0.2127 -0.3250
 2998SOL    HW120453   3.324   2.485  15.567  0.9786  1.5428  2.0706
 2998SOL    HW220454   3.270   2.340  15.573  0.5718  2.0159 -3.4332
 2999SOL     OW20455   0.836   4.387   4.371 -0.5811  0.6836  0.0419
 2999SOL    HW120456   0.911   4.330   4.382 -0.3181  0.8052 -1.2044
 2999SOL    HW220457   0.798   4.361   4.288  1.5101 -2.6196  0.1363
 3000SOL     OW20458   0.557   3.146   6.618  0.4084  0.2306  0.1008
 3000SOL    HW120459   0.606   3.068   6.594 -0.5491 -0.3693  0.1269
 3000SOL    HW220460   0.581   3.170   6.708  0.3259  0.7774 -0.0203
 3001SOL     OW20461   4.667   0.793   7.742 -0.2943 -0.3139  0.0827
 3001SOL    HW120462   4.579   0.760   7.759 -0.8060  0.9798 -0.0485
 3001SOL    HW220463   4.714   0.711   7.728 -0.9056 -0.6049 -0.2662
 3002SOL     OW20464   1.938   1.957   0.402  0.6737  0.1290 -0.1507
 3002SOL    HW120465   1.863   1.992   0.451  1.3410 -0.1826  1.1073
 3002SOL    HW220466   1.925   2.009   0.323 -3.5147  0.0099  0.4677
 3003SOL     OW20467   1.333   0.066  16.403 -0.0503  0.7892 -0.2005
 3003SOL    HW120468   1.364   0.155  16.420  1.0654  0.3222  0.2757
 3003SOL    HW220469   1.250   0.082  16.360 -0.2273  0.5981  0.0646
 3004SOL     OW20470   3.896   0.939   1.243  0.0899  0.5026 -0.2179
 3004SOL    HW120471   3.916   0.863   1.188  1.4962 -0.6050  1.8262
 3004SOL    HW220472   3.812   0.916   1.282 -0.0183  1.1751 -0.0614
 3005SOL     OW20473   4.614   3.670  15.517  0.0088 -0.4544  0.0109
 3005SOL    HW120474   4.564   3.687  15.597 -1.5019  0.0291 -1.0650
 3005SOL    HW220475   4.594   3.739  15.455  0.7756  0.0502  0.3235
 3006SOL     OW20476   3.298   0.670   6.281  0.1111 -0.0654 -0.0896
 3006SOL    HW120477   3.391   0.689   6.270 -0.0576  0.5800 -0.3980
 3006SOL    HW220478   3.247   0.727   6.224  2.3604  1.1867 -0.8533
 3007SOL     OW20479   3.995   2.501   8.591  0.0834 -0.1565 -0.1113
 3007SOL    HW120480   3.952   2.570   8.540 -1.8542 -0.6858  0.7904
 3007SOL    HW220481   3.981   2.519   8.684  3.1258 -0.6917  0.4341
 3008SOL     OW20482   4.494   4.127   2.989 -0.0665 -0.4880 -0.1959
 3008SOL    HW120483   4.459   4.184   2.920 -0.9350 -0.3858  0.3274
 3008SOL    HW220484   4.584   4.158   2.990 -0.5030  0.7261  3.3150
 3009SOL     OW20485   1.782   0.073   7.055 -0.0817  0.2434 -0.2121
 3009SOL    HW120486   1.748   0.083   7.144  0.4597 -1.5941  0.2107
 3009SOL    HW220487   1.739   0.134   6.994  0.2494 -0.8744 -1.5674
 3010SOL     OW20488   2.382   1.283   7.344 -0.2894 -0.1366 -0.0490
 3010SOL    HW120489   2.409   1.348   7.410 -0.1425 -1.1757  0.9099
 3010SOL    HW220490   2.410   1.313   7.258 -1.0660  0.0386 -0.2403
 3011SOL     OW20491   1.525   0.892   4.766  0.0874  0.1728 -0.2884
 3011SOL    HW120492   1.482   0.962   4.719 -1.5010 -1.4363 -1.2377
 3011SOL    HW220493   1.520   0.922   4.857  1.4606  0.9539 -0.4763
 3012SOL     OW20494   4.554   4.615   3.516  0.1140 -0.1549 -0.3593
 3012SOL    HW120495   4.616   4.552   3.478 -0.1198  0.7608 -2.2564
 3012SOL    HW220496   4.534   4.674   3.444  1.2681 -0.0973 -0.6361
 3013SOL     OW20497   3.685   4.598   7.804  0.0803  0.1306  0.4727
 3013SOL    HW120498   3.688   4.503   7.819 -0.8740  0.5480  3.1279
 3013SOL    HW220499   3.657   4.632   7.888 -0.8680 -0.9439  0.5916
 3014SOL     OW20500   4.254   3.297   0.728 -0.3795 -0.1471 -0.5564
 3014SOL    HW120501   4.310   3.235   0.774  1.5230  1.1346 -1.1868
 3014SOL    HW220502   4.223   3.342   0.807  0.0894 -0.9943  0.1052
 3015SOL     OW20503   1.131   1.275   0.416 -0.5861  0.0664  0.4046
 3015SOL    HW120504   1.068   1.329   0.369 -1.7334 -1.4310  0.2448
 3015SOL    HW220505   1.070   1.206   0.442 -1.2498  0.6950  0.5079
 3016SOL     OW20506   1.135   0.228   6.989  0.5454  0.2092 -0.0900
 3016SOL    HW120507   1.054   0.216   6.939  1.6221 -2.3195 -1.2127
 3016SOL    HW220508   1.097   0.292   7.050  0.5108 -1.9104  2.1112
 3017SOL     OW20509   1.909   0.162  11.543 -0.2290  0.0947 -1.0084
 3017SOL    HW120510   1.965   0.238  11.556  0.3010 -0.5862  0.7066
 3017SOL    HW220511   1.857   0.165  11.624 -0.8913 -0.2077 -1.4194
 3018SOL     OW20512   2.597   1.659   6.296  0.5266 -0.4309  0.6258
 3018SOL    HW120513   2.675   1.604   6.291  0.2481 -0.6919 -0.9986
 3018SOL    HW220514   2.522   1.601   6.280  2.3333 -2.9645  1.2352
 3019SOL     OW20515   0.239   1.570   2.090 -0.5760 -0.2539  0.7610
 3019SOL    HW120516   0.240   1.520   2.008 -3.3169 -1.9067  1.7554
 3019SOL    HW220517   0.297   1.510   2.137  1.0882  0.0837 -0.8479
 3020SOL     OW20518   1.390   2.995   3.821  0.0046 -0.0527 -0.1924
 3020SOL    HW120519   1.310   2.949   3.846 -2.2901  1.6693 -4.3794
 3020SOL    HW220520   1.360   3.086   3.827 -2.6614 -0.9294 -0.2596
 3021SOL     OW20521   3.021   0.828   9.129  0.6461 -0.3043 -0.2227
 3021SOL    HW120522   3.019   0.909   9.181 -2.6646 -0.7251  0.2876
 3021SOL    HW220523   2.927   0.814   9.128  0.6420 -0.0972 -2.8891
 3022SOL     OW20524   2.238   4.526   7.555 -0.0290  0.2068  0.1644
 3022SOL    HW120525   2.181   4.450   7.547  1.1049 -0.6493  0.1798
 3022SOL    HW220526   2.212   4.588   7.488 -2.6136 -0.2174  0.7935
 3023SOL     OW20527   1.664   0.768   8.861 -0.7164 -0.2167  0.2021
 3023SOL    HW120528   1.580   0.815   8.860  0.6510  2.2160 -0.3822
 3023SOL    HW220529   1.637   0.679   8.840  1.5440 -0.7392 -0.4571
 3024SOL     OW20530   0.740   4.032   3.497 -0.3045  0.3664 -0.0872
 3024SOL    HW120531   0.709   4.103   3.554 -1.0993  0.4131 -0.5781
 3024SOL    HW220532   0.835   4.043   3.497 -0.2792  0.2307  2.0474
 3025SOL     OW20533   0.058   2.048   4.099 -0.5260  0.1187  0.3552
 3025SOL    HW120534   0.012   1.971   4.067  0.3026  0.5504 -1.8569
 3025SOL    HW220535   0.044   2.117   4.034 -1.5749 -0.1690  0.2710
 3026SOL     OW20536   4.382   3.156   5.184 -0.1630 -0.2832  0.2027
 3026SOL    HW120537   4.367   3.218   5.113 -0.2538 -0.9707 -0.3754
 3026SOL    HW220538   4.401   3.225   5.248  1.7533 -1.1634  0.5904
 3027SOL     OW20539   3.447   3.894  15.655 -0.2345 -0.0910  0.0593
 3027SOL    HW120540   3.460   3.815  15.707 -0.4787 -1.3514 -1.8156
 3027SOL    HW220541   3.538   3.923  15.654 -0.7556  1.6429  0.8948
 3028SOL     OW20542   1.172   4.330   8.308 -0.0572 -0.3689  0.0354
 3028SOL    HW120543   1.152   4.345   8.401  0.6112 -2.4993  0.5308
 3028SOL    HW220544   1.267   4.318   8.309 -0.3235 -2.4375  0.6782
 3029SOL     OW20545   0.195   1.864   2.468 -0.1111  0.0538 -0.1211
 3029SOL    HW120546   0.287   1.853   2.442  0.1395  2.0063 -0.1043
 3029SOL    HW220547   0.193   1.897   2.558 -1.7228  1.0348 -0.5121
 3030SOL     OW20548   2.742   0.678  14.573 -0.0091  0.0366 -0.2801
 3030SOL    HW120549   2.787   0.673  14.657 -0.5484  0.5408  0.0291
 3030SOL    HW220550   2.809   0.643  14.514  0.9022  0.6406  0.4083
 3031SOL     OW20551   0.539   3.043   3.836  0.3843 -0.1330  0.5430
 3031SOL    HW120552   0.540   2.959   3.791  2.9881  0.0361  0.2800
 3031SOL    HW220553   0.621   3.048   3.886  0.7523 -1.9190  0.1191
 3032SOL     OW20554   3.466   2.013   3.616  0.1298 -0.0703  0.3217
 3032SOL    HW120555   3.427   2.011   3.704  1.0279 -0.0725  0.7220
 3032SOL    HW220556   3.539   1.956   3.639  1.2029  1.9901  2.0182
 3033SOL     OW20557   1.624   1.358  10.659  0.2461 -0.0375 -0.3852
 3033SOL    HW120558   1.557   1.289  10.664  0.6024 -0.4706 -1.5405
 3033SOL    HW220559   1.590   1.427  10.716  2.2137  0.3467  0.3178
 3034SOL     OW20560   2.004   2.598   3.195 -0.2367 -0.0623 -0.0326
 3034SOL    HW120561   2.062   2.612   3.269 -0.2152 -0.9619  0.1242
 3034SOL    HW220562   2.067   2.606   3.123 -1.2814  2.0170 -0.7274
 3035SOL     OW20563   4.226   0.073   2.354 -0.4321 -0.3968 -0.3107
 3035SOL    HW120564   4.137   0.103   2.369 -0.1886  0.3311 -0.3169
 3035SOL    HW220565   4.269   0.154   2.326 -1.1873  0.1632  0.1575
 3036SOL     OW20566   1.412   2.114   0.112 -0.8362 -0.3155  0.1153
 3036SOL    HW120567   1.487   2.065   0.148  1.1985  0.8940 -2.4827
 3036SOL    HW220568   1.338   2.092   0.169  0.6546 -0.0791  2.1417
 3037SOL     OW20569   4.199   2.130   8.245 -0.2480  0.1604 -0.4855
 3037SOL    HW120570   4.236   2.145   8.157  0.4911 -2.4963 -0.6418
 3037SOL    HW220571   4.132   2.198   8.246 -1.3665 -0.9898  1.8463
 3038SOL     OW20572   4.577   0.906   6.420 -0.2285 -0.5474 -0.5257
 3038SOL    HW120573   4.576   0.852   6.341 -2.2127 -1.3122  0.0415
 3038SOL    HW220574   4.503   0.964   6.405  1.1806  0.7460 -2.4291
 3039SOL     OW20575   3.747   0.981  11.058 -0.0631  0.2481  0.5801
 3039SOL    HW120576   3.765   0.928  11.135  0.0395 -0.8082 -0.1767
 3039SOL    HW220577   3.767   1.068  11.093 -0.1967  0.0852  1.0608
 3040SOL     OW20578   0.744   0.098  13.335 -0.3792  0.7318  0.1512
 3040SOL    HW120579   0.715   0.142  13.255  0.5698  2.5622  0.7928
 3040SOL    HW220580   0.832   0.136  13.343  0.0986 -0.5872  1.0664
 3041SOL     OW20581   2.129   1.195   8.548 -0.0406 -0.0643 -0.5475
 3041SOL    HW120582   2.076   1.273   8.527 -1.0243 -0.2847  1.1663
 3041SOL    HW220583   2.169   1.182   8.462  0.0804  0.8081 -0.6284
 3042SOL     OW20584   0.287   1.557  13.746 -0.1701  0.0530  0.2674
 3042SOL    HW120585   0.238   1.550  13.665  0.7046  3.1663 -0.5255
 3042SOL    HW220586   0.373   1.587  13.717 -0.3482 -1.1687 -1.5260
 3043SOL     OW20587   3.990   0.937   0.111  0.6387  0.3521 -0.4463
 3043SOL    HW120588   3.971   0.871   0.045 -2.8528  0.6596  0.2553
 3043SOL    HW220589   4.086   0.942   0.116  0.2105  5.8280  3.0168
 3044SOL     OW20590   2.394   4.060   4.736 -0.6326  0.6172  0.3466
 3044SOL    HW120591   2.427   3.971   4.743 -3.2808 -0.3250  0.8016
 3044SOL    HW220592   2.305   4.042   4.705 -0.2523 -0.0491 -0.3326
 3045SOL     OW20593   4.540   4.460   6.667 -0.6431  0.0465  0.2217
 3045SOL    HW120594   4.501   4.374   6.686  0.4495 -0.5287 -0.1521
 3045SOL    HW220595   4.547   4.448   6.572  0.6580  1.7919  0.1211
 3046SOL     OW20596   0.870   2.775   6.268 -0.2326 -0.3760 -0.5275
 3046SOL    HW120597   0.856   2.843   6.202  1.5017  0.7248  0.2326
 3046SOL    HW220598   0.880   2.812   6.356  0.7027 -0.6593 -0.5185
 3047SOL     OW20599   1.814   0.781   9.907 -0.3880  0.2476  0.1683
 3047SOL    HW120600   1.727   0.794   9.870  0.9032  1.2560 -2.4403
 3047SOL    HW220601   1.871   0.801   9.833 -1.7521  0.4899 -0.8116
 3048SOL     OW20602   1.106   3.120   5.933 -0.0375  0.3372  0.0268
 3048SOL    HW120603   1.037   3.181   5.957  1.1779  0.7603  2.4244
 3048SOL    HW220604   1.166   3.126   6.007 -1.7473 -0.7695  1.5012
 3049SOL     OW20605   4.111   2.157   4.324 -0.0787  0.0158 -0.6337
 3049SOL    HW120606   4.084   2.157   4.232  0.5932 -0.4866 -0.8302
 3049SOL    HW220607   4.143   2.067   4.324 -0.8442 -0.2516  1.3265
 3050SOL     OW20608   3.909   1.692   5.553  0.2835 -0.1012  1.1267
 3050SOL    HW120609   3.830   1.742   5.575 -0.4155 -0.3269 -0.8853
 3050SOL    HW220610   3.878   1.614   5.507  0.8254 -0.6366  1.6645
 3051SOL     OW20611   2.587   4.519   9.140 -0.0120  0.3235  0.3564
 3051SOL    HW120612   2.587   4.449   9.206  0.7996 -1.9979 -2.1103
 3051SOL    HW220613   2.495   4.516   9.114  0.6120 -0.4467 -1.7768
 3052SOL     OW20614   3.399   1.854   4.505  0.6117  0.3212 -0.1334
 3052SOL    HW120615   3.456   1.857   4.582  1.6321 -1.3359 -0.8259
 3052SOL    HW220616   3.434   1.921   4.447 -2.4029 -0.1044 -2.4011
 3053SOL     OW20617   4.533   3.107   3.509 -0.3078  0.0205 -0.1190
 3053SOL    HW120618   4.485   3.035   3.550 -0.2180  0.0151 -0.0210
 3053SOL    HW220619   4.518   3.184   3.565 -2.5148 -0.0085 -0.6919
 3054SOL     OW20620   1.959   3.817  17.608 -0.5020  0.3573  0.1214
 3054SOL    HW120621   1.875   3.861  17.624 -0.2377  0.2980  1.6601
 3054SOL    HW220622   1.995   3.799   0.014  1.8620  1.7491 -0.5762
 3055SOL     OW20623   0.635   3.750   8.264 -0.1399 -0.0549  0.4468
 3055SOL    HW120624   0.601   3.796   8.187 -0.3295 -0.3569  0.3472
 3055SOL    HW220625   0.624   3.816   8.332 -0.1770  0.6570 -0.2582
 3056SOL     OW20626   4.042   2.838   7.412  0.5699  0.1590 -0.1054
 3056SOL    HW120627   4.102   2.905   7.380  2.3497 -1.2729  0.1917
 3056SOL    HW220628   3.988   2.816   7.336 -1.1859 -1.9884  1.7511
 3057SOL     OW20629   2.141   3.044   2.160 -0.3215  0.1610  0.1489
 3057SOL    HW120630   2.217   2.999   2.123 -0.1476 -0.6758  1.5581
 3057SOL    HW220631   2.152   3.139   2.157 -0.0921  0.1239 -0.2541
 3058SOL     OW20632   3.762   3.564   7.311 -0.3868  0.6461  0.3571
 3058SOL    HW120633   3.839   3.554   7.366 -0.4190  0.0009  0.2886
 3058SOL    HW220634   3.709   3.628   7.358 -0.0074  0.3640  1.1651
 3059SOL     OW20635   2.677   1.445   9.110 -0.5553 -0.3866 -0.4922
 3059SOL    HW120636   2.618   1.422   9.038 -2.2662  1.7568  0.2085
 3059SOL    HW220637   2.659   1.372   9.169 -0.8432 -0.1984 -0.3462
 3060SOL     OW20638   3.654   0.262   6.723 -0.0831  0.5428 -0.5865
 3060SOL    HW120639   3.660   0.337   6.782  1.2855 -0.0035 -0.0518
 3060SOL    HW220640   3.671   0.181   6.771 -0.1497  0.7612 -0.1892
 3061SOL     OW20641   0.428   3.369   5.146 -0.0663 -0.1653  0.1090
 3061SOL    HW120642   0.452   3.314   5.220 -1.0137  0.1247  0.6277
 3061SOL    HW220643   0.505   3.364   5.089  0.6545  2.3230  0.8902
 3062SOL     OW20644   0.593   3.422   4.927 -0.3983  0.5093 -0.0324
 3062SOL    HW120645   0.618   3.371   4.850 -0.9410 -1.7670  1.2960
 3062SOL    HW220646   0.586   3.506   4.881 -0.1987  1.5006  1.7561
 3063SOL     OW20647   2.378   4.574   7.028 -0.3500 -0.1733  0.1541
 3063SOL    HW120648   2.336   4.495   7.062  0.6462 -0.4915  0.6556
 3063SOL    HW220649   2.334   4.640   7.080 -1.7112  0.0523 -1.2710
 3064SOL     OW20650   3.659   3.204   0.889 -0.8007 -0.3648  0.2471
 3064SOL    HW120651   3.583   3.228   0.942  0.1585 -1.3076  2.0682
 3064SOL    HW220652   3.623   3.240   0.809 -1.0271  1.2350  1.0793
 3065SOL     OW20653   1.426   0.939   4.115  0.7255 -0.1685  0.0311
 3065SOL    HW120654   1.418   1.008   4.050 -0.3986 -1.0451 -0.7500
 3065SOL    HW220655   1.356   0.967   4.174  0.9019  1.0488 -0.3454
 3066SOL     OW20656   0.658   1.772   3.946  0.3152 -0.4068 -0.2087
 3066SOL    HW120657   0.568   1.749   3.972  0.4160 -0.5949 -0.0258
 3066SOL    HW220658   0.639   1.864   3.928  0.4799 -0.7644 -2.1589
 3067SOL     OW20659   3.984   3.047   4.924 -0.8349  0.3898 -0.2478
 3067SOL    HW120660   3.986   3.087   5.011 -2.0071 -0.2775  0.0863
 3067SOL    HW220661   4.072   3.077   4.901 -0.4591  1.1115  2.1235
 3068SOL     OW20662   3.794   3.421   2.694  0.5886 -0.7651  0.4209
 3068SOL    HW120663   3.780   3.421   2.789 -0.3542 -1.4223  0.2753
 3068SOL    HW220664   3.713   3.380   2.665  0.4919  0.5076 -1.1121
 3069SOL     OW20665   2.725   1.933   6.216  0.5887 -0.2119 -0.4603
 3069SOL    HW120666   2.765   1.961   6.134  0.2501  0.4309 -0.4111
 3069SOL    HW220667   2.800   1.887   6.253 -1.2137 -1.3659  1.7585
 3070SOL     OW20668   2.661   0.206   7.668  0.0966 -0.2881  0.2148
 3070SOL    HW120669   2.702   0.176   7.586  1.2060 -1.6194  1.2618
 3070SOL    HW220670   2.721   0.165   7.730  2.1140  0.7815 -1.0369
 3071SOL     OW20671   1.934   3.837   5.628  0.1440  0.8517 -0.4194
 3071SOL    HW120672   2.004   3.810   5.688 -0.3988  0.2328 -0.0676
 3071SOL    HW220673   1.983   3.890   5.565  0.6342 -1.0074 -1.5982
 3072SOL     OW20674   0.457   1.240   6.417  0.2867  0.2751  0.2719
 3072SOL    HW120675   0.387   1.247   6.482  0.6249  0.8635  0.5687
 3072SOL    HW220676   0.426   1.306   6.356  0.7795  2.0602  1.9535
 3073SOL     OW20677   4.607   0.384   4.445 -0.3167 -0.2579  0.1411
 3073SOL    HW120678   4.663   0.323   4.399 -0.3530 -0.2600  0.0992
 3073SOL    HW220679   4.525   0.383   4.394 -2.2828 -2.6315  3.3945
 3074SOL     OW20680   1.994   0.425  12.187 -0.3968 -0.2958  0.3789
 3074SOL    HW120681   2.040   0.489  12.132 -1.4837  0.4078  0.2753
 3074SOL    HW220682   1.910   0.414  12.141 -0.7089 -0.1096  0.9046
 3075SOL     OW20683   1.470   4.034   2.823  0.5009  0.0129 -0.6853
 3075SOL    HW120684   1.486   4.128   2.831 -2.5112  0.6756 -2.3983
 3075SOL    HW220685   1.555   3.992   2.824  0.5449  0.1004 -0.8884
 3076SOL     OW20686   0.474   2.092   2.592  0.1829  0.4106  0.2156
 3076SOL    HW120687   0.397   2.122   2.545 -0.3280 -1.3583 -0.0854
 3076SOL    HW220688   0.446   2.014   2.639  1.3583  0.3031  0.7388
 3077SOL     OW20689   3.228   4.462  17.436  0.3382  0.0117 -0.2273
 3077SOL    HW120690   3.240   4.506  17.352 -1.3383  0.1794 -0.3842
 3077SOL    HW220691   3.222   4.370  17.410 -1.8769  0.1949 -0.3714
 3078SOL     OW20692   0.173   2.909   3.486 -0.1585 -0.6660 -0.0612
 3078SOL    HW120693   0.109   2.853   3.530  1.0132 -0.0556  2.4079
 3078SOL    HW220694   0.247   2.911   3.547  0.2429 -2.2148 -0.4812
 3079SOL     OW20695   0.888   4.663   4.348  0.1131 -0.0087 -0.4792
 3079SOL    HW120696   0.847   4.580   4.368 -1.3818  0.4002 -1.8164
 3079SOL    HW220697   0.810   4.707   4.314 -1.0417 -1.6008  0.1457
 3080SOL     OW20698   1.154   1.443   7.118  0.3208  0.3549  0.3376
 3080SOL    HW120699   1.095   1.500   7.069  0.4250  0.5166  0.3994
 3080SOL    HW220700   1.186   1.504   7.184 -2.2037  0.9152  1.0159
 3081SOL     OW20701   0.544   4.180  14.846  0.0602  0.2420 -0.8656
 3081SOL    HW120702   0.518   4.130  14.769 -0.8412 -0.2726 -0.2234
 3081SOL    HW220703   0.457   4.213  14.872  0.9496  2.4915 -0.7192
 3082SOL     OW20704   3.017   0.318   7.511  0.6140 -0.0680  0.3465
 3082SOL    HW120705   3.021   0.292   7.419  0.1617 -2.2629  0.9281
 3082SOL    HW220706   2.931   0.281   7.532  0.6082 -0.3385 -0.1382
 3083SOL     OW20707   4.405   3.831   9.692  0.1135 -0.7520 -0.1208
 3083SOL    HW120708   4.336   3.796   9.636 -0.2719  0.8022 -0.6279
 3083SOL    HW220709   4.343   3.835   9.765 -0.9799 -0.1934 -1.0838
 3084SOL     OW20710   1.842   3.683   4.792 -0.5563 -0.0475 -0.0250
 3084SOL    HW120711   1.848   3.727   4.876  0.1848 -0.1452 -0.0254
 3084SOL    HW220712   1.778   3.616   4.816  1.8038 -1.8411  1.2642
 3085SOL     OW20713   3.717   1.429  13.612  0.0303 -0.3643 -0.0658
 3085SOL    HW120714   3.685   1.340  13.620  0.9701 -0.5028  2.1871
 3085SOL    HW220715   3.790   1.408  13.553  0.5355 -1.3702  0.9305
 3086SOL     OW20716   1.039   1.046   1.967  0.1702 -0.0865  0.4608
 3086SOL    HW120717   1.050   1.134   2.003 -1.9613  0.2135  0.3794
 3086SOL    HW220718   1.087   0.991   2.029  0.1080  0.1398  0.7071
 3087SOL     OW20719   1.029   0.974  12.969 -0.3951  0.3543  0.0226
 3087SOL    HW120720   0.966   0.982  12.897 -0.0459 -1.0891 -0.4320
 3087SOL    HW220721   1.098   0.923  12.927  0.0301  1.0977 -0.1807
 3088SOL     OW20722   2.482   0.313  13.307  0.2244  0.4605 -0.0550
 3088SOL    HW120723   2.463   0.377  13.239  1.1609 -1.0865 -1.7936
 3088SOL    HW220724   2.424   0.238  13.293  0.3093  0.7340 -1.9243
 3089SOL     OW20725   4.013   2.387   9.301  0.4655 -0.0338 -0.0037
 3089SOL    HW120726   4.067   2.451   9.347  1.1550 -0.5809 -0.0537
 3089SOL    HW220727   4.016   2.309   9.356 -0.4628 -0.6617 -0.8391
 3090SOL     OW20728   2.079   0.327   4.465 -0.2044 -0.0637 -0.1702
 3090SOL    HW120729   2.142   0.372   4.522 -1.3036  1.8007 -0.4327
 3090SOL    HW220730   2.000   0.367   4.502  0.5401  0.7718  0.5141
 3091SOL     OW20731   0.845   3.017   1.794  0.1154 -0.3991  0.2130
 3091SOL    HW120732   0.902   2.948   1.829  0.5390 -0.3746 -0.4256
 3091SOL    HW220733   0.868   2.997   1.703  0.0631 -0.1218  0.1406
 3092SOL     OW20734   1.458   4.489   7.034  0.1099  0.1272  0.0480
 3092SOL    HW120735   1.475   4.485   7.128 -1.4610 -3.9181  0.1508
 3092SOL    HW220736   1.406   4.569   7.031 -0.4072 -0.2490 -1.0031
 3093SOL     OW20737   0.116   2.028   4.355 -0.1505 -0.0758 -0.1631
 3093SOL    HW120738   0.036   2.057   4.398 -0.7202  0.2155 -1.4272
 3093SOL    HW220739   0.102   2.041   4.261 -0.4719  0.5056 -0.0339
 3094SOL     OW20740   0.598   1.878   1.122  0.6286 -0.0903  0.6861
 3094SOL    HW120741   0.623   1.804   1.066  2.0765  0.3533  0.7405
 3094SOL    HW220742   0.583   1.815   1.194 -0.6850 -2.3363 -1.5614
 3095SOL     OW20743   1.019   0.941   7.358  0.4695 -0.5817  0.3651
 3095SOL    HW120744   0.973   0.932   7.274  0.3177  2.1427  0.1525
 3095SOL    HW220745   1.099   0.982   7.324 -0.4554  0.7942 -0.1537
 3096SOL     OW20746   2.882   2.320   4.788  0.0945 -0.2094 -0.3576
 3096SOL    HW120747   2.958   2.315   4.845  1.4989  1.9139 -2.0432
 3096SOL    HW220748   2.868   2.414   4.781 -1.2297 -0.4641 -1.1859
 3097SOL     OW20749   3.138   4.328   5.606  0.2621  0.2810 -0.2196
 3097SOL    HW120750   3.048   4.360   5.595  0.7979  1.3137 -1.6000
 3097SOL    HW220751   3.150   4.273   5.529 -0.5968 -0.2984  0.0535
 3098SOL     OW20752   2.413   3.883   6.879 -0.1391 -0.3850  0.1666
 3098SOL    HW120753   2.319   3.902   6.885  0.2095  1.4427 -0.2170
 3098SOL    HW220754   2.435   3.879   6.972 -0.1667  2.6047  0.2758
 3099SOL     OW20755   0.437   0.279   1.925 -0.5827  0.1876  0.4862
 3099SOL    HW120756   0.449   0.212   1.857  0.5492  0.2961  0.5850
 3099SOL    HW220757   0.508   0.265   1.988 -1.9357  0.2927  2.0370
 3100SOL     OW20758   3.021   3.099  16.138 -0.0513  0.2556 -0.1734
 3100SOL    HW120759   3.026   3.020  16.193 -3.0657  1.2465  1.4642
 3100SOL    HW220760   3.040   3.166  16.203  1.1239 -2.7087  2.5988
 3101SOL     OW20761   1.615   1.295   3.244  0.0536  0.1804 -0.0264
 3101SOL    HW120762   1.695   1.254   3.210  0.2568 -1.5821  2.5514
 3101SOL    HW220763   1.650   1.327   3.327 -3.2731  0.3845  1.2736
 3102SOL     OW20764   1.108   0.997  16.383  0.4250 -0.0379 -0.0875
 3102SOL    HW120765   1.037   0.952  16.338 -0.2147 -0.3992  1.2875
 3102SOL    HW220766   1.072   1.082  16.410  0.2636 -0.1508  0.0543
 3103SOL     OW20767   3.799   4.051   8.342 -0.1161  0.1582  0.0871
 3103SOL    HW120768   3.865   4.120   8.356 -0.4719  0.6573 -0.6919
 3103SOL    HW220769   3.728   4.109   8.315  0.4295  1.3329  1.1476
 3104SOL     OW20770   2.057   4.717   0.229  0.6146  0.2399 -0.0683
 3104SOL    HW120771   2.021   4.652   0.168  2.5624 -1.8358  1.0045
 3104SOL    HW220772   1.981   0.004   0.287 -0.5763 -1.8048 -1.3807
 3105SOL     OW20773   4.111   1.941   1.268 -0.2387  0.3391  0.2084
 3105SOL    HW120774   4.055   1.873   1.230  0.3510  1.5216 -2.8021
 3105SOL    HW220775   4.144   1.901   1.348 -0.4749 -1.1281 -0.4155
 3106SOL     OW20776   0.430   4.662   4.622 -0.5095 -0.1908 -0.7503
 3106SOL    HW120777   0.376   0.013   4.658  1.8709  0.4401  1.5959
 3106SOL    HW220778   0.432   4.689   4.531 -1.9110 -0.9465 -1.0221
 3107SOL     OW20779   0.462   1.441   2.863  0.4987 -0.0326 -0.6094
 3107SOL    HW120780   0.467   1.374   2.795  2.6345 -0.9148  0.4128
 3107SOL    HW220781   0.479   1.511   2.799  2.6261  0.4335  0.4686
 3108SOL     OW20782   4.230   2.450  17.551 -0.1134 -0.0745  0.6540
 3108SOL    HW120783   4.176   2.526  17.534 -1.7627 -1.3041  0.4517
 3108SOL    HW220784   4.277   2.443  17.467 -1.5229  0.2250 -0.1460
 3109SOL     OW20785   2.669   4.046   6.539  0.0324  0.0140 -0.5054
 3109SOL    HW120786   2.657   4.079   6.628  1.5063  1.1008 -0.7091
 3109SOL    HW220787   2.611   3.970   6.543 -0.4610  0.3829 -0.6671
 3110SOL     OW20788   3.462   2.137   9.042  0.3099 -0.5740 -0.4608
 3110SOL    HW120789   3.390   2.146   9.105 -0.5199 -0.6392 -1.3927
 3110SOL    HW220790   3.484   2.044   9.044  2.6229 -0.0035  0.9178
 3111SOL     OW20791   3.631   2.598  17.539 -0.3236  0.3793  0.1932
 3111SOL    HW120792   3.599   2.536  17.473  1.7877  0.2106 -0.6613
 3111SOL    HW220793   3.573   2.571  17.611 -0.8724  1.2437  0.0693
 3112SOL     OW20794   1.086   1.525   3.550 -0.5890  0.2710  0.0335
 3112SOL    HW120795   1.080   1.447   3.494  2.7565 -0.7463  1.0746
 3112SOL    HW220796   1.157   1.571   3.505 -0.4701 -1.2605 -1.3433
 3113SOL     OW20797   0.635   1.484   8.955  0.2171 -0.2963  0.0033
 3113SOL    HW120798   0.603   1.572   8.971  0.0756 -0.4119  0.3543
 3113SOL    HW220799   0.635   1.456   9.047 -1.7595  1.1980  0.4395
 3114SOL     OW20800   1.285   0.555   2.068 -0.4182  0.0068  0.4949
 3114SOL    HW120801   1.268   0.511   2.151  1.5373 -2.8458 -0.6051
 3114SOL    HW220802   1.341   0.488   2.028 -3.5360 -1.5455 -1.2579
 3115SOL     OW20803   2.712   0.630   6.383 -0.5333  0.4108  0.0532
 3115SOL    HW120804   2.752   0.549   6.414 -3.4165 -2.0345 -2.6004
 3115SOL    HW220805   2.648   0.600   6.318 -2.2166  1.0976  1.3658
 3116SOL     OW20806   1.196   3.953   5.012  0.4418  0.4926  0.3290
 3116SOL    HW120807   1.236   4.023   4.960 -0.5864 -0.8266 -2.2809
 3116SOL    HW220808   1.261   3.885   4.998  0.5726  0.2816  2.0340
 3117SOL     OW20809   0.745   0.781   3.941  0.5615  0.8182  0.2193
 3117SOL    HW120810   0.726   0.784   3.847 -0.9410  1.1957  0.5316
 3117SOL    HW220811   0.744   0.687   3.958  4.8358  0.9660  1.1124
 3118SOL     OW20812   1.304   3.366   4.942 -0.5502  0.4267 -0.1984
 3118SOL    HW120813   1.289   3.457   4.968 -2.3206 -0.2558  1.2007
 3118SOL    HW220814   1.370   3.345   5.007  1.3162 -1.1628 -2.5957
 3119SOL     OW20815   0.480   0.544   9.947 -0.1136  0.1846 -0.1949
 3119SOL    HW120816   0.523   0.559   9.863  1.3392 -0.0028  0.5160
 3119SOL    HW220817   0.498   0.627   9.991  0.5194  0.0439 -0.1933
 3120SOL     OW20818   0.976   0.119   8.099  0.0407  0.2791  0.3201
 3120SOL    HW120819   1.040   0.189   8.107 -0.3223  0.8798 -1.9038
 3120SOL    HW220820   1.011   0.048   8.152  1.8733  0.8407 -0.1630
 3121SOL     OW20821   4.249   2.889  15.091  0.5939  0.2012  0.3688
 3121SOL    HW120822   4.307   2.954  15.052 -0.0922 -1.0209 -2.6272
 3121SOL    HW220823   4.317   2.871  15.156  1.5825  0.1148 -0.7038
 3122SOL     OW20824   0.698   4.276   3.644  0.1061 -0.1445 -0.6438
 3122SOL    HW120825   0.678   4.355   3.694  0.1415  0.2332 -1.2341
 3122SOL    HW220826   0.673   4.313   3.560 -0.3934  0.3492 -0.2776
 3123SOL     OW20827   3.944   3.055   9.887 -0.1352 -1.1739  0.0623
 3123SOL    HW120828   3.931   2.970   9.845  1.0110 -0.2427 -2.1826
 3123SOL    HW220829   3.856   3.092   9.881  0.3458  0.0012  0.1951
 3124SOL     OW20830   1.029   1.906   0.448  0.0712 -0.1740  0.3210
 3124SOL    HW120831   0.957   1.961   0.418 -1.8266 -2.8161  0.0612
 3124SOL    HW220832   1.057   1.955   0.525  0.8571 -1.0325  0.5848
 3125SOL     OW20833   2.446   0.694  14.266 -0.2368  0.1092  0.4763
 3125SOL    HW120834   2.527   0.742  14.250 -0.5131  1.0865  2.0222
 3125SOL    HW220835   2.416   0.739  14.345 -4.1598 -1.6275 -0.0301
 3126SOL     OW20836   0.788   3.914   7.689 -0.1920 -0.0708  0.1566
 3126SOL    HW120837   0.733   3.992   7.695 -1.7312 -1.0546 -1.2586
 3126SOL    HW220838   0.873   3.958   7.700  0.0632 -0.5184 -0.0172
 3127SOL     OW20839   1.628   0.475   3.435  0.1029  0.0848  0.1021
 3127SOL    HW120840   1.627   0.520   3.519  0.8402  0.6014 -0.1631
 3127SOL    HW220841   1.657   0.543   3.374 -0.9317  1.1464  0.8015
 3128SOL     OW20842   0.982   2.427   6.080  0.6105 -0.4847  0.0167
 3128SOL    HW120843   0.979   2.351   6.022 -0.0193  0.8693 -1.7271
 3128SOL    HW220844   1.050   2.481   6.039 -0.5726  1.8406  1.1203
 3129SOL     OW20845   1.816   3.983   9.379  0.4796 -0.2585  0.4576
 3129SOL    HW120846   1.743   4.002   9.438 -0.6439 -2.0598 -0.3412
 3129SOL    HW220847   1.766   3.995   9.298  2.7303  2.3976 -0.5125
 3130SOL     OW20848   0.345   3.111   4.973  0.5807  0.1620 -0.1610
 3130SOL    HW120849   0.369   3.033   4.922 -1.5470 -1.0803  0.7387
 3130SOL    HW220850   0.287   3.070   5.037 -1.0715  2.6506 -0.0555
 3131SOL     OW20851   1.150   1.901  10.154 -0.1284  0.1702 -0.3109
 3131SOL    HW120852   1.074   1.933  10.203  1.6045  2.5805  0.7990
 3131SOL    HW220853   1.106   1.825  10.115  0.0530  0.1447 -0.4651
 3132SOL     OW20854   0.914   4.454  11.749 -0.3752 -0.4044 -0.2000
 3132SOL    HW120855   0.965   4.384  11.790  1.0321  0.9060  0.3018
 3132SOL    HW220856   0.859   4.404  11.688 -1.1969  0.2946 -0.0387
 3133SOL     OW20857   1.899   3.009   3.038  0.2719 -0.1173 -0.3061
 3133SOL    HW120858   1.895   2.942   2.970 -1.1945 -0.5905  0.2530
 3133SOL    HW220859   1.931   3.090   2.998  0.1242 -0.3417 -0.8778
 3134SOL     OW20860   3.673   1.848   5.990 -0.0927 -0.5485 -0.0920
 3134SOL    HW120861   3.649   1.846   6.083  2.9967 -0.7644  0.6832
 3134SOL    HW220862   3.620   1.920   5.956 -0.0660  0.1818  1.3835
 3135SOL     OW20863   3.877   2.517   8.283  0.1545  0.1775 -0.5147
 3135SOL    HW120864   3.882   2.586   8.349 -2.3470  1.3832 -1.6031
 3135SOL    HW220865   3.844   2.564   8.207  2.6013 -1.9495 -2.8744
 3136SOL     OW20866   1.958   2.118   0.181 -0.3230  0.4112  0.2676
 3136SOL    HW120867   1.885   2.137   0.123 -0.7088 -1.9908 -0.0215
 3136SOL    HW220868   2.020   2.181   0.143 -0.1133 -0.2128 -0.4219
 3137SOL     OW20869   4.387   4.629   5.873  0.8303 -0.5627  0.1730
 3137SOL    HW120870   4.391   4.554   5.813 -2.2027 -0.8323  0.2721
 3137SOL    HW220871   4.473   4.666   5.855  0.8360 -0.5877  0.1479
 3138SOL     OW20872   1.377   3.313   7.461 -0.0230 -0.0981 -0.1984
 3138SOL    HW120873   1.345   3.223   7.474 -0.9454  0.1314 -0.9061
 3138SOL    HW220874   1.304   3.348   7.411  1.0893 -0.9872 -2.4683
 3139SOL     OW20875   4.549   2.733  16.139  0.0812 -0.1176 -0.0011
 3139SOL    HW120876   4.540   2.651  16.090 -4.5673 -1.1711  2.7185
 3139SOL    HW220877   4.529   2.790  16.065  1.4809 -0.4563 -0.6608
 3140SOL     OW20878   2.069   2.852   4.198 -0.6212 -0.2486 -0.2108
 3140SOL    HW120879   2.145   2.862   4.141  0.3705  0.4171  1.2125
 3140SOL    HW220880   1.997   2.890   4.148 -2.0126 -2.0667  0.4536
 3141SOL     OW20881   0.276   4.242   6.066 -0.7118  0.3379  0.3503
 3141SOL    HW120882   0.236   4.166   6.107  2.2737 -0.7023  1.3500
 3141SOL    HW220883   0.220   4.248   5.989  1.0370  1.3013 -0.8623
 3142SOL     OW20884   3.054   2.436   4.054 -0.1768 -0.2476 -0.3918
 3142SOL    HW120885   3.149   2.426   4.045 -0.3275  2.8932 -5.1758
 3142SOL    HW220886   3.043   2.450   4.148  1.5979  1.3192 -0.4220
 3143SOL     OW20887   2.640   3.791   8.986 -0.2976 -0.3552 -0.2094
 3143SOL    HW120888   2.630   3.867   8.929  3.4429 -0.3686 -0.8524
 3143SOL    HW220889   2.716   3.749   8.947  0.0192 -0.7286  0.8269
 3144SOL     OW20890   3.186   2.210   6.862  0.3403 -0.4751 -0.3008
 3144SOL    HW120891   3.196   2.266   6.785 -0.9834 -0.5308 -0.5218
 3144SOL    HW220892   3.106   2.253   6.893  1.3946 -1.2077  3.4855
 3145SOL     OW20893   0.416   0.841   2.589 -0.0925 -0.3348  0.0403
 3145SOL    HW120894   0.419   0.846   2.684  0.9609  2.1829 -0.1278
 3145SOL    HW220895   0.483   0.776   2.569  1.1127  1.1123 -0.6116
 3146SOL     OW20896   2.272   1.803  17.661 -0.4648  0.2151  0.3396
 3146SOL    HW120897   2.362   1.793  17.631 -0.8893  0.1920 -0.9432
 3146SOL    HW220898   2.285   1.807   0.075  2.1419  0.2340 -0.0272
 3147SOL     OW20899   3.163   4.548   0.063 -0.6172  0.7001  0.2542
 3147SOL    HW120900   3.137   4.495  17.668  3.5402  0.2727 -0.8759
 3147SOL    HW220901   3.184   4.633   0.023 -0.7288  1.5061  1.8934
 3148SOL     OW20902   3.085   0.515  15.488 -0.6577  0.4755 -0.4144
 3148SOL    HW120903   3.059   0.501  15.397 -0.7335 -0.4658 -0.2487
 3148SOL    HW220904   3.016   0.459  15.524  0.4746  0.0962  1.1749
 3149SOL     OW20905   2.166   2.284   3.373  0.2006  0.5495  0.0167
 3149SOL    HW120906   2.254   2.257   3.396  0.5056  1.1568 -0.4535
 3149SOL    HW220907   2.158   2.269   3.279 -1.1068  0.3357  0.1529
 3150SOL     OW20908   2.834   0.171   9.115  0.2613 -0.2539 -0.2475
 3150SOL    HW120909   2.780   0.101   9.077 -0.4145 -0.4497  1.0579
 3150SOL    HW220910   2.852   0.118   9.192 -1.0959 -0.7159 -0.2399
 3151SOL     OW20911   3.843   3.916   5.573  0.6422 -0.0448 -0.4911
 3151SOL    HW120912   3.760   3.916   5.621  0.9750 -1.0767  0.0772
 3151SOL    HW220913   3.903   3.861   5.623 -1.2434 -1.7210 -0.0639
 3152SOL     OW20914   3.348   0.573  16.280  0.4473 -0.0402  0.1637
 3152SOL    HW120915   3.338   0.502  16.344 -0.8497  0.0699  0.0799
 3152SOL    HW220916   3.385   0.519  16.210 -0.7977  0.4048 -0.8366
 3153SOL     OW20917   4.046   1.563   1.587 -0.1151 -0.2339 -1.1561
 3153SOL    HW120918   4.048   1.579   1.682 -1.3307  2.0785 -1.5268
 3153SOL    HW220919   4.137   1.537   1.573  0.5897  0.9635  1.0484
 3154SOL     OW20920   3.014   3.295  15.245  0.6578  0.3514  0.4633
 3154SOL    HW120921   3.009   3.307  15.150 -2.0227 -0.0559  0.5645
 3154SOL    HW220922   2.934   3.245  15.261  0.8501 -0.8433 -2.2685
 3155SOL     OW20923   3.410   0.173   6.637 -0.2097  0.0293 -0.0369
 3155SOL    HW120924   3.492   0.207   6.675  0.0031 -1.2000  0.5820
 3155SOL    HW220925   3.374   0.255   6.603 -0.5084 -0.2501 -0.3927
 3156SOL     OW20926   2.659   3.666   1.187 -0.3221 -0.0005  0.2969
 3156SOL    HW120927   2.588   3.658   1.251 -0.2601  0.8993  0.4786
 3156SOL    HW220928   2.611   3.698   1.110 -0.4043 -1.7427 -0.3672
 3157SOL     OW20929   1.344   3.037   7.194 -0.4165 -0.1352  0.0031
 3157SOL    HW120930   1.313   3.053   7.282 -1.6242 -2.3701 -0.0255
 3157SOL    HW220931   1.267   2.984   7.176  0.2049 -1.0615  0.1023
 3158SOL     OW20932   2.561   0.534   8.409  0.4960 -0.0842 -0.1460
 3158SOL    HW120933   2.530   0.507   8.496  0.1060  0.9050  0.0202
 3158SOL    HW220934   2.649   0.560   8.438 -0.0305 -0.8465  2.1489
 3159SOL     OW20935   4.105   1.912   8.367  0.2229 -0.0085 -0.0026
 3159SOL    HW120936   4.160   1.984   8.334 -2.1067  1.9645  0.3990
 3159SOL    HW220937   4.153   1.842   8.323  1.0618  0.3330  0.3659
 3160SOL     OW20938   3.469   0.422   1.843 -0.2854 -0.6885  0.4882
 3160SOL    HW120939   3.397   0.470   1.801 -0.1080 -0.9226 -0.0771
 3160SOL    HW220940   3.520   0.491   1.886 -1.7172 -0.3293  1.6364
 3161SOL     OW20941   1.886   0.204   9.765  0.4009 -0.6271 -0.2000
 3161SOL    HW120942   1.819   0.272   9.762  0.8790 -0.1213  0.4868
 3161SOL    HW220943   1.845   0.136   9.712  0.4690  0.5059 -1.7309
 3162SOL     OW20944   0.020   0.771   3.709  0.4030 -0.0344  0.2026
 3162SOL    HW120945   0.042   0.822   3.787 -1.4963 -1.3370  1.5780
 3162SOL    HW220946   4.686   0.833   3.660  3.4582  0.4421 -2.5354
 3163SOL     OW20947   3.066   1.100  11.003 -0.7782 -0.0771 -0.0903
 3163SOL    HW120948   2.976   1.099  11.036 -0.0812 -0.2384  1.7585
 3163SOL    HW220949   3.101   1.017  11.035 -0.9734 -0.2012 -0.1948
 3164SOL     OW20950   4.214   4.527   4.460  0.2515  0.0879  0.5389
 3164SOL    HW120951   4.183   4.436   4.459 -0.1331  0.2289 -0.1611
 3164SOL    HW220952   4.292   4.518   4.515  1.6913  2.4128 -1.0914
 3165SOL     OW20953   3.507   1.961  15.483  0.1090  0.0046  0.7027
 3165SOL    HW120954   3.454   1.913  15.420 -0.2669  2.3860 -0.8115
 3165SOL    HW220955   3.492   2.049  15.447 -0.7456 -0.6372 -0.5010
 3166SOL     OW20956   1.282   3.314  14.797 -0.2797  0.3542  0.2341
 3166SOL    HW120957   1.340   3.241  14.775  0.2529  0.5173  1.1169
 3166SOL    HW220958   1.215   3.319  14.729 -0.3343  0.4716  0.2958
 3167SOL     OW20959   1.106   4.315   8.852 -0.1250  1.0741 -0.1379
 3167SOL    HW120960   1.140   4.246   8.796  0.4143  0.9990  0.2777
 3167SOL    HW220961   1.116   4.283   8.942 -2.6328  0.3179 -0.1369
 3168SOL     OW20962   4.356   3.569  10.317  0.7035 -0.0620 -0.2697
 3168SOL    HW120963   4.369   3.525  10.233 -3.6967 -3.3706  0.7746
 3168SOL    HW220964   4.282   3.626  10.296 -0.4613 -0.2016  3.5012
 3169SOL     OW20965   3.301   3.452   1.437  0.1442  0.0613  0.3026
 3169SOL    HW120966   3.271   3.393   1.506 -1.2663 -0.7975 -1.0428
 3169SOL    HW220967   3.291   3.403   1.355 -0.1571 -0.4359  0.6353
 3170SOL     OW20968   1.126   1.306  14.128 -0.1456  0.3545  0.0773
 3170SOL    HW120969   1.065   1.243  14.089 -0.1013 -1.3819  2.8399
 3170SOL    HW220970   1.188   1.314  14.055 -2.5334 -2.1201 -2.2207
 3171SOL     OW20971   1.436   0.314  14.276 -0.2553 -0.3864  0.4784
 3171SOL    HW120972   1.429   0.375  14.202  0.1101  1.0896  1.6574
 3171SOL    HW220973   1.345   0.286  14.283 -0.5998  0.1215 -2.0706
 3172SOL     OW20974   0.871   0.626   4.645 -0.4049  1.2783  0.4326
 3172SOL    HW120975   0.841   0.664   4.728  0.0987  1.3805  0.5650
 3172SOL    HW220976   0.961   0.652   4.664 -0.0741  0.8717 -0.5972
 3173SOL     OW20977   1.310   1.249  13.905  0.1282 -0.3976  0.4856
 3173SOL    HW120978   1.265   1.166  13.892  1.3715 -0.9151 -0.5301
 3173SOL    HW220979   1.396   1.213  13.928 -1.2040 -1.7867  3.3988
 3174SOL     OW20980   3.522   0.742   9.231  0.1344  0.4667  0.2780
 3174SOL    HW120981   3.575   0.712   9.157 -1.2311 -0.2980 -0.4010
 3174SOL    HW220982   3.475   0.660   9.244 -3.4276  2.2434 -1.2772
 3175SOL     OW20983   3.460   0.024   8.911  0.1172 -0.3438  0.1459
 3175SOL    HW120984   3.449   4.718   9.002  0.7364  1.8745  0.8500
 3175SOL    HW220985   3.512   4.676   8.867 -0.6139 -1.1151  0.4804
 3176SOL     OW20986   2.390   3.095   2.830  0.1681  0.1051 -0.0284
 3176SOL    HW120987   2.315   3.146   2.799 -0.8350 -1.1103  0.3664
 3176SOL    HW220988   2.416   3.056   2.746 -1.5409  1.3365 -1.1331
 3177SOL     OW20989   3.087   0.654  12.217  0.4695  0.5708 -0.8640
 3177SOL    HW120990   3.085   0.749  12.225  1.3264  0.4122  1.0855
 3177SOL    HW220991   3.158   0.640  12.154  0.2067  0.5779 -1.1620
 3178SOL     OW20992   3.651   2.086   7.344  0.6800  0.4096  0.4257
 3178SOL    HW120993   3.583   2.043   7.292 -0.4767  0.7237  1.7104
 3178SOL    HW220994   3.714   2.083   7.272  0.3701  0.2556  0.1624
 3179SOL     OW20995   1.010   0.785  13.451 -0.2648 -0.0387  0.1626
 3179SOL    HW120996   1.102   0.763  13.443 -0.1353  0.0870  1.3020
 3179SOL    HW220997   0.996   0.828  13.367  0.8513 -0.0158 -0.0102
 3180SOL     OW20998   0.209   1.111  10.703 -0.2790  0.0923  0.1368
 3180SOL    HW120999   0.161   1.049  10.758 -1.0598 -0.2680 -0.9363
 3180SOL    HW221000   0.193   1.193  10.748  1.9026 -0.4568  1.9191
 3181SOL     OW21001   2.732   0.800  15.422  0.1576  0.0698  0.1499
 3181SOL    HW121002   2.663   0.853  15.383  1.2573  1.0736 -0.4282
 3181SOL    HW221003   2.778   0.772  15.343  1.0386  4.7709 -0.9866
 3182SOL     OW21004   0.632   0.146   6.028 -0.0774  0.3839  0.7643
 3182SOL    HW121005   0.645   0.135   6.122  2.7025 -1.2035  0.2074
 3182SOL    HW221006   0.600   0.236   6.022 -2.2172 -0.2994  2.0111
 3183SOL     OW21007   3.463   3.637   7.818 -0.0001 -0.0339  0.3334
 3183SOL    HW121008   3.542   3.643   7.764 -1.1694  0.6939 -1.2932
 3183SOL    HW221009   3.432   3.552   7.787 -0.0238 -0.1046  0.5542
 3184SOL     OW21010   3.953   2.580   6.557  0.2824  0.0154  0.3014
 3184SOL    HW121011   3.945   2.618   6.470 -1.8940 -0.5524  0.2453
 3184SOL    HW221012   4.004   2.652   6.595 -1.4078  1.7794 -0.7743
 3185SOL     OW21013   4.644   0.911   1.055 -0.7767  0.8055 -0.3412
 3185SOL    HW121014   4.560   0.896   1.012 -0.3434 -0.0113 -0.9025
 3185SOL    HW221015   4.616   0.923   1.146  0.6107 -2.6327  0.5517
 3186SOL     OW21016   4.609   4.202  13.679 -0.1370 -0.9554  0.2240
 3186SOL    HW121017   4.634   4.125  13.731  1.2464 -0.7053 -0.0936
 3186SOL    HW221018   4.528   4.225  13.726  2.3714 -1.4387  4.7848
 3187SOL     OW21019   0.410   1.035   4.863  0.1959 -0.0117  0.0137
 3187SOL    HW121020   0.384   0.944   4.879  1.3946 -0.7046 -1.9717
 3187SOL    HW221021   0.398   1.083   4.945 -2.1517 -0.2451 -0.1817
 3188SOL     OW21022   2.334   0.151   5.773  0.5177 -0.1251  0.1029
 3188SOL    HW121023   2.369   0.173   5.860 -0.9239  0.2857  0.5794
 3188SOL    HW221024   2.340   0.056   5.786  0.8725 -0.2541 -1.0039
 3189SOL     OW21025   0.793   0.908   7.911 -0.0156  0.4810 -0.2445
 3189SOL    HW121026   0.869   0.855   7.886  0.8905  1.5123  0.3657
 3189SOL    HW221027   0.808   0.927   8.003 -1.0994 -2.9602  0.6444
 3190SOL     OW21028   3.835   0.569  10.714  0.3010  0.5377  0.5844
 3190SOL    HW121029   3.899   0.602  10.777 -2.3338  3.9650  1.4429
 3190SOL    HW221030   3.880   0.570  10.629  1.8897 -0.8648  1.4068
 3191SOL     OW21031   3.229   4.469   4.647 -0.2134 -0.5749  0.0074
 3191SOL    HW121032   3.239   4.541   4.584 -1.8182 -0.7315 -0.4346
 3191SOL    HW221033   3.169   4.506   4.712  1.5032  1.5193  0.4279
 3192SOL     OW21034   1.983   2.234  11.932  0.1966 -0.7634 -0.2952
 3192SOL    HW121035   1.931   2.198  11.860 -1.4513  0.1097  0.4423
 3192SOL    HW221036   2.024   2.153  11.963  4.2426  1.5797  0.4226
 3193SOL     OW21037   0.238   2.951   7.907  0.1739  1.1611  0.0611
 3193SOL    HW121038   0.195   2.961   7.992 -0.0941 -2.2040  0.3323
 3193SOL    HW221039   0.301   2.882   7.927  3.5816  4.8370  2.0319
 3194SOL     OW21040   4.541   1.888   2.876 -0.0442  0.0371  0.4146
 3194SOL    HW121041   4.635   1.879   2.859 -0.0798  0.2479  0.1014
 3194SOL    HW221042   4.517   1.797   2.896  1.5028 -0.5811 -0.4922
 3195SOL     OW21043   0.048   2.364   2.494  0.6265  0.4937 -0.2103
 3195SOL    HW121044   0.053   2.407   2.580  0.1867  0.9156 -0.3961
 3195SOL    HW221045   0.016   2.280   2.528  0.4714  0.2746 -0.8918
 3196SOL     OW21046   2.863   1.008   7.126  0.6510  0.1344  0.1365
 3196SOL    HW121047   2.946   0.987   7.084  0.4012  0.6097 -0.6154
 3196SOL    HW221048   2.817   0.924   7.126 -0.1047  0.5479 -2.3401
 3197SOL     OW21049   0.118   0.346   2.634 -0.3540  0.1352 -0.3862
 3197SOL    HW121050   0.059   0.305   2.697  1.1203 -0.8121  0.3958
 3197SOL    HW221051   0.173   0.380   2.705  1.0332 -0.3998 -1.1885
 3198SOL     OW21052   1.462   3.641  12.133  0.0043  0.3864  0.6476
 3198SOL    HW121053   1.408   3.691  12.072  1.4943  0.2730 -0.7728
 3198SOL    HW221054   1.528   3.705  12.159  2.4650 -0.5336 -3.3343
 3199SOL     OW21055   2.792   3.316   1.081  0.2634  0.8485  0.3466
 3199SOL    HW121056   2.861   3.281   1.026 -0.1468  1.4557 -0.5554
 3199SOL    HW221057   2.727   3.340   1.015 -0.5204 -1.3422  0.3469
 3200SOL     OW21058   4.014   2.646  15.965  0.2005  0.2857  0.1258
 3200SOL    HW121059   3.944   2.688  16.015  2.5011  4.2167  0.0753
 3200SOL    HW221060   4.075   2.637  16.038  3.0955  0.3059 -2.2882
 3201SOL     OW21061   3.910   0.855   7.649  0.4888  0.7533 -0.1910
 3201SOL    HW121062   3.949   0.917   7.587 -0.6030  1.7775  0.1375
 3201SOL    HW221063   3.988   0.840   7.702 -0.2394  0.2926  0.7370
 3202SOL     OW21064   2.888   0.041   5.893  0.0736  0.0866  0.2144
 3202SOL    HW121065   2.875   4.698   5.965  1.2599 -1.8708 -1.2676
 3202SOL    HW221066   2.878   0.000   5.807  2.2342 -2.6347  1.2466
 3203SOL     OW21067   4.309   2.989   9.002 -0.3615 -0.6132 -0.3743
 3203SOL    HW121068   4.247   3.040   8.949  1.1097  0.5893 -0.9450
 3203SOL    HW221069   4.288   3.005   9.094  1.8112 -0.2966  0.0659
 3204SOL     OW21070   1.628   1.215   8.157 -0.0357  0.1464 -0.7027
 3204SOL    HW121071   1.655   1.124   8.172 -0.5300  0.1177 -0.0122
 3204SOL    HW221072   1.565   1.227   8.228  1.2915  2.5055  0.0959
 3205SOL     OW21073   1.507   2.490   5.449  0.9484  0.5221  0.3485
 3205SOL    HW121074   1.581   2.508   5.506  0.0807 -0.1471  1.6954
 3205SOL    HW221075   1.499   2.396   5.466 -1.7367  0.6399 -0.2653
 3206SOL     OW21076   2.819   3.342  13.593 -0.5829 -0.3142 -0.2259
 3206SOL    HW121077   2.793   3.271  13.535 -3.0357  0.4659 -0.0879
 3206SOL    HW221078   2.735   3.384  13.611  0.0050  1.5262 -1.7169
 3207SOL     OW21079   1.286   0.348   3.546  0.0732 -0.1958  0.5396
 3207SOL    HW121080   1.337   0.334   3.467 -0.9307  2.4091 -0.5759
 3207SOL    HW221081   1.322   0.280   3.604  0.2180  0.3069  1.0364
 3208SOL     OW21082   2.452   2.405   8.592  0.3462 -0.5398 -0.3153
 3208SOL    HW121083   2.518   2.349   8.631  1.1546  0.3320 -0.4271
 3208SOL    HW221084   2.374   2.356   8.619  0.8013 -1.7253 -1.1582
 3209SOL     OW21085   1.713   3.474  17.118 -0.0401 -0.2799  0.1179
 3209SOL    HW121086   1.683   3.511  17.200 -1.9627 -2.2340  0.2798
 3209SOL    HW221087   1.639   3.478  17.058 -0.0423 -3.4582 -0.0967
 3210SOL     OW21088   0.264   1.855   5.236  0.2340  0.4781 -0.7303
 3210SOL    HW121089   0.348   1.875   5.196  2.1903 -4.6055  0.8521
 3210SOL    HW221090   0.259   1.759   5.226  2.1163  0.3327 -0.1816
 3211SOL     OW21091   4.681   1.782   4.358 -0.8488 -0.2067 -0.3681
 3211SOL    HW121092   4.685   1.763   4.452 -0.5035  0.1113 -0.3183
 3211SOL    HW221093   0.032   1.845   4.346 -1.5884  0.7512  0.2520
 3212SOL     OW21094   4.049   3.783   4.106 -0.1211  0.2748 -0.4873
 3212SOL    HW121095   4.078   3.868   4.139  0.4681 -0.2947  0.5026
 3212SOL    HW221096   4.018   3.749   4.191 -1.0889 -0.0985 -0.9938
 3213SOL     OW21097   3.057   0.120   9.612 -0.1220  0.4768 -0.5743
 3213SOL    HW121098   2.967   0.150   9.626 -0.0025  0.0184  1.1799
 3213SOL    HW221099   3.096   0.198   9.573  0.7681  0.8453  1.0832
 3214SOL     OW21100   4.659   1.231   8.531 -0.3261  0.3123  0.3205
 3214SOL    HW121101   4.624   1.225   8.620 -0.5266 -1.4711  0.1256
 3214SOL    HW221102   4.698   1.144   8.530  0.9261  0.8948 -2.1630
 3215SOL     OW21103   4.692   0.701   9.948  0.0399 -0.2496 -0.0270
 3215SOL    HW121104   4.689   0.689   9.853 -2.8136  1.3728 -0.1541
 3215SOL    HW221105   0.063   0.726   9.964  0.3113 -0.3862 -1.3363
 3216SOL     OW21106   4.101   3.348   3.530  0.3399  0.3079  0.1878
 3216SOL    HW121107   4.064   3.303   3.606  0.7687  1.3508  1.0222
 3216SOL    HW221108   4.194   3.347   3.551  0.1499 -0.2569  1.0168
 3217SOL     OW21109   2.169   4.586  12.713  0.3211  0.1774 -0.2894
 3217SOL    HW121110   2.162   4.673  12.674 -1.4592 -0.4315 -1.3441
 3217SOL    HW221111   2.081   4.554  12.696  0.6196 -0.1326 -1.2499
 3218SOL     OW21112   4.253   1.626  10.890  0.0405 -0.4236  0.3237
 3218SOL    HW121113   4.251   1.531  10.874  0.0168 -0.6572  1.7039
 3218SOL    HW221114   4.204   1.616  10.972  1.0119  0.9186  1.0577
 3219SOL     OW21115   0.769   2.963   7.680  0.2337  0.1477  0.2256
 3219SOL    HW121116   0.780   2.987   7.772  2.1686 -1.1265  0.3209
 3219SOL    HW221117   0.798   2.872   7.688  0.9134  0.2501 -1.1413
 3220SOL     OW21118   3.952   2.529   5.810  0.1748  0.4958 -0.0411
 3220SOL    HW121119   4.022   2.543   5.747  0.6312  0.8748  0.5494
 3220SOL    HW221120   3.957   2.436   5.833 -0.3990  0.0994 -1.5259
 3221SOL     OW21121   0.047   2.103  15.462  0.0111 -0.3687 -0.3449
 3221SOL    HW121122   0.072   2.097  15.370 -0.0889 -2.8123 -0.1978
 3221SOL    HW221123   4.681   2.061  15.465 -0.6285  1.1040  2.5533
 3222SOL     OW21124   4.316   1.445  14.957  0.2319  0.3017  0.1252
 3222SOL    HW121125   4.411   1.457  14.956  0.1026  1.2841 -1.7721
 3222SOL    HW221126   4.298   1.536  14.933 -0.7707 -0.1733 -0.9009
 3223SOL     OW21127   4.068   2.238   0.657 -0.5014  0.1786  0.4443
 3223SOL    HW121128   4.045   2.293   0.732  2.0578 -0.0092  1.3453
 3223SOL    HW221129   4.053   2.150   0.693 -0.4486 -0.0098  0.0029
 3224SOL     OW21130   2.536   3.432   6.179 -0.1174  0.3743  0.0391
 3224SOL    HW121131   2.606   3.385   6.132 -0.2575  0.2907 -0.0862
 3224SOL    HW221132   2.547   3.396   6.267 -2.3723  1.0405  0.5917
 3225SOL     OW21133   3.313   1.457  13.043 -0.1039  0.0538  0.1081
 3225SOL    HW121134   3.373   1.493  12.978  2.1273 -0.7975  1.6898
 3225SOL    HW221135   3.316   1.367  13.011  1.5035  0.1530 -0.0324
 3226SOL     OW21136   3.412   4.026  17.222  0.2356 -0.2085 -0.5493
 3226SOL    HW121137   3.322   4.023  17.254  0.9176 -2.8932  1.1467
 3226SOL    HW221138   3.447   4.054  17.307 -1.8216 -1.6349  0.7703
 3227SOL     OW21139   4.389   2.038   5.976  0.5979  0.2112  0.2840
 3227SOL    HW121140   4.302   2.059   5.944 -0.7885 -3.2720  1.7662
 3227SOL    HW221141   4.434   2.019   5.893 -0.9519 -0.4889 -0.3893
 3228SOL     OW21142   3.514   4.179  13.207 -0.1726 -0.1324 -0.0083
 3228SOL    HW121143   3.427   4.146  13.232  0.6436 -0.2221  2.6553
 3228SOL    HW221144   3.567   4.105  13.235  0.2024 -0.4132 -1.4660
 3229SOL     OW21145   3.706   4.252   1.092 -0.2791 -0.2603 -0.8475
 3229SOL    HW121146   3.680   4.246   1.184 -0.3926 -0.9769 -0.9336
 3229SOL    HW221147   3.765   4.177   1.081 -0.3605 -0.4953  0.3448
 3230SOL     OW21148   1.365   2.616   3.447 -0.3921 -0.4305  0.7489
 3230SOL    HW121149   1.277   2.646   3.467 -1.0779 -2.4639  0.7861
 3230SOL    HW221150   1.426   2.663   3.504 -0.7347 -1.7520  2.2138
 3231SOL     OW21151   3.305   1.081   5.239  0.3550  0.0189  1.2829
 3231SOL    HW121152   3.297   1.021   5.313 -0.3196 -0.3812  0.8790
 3231SOL    HW221153   3.389   1.047   5.207  0.5427  1.1367  0.5838
 3232SOL     OW21154   0.312   2.467   1.363 -0.0773 -0.3774 -0.4571
 3232SOL    HW121155   0.235   2.513   1.396 -1.7876 -1.8769 -2.3868
 3232SOL    HW221156   0.363   2.537   1.322  1.3347 -1.1084  0.0169
 3233SOL     OW21157   1.608   1.682  15.670  0.0730  0.0388 -0.3686
 3233SOL    HW121158   1.628   1.652  15.758 -1.7938 -0.5249 -0.1200
 3233SOL    HW221159   1.693   1.717  15.644  0.4683  0.8044  1.9987
 3234SOL     OW21160   2.185   1.725   6.407 -0.0855  0.4069  0.4225
 3234SOL    HW121161   2.130   1.708   6.331  0.7683 -1.6764  0.2677
 3234SOL    HW221162   2.267   1.687   6.375  0.4492  0.2042  2.0063
 3235SOL     OW21163   3.449   3.900  16.746 -0.0296  0.1109  0.3727
 3235SOL    HW121164   3.485   3.906  16.834 -0.5950  1.6514  0.5090
 3235SOL    HW221165   3.382   3.969  16.749  0.6523  0.7460  0.8928
 3236SOL     OW21166   2.657   2.662   8.129  0.1217 -0.0249  0.4346
 3236SOL    HW121167   2.703   2.587   8.167 -0.1985 -1.1178 -1.3737
 3236SOL    HW221168   2.566   2.635   8.137  0.3850 -1.6833 -1.9763
 3237SOL     OW21169   2.753   0.464   0.594 -0.1103 -0.7611  0.1802
 3237SOL    HW121170   2.845   0.492   0.589 -0.3908  0.0692 -0.3463
 3237SOL    HW221171   2.742   0.439   0.502  0.1417 -1.4864  0.3496
 3238SOL     OW21172   2.807   0.405   3.616 -0.3094 -0.1824 -0.2396
 3238SOL    HW121173   2.895   0.375   3.596  0.2842 -0.0608  2.1958
 3238SOL    HW221174   2.765   0.326   3.582  0.7990 -0.8552 -0.0161
 3239SOL     OW21175   4.254   0.158   8.013 -0.5596  0.9529 -0.2061
 3239SOL    HW121176   4.305   0.083   7.981 -3.4468 -0.9799 -0.2478
 3239SOL    HW221177   4.164   0.130   7.999 -0.1062 -1.9616  2.6375
 3240SOL     OW21178   3.138   1.716   2.862 -0.5524  0.4543  0.0038
 3240SOL    HW121179   3.130   1.653   2.791 -0.4627  0.5502 -0.0923
 3240SOL    HW221180   3.072   1.782   2.836  0.1179  0.6012 -1.3582
 3241SOL     OW21181   0.174   1.383   3.161 -0.0689  0.1192 -0.2242
 3241SOL    HW121182   0.132   1.300   3.187  0.2713  0.3283  0.9869
 3241SOL    HW221183   0.129   1.455   3.206  1.1321  0.0436  1.0765
 3242SOL     OW21184   3.528   4.180   8.724  0.5692  0.1466 -0.0722
 3242SOL    HW121185   3.440   4.203   8.754  0.6265 -0.9918  0.9258
 3242SOL    HW221186   3.511   4.129   8.645  0.8695  1.2097 -0.8329
 3243SOL     OW21187   3.899   4.529   6.260  0.3491  0.1024  0.1127
 3243SOL    HW121188   3.988   4.552   6.284  0.9064 -0.6433 -1.2169
 3243SOL    HW221189   3.847   4.565   6.332  0.0766 -0.4434  0.1882
 3244SOL     OW21190   1.015   3.860   1.596 -0.4406  0.0469  0.1037
 3244SOL    HW121191   1.039   3.936   1.649  2.9767 -0.6570 -0.4297
 3244SOL    HW221192   0.992   3.805   1.671 -1.4007  0.9413  0.4766
 3245SOL     OW21193   2.784   3.306   8.060 -0.0950 -0.4459 -0.2044
 3245SOL    HW121194   2.785   3.341   7.971 -1.4231  1.0474  0.3620
 3245SOL    HW221195   2.749   3.376   8.116 -0.5504 -0.3386 -0.6240
 3246SOL     OW21196   2.784   3.022   4.098  0.3535 -0.1881  0.4803
 3246SOL    HW121197   2.861   2.965   4.105  0.8786  0.2625 -1.5185
 3246SOL    HW221198   2.726   2.988   4.030  1.4715  0.2889 -0.7194
 3247SOL     OW21199   0.047   4.240   9.476  0.0934  0.0941  0.1948
 3247SOL    HW121200   4.673   4.222   9.462  0.0256  0.1982  0.5135
 3247SOL    HW221201   0.042   4.260   9.570 -1.1083  1.4794 -0.1636
 3248SOL     OW21202   2.222   3.610   6.888 -0.1506 -0.5753 -0.8010
 3248SOL    HW121203   2.304   3.587   6.845 -1.3436 -1.0076 -2.8442
 3248SOL    HW221204   2.253   3.663   6.961 -2.6205 -0.3555  0.1046
 3249SOL     OW21205   3.867   0.168   1.246  0.3164  0.2049 -0.5089
 3249SOL    HW121206   3.804   0.201   1.181  0.0450 -1.9954 -1.3478
 3249SOL    HW221207   3.816   0.183   1.326 -0.4884 -0.7055 -0.8436
 3250SOL     OW21208   1.616   2.774   8.066  0.1458 -0.3953  0.0185
 3250SOL    HW121209   1.600   2.858   8.023  1.2475  0.4080  1.1573
 3250SOL    HW221210   1.649   2.727   7.990  1.9240  0.7162  0.1067
 3251SOL     OW21211   4.590   4.709   4.216  0.5091  0.3600 -0.2111
 3251SOL    HW121212   4.512   4.681   4.264  0.1978  0.0410 -0.8932
 3251SOL    HW221213   4.559   0.001   4.126  2.3280  0.8486 -0.7703
 3252SOL     OW21214   3.294   0.037   3.692  0.3122  0.1309 -0.3649
 3252SOL    HW121215   3.360   4.706   3.739  0.8373 -0.0938 -1.3462
 3252SOL    HW221216   3.346   0.098   3.640 -0.2029 -1.0813 -2.3303
 3253SOL     OW21217   3.147   4.107  11.734 -0.0129 -0.0207  0.0649
 3253SOL    HW121218   3.172   4.199  11.721 -0.8661  0.0739 -0.9399
 3253SOL    HW221219   3.234   4.067  11.729 -0.0079 -0.2628  2.4672
 3254SOL     OW21220   0.102   1.763   5.640 -0.4299  0.0363  0.1490
 3254SOL    HW121221   0.054   1.704   5.581  0.3302  0.1768 -0.6090
 3254SOL    HW221222   0.141   1.705   5.706 -0.7460 -0.5634 -0.1956
 3255SOL     OW21223   1.261   1.680   7.997  0.1236 -0.9072  0.0065
 3255SOL    HW121224   1.289   1.679   7.906 -0.8993  0.2092 -0.3165
 3255SOL    HW221225   1.223   1.594   8.013  0.2763 -1.0880 -0.6289
 3256SOL     OW21226   2.977   1.002   4.126  0.1573  0.2048 -0.0313
 3256SOL    HW121227   2.981   1.058   4.204  1.7999  0.0267 -0.0012
 3256SOL    HW221228   2.956   1.072   4.064 -1.4438  0.6090  0.9560
 3257SOL     OW21229   4.409   2.151   2.879 -0.7446  0.0833 -0.7491
 3257SOL    HW121230   4.427   2.058   2.868  5.2248  1.0894  0.2434
 3257SOL    HW221231   4.496   2.189   2.892 -0.1036 -1.6184 -0.1549
 3258SOL     OW21232   1.387   2.002  13.580  0.3867  0.5846  0.0839
 3258SOL    HW121233   1.366   1.909  13.580  0.6903  0.5141 -0.9689
 3258SOL    HW221234   1.399   2.023  13.672 -0.1965  0.6135  0.1505
 3259SOL     OW21235   2.026   0.325  17.635  0.5519 -0.4464  0.0767
 3259SOL    HW121236   2.040   0.341  17.542 -0.0034  0.4552  0.1503
 3259SOL    HW221237   2.104   0.273  17.653  0.9274  0.0914  0.0348
 3260SOL     OW21238   1.191   4.278   5.492  0.0326 -0.2921  0.0177
 3260SOL    HW121239   1.103   4.285   5.455 -0.3126  2.9608  1.4934
 3260SOL    HW221240   1.191   4.197   5.544  1.6712 -0.4713 -0.2842
 3261SOL     OW21241   0.448   3.077   2.011 -1.4087 -0.2626 -0.1968
 3261SOL    HW121242   0.442   3.068   1.916  0.5408 -0.7832 -0.2586
 3261SOL    HW221243   0.439   2.991   2.052 -1.1028 -0.5924 -0.8123
 3262SOL     OW21244   4.283   2.725   8.077 -0.4234  0.3659  0.2062
 3262SOL    HW121245   4.220   2.653   8.071  0.4456 -0.4875  1.3390
 3262SOL    HW221246   4.225   2.798   8.054 -1.2728 -0.4480 -0.2427
 3263SOL     OW21247   2.425   0.740   6.501  0.1682 -0.2240 -0.0288
 3263SOL    HW121248   2.513   0.754   6.466 -1.3299  1.3547 -3.1946
 3263SOL    HW221249   2.442   0.729   6.594 -0.2077  1.0548  0.1940
 3264SOL     OW21250   3.280   0.015   6.408  0.3573 -0.2562  0.0288
 3264SOL    HW121251   3.318   0.062   6.483 -0.7379 -0.8268  0.9405
 3264SOL    HW221252   3.326   0.052   6.332  1.7061 -0.3965  0.7652
 3265SOL     OW21253   0.519   2.594  11.778  0.4564  0.0424 -0.0910
 3265SOL    HW121254   0.513   2.559  11.867  3.2227  3.3486  1.3910
 3265SOL    HW221255   0.614   2.593  11.766  0.4856  0.5462  0.1247
 3266SOL     OW21256   1.918   1.542   3.103  0.5059  0.3042 -0.1518
 3266SOL    HW121257   1.942   1.529   3.011  1.9558  0.5325  0.1985
 3266SOL    HW221258   1.930   1.452   3.134 -0.0176  0.3408  0.1589
 3267SOL     OW21259   4.129   4.657   9.301  0.6187  0.3126 -0.9580
 3267SOL    HW121260   4.223   4.661   9.280  1.1455  0.3893  1.5072
 3267SOL    HW221261   4.117   4.562   9.312  0.7215  0.5388  1.0709
 3268SOL     OW21262   1.436   2.178   7.620 -0.1147  0.0984 -0.2065
 3268SOL    HW121263   1.499   2.250   7.621 -2.4944  2.1559 -0.0804
 3268SOL    HW221264   1.498   2.107   7.601 -0.3947  0.0960 -1.0901
 3269SOL     OW21265   3.159   1.709   3.543 -0.3731  0.2258  0.1113
 3269SOL    HW121266   3.070   1.725   3.510 -0.2552  0.2159 -0.2084
 3269SOL    HW221267   3.186   1.782   3.599 -0.0001 -0.3342  0.6603
 3270SOL     OW21268   2.028   0.133   8.301 -0.1188 -0.1095 -0.1812
 3270SOL    HW121269   2.013   0.195   8.372  0.7747  0.4895 -0.5179
 3270SOL    HW221270   1.938   0.104   8.288  0.5744 -2.6802  0.7391
 3271SOL     OW21271   0.268   1.011   6.223  0.2287 -0.0403  0.2227
 3271SOL    HW121272   0.217   1.014   6.305 -2.0595 -0.8465 -1.1790
 3271SOL    HW221273   0.200   1.028   6.158  0.4944 -3.2273 -0.8692
 3272SOL     OW21274   3.687   1.975   7.593 -0.1598  0.0307  0.0130
 3272SOL    HW121275   3.685   1.991   7.499  0.8627 -1.4487 -0.2643
 3272SOL    HW221276   3.774   1.936   7.593  0.0197  0.4280 -0.4350
 3273SOL     OW21277   1.008   0.502   7.090  0.1166  0.6946  0.4166
 3273SOL    HW121278   0.965   0.468   7.168  0.3103  0.0087  0.2252
 3273SOL    HW221279   0.940   0.512   7.023  1.7776 -0.0662 -1.3936
 3274SOL     OW21280   1.406   1.010  11.470  0.7817 -0.1699 -0.2399
 3274SOL    HW121281   1.462   0.933  11.472  1.0114  0.0358  1.7022
 3274SOL    HW221282   1.357   0.991  11.390  0.3507 -1.4736  0.3343
 3275SOL     OW21283   4.627   0.882   9.239  0.0401 -0.1325 -0.7420
 3275SOL    HW121284   4.643   0.914   9.150  0.4994 -3.9831 -2.0457
 3275SOL    HW221285   4.546   0.835   9.216 -1.0814  0.9373  1.0056
 3276SOL     OW21286   1.304   0.170   4.747  0.0830 -0.5459  0.2433
 3276SOL    HW121287   1.213   0.193   4.732 -0.0467  0.0784  1.9818
 3276SOL    HW221288   1.313   0.190   4.840 -1.2976  0.0616  0.2465
 3277SOL     OW21289   1.007   1.559   2.495  0.0185 -0.3852  0.2351
 3277SOL    HW121290   1.089   1.541   2.448  1.0157  2.0520  1.0343
 3277SOL    HW221291   1.010   1.655   2.502 -2.2419 -0.4742  2.3104
 3278SOL     OW21292   1.436   1.308   0.228  0.3771 -0.8097  0.3056
 3278SOL    HW121293   1.417   1.346   0.142  0.8068  0.3400  0.7302
 3278SOL    HW221294   1.446   1.385   0.283 -1.0193  0.6460 -1.4714
 3279SOL     OW21295   1.740   2.729  13.838  0.1325  0.0822 -0.0431
 3279SOL    HW121296   1.813   2.670  13.819  0.5903  0.6825 -0.1681
 3279SOL    HW221297   1.703   2.693  13.918  0.3158 -0.5685 -0.2548
 3280SOL     OW21298   3.046   0.462  10.357  0.7736  0.5732  0.1914
 3280SOL    HW121299   3.033   0.454  10.262  0.8716  1.1811  0.1278
 3280SOL    HW221300   2.957   0.474  10.390 -0.3048 -0.3688 -2.3444
 3281SOL     OW21301   1.823   0.676   7.167  0.3325 -0.5804 -0.3908
 3281SOL    HW121302   1.798   0.756   7.120 -0.1460  0.3420  1.4520
 3281SOL    HW221303   1.915   0.671   7.141  0.2450  0.8632 -0.9652
 3282SOL     OW21304   4.566   2.154   6.955 -0.0810 -0.5237  0.6960
 3282SOL    HW121305   4.517   2.199   7.023 -2.1052 -2.3379  0.4329
 3282SOL    HW221306   4.647   2.205   6.945 -0.6248  0.1968 -0.0221
 3283SOL     OW21307   2.586   2.758   2.477  0.0447 -0.0047 -0.4159
 3283SOL    HW121308   2.612   2.849   2.461  2.7787 -0.2879  2.3134
 3283SOL    HW221309   2.604   2.715   2.394 -2.8894 -0.6181 -0.7254
 3284SOL     OW21310   3.334   3.050   4.016  0.2841 -0.0890  0.5190
 3284SOL    HW121311   3.378   3.128   3.982 -1.5801  1.4385  1.6045
 3284SOL    HW221312   3.242   3.076   4.024 -0.0616 -1.1262 -0.0079
 3285SOL     OW21313   2.616   1.394   0.387 -0.4194  0.0805 -0.4097
 3285SOL    HW121314   2.553   1.463   0.410  1.7186  2.1914 -0.8955
 3285SOL    HW221315   2.604   1.327   0.454  0.5292 -0.0775 -0.4035
 3286SOL     OW21316   2.390   0.739   4.087  0.1670 -0.2516 -0.3398
 3286SOL    HW121317   2.411   0.701   4.172 -0.0828  2.5675  0.9825
 3286SOL    HW221318   2.297   0.723   4.100  0.0009  1.3929  0.4481
 3287SOL     OW21319   3.714   2.179   3.337  0.1496  0.5456  0.6808
 3287SOL    HW121320   3.757   2.257   3.373  0.4272  0.6858  0.0336
 3287SOL    HW221321   3.775   2.109   3.363 -0.1866  0.0999  0.2610
 3288SOL     OW21322   0.430   0.365   8.833 -0.6185 -0.2427 -0.2237
 3288SOL    HW121323   0.470   0.322   8.758  0.3865  0.1631  0.0821
 3288SOL    HW221324   0.499   0.367   8.899 -0.8225 -0.5533 -0.0025
 3289SOL     OW21325   1.123   2.685   1.638 -0.5317  0.2632 -0.2823
 3289SOL    HW121326   1.204   2.636   1.638 -0.5589  0.2214 -0.5577
 3289SOL    HW221327   1.071   2.629   1.581  1.0310 -3.0019  1.5204
 3290SOL     OW21328   4.691   2.810   3.684 -0.1491  0.2141  0.2331
 3290SOL    HW121329   4.708   2.887   3.738  0.1826 -0.7117  1.4472
 3290SOL    HW221330   4.703   2.743   3.751  1.0981  1.1725  0.9786
 3291SOL     OW21331   2.342   3.517  16.783  0.1477  0.0023 -0.0349
 3291SOL    HW121332   2.367   3.526  16.691  1.4044 -2.0882  0.0999
 3291SOL    HW221333   2.417   3.476  16.826 -0.9052 -0.9523  0.9052
 3292SOL     OW21334   0.751   1.095   6.087 -0.0019  0.0987 -0.0872
 3292SOL    HW121335   0.698   1.034   6.137 -1.5189  0.6301 -1.0363
 3292SOL    HW221336   0.840   1.067   6.109 -0.6915 -1.8403  0.2143
 3293SOL     OW21337   2.871   1.690   0.273  0.0746  0.2556 -0.0993
 3293SOL    HW121338   2.904   1.761   0.218 -1.4854  0.2919 -0.9944
 3293SOL    HW221339   2.787   1.734   0.285 -0.2299 -0.5960  0.9060
 3294SOL     OW21340   0.384   3.263  13.995 -0.5015 -0.2103 -0.0803
 3294SOL    HW121341   0.436   3.340  13.973  0.4505 -0.6064  0.7261
 3294SOL    HW221342   0.435   3.190  13.959  2.5190  2.2096 -0.7223
 3295SOL     OW21343   4.626   2.624  16.479 -0.1815  0.6110 -0.0431
 3295SOL    HW121344   4.665   2.703  16.440  0.9181  0.7336  1.3204
 3295SOL    HW221345   4.635   2.556  16.412 -0.9224  0.2476  0.2324
 3296SOL     OW21346   0.400   2.017   4.350 -0.6739 -0.1402  0.4210
 3296SOL    HW121347   0.313   1.987   4.327 -0.1688 -0.9367 -0.4481
 3296SOL    HW221348   0.375   2.088   4.409  0.6834  0.4808  0.2605
 3297SOL     OW21349   1.669   3.989   8.312  0.2752 -0.1860 -0.0099
 3297SOL    HW121350   1.597   3.927   8.300 -1.6427  1.9903  0.0582
 3297SOL    HW221351   1.732   3.941   8.365  0.3471  0.6515  0.6632
 3298SOL     OW21352   0.530   1.334   3.523 -0.2295  0.1309  0.4076
 3298SOL    HW121353   0.587   1.376   3.459  0.5550 -0.7298  0.5361
 3298SOL    HW221354   0.581   1.263   3.562 -0.1680 -1.2504 -2.1863
 3299SOL     OW21355   3.160   2.971   1.219  0.3063  0.3006 -0.2830
 3299SOL    HW121356   3.162   2.990   1.125 -3.4132 -2.9306 -1.0058
 3299SOL    HW221357   3.239   2.922   1.241 -0.1393 -0.2551  0.0802
 3300SOL     OW21358   2.561   4.657   2.422  0.2064 -0.6657  0.1986
 3300SOL    HW121359   2.650   4.691   2.416  0.2356 -0.7709  0.0405
 3300SOL    HW221360   2.566   4.574   2.375 -1.2891 -2.7981  3.8212
 3301SOL     OW21361   3.986   2.051   0.221  0.1392  0.2965  0.2745
 3301SOL    HW121362   3.908   1.996   0.225  0.4287 -0.1276  0.0302
 3301SOL    HW221363   3.975   2.097   0.138  1.6030  0.9546  0.4531
 3302SOL     OW21364   2.253   1.585   3.750 -0.5668 -0.2588 -0.3722
 3302SOL    HW121365   2.204   1.505   3.729 -0.8624  0.8131 -3.8019
 3302SOL    HW221366   2.343   1.555   3.765 -0.6707  0.7508  2.2335
 3303SOL     OW21367   1.068   3.708   6.316 -0.9003  0.0284  0.2808
 3303SOL    HW121368   0.985   3.675   6.283 -1.1148 -1.9176  2.7438
 3303SOL    HW221369   1.050   3.719   6.409 -0.6371 -1.3297  0.4890
 3304SOL     OW21370   3.652   0.127   3.335 -0.1250  0.8559 -0.1450
 3304SOL    HW121371   3.610   0.091   3.257  0.2226  0.9557 -0.3780
 3304SOL    HW221372   3.662   0.216   3.302  1.1157  0.1618 -1.6568
 3305SOL     OW21373   3.862   3.460   7.059  0.4277 -0.5988  0.4205
 3305SOL    HW121374   3.802   3.510   7.115 -0.3422 -1.1320  0.0775
 3305SOL    HW221375   3.939   3.474   7.114  1.5905  3.2210 -2.2654
 3306SOL     OW21376   2.843   3.655   4.782  0.1138  0.0003 -0.4274
 3306SOL    HW121377   2.900   3.614   4.847  1.5733  1.8007 -0.5542
 3306SOL    HW221378   2.901   3.682   4.711 -0.5134  2.8949  0.1605
 3307SOL     OW21379   0.731   0.401   9.389  0.4655 -0.0187 -0.0422
 3307SOL    HW121380   0.700   0.351   9.314 -0.6798 -0.6228  0.8520
 3307SOL    HW221381   0.654   0.407   9.445  0.9095 -0.8554  0.6596
 3308SOL     OW21382   0.734   1.789   2.530 -0.0820  0.1718  0.1786
 3308SOL    HW121383   0.761   1.816   2.443  0.6744 -0.9854  0.0465
 3308SOL    HW221384   0.739   1.873   2.575  1.2835 -1.9110  3.9954
 3309SOL     OW21385   2.957   3.277  12.254  0.2293  0.0049  0.2654
 3309SOL    HW121386   2.927   3.187  12.243  0.0433  0.5309 -3.5615
 3309SOL    HW221387   2.884   3.316  12.302 -1.9382 -1.1533 -2.1067
 3310SOL     OW21388   3.436   2.777   7.169 -0.0654  0.1199 -0.5873
 3310SOL    HW121389   3.402   2.845   7.111 -0.3338  1.3726  1.0631
 3310SOL    HW221390   3.437   2.824   7.252 -0.8552  0.4167 -0.7492
 3311SOL     OW21391   3.992   4.538   3.515  0.4608  0.2025  0.3080
 3311SOL    HW121392   4.021   4.581   3.595 -0.1307 -1.2640  1.3259
 3311SOL    HW221393   3.971   4.616   3.464  1.6769 -1.3270 -2.5130
 3312SOL     OW21394   2.132   1.795  14.752  0.2744 -0.1708 -0.0654
 3312SOL    HW121395   2.097   1.728  14.693  0.7491  0.8971 -1.5504
 3312SOL    HW221396   2.225   1.780  14.736 -0.1042 -1.3453 -1.1548
 3313SOL     OW21397   4.188   3.524   2.140  0.2979 -0.2465  0.5024
 3313SOL    HW121398   4.268   3.478   2.168  0.4429 -1.0651 -1.2366
 3313SOL    HW221399   4.185   3.514   2.045 -1.6860 -1.9810  0.7458
 3314SOL     OW21400   2.740   3.419   4.524 -0.1875  0.1094  0.4261
 3314SOL    HW121401   2.831   3.395   4.505 -0.6659 -2.6181  1.4868
 3314SOL    HW221402   2.694   3.346   4.483 -0.0863  0.4597 -0.3002
 3315SOL     OW21403   1.708   1.770   9.788  0.0766 -0.5866  0.4516
 3315SOL    HW121404   1.709   1.685   9.831 -1.0230 -0.7314  0.1822
 3315SOL    HW221405   1.693   1.832   9.860 -0.1285  0.1846 -0.2454
 3316SOL     OW21406   4.157   2.523   3.993  0.1513 -0.2630 -0.1400
 3316SOL    HW121407   4.243   2.543   3.954 -0.3515  4.8277  1.3329
 3316SOL    HW221408   4.179   2.444   4.042 -0.5382  0.2618  1.0138
 3317SOL     OW21409   4.462   4.698  14.191  0.0508  0.0027 -0.6405
 3317SOL    HW121410   4.545   4.659  14.162  1.4044  0.9796  1.9254
 3317SOL    HW221411   4.403   4.632  14.153 -0.0265  0.5341 -1.4392
 3318SOL     OW21412   2.863   2.240   8.381 -0.4045  0.2735  0.0614
 3318SOL    HW121413   2.879   2.218   8.472  1.2973  1.9869  0.1798
 3318SOL    HW221414   2.956   2.240   8.357 -0.3901 -0.9724  0.1453
 3319SOL     OW21415   0.782   1.203   1.504  0.1649  1.1767  0.0785
 3319SOL    HW121416   0.724   1.214   1.580 -1.7731  1.1328 -1.4042
 3319SOL    HW221417   0.769   1.289   1.464 -0.2269  1.8673  1.6745
 3320SOL     OW21418   0.076   4.368   3.885  0.1639  0.2145  0.2024
 3320SOL    HW121419   0.079   4.309   3.960  1.2510 -0.1521 -0.1198
 3320SOL    HW221420   0.071   4.458   3.917  0.0651 -0.2737  1.5567
 3321SOL     OW21421   0.904   1.768  14.404  0.3055 -0.2847 -0.1147
 3321SOL    HW121422   0.817   1.788  14.368  1.2230  0.8120 -1.7166
 3321SOL    HW221423   0.961   1.741  14.332  0.2717 -0.2439 -0.1567
 3322SOL     OW21424   0.870   0.405   7.863 -0.3331 -0.4420 -0.0123
 3322SOL    HW121425   0.908   0.477   7.913 -0.7171  0.1829 -0.6214
 3322SOL    HW221426   0.814   0.452   7.801  1.1894 -0.2190 -1.2200
 3323SOL     OW21427   0.866   0.116   6.973  0.2913  0.0350  0.1662
 3323SOL    HW121428   0.912   0.119   7.057 -0.9806  1.5042  0.8279
 3323SOL    HW221429   0.785   0.163   6.997 -1.2202 -1.2357 -2.4652
 3324SOL     OW21430   1.252   2.575   6.772  0.3723  0.0733 -0.0805
 3324SOL    HW121431   1.218   2.492   6.804  1.0286 -0.4019 -0.6298
 3324SOL    HW221432   1.251   2.632   6.849 -0.0026 -0.5303  0.3590
 3325SOL     OW21433   0.649   4.326   7.187  0.5888 -0.3966  0.3869
 3325SOL    HW121434   0.725   4.328   7.245 -0.0296  0.3321  1.1642
 3325SOL    HW221435   0.686   4.366   7.108 -0.4021 -0.4591 -0.1102
 3326SOL     OW21436   2.554   3.005   7.406  0.0814 -0.1211  0.2677
 3326SOL    HW121437   2.547   3.038   7.316 -2.1552 -0.9756  0.1178
 3326SOL    HW221438   2.560   2.910   7.394  1.4437  0.0333 -0.3015
 3327SOL     OW21439   1.689   2.004   3.880 -0.5050  0.1740 -0.0778
 3327SOL    HW121440   1.614   1.969   3.928 -0.6872  1.4945  0.6202
 3327SOL    HW221441   1.732   1.929   3.840 -0.7510 -0.5237  0.9818
 3328SOL     OW21442   2.044   0.936  15.688 -0.4893  0.5794  0.0962
 3328SOL    HW121443   2.101   1.004  15.654  1.3548 -1.0917 -0.1708
 3328SOL    HW221444   2.098   0.861  15.662  0.5537  1.1043  0.7265
 3329SOL     OW21445   3.361   0.732   0.374  0.2768  0.1463 -0.2565
 3329SOL    HW121446   3.329   0.773   0.455 -0.8099  1.1916 -1.2241
 3329SOL    HW221447   3.338   0.802   0.313  0.4933  0.6898  0.2755
 3330SOL     OW21448   1.168   4.458   4.629  0.4204  0.0926 -0.4527
 3330SOL    HW121449   1.167   4.445   4.534  1.0955 -0.4169 -0.3894
 3330SOL    HW221450   1.254   4.498   4.637 -0.3812  1.5557  0.9377
 3331SOL     OW21451   4.382   0.827  15.919  0.2121  0.5110  0.3393
 3331SOL    HW121452   4.306   0.858  15.870  0.2726 -0.3500 -0.2976
 3331SOL    HW221453   4.407   0.910  15.961  2.9350  0.5416 -1.3494
 3332SOL     OW21454   3.893   1.417   3.834 -0.2952 -0.3375 -0.0250
 3332SOL    HW121455   3.850   1.374   3.760  0.5715  0.9410 -1.2683
 3332SOL    HW221456   3.853   1.378   3.911  1.8163 -1.5950  0.4217
 3333SOL     OW21457   4.585   2.160   8.820 -0.6570 -0.3412  0.1920
 3333SOL    HW121458   4.612   2.158   8.728  1.1094 -2.0112  0.7546
 3333SOL    HW221459   4.664   2.190   8.864 -1.4370 -2.0909  2.7718
 3334SOL     OW21460   2.342   0.826   9.184 -0.1919 -0.3728 -0.0360
 3334SOL    HW121461   2.323   0.905   9.134  1.6805 -1.0775 -1.8448
 3334SOL    HW221462   2.263   0.773   9.199  0.6299 -0.7023  3.2203
 3335SOL     OW21463   1.717   4.052   8.637  0.1306 -0.8371  0.3639
 3335SOL    HW121464   1.649   3.995   8.603 -1.9283  1.2267  1.0149
 3335SOL    HW221465   1.787   4.001   8.596  1.3794 -0.0068  1.4845
 3336SOL     OW21466   0.615   0.779  17.193  0.1018  0.1541 -0.0034
 3336SOL    HW121467   0.566   0.771  17.111  0.8669  0.8370 -0.5401
 3336SOL    HW221468   0.616   0.689  17.223  2.4276  0.3109  0.4446
 3337SOL     OW21469   2.814   0.527  10.464 -0.4354  0.0501 -0.0547
 3337SOL    HW121470   2.756   0.471  10.514 -0.5923  0.9028  0.7150
 3337SOL    HW221471   2.823   0.596  10.530 -3.9660 -0.0270  0.4854
 3338SOL     OW21472   1.596   3.271   9.131  0.0433 -1.2025  0.1784
 3338SOL    HW121473   1.624   3.201   9.071 -0.9328 -0.2067 -1.4549
 3338SOL    HW221474   1.507   3.289   9.100  1.2033  1.1773 -1.7747
 3339SOL     OW21475   0.189   3.072   4.577  0.0717 -0.3638  0.1492
 3339SOL    HW121476   0.205   2.997   4.634 -0.1491 -0.7908 -0.3571
 3339SOL    HW221477   0.095   3.082   4.592  0.6052  2.7213  1.5209
 3340SOL     OW21478   4.084   3.401   0.315  0.3026  0.4455  0.4587
 3340SOL    HW121479   4.005   3.428   0.270  0.8507  1.5391  0.1684
 3340SOL    HW221480   4.099   3.316   0.272 -0.9408  0.8477 -0.7484
 3341SOL     OW21481   1.747   2.057   2.814 -0.4582 -0.4818  0.3463
 3341SOL    HW121482   1.780   1.993   2.875 -0.4384 -1.6391 -0.8791
 3341SOL    HW221483   1.695   2.004   2.753  1.1674 -1.2872 -0.3233
 3342SOL     OW21484   0.303   0.886   2.075  0.2411 -0.1382  0.2745
 3342SOL    HW121485   0.337   0.968   2.113  0.4404 -0.1498  0.1192
 3342SOL    HW221486   0.384   0.847   2.043 -0.1564 -0.7055 -0.0314
 3343SOL     OW21487   4.678   0.337   5.095  0.1538 -0.0201  0.1482
 3343SOL    HW121488   4.586   0.345   5.068 -0.0160  2.6512  1.4518
 3343SOL    HW221489   4.689   0.242   5.099  1.4674  0.0790 -1.6415
 3344SOL     OW21490   1.987   2.942   6.839 -0.4637  0.2032 -0.2389
 3344SOL    HW121491   1.934   3.021   6.827  1.2303  1.4218  0.2341
 3344SOL    HW221492   1.920   2.890   6.883  0.5533 -0.3949  0.6139
 3345SOL     OW21493   1.658   3.560   3.932 -0.3326  0.0307 -0.0207
 3345SOL    HW121494   1.741   3.530   3.968 -0.2696 -0.2804 -0.4307
 3345SOL    HW221495   1.665   3.654   3.944  1.2846 -0.1993  0.7184
 3346SOL     OW21496   1.780   2.086  17.349 -0.6240 -0.4380 -0.3343
 3346SOL    HW121497   1.772   2.147  17.422  2.2982 -1.7424  1.0409
 3346SOL    HW221498   1.868   2.058  17.375 -1.1994 -2.5258 -0.6084
 3347SOL     OW21499   1.090   4.449  14.004  0.2828 -0.1318 -0.3680
 3347SOL    HW121500   1.056   4.360  14.011  0.1560  0.0470  1.2610
 3347SOL    HW221501   1.183   4.436  14.023 -0.1059 -2.6021 -0.1542
 3348SOL     OW21502   0.583   4.382  11.701  0.1083 -0.1930  0.4908
 3348SOL    HW121503   0.624   4.324  11.766 -0.4853  1.1127  2.0449
 3348SOL    HW221504   0.625   4.361  11.618 -0.5280 -1.5663  0.5138
 3349SOL     OW21505   2.314   3.309   8.970  0.7851  0.5738 -0.6109
 3349SOL    HW121506   2.275   3.285   9.054 -0.0883  2.7688 -0.3883
 3349SOL    HW221507   2.239   3.274   8.922 -0.6265  2.8608 -0.0601
 3350SOL     OW21508   4.204   0.996  11.417 -0.0163 -0.1065  0.5044
 3350SOL    HW121509   4.168   0.934  11.353 -0.9687  0.5019  0.4432
 3350SOL    HW221510   4.139   1.066  11.405 -0.1928 -0.5027 -0.8742
 3351SOL     OW21511   4.650   0.986  13.825 -0.1269 -0.0737  0.0437
 3351SOL    HW121512   0.022   0.961  13.841  0.5916  2.9828  0.7382
 3351SOL    HW221513   4.619   0.923  13.891  0.4688 -1.3156 -0.8654
 3352SOL     OW21514   4.436   0.423  15.837  0.4541 -0.9171  0.1135
 3352SOL    HW121515   4.351   0.466  15.849 -0.3222 -1.5962 -2.9224
 3352SOL    HW221516   4.471   0.456  15.920 -0.6194  0.4084  0.0348
 3353SOL     OW21517   4.194   1.143   8.681  0.0431  0.5205 -0.1300
 3353SOL    HW121518   4.155   1.075   8.736  2.0475  0.7497  1.5765
 3353SOL    HW221519   4.262   1.085   8.645 -0.5940 -1.1927  1.3983
 3354SOL     OW21520   2.711   0.285   8.375 -0.0105 -0.0885  0.0185
 3354SOL    HW121521   2.681   0.376   8.376  0.6867  0.1460 -1.3445
 3354SOL    HW221522   2.627   0.246   8.352 -0.5924 -0.2522  2.3699
 3355SOL     OW21523   1.403   0.325  15.411 -0.8140 -0.3901  0.1878
 3355SOL    HW121524   1.414   0.260  15.480  0.2340 -0.5657 -0.1524
 3355SOL    HW221525   1.325   0.302  15.360 -0.0340 -0.7506 -0.8234
 3356SOL     OW21526   3.088   4.021   1.529 -0.9306  0.3792  0.3754
 3356SOL    HW121527   3.154   4.076   1.489 -2.4300  1.4601 -0.6258
 3356SOL    HW221528   3.052   4.089   1.586 -0.6544  0.4795  0.4282
 3357SOL     OW21529   0.085   2.087  10.963  0.2097 -0.2446 -0.7010
 3357SOL    HW121530   0.085   1.992  10.956  0.7188 -0.2176 -1.0941
 3357SOL    HW221531   0.171   2.100  11.004  0.6662 -0.1257 -1.6952
 3358SOL     OW21532   0.346   4.094  17.359  0.0809 -0.5631  0.0004
 3358SOL    HW121533   0.387   4.040  17.426  0.5212 -0.4082 -0.1443
 3358SOL    HW221534   0.355   4.171  17.414  0.7577 -1.8885  1.7173
 3359SOL     OW21535   2.698   0.860   4.248  0.2046 -0.2049 -0.1601
 3359SOL    HW121536   2.790   0.887   4.251 -0.0155  0.4506  0.7204
 3359SOL    HW221537   2.704   0.784   4.190 -1.8183 -0.7853  0.3822
 3360SOL     OW21538   0.947   3.818  11.387  0.2052  0.7948 -0.2710
 3360SOL    HW121539   0.872   3.766  11.416  1.6351 -0.1105  1.8194
 3360SOL    HW221540   0.999   3.806  11.466 -0.9935 -0.5846  0.3058
 3361SOL     OW21541   2.578   1.713   9.174 -0.4563 -0.0739 -0.0138
 3361SOL    HW121542   2.607   1.626   9.148  0.6333  0.7020 -1.3915
 3361SOL    HW221543   2.489   1.721   9.142  0.0834  0.7024 -1.3098
 3362SOL     OW21544   2.136   3.664   4.135 -0.0030  0.5562  0.2974
 3362SOL    HW121545   2.172   3.667   4.223 -1.6643  2.1583  0.9134
 3362SOL    HW221546   2.211   3.626   4.090  0.8227  1.1945  1.1562
 3363SOL     OW21547   3.582   3.362  11.283  0.1331  0.4578  0.2174
 3363SOL    HW121548   3.530   3.281  11.284  1.2950 -0.2859  0.7088
 3363SOL    HW221549   3.661   3.326  11.243 -0.4154  2.0566 -2.2952
 3364SOL     OW21550   0.750   3.737   8.881 -0.1642 -0.3462 -0.3137
 3364SOL    HW121551   0.711   3.792   8.814 -0.4042 -0.6148 -0.3960
 3364SOL    HW221552   0.827   3.697   8.840 -0.4078 -0.8583 -0.2837
 3365SOL     OW21553   2.977   1.157   4.764 -0.0654 -0.6194  0.3162
 3365SOL    HW121554   3.064   1.164   4.802 -0.3863  2.6584  0.4326
 3365SOL    HW221555   2.927   1.129   4.840  0.0705  2.3589  1.5245
 3366SOL     OW21556   0.189   3.316   5.665 -0.2606  0.3221 -0.6084
 3366SOL    HW121557   0.192   3.390   5.605 -0.2785  0.1249 -0.8542
 3366SOL    HW221558   0.273   3.274   5.643 -0.1914 -0.6860  1.6317
 3367SOL     OW21559   0.601   4.404   7.500 -0.6838 -0.3098  0.1219
 3367SOL    HW121560   0.518   4.384   7.459 -0.5041 -1.5691  0.3736
 3367SOL    HW221561   0.576   4.463   7.571 -0.0622 -0.1015  0.1730
 3368SOL     OW21562   4.109   4.360   7.836  0.0893 -0.3002  0.8863
 3368SOL    HW121563   4.152   4.291   7.885 -1.6905 -2.7276 -0.9830
 3368SOL    HW221564   4.173   4.408   7.783  0.8832 -1.1825  1.0670
 3369SOL     OW21565   2.547   2.145   1.931 -0.7734  0.4443 -0.4033
 3369SOL    HW121566   2.579   2.143   1.841  2.4609  1.6216  0.7165
 3369SOL    HW221567   2.615   2.088   1.968  0.5562  0.8934 -2.1736
 3370SOL     OW21568   4.395   2.004  11.828  0.0028 -0.1078 -0.4256
 3370SOL    HW121569   4.453   1.954  11.885  0.9909  0.4022 -0.9658
 3370SOL    HW221570   4.390   2.090  11.869 -0.9658 -0.0095 -0.7408
 3371SOL     OW21571   0.554   4.021   9.194 -0.4336  0.2656 -0.5089
 3371SOL    HW121572   0.604   3.941   9.209 -0.1045  0.4596 -0.5933
 3371SOL    HW221573   0.617   4.091   9.204 -0.3104  0.0037  0.5453
 3372SOL     OW21574   1.800   2.692   7.555 -0.3106 -0.2111 -0.0992
 3372SOL    HW121575   1.890   2.709   7.583 -0.1516  0.4617 -1.0118
 3372SOL    HW221576   1.759   2.778   7.563  0.8233  0.0392  2.9093
 3373SOL     OW21577   4.291   4.238  16.646  0.4503 -0.0895  0.1403
 3373SOL    HW121578   4.205   4.281  16.644  1.7061  2.5044  1.7088
 3373SOL    HW221579   4.348   4.314  16.630  0.1028 -0.0279 -0.7875
 3374SOL     OW21580   1.427   0.204   6.528  0.2064  0.8842  0.4848
 3374SOL    HW121581   1.469   0.235   6.448  0.6600  0.4986  0.5752
 3374SOL    HW221582   1.504   0.166   6.570 -0.9133 -0.8535  0.9893
 3375SOL     OW21583   1.803   0.422   0.575 -0.1571 -0.2271 -0.4419
 3375SOL    HW121584   1.765   0.389   0.494  1.6644  0.1492 -1.4667
 3375SOL    HW221585   1.826   0.342   0.621 -0.5862 -0.9025 -1.3932
 3376SOL     OW21586   0.529   0.370   9.567  0.1158  0.3377  0.0212
 3376SOL    HW121587   0.531   0.451   9.618  0.0458 -0.3693  1.1408
 3376SOL    HW221588   0.438   0.341   9.576  0.9713 -2.1952  0.7285
 3377SOL     OW21589   4.271   0.189  11.649  0.2381  0.7974  1.0159
 3377SOL    HW121590   4.313   0.184  11.563  2.0622  1.9535  1.8311
 3377SOL    HW221591   4.189   0.142  11.632  1.1949  0.2001 -2.0712
 3378SOL     OW21592   1.059   4.479   5.654 -0.2988 -0.6305  0.4494
 3378SOL    HW121593   1.134   4.451   5.708  3.3235  1.5720 -3.4630
 3378SOL    HW221594   1.080   4.425   5.578  1.2339  3.2349 -1.8680
 3379SOL     OW21595   1.877   3.641   8.637  0.2362 -0.7217  0.1768
 3379SOL    HW121596   1.824   3.577   8.685  0.6590 -0.4932  0.9492
 3379SOL    HW221597   1.902   3.589   8.561 -1.7398 -0.0334 -0.9305
 3380SOL     OW21598   3.408   4.339  12.511 -0.7143 -0.2475 -0.2002
 3380SOL    HW121599   3.425   4.280  12.438 -0.9222 -0.0105 -0.4392
 3380SOL    HW221600   3.329   4.383  12.479 -0.8421  0.9802  1.8413
 3381SOL     OW21601   4.098   3.145   2.244 -0.0431 -0.1586  0.2133
 3381SOL    HW121602   4.187   3.110   2.234  1.0013  2.4587  0.3339
 3381SOL    HW221603   4.122   3.237   2.255  2.1334 -0.7630  0.6631
 3382SOL     OW21604   4.408   0.324   3.888 -0.0657  0.4855  0.4262
 3382SOL    HW121605   4.482   0.282   3.845 -0.9937 -0.2712 -0.4212
 3382SOL    HW221606   4.379   0.255   3.948 -2.3985  2.7010  1.8467
 3383SOL     OW21607   2.063   0.275   3.714 -0.4704  0.1653 -0.3378
 3383SOL    HW121608   2.121   0.243   3.645 -1.9990 -0.1879 -1.4438
 3383SOL    HW221609   2.032   0.353   3.667  2.0004  0.4510 -1.5043
 3384SOL     OW21610   3.478   1.221   5.432 -0.1219 -0.2823 -0.2547
 3384SOL    HW121611   3.434   1.238   5.348  0.6707 -1.4619 -0.9054
 3384SOL    HW221612   3.471   1.309   5.471  0.2430 -0.4009  0.0696
 3385SOL     OW21613   1.673   1.397  17.544 -0.6543 -0.4216  0.0078
 3385SOL    HW121614   1.736   1.467  17.527 -2.2567  0.9572 -0.2637
 3385SOL    HW221615   1.669   1.359  17.457 -0.0222  0.0926 -0.2519
 3386SOL     OW21616   1.202   1.828   8.208 -0.2855  0.3657  0.1783
 3386SOL    HW121617   1.213   1.770   8.134  1.4923  1.0847 -0.1102
 3386SOL    HW221618   1.117   1.862   8.179 -0.0178  0.8677 -0.0144
 3387SOL     OW21619   0.066   3.103   5.881 -0.5612  0.3973 -0.4786
 3387SOL    HW121620   0.046   3.115   5.788 -1.8716 -0.3482 -0.3041
 3387SOL    HW221621   0.160   3.094   5.869 -0.6242  0.1199 -0.7920
 3388SOL     OW21622   0.207   4.569   3.601 -0.4383 -0.2388 -0.2566
 3388SOL    HW121623   0.249   4.486   3.622 -0.3179  0.0772  0.7620
 3388SOL    HW221624   0.121   4.545   3.568  0.8992 -1.2160 -2.9839
 3389SOL     OW21625   0.212   2.293   9.425 -0.4808 -0.0727 -0.3164
 3389SOL    HW121626   0.158   2.253   9.493 -0.6948 -0.0650 -0.4824
 3389SOL    HW221627   0.164   2.373   9.404 -0.0001  0.4127  0.4331
 3390SOL     OW21628   1.916   1.766   7.223 -0.4762 -0.3430 -0.0571
 3390SOL    HW121629   1.901   1.768   7.129 -1.5839  0.4276  0.1331
 3390SOL    HW221630   2.010   1.749   7.218 -0.4894 -0.7102  0.8992
 3391SOL     OW21631   3.916   1.151   2.568  0.0222 -0.3110  0.2082
 3391SOL    HW121632   3.935   1.100   2.490  1.5273 -1.4466  1.3274
 3391SOL    HW221633   3.917   1.238   2.530 -0.9955 -0.1427  0.5481
 3392SOL     OW21634   1.102   0.573  16.168  0.2431  0.3891 -0.3730
 3392SOL    HW121635   1.061   0.588  16.253  1.2462 -0.4322  0.2545
 3392SOL    HW221636   1.055   0.638  16.115 -1.6110 -0.8299 -0.2420
 3393SOL     OW21637   2.479   3.827   7.777 -0.1646  0.0337  0.2823
 3393SOL    HW121638   2.385   3.843   7.767 -0.0241  0.9652  0.4269
 3393SOL    HW221639   2.505   3.914   7.808  1.5786 -0.7266  0.9163
 3394SOL     OW21640   2.797   1.700  11.254  0.1744  0.5733 -0.3884
 3394SOL    HW121641   2.758   1.787  11.260  3.0426  1.8712 -0.5315
 3394SOL    HW221642   2.791   1.680  11.348  0.7575 -1.0983 -0.7029
 3395SOL     OW21643   4.202   4.566   2.535  0.0479 -0.1533 -0.6335
 3395SOL    HW121644   4.267   4.602   2.596  2.5664  0.6564 -3.8131
 3395SOL    HW221645   4.198   4.635   2.469  1.0821  0.3527 -0.1671
 3396SOL     OW21646   0.677   3.453   2.742 -0.2735  0.1249  0.5148
 3396SOL    HW121647   0.714   3.454   2.654 -0.7281  2.3363  0.3552
 3396SOL    HW221648   0.635   3.539   2.746 -1.7387 -0.5299 -1.0174
 3397SOL     OW21649   4.398   3.954   5.045  0.0726  0.1335 -0.3467
 3397SOL    HW121650   4.400   4.048   5.027 -0.0275  0.7262  2.6249
 3397SOL    HW221651   4.339   3.954   5.120 -1.9975 -0.6650 -1.9816
 3398SOL     OW21652   2.493   1.317  14.009 -0.1555 -0.5417  0.3406
 3398SOL    HW121653   2.460   1.406  14.003  0.1293 -0.4549  0.0755
 3398SOL    HW221654   2.508   1.290  13.919 -0.4641 -2.2113  0.7745
 3399SOL     OW21655   0.735   4.441   6.959 -0.0445  0.0198 -0.5149
 3399SOL    HW121656   0.791   4.504   6.915 -1.1289  1.2924 -0.0956
 3399SOL    HW221657   0.671   4.425   6.890 -1.8256  1.2585  0.8335
 3400SOL     OW21658   4.062   1.390   5.219  0.0682  0.5092 -0.0568
 3400SOL    HW121659   4.134   1.332   5.243 -0.7881 -0.2327  0.7023
 3400SOL    HW221660   4.082   1.443   5.296 -1.3957  3.0523 -1.3986
 3401SOL     OW21661   1.455   2.868   4.122  0.1903  0.1678  0.2079
 3401SOL    HW121662   1.471   2.818   4.042 -0.3677 -0.4190  0.4546
 3401SOL    HW221663   1.477   2.956   4.094 -1.3635  0.4484 -0.1304
 3402SOL     OW21664   2.221   0.947   6.457  0.0010  0.3996  0.1748
 3402SOL    HW121665   2.278   0.870   6.462 -0.3963  0.0590 -0.5150
 3402SOL    HW221666   2.253   1.003   6.528 -0.0425 -1.7829  1.9107
 3403SOL     OW21667   1.036   0.637  11.820  0.3665 -0.1510 -0.2549
 3403SOL    HW121668   1.022   0.723  11.858 -0.6039 -0.3272 -0.2243
 3403SOL    HW221669   0.992   0.581  11.884  1.6274 -2.7224 -1.6013
 3404SOL     OW21670   2.547   4.196  14.419 -0.4281  0.2803 -0.0010
 3404SOL    HW121671   2.478   4.252  14.456 -0.8517  1.6788 -2.9522
 3404SOL    HW221672   2.611   4.189  14.490 -0.9725  1.4813  0.6138
 3405SOL     OW21673   1.950   2.599  16.432 -0.2142 -0.1081  0.1879
 3405SOL    HW121674   1.995   2.659  16.492  0.2159 -0.8616  0.6176
 3405SOL    HW221675   1.877   2.570  16.486 -1.5835  1.0149 -1.0438
 3406SOL     OW21676   4.154   3.040   6.916 -0.1890 -0.0563 -0.3586
 3406SOL    HW121677   4.138   3.118   6.864 -1.4142 -1.0501 -1.4831
 3406SOL    HW221678   4.073   3.023   6.963 -0.2168  0.8692 -0.0806
 3407SOL     OW21679   0.502   1.881   4.619  0.1943  0.2443  0.4388
 3407SOL    HW121680   0.485   1.943   4.548 -1.2399 -1.1192 -0.4073
 3407SOL    HW221681   0.586   1.843   4.592 -0.6085 -0.1864 -1.4398
 3408SOL     OW21682   3.149   4.713   3.381 -0.3849 -0.2569 -0.0634
 3408SOL    HW121683   3.245   4.711   3.389 -0.2653  0.1715 -1.3747
 3408SOL    HW221684   3.126   4.653   3.311 -0.6263 -1.4311  1.0336
 3409SOL     OW21685   1.228   2.910  14.697  0.4823  0.3510 -0.8511
 3409SOL    HW121686   1.173   2.839  14.728  0.8984  1.0135  1.4036
 3409SOL    HW221687   1.232   2.964  14.776  1.7085 -2.0198  0.7073
 3410SOL     OW21688   3.126   2.024   6.425  0.2807  0.2414 -0.1859
 3410SOL    HW121689   3.179   1.946   6.439 -1.4450 -1.3873 -2.6195
 3410SOL    HW221690   3.177   2.099   6.453  1.5157 -0.7496  0.2078
 3411SOL     OW21691   2.557   0.303   8.005  0.1164 -0.3318 -0.1119
 3411SOL    HW121692   2.644   0.337   8.023  0.3021 -1.1931  0.6149
 3411SOL    HW221693   2.553   0.225   8.060 -0.9993 -0.8980 -0.9901
 3412SOL     OW21694   4.280   0.918   4.669  0.1678 -0.4614  0.3214
 3412SOL    HW121695   4.222   0.900   4.743 -0.1639 -3.5291 -0.6815
 3412SOL    HW221696   4.308   0.834   4.634 -0.6738 -0.1246 -1.1950
 3413SOL     OW21697   2.206   1.874   1.318  0.1487 -0.3669  0.4673
 3413SOL    HW121698   2.137   1.823   1.359  0.9734  0.8321  3.3434
 3413SOL    HW221699   2.240   1.806   1.260 -0.7671  0.0769 -0.5987
 3414SOL     OW21700   3.941   2.614   4.837  0.3899  0.0358  0.8297
 3414SOL    HW121701   3.865   2.570   4.801  0.8362  0.5774 -0.7530
 3414SOL    HW221702   3.922   2.605   4.931  0.0336  0.7637  0.8286
 3415SOL     OW21703   1.707   2.577   7.147 -0.0371 -0.2385  0.0959
 3415SOL    HW121704   1.724   2.523   7.224 -0.9629 -0.0515  0.4369
 3415SOL    HW221705   1.759   2.655   7.166 -1.5110  0.8441 -0.2658
 3416SOL     OW21706   4.640   0.082  12.106 -0.6556  0.3419 -0.4313
 3416SOL    HW121707   4.553   0.052  12.133 -1.1003  1.3714 -0.7210
 3416SOL    HW221708   4.696   0.010  12.136 -1.7781 -1.0563 -1.6761
 3417SOL     OW21709   4.341   0.476   4.287 -0.0016  0.3616  0.2924
 3417SOL    HW121710   4.290   0.395   4.291  0.2162  0.2253  0.3620
 3417SOL    HW221711   4.287   0.548   4.255 -0.9175 -1.9729 -3.3687
 3418SOL     OW21712   0.530   2.111   1.983 -0.4328 -0.4792 -0.6593
 3418SOL    HW121713   0.481   2.029   1.993 -1.7050  0.5066  1.2205
 3418SOL    HW221714   0.530   2.120   1.888 -1.3707 -0.9424 -0.7072
 3419SOL     OW21715   2.226   4.690   8.319 -0.5491 -0.2503 -0.1497
 3419SOL    HW121716   2.142   0.014   8.307  0.4638  1.7382  0.0476
 3419SOL    HW221717   2.257   4.713   8.406  1.9617  1.4347 -1.4880
 3420SOL     OW21718   2.533   1.602   3.828  0.6646  0.2229 -0.1237
 3420SOL    HW121719   2.620   1.640   3.842  0.0506  0.7622  2.2945
 3420SOL    HW221720   2.553   1.520   3.874 -0.4788 -0.0980 -0.1930
 3421SOL     OW21721   3.391   0.747   1.645 -0.4963  0.0465 -0.2841
 3421SOL    HW121722   3.370   0.763   1.553 -1.0673  1.2508  0.0632
 3421SOL    HW221723   3.311   0.768   1.692 -0.3898 -1.3477  0.5423
 3422SOL     OW21724   1.297   3.338   8.551  0.5415 -0.6942  0.4720
 3422SOL    HW121725   1.357   3.273   8.587 -1.4181 -2.3303  0.8152
 3422SOL    HW221726   1.224   3.320   8.610 -0.9533  1.7260 -0.6416
 3423SOL     OW21727   4.261   2.775   4.907  0.1620 -0.1493 -0.4119
 3423SOL    HW121728   4.329   2.785   4.973  0.2652  0.5727 -0.6276
 3423SOL    HW221729   4.187   2.821   4.948  1.3869  0.7480  0.7873
 3424SOL     OW21730   0.883   1.347   5.110 -0.0617  0.1069  0.5074
 3424SOL    HW121731   0.975   1.338   5.083 -0.0417  0.3406  0.4992
 3424SOL    HW221732   0.846   1.338   5.022 -0.1056  1.7350  0.3546
 3425SOL     OW21733   0.703   0.909  13.053  0.3369  0.0588 -0.4877
 3425SOL    HW121734   0.741   0.947  12.974 -0.2635 -0.2179 -0.9131
 3425SOL    HW221735   0.610   0.924  13.038  0.6661  2.1324 -0.3505
 3426SOL     OW21736   0.026   2.938   2.915  0.0266 -0.3378  0.1300
 3426SOL    HW121737   0.108   2.953   2.962  0.4881 -0.8484 -0.5243
 3426SOL    HW221738   4.689   3.012   2.938 -1.7715 -1.1377 -1.6627
 3427SOL     OW21739   0.043   1.859  12.770 -0.1108 -0.5731  0.2727
 3427SOL    HW121740   0.114   1.922  12.761 -0.7748  0.0008 -0.9586
 3427SOL    HW221741   0.085   1.783  12.728 -0.9779 -1.4522  0.9914
 3428SOL     OW21742   3.859   0.222   4.164  0.2808 -0.5069 -0.2833
 3428SOL    HW121743   3.823   0.221   4.253 -1.2008 -2.5260 -0.9026
 3428SOL    HW221744   3.784   0.227   4.104  0.7601 -0.7901 -0.9116
 3429SOL     OW21745   2.332   1.404  17.086 -0.6340 -0.4436  0.1718
 3429SOL    HW121746   2.289   1.487  17.064 -0.9433 -0.0562  2.2538
 3429SOL    HW221747   2.428   1.410  17.091 -0.5351 -1.3969 -0.6206
 3430SOL     OW21748   2.568   1.632  10.959  0.4035  0.6131 -0.5296
 3430SOL    HW121749   2.628   1.563  10.988 -0.2963  0.3110  0.2184
 3430SOL    HW221750   2.586   1.639  10.866  1.8723 -0.7583 -0.3461
 3431SOL     OW21751   2.272   1.000   7.008 -0.2182  0.0314 -0.0566
 3431SOL    HW121752   2.342   0.949   7.047 -3.2463 -3.3784  0.8882
 3431SOL    HW221753   2.207   0.989   7.077  0.9581 -1.8269  0.7438
 3432SOL     OW21754   1.855   2.967  16.593 -0.3963  0.1725 -0.1977
 3432SOL    HW121755   1.933   2.955  16.539 -0.7965 -1.5298 -0.4017
 3432SOL    HW221756   1.815   3.044  16.552  0.2114  1.1492  1.0385
 3433SOL     OW21757   1.299   2.039   5.559  0.1031  0.9154  0.3838
 3433SOL    HW121758   1.248   1.964   5.530 -1.2852  0.6351  3.5882
 3433SOL    HW221759   1.273   2.097   5.488 -0.5230 -1.0865 -1.0417
 3434SOL     OW21760   1.747   1.766   3.780  0.1610  0.3899 -0.1915
 3434SOL    HW121761   1.710   1.757   3.692 -0.1174 -0.7045  0.0397
 3434SOL    HW221762   1.726   1.684   3.824 -1.1635  2.0461  2.3207
 3435SOL     OW21763   0.412   4.143   4.330  0.1364 -0.5079  0.0825
 3435SOL    HW121764   0.328   4.151   4.285 -0.2690  0.1904  0.9769
 3435SOL    HW221765   0.391   4.103   4.414 -1.2032 -0.8372 -0.4191
 3436SOL     OW21766   3.244   1.904   9.050  0.6047 -0.5600  0.1360
 3436SOL    HW121767   3.233   1.849   9.128  1.9135 -1.0447 -0.0283
 3436SOL    HW221768   3.211   1.988   9.083  1.0030  0.0777 -1.1251
 3437SOL     OW21769   4.452   1.707   5.888  0.1027  0.1335  0.1495
 3437SOL    HW121770   4.372   1.749   5.920 -0.4381  1.5959 -3.0951
 3437SOL    HW221771   4.449   1.728   5.794 -0.3360  1.3567  0.4313
 3438SOL     OW21772   1.303   0.964   7.260  0.2165  0.1509  0.3710
 3438SOL    HW121773   1.338   1.033   7.317 -0.6815  0.5045  0.4966
 3438SOL    HW221774   1.326   0.990   7.171 -1.5716 -2.0801 -0.7316
 3439SOL     OW21775   0.843   4.323   7.388  0.2620 -0.1556  1.3388
 3439SOL    HW121776   0.774   4.362   7.441  2.5855  3.3161  1.7628
 3439SOL    HW221777   0.901   4.305   7.463  1.7390 -1.7143 -0.1686
 3440SOL     OW21778   1.910   4.353   8.849  0.0516  0.3097 -0.0781
 3440SOL    HW121779   1.829   4.310   8.873 -0.1487  0.7504  0.0355
 3440SOL    HW221780   1.930   4.294   8.776 -1.6795 -0.7713  0.3498
 3441SOL     OW21781   1.948   2.326   1.256  0.2574 -0.2560 -0.0130
 3441SOL    HW121782   1.878   2.390   1.246 -0.0878 -0.4227  1.3990
 3441SOL    HW221783   2.020   2.375   1.215  1.5993 -0.5435  1.9969
 3442SOL     OW21784   1.322   4.042   7.972 -0.5050  0.2179  0.1488
 3442SOL    HW121785   1.360   3.954   7.975 -1.7334 -0.3418 -0.6987
 3442SOL    HW221786   1.259   4.041   8.045 -2.2222 -0.2734 -1.3500
 3443SOL     OW21787   3.111   1.806   2.268  0.9441 -0.4844  0.3204
 3443SOL    HW121788   3.175   1.876   2.256  0.3453 -0.4309 -2.6988
 3443SOL    HW221789   3.094   1.785   2.176  0.2022  3.6882 -0.4972
 3444SOL     OW21790   0.611   0.800   2.039 -0.0807 -0.1113 -0.7099
 3444SOL    HW121791   0.594   0.730   2.103  2.0496  1.4395  1.5336
 3444SOL    HW221792   0.661   0.758   1.969 -1.9277  1.3702 -2.9260
 3445SOL     OW21793   1.842   1.155   1.667  0.0480 -0.1582 -0.3291
 3445SOL    HW121794   1.931   1.160   1.701  0.5415  1.4446 -1.8398
 3445SOL    HW221795   1.848   1.175   1.573  1.1618  0.8048 -0.0528
 3446SOL     OW21796   2.617   3.304   5.805 -0.4057 -0.8049  0.4227
 3446SOL    HW121797   2.530   3.328   5.838 -0.4730  0.2786 -0.5703
 3446SOL    HW221798   2.654   3.383   5.765 -1.2692  0.6146  2.4262
 3447SOL     OW21799   1.783   0.261  16.789 -0.3404 -0.0005 -0.7072
 3447SOL    HW121800   1.699   0.231  16.826  0.9122 -0.9738  1.3636
 3447SOL    HW221801   1.831   0.277  16.870 -1.2834 -3.2870  0.5117
 3448SOL     OW21802   1.867   0.065   4.685  0.2332 -0.4181 -0.8234
 3448SOL    HW121803   1.879   0.012   4.606  0.3405 -0.0693 -1.0419
 3448SOL    HW221804   1.951   0.070   4.731 -0.3876 -0.0172  0.2640
 3449SOL     OW21805   1.535   3.476  12.640 -0.0344 -0.3451  0.1191
 3449SOL    HW121806   1.507   3.526  12.717 -1.0018 -1.4701  0.4920
 3449SOL    HW221807   1.588   3.407  12.681 -0.6578 -0.8634  0.0447
 3450SOL     OW21808   2.076   3.556  14.230 -0.4120 -0.0743  0.1845
 3450SOL    HW121809   2.135   3.616  14.185 -0.6589  0.9416  1.2179
 3450SOL    HW221810   2.112   3.565  14.319  1.6691  0.5083 -0.7068
 3451SOL     OW21811   2.324   1.712  12.152 -0.1704  0.0998  0.4177
 3451SOL    HW121812   2.327   1.620  12.126 -0.5806  0.5488 -1.2101
 3451SOL    HW221813   2.306   1.761  12.072 -1.1420  0.9925  1.1760
 3452SOL     OW21814   1.707   2.951   8.361 -0.1848  0.0070  0.0254
 3452SOL    HW121815   1.648   2.880   8.387  0.5244 -0.8852 -0.8068
 3452SOL    HW221816   1.743   2.916   8.280  2.2864 -0.1954  1.2162
 3453SOL     OW21817   1.210   2.035   4.607  0.2812  0.2326 -0.2738
 3453SOL    HW121818   1.290   1.986   4.625  0.4125 -0.8274 -3.7706
 3453SOL    HW221819   1.231   2.053   4.516  0.9433  2.1449  0.2467
 3454SOL     OW21820   3.846   2.582   2.704 -0.1959  0.5466  0.2499
 3454SOL    HW121821   3.825   2.489   2.694 -0.0010  0.4857  0.4031
 3454SOL    HW221822   3.942   2.589   2.711  0.2557 -3.2934 -1.9910
 3455SOL     OW21823   3.444   2.200   6.987  0.6367 -0.9479 -0.1403
 3455SOL    HW121824   3.495   2.254   6.926  0.5802 -0.6199  0.0990
 3455SOL    HW221825   3.358   2.205   6.944  0.1567 -2.5902  0.6540
 3456SOL     OW21826   3.592   0.318   5.321  0.2722 -0.1807 -0.1188
 3456SOL    HW121827   3.644   0.345   5.245 -1.1176  0.0375 -0.9932
 3456SOL    HW221828   3.564   0.406   5.348  1.0216 -0.3946  1.3652
 3457SOL     OW21829   4.365   1.009   7.815  0.2592  0.3065 -0.1564
 3457SOL    HW121830   4.419   0.962   7.752  0.6464  0.4448  0.0698
 3457SOL    HW221831   4.432   1.048   7.872  2.1453 -2.0790 -0.7297
 3458SOL     OW21832   0.345   3.922   8.426  0.1985  0.0288 -0.1555
 3458SOL    HW121833   0.308   3.875   8.501  0.2123 -0.5589 -0.5227
 3458SOL    HW221834   0.296   4.004   8.436 -3.4464 -2.1705  0.0245
 3459SOL     OW21835   2.659   1.656   8.407  0.2832 -0.3230 -1.0003
 3459SOL    HW121836   2.688   1.579   8.457  1.8152  0.8048 -0.1696
 3459SOL    HW221837   2.692   1.629   8.321  0.9038  2.2050 -1.5296
 3460SOL     OW21838   3.446   1.907  13.781 -0.4253  0.0128  0.0913
 3460SOL    HW121839   3.454   1.828  13.835 -2.5478 -0.0078  0.3858
 3460SOL    HW221840   3.360   1.918  13.741 -0.7805 -1.6812  0.3904
 3461SOL     OW21841   2.307   1.125   1.856  1.2348  0.0264  0.0981
 3461SOL    HW121842   2.320   1.046   1.804  0.8214  1.2295 -1.8331
 3461SOL    HW221843   2.358   1.105   1.934 -0.0420 -0.7939  0.7218
 3462SOL     OW21844   3.355   4.618   5.984  0.3845 -0.6028  0.4970
 3462SOL    HW121845   3.272   4.578   5.957  1.5991 -0.9733 -2.6477
 3462SOL    HW221846   3.331   4.709   5.999  0.8653 -0.7175  1.9440
 3463SOL     OW21847   2.197   2.579   3.407  0.5877  0.4506  0.1489
 3463SOL    HW121848   2.214   2.491   3.371  0.2428  0.0696  0.9302
 3463SOL    HW221849   2.240   2.566   3.491 -1.7759 -2.5609  0.9113
 3464SOL     OW21850   1.095   3.938  12.535  0.2724  0.5207 -0.1210
 3464SOL    HW121851   1.074   3.893  12.617 -0.1677 -1.6607 -1.4365
 3464SOL    HW221852   1.020   3.997  12.536 -0.7967 -0.8732  1.3604
 3465SOL     OW21853   2.923   2.840   3.926 -0.2627 -0.0300  0.1863
 3465SOL    HW121854   2.988   2.902   3.894  0.3445  0.0409  1.5658
 3465SOL    HW221855   2.862   2.860   3.855  0.5625 -2.1454 -1.1407
 3466SOL     OW21856   4.705   0.635   6.881 -0.0366 -0.0745 -1.0616
 3466SOL    HW121857   4.642   0.699   6.847 -0.5288 -1.2672 -2.4143
 3466SOL    HW221858   4.703   0.651   6.975  0.7226  0.8897 -1.1981
 3467SOL     OW21859   3.449   0.204   4.349 -0.0615 -0.2641 -0.5281
 3467SOL    HW121860   3.437   0.282   4.296  2.6573  1.2677  1.0748
 3467SOL    HW221861   3.409   0.130   4.302 -1.7673 -0.0294  0.5368
 3468SOL     OW21862   3.209   3.586   4.041  0.1103  0.6417  0.1848
 3468SOL    HW121863   3.251   3.624   3.964  1.5999 -2.2307 -0.3801
 3468SOL    HW221864   3.126   3.558   4.003  0.3911 -0.0109  0.0565
 3469SOL     OW21865   1.102   2.786   7.633  0.4151 -0.5998  0.2885
 3469SOL    HW121866   1.191   2.750   7.639  1.2603  1.3428 -0.7066
 3469SOL    HW221867   1.111   2.874   7.668  1.1983 -0.5036 -0.1806
 3470SOL     OW21868   4.087   4.201   8.725  0.1636 -0.1736 -0.1047
 3470SOL    HW121869   3.993   4.202   8.743  0.4425 -0.0488  1.3693
 3470SOL    HW221870   4.124   4.141   8.789 -1.6144 -3.1026 -1.8113
 3471SOL     OW21871   4.676   1.133   0.563 -0.3463  0.0783  0.0757
 3471SOL    HW121872   0.013   1.210   0.552 -0.5932 -0.0107 -1.8672
 3471SOL    HW221873   4.624   1.160   0.638  0.9029  1.7105  0.3543
 3472SOL     OW21874   4.670   0.684  11.693 -0.1904 -0.1824 -0.1434
 3472SOL    HW121875   4.679   0.776  11.666  0.3734 -0.0000  0.6645
 3472SOL    HW221876   4.662   0.631  11.614  1.2364  0.5844 -0.8129
 3473SOL     OW21877   2.326   4.275  15.950  0.2469  0.1549 -0.3996
 3473SOL    HW121878   2.269   4.352  15.953 -0.3894 -0.3402  0.1453
 3473SOL    HW221879   2.403   4.315  15.910  1.7560 -0.6612  1.6609
 3474SOL     OW21880   0.730   0.162   4.894 -0.5100 -0.2016  0.3273
 3474SOL    HW121881   0.671   0.092   4.867 -0.1875  0.6973 -2.6942
 3474SOL    HW221882   0.804   0.141   4.837  0.2229 -0.4273  1.3499
 3475SOL     OW21883   1.919   0.653  12.599 -0.2616  0.7970 -0.0380
 3475SOL    HW121884   1.876   0.607  12.528  0.4724 -0.8272  0.5803
 3475SOL    HW221885   1.908   0.747  12.583  2.0200  0.9746 -0.5981
 3476SOL     OW21886   2.944   3.678  12.443  0.2282  0.6498  0.1372
 3476SOL    HW121887   2.902   3.601  12.482  1.2315  0.9283  1.7996
 3476SOL    HW221888   2.934   3.642  12.355  0.1905 -0.4112  0.5802
 3477SOL     OW21889   2.265   2.900  12.288 -0.0558 -0.7314 -0.2237
 3477SOL    HW121890   2.322   2.977  12.276 -0.7583 -0.2982 -0.7634
 3477SOL    HW221891   2.300   2.866  12.371 -0.9534 -1.6927 -0.2506
 3478SOL     OW21892   4.012   1.664   7.090 -0.2193  0.1109 -0.0457
 3478SOL    HW121893   4.065   1.722   7.035 -1.8709  3.0108  1.4290
 3478SOL    HW221894   3.940   1.721   7.114 -0.8561 -1.3806  1.6099
 3479SOL     OW21895   1.724   2.255   8.448 -0.1743  0.1221  0.3118
 3479SOL    HW121896   1.742   2.316   8.520 -0.0655 -1.6975  1.8252
 3479SOL    HW221897   1.802   2.199   8.452 -1.1074 -1.1034  1.1378
 3480SOL     OW21898   0.163   1.100   2.802  0.3112  0.5842 -0.0904
 3480SOL    HW121899   0.205   1.101   2.716 -0.6480 -0.4126 -0.5657
 3480SOL    HW221900   0.160   1.193   2.825  1.5164  0.4925  0.4579
 3481SOL     OW21901   3.097   3.793   8.385  0.0399 -0.0379  0.1889
 3481SOL    HW121902   3.106   3.883   8.419 -0.6061  1.1105 -2.7084
 3481SOL    HW221903   3.187   3.760   8.378 -0.1954 -0.0271 -2.8591
 3482SOL     OW21904   1.887   3.149   0.666 -0.3689  0.3418  0.2791
 3482SOL    HW121905   1.869   3.151   0.572 -0.1175 -1.5969  0.1952
 3482SOL    HW221906   1.945   3.224   0.682  1.2835 -0.9208  0.1173
 3483SOL     OW21907   3.506   1.115  11.928 -0.5001  0.1300  0.0099
 3483SOL    HW121908   3.524   1.026  11.959 -1.9399 -0.5992 -1.2875
 3483SOL    HW221909   3.501   1.079  11.840 -0.0440 -0.9522  0.4152
 3484SOL     OW21910   1.780   4.517   7.140 -0.0037 -0.0762  0.1408
 3484SOL    HW121911   1.781   4.606   7.105 -0.8058  0.6312  1.9174
 3484SOL    HW221912   1.864   4.482   7.109  0.4241 -1.4320  2.7743
 3485SOL     OW21913   3.037   3.552   8.631 -0.1017  0.6322  0.1279
 3485SOL    HW121914   2.999   3.547   8.718 -1.6946  1.8615 -0.4887
 3485SOL    HW221915   2.970   3.607   8.590 -1.6692 -0.3004  1.4636
 3486SOL     OW21916   2.196   3.269  13.605 -0.0241  0.3542 -0.2127
 3486SOL    HW121917   2.146   3.202  13.652  0.9181 -0.7541 -0.7622
 3486SOL    HW221918   2.284   3.231  13.604  0.0191  0.5411 -2.5758
 3487SOL     OW21919   3.098   2.810   8.909 -0.1489 -0.0782 -0.1938
 3487SOL    HW121920   3.109   2.847   8.821  0.1972 -1.8289 -0.8888
 3487SOL    HW221921   3.131   2.721   8.894 -1.0036 -0.7791  1.9743
 3488SOL     OW21922   1.666   3.381   6.991  0.5195 -0.0498 -0.0120
 3488SOL    HW121923   1.640   3.443   6.923 -0.4553  0.6561  0.9908
 3488SOL    HW221924   1.581   3.363   7.032  0.3259  0.5108 -0.1621
 3489SOL     OW21925   1.834   2.294  11.438 -0.5168  0.0059  0.1081
 3489SOL    HW121926   1.906   2.238  11.409 -0.1743 -0.4235  1.7810
 3489SOL    HW221927   1.861   2.379  11.403 -0.7767 -0.9819 -2.4670
 3490SOL     OW21928   2.415   3.524  16.528  0.8108  0.6662 -0.2751
 3490SOL    HW121929   2.507   3.497  16.521  0.3629 -0.6842 -1.0527
 3490SOL    HW221930   2.392   3.540  16.436 -0.3000 -1.7882 -0.4400
 3491SOL     OW21931   2.396   3.057   0.219  0.1565 -0.3392 -0.2780
 3491SOL    HW121932   2.390   2.996   0.293  1.2197  0.6691  0.6566
 3491SOL    HW221933   2.486   3.091   0.218  0.8651 -2.1143  0.5952
 3492SOL     OW21934   4.578   3.991   5.838  0.5101 -0.1759  0.1181
 3492SOL    HW121935   4.502   3.948   5.799  0.5597 -0.7733  0.6697
 3492SOL    HW221936   4.543   4.009   5.925  1.8868  1.6653  0.2823
 3493SOL     OW21937   2.103   3.270   0.284  0.2518 -0.0059  0.2570
 3493SOL    HW121938   2.106   3.208   0.356 -3.2308 -0.9935 -0.4209
 3493SOL    HW221939   2.151   3.218   0.220  0.1816 -0.5125  0.6255
 3494SOL     OW21940   4.312   2.245   3.555 -0.0876  0.0590  0.2822
 3494SOL    HW121941   4.285   2.153   3.546  0.6531  0.3049 -4.4424
 3494SOL    HW221942   4.379   2.244   3.487 -1.9228 -0.0466 -1.5515
 3495SOL     OW21943   3.507   3.736   4.695 -0.3099 -0.3419 -0.0468
 3495SOL    HW121944   3.421   3.696   4.687  0.6288 -2.0854 -1.4360
 3495SOL    HW221945   3.518   3.762   4.604 -2.3101 -0.5127 -0.3291
 3496SOL     OW21946   1.201   1.574   0.843  0.2297  0.5962 -0.7080
 3496SOL    HW121947   1.293   1.592   0.858  0.0679  1.9541 -1.2785
 3496SOL    HW221948   1.177   1.654   0.794  1.3201  1.6094  0.4076
 3497SOL     OW21949   1.758   4.314  11.417  0.4381 -0.2740 -0.2130
 3497SOL    HW121950   1.767   4.224  11.386 -3.0625 -0.2154 -1.3578
 3497SOL    HW221951   1.843   4.353  11.397  0.5455  0.9100  2.6831
 3498SOL     OW21952   2.536   0.486   7.681  0.1729  0.0679 -0.2395
 3498SOL    HW121953   2.528   0.396   7.650 -1.7601  0.3217 -0.4543
 3498SOL    HW221954   2.480   0.482   7.758  0.2147 -0.0874 -0.2155
 3499SOL     OW21955   1.443   3.758  17.263 -0.1636 -0.0142 -0.5401
 3499SOL    HW121956   1.465   3.767  17.356 -1.4110 -4.3531  0.2000
 3499SOL    HW221957   1.505   3.689  17.239 -0.5031 -0.6944  0.5279
 3500SOL     OW21958   1.655   1.381   2.863 -0.0872  0.6560  0.0430
 3500SOL    HW121959   1.670   1.449   2.798 -1.3932  0.2379 -0.6922
 3500SOL    HW221960   1.591   1.316   2.832  1.2400 -0.7333  0.1987
 3501SOL     OW21961   2.244   2.155  12.160 -0.1816  0.6447  0.0088
 3501SOL    HW121962   2.203   2.073  12.189  1.1245 -0.1971 -0.5094
 3501SOL    HW221963   2.237   2.215  12.234 -0.4974 -0.2468  0.6969
 3502SOL     OW21964   3.012   0.085  15.271  0.6433 -0.0434  0.0113
 3502SOL    HW121965   3.017   0.020  15.202 -0.7691 -0.1852  0.0288
 3502SOL    HW221966   2.950   0.150  15.238 -1.4939 -2.2094 -0.2772
 3503SOL     OW21967   1.156   2.425  11.376 -0.0072 -0.0979  0.3469
 3503SOL    HW121968   1.118   2.512  11.388 -0.4154 -0.1788 -0.3938
 3503SOL    HW221969   1.166   2.401  11.468 -0.7440 -3.1510 -0.3772
 3504SOL     OW21970   1.032   3.993   6.836  0.2438 -0.1003 -0.0889
 3504SOL    HW121971   1.043   4.050   6.760  1.2891 -0.6968 -0.3873
 3504SOL    HW221972   0.984   4.053   6.893 -2.0609 -2.0997  0.0845
 3505SOL     OW21973   4.290   2.470   1.089 -0.3665 -0.2936 -0.0450
 3505SOL    HW121974   4.320   2.391   1.133 -0.6171 -0.1427  0.3976
 3505SOL    HW221975   4.280   2.433   1.001  0.2733 -0.6568  0.0354
 3506SOL     OW21976   4.510   3.081   4.090  0.1899 -0.2356  0.1544
 3506SOL    HW121977   4.478   2.997   4.120  2.4444 -1.0122  0.3770
 3506SOL    HW221978   4.532   3.133   4.167  1.3258 -0.9717  0.3302
 3507SOL     OW21979   2.801   0.836   7.495  0.4335 -0.4140 -0.0872
 3507SOL    HW121980   2.755   0.771   7.549  1.5138 -0.3540  0.9004
 3507SOL    HW221981   2.792   0.802   7.406 -0.9684  0.3569 -0.2414
 3508SOL     OW21982   2.019   0.780   5.072 -0.1071 -0.1900  0.4267
 3508SOL    HW121983   1.979   0.727   5.141  1.4478 -2.5910 -0.4968
 3508SOL    HW221984   1.990   0.742   4.990  0.7439 -2.2937  1.0859
 3509SOL     OW21985   4.119   1.512   3.730 -0.0823  0.2565 -0.1330
 3509SOL    HW121986   4.028   1.489   3.752 -0.0017  0.7217  0.6540
 3509SOL    HW221987   4.168   1.458   3.791  0.6484  0.5525 -0.4653
 3510SOL     OW21988   1.911   4.417   8.474  0.5822  0.1626 -0.5475
 3510SOL    HW121989   1.939   4.507   8.490 -0.6245  0.3444  0.5468
 3510SOL    HW221990   1.816   4.423   8.464  0.9032  1.7176 -2.6835
 3511SOL     OW21991   0.377   0.082   3.533  0.0179 -0.4348  0.0129
 3511SOL    HW121992   0.450   0.022   3.552 -0.4739 -0.6310  1.2867
 3511SOL    HW221993   0.304   0.021   3.542  0.7922 -1.1747  1.2572
 3512SOL     OW21994   1.396   3.214   4.675  0.1493  0.0926  0.2725
 3512SOL    HW121995   1.457   3.166   4.619  0.2847  0.6084 -0.0249
 3512SOL    HW221996   1.390   3.157   4.751  1.1216  0.4218  0.5927
 3513SOL     OW21997   2.477   2.322  10.143 -0.4866  0.5849  0.0045
 3513SOL    HW121998   2.554   2.379  10.150 -0.1146  0.0751  0.0020
 3513SOL    HW221999   2.469   2.287  10.232 -2.5683 -2.1686 -1.2801
 3514SOL     OW22000   4.515   1.599   3.757  0.0121 -0.8503 -0.0366
 3514SOL    HW122001   4.591   1.576   3.810 -1.5320  0.1052  2.5835
 3514SOL    HW222002   4.461   1.639   3.825 -0.8324 -0.5058 -0.9109
 3515SOL     OW22003   0.289   4.555  14.652  0.2502  0.3164  0.2619
 3515SOL    HW122004   0.195   4.537  14.655  0.9734 -3.1655  1.8623
 3515SOL    HW222005   0.286   4.647  14.676 -0.0481  0.8708 -1.8400
 3516SOL     OW22006   2.890   0.158   0.273 -0.2017  0.3762  0.5924
 3516SOL    HW122007   2.837   0.129   0.198 -1.5032  1.4506  1.0914
 3516SOL    HW222008   2.861   0.084   0.326 -3.1408  0.6780 -0.5563
 3517SOL     OW22009   0.834   1.376   1.977  0.3376  0.4458  0.0044
 3517SOL    HW122010   0.800   1.464   1.997 -0.5699  0.6341 -2.3265
 3517SOL    HW222011   0.777   1.352   1.904  2.1752  2.7194 -2.1911
 3518SOL     OW22012   3.701   3.862   3.431  0.4173 -0.0379 -0.3086
 3518SOL    HW122013   3.743   3.909   3.359 -1.0043  0.0822 -1.0772
 3518SOL    HW222014   3.700   3.936   3.491 -0.0200 -1.7870  1.8335
 3519SOL     OW22015   0.991   2.995   2.104  0.1521 -0.4240 -0.5866
 3519SOL    HW122016   0.979   2.915   2.052 -1.4885  0.2643 -1.2591
 3519SOL    HW222017   1.014   3.065   2.042 -2.0470  0.7137 -0.1119
 3520SOL     OW22018   2.596   2.390   7.788 -0.0969  0.1093 -0.0765
 3520SOL    HW122019   2.685   2.395   7.751 -0.2534  0.9798 -0.3213
 3520SOL    HW222020   2.533   2.368   7.719 -0.8150  1.9737 -0.0047
 3521SOL     OW22021   1.135   0.812   0.112 -0.2503  0.3857  0.1132
 3521SOL    HW122022   1.139   0.773   0.200 -0.6422  0.6811  0.2633
 3521SOL    HW222023   1.224   0.842   0.097 -0.4982  1.3965  0.7000
 3522SOL     OW22024   0.943   3.940   2.529  0.0886  0.1013  0.0427
 3522SOL    HW122025   0.916   4.026   2.561  2.6051  0.9245 -0.0163
 3522SOL    HW222026   0.929   3.881   2.603 -3.2291 -0.1114 -0.7428
 3523SOL     OW22027   3.170   1.311   8.408 -0.1994  0.4056 -0.0262
 3523SOL    HW122028   3.084   1.329   8.370  0.2672  0.9592 -0.8221
 3523SOL    HW222029   3.152   1.381   8.470  1.0796  0.8426 -0.1495
 3524SOL     OW22030   3.331   2.763   4.659 -0.2387  0.7053 -0.4660
 3524SOL    HW122031   3.265   2.773   4.728  1.5815 -0.1115  1.3814
 3524SOL    HW222032   3.393   2.700   4.697 -0.4944  0.3390 -0.6487
 3525SOL     OW22033   2.141   4.480  15.985  0.1001 -0.5479 -0.0862
 3525SOL    HW122034   2.113   4.503  15.897  0.2489 -0.3866 -0.0923
 3525SOL    HW222035   2.219   4.534  16.000 -0.2601  0.3825 -1.5800
 3526SOL     OW22036   3.184   0.853  10.143 -0.1585 -0.3126  1.1862
 3526SOL    HW122037   3.272   0.834  10.110  0.4384  1.5843  1.6953
 3526SOL    HW222038   3.192   0.931  10.198  1.1565  0.0213  0.5201
 3527SOL     OW22039   0.803   3.126   3.426 -0.3931 -0.0671 -0.2870
 3527SOL    HW122040   0.751   3.177   3.364  1.6148  2.0501 -0.2346
 3527SOL    HW222041   0.866   3.190   3.458  0.4653 -1.0678  0.0327
 3528SOL     OW22042   1.269   0.615   3.560 -0.0421  0.2451 -0.0516
 3528SOL    HW122043   1.291   0.522   3.560  3.0870  1.0034  0.9224
 3528SOL    HW222044   1.268   0.642   3.652  3.9457  0.1273  0.0331
 3529SOL     OW22045   3.822   1.649   2.850 -0.2718 -0.1272 -0.3066
 3529SOL    HW122046   3.793   1.677   2.764  1.0233 -0.8603 -0.9859
 3529SOL    HW222047   3.912   1.682   2.856 -0.7671  0.7916  1.8358
 3530SOL     OW22048   1.664   4.159   6.411 -0.0321 -0.2556 -0.4888
 3530SOL    HW122049   1.699   4.073   6.391  1.1511  0.5123 -1.7301
 3530SOL    HW222050   1.664   4.196   6.323  1.6304  0.3840 -0.2399
 3531SOL     OW22051   3.753   0.366   8.473  0.4931 -0.3222  0.1902
 3531SOL    HW122052   3.818   0.435   8.489 -0.6340  0.8242 -0.2413
 3531SOL    HW222053   3.672   0.410   8.498 -0.0191 -0.6406 -0.9027
 3532SOL     OW22054   1.986   1.788  12.210  0.2334  0.2290  0.2109
 3532SOL    HW122055   2.010   1.702  12.173 -0.1859 -0.4439  1.5045
 3532SOL    HW222056   1.960   1.835  12.131 -0.3393 -0.6906 -0.1527
 3533SOL     OW22057   0.205   1.496  10.668 -0.1455  0.0606  0.1653
 3533SOL    HW122058   0.111   1.504  10.686 -0.2172  0.8275 -0.5850
 3533SOL    HW222059   0.234   1.485  10.759 -0.3759 -1.0106  0.1053
 3534SOL     OW22060   0.931   0.848  14.571 -0.6889 -0.0845 -0.0329
 3534SOL    HW122061   1.018   0.844  14.610  0.7558  1.3910 -3.1328
 3534SOL    HW222062   0.898   0.937  14.586 -2.1033 -0.7293  0.7294
 3535SOL     OW22063   1.632   3.715   8.157 -0.3229  0.0227  0.2017
 3535SOL    HW122064   1.615   3.632   8.200  0.8088 -0.7051 -0.7803
 3535SOL    HW222065   1.557   3.762   8.194  0.4362  0.2746  1.4089
 3536SOL     OW22066   0.576   2.898  15.021 -0.5026  0.4185 -0.2732
 3536SOL    HW122067   0.480   2.901  15.020 -0.4684  0.5581 -3.2557
 3536SOL    HW222068   0.585   2.830  15.087  2.1084 -0.2623 -1.3418
 3537SOL     OW22069   2.911   0.342   4.322  0.3799 -0.0016 -0.1513
 3537SOL    HW122070   3.006   0.331   4.326  0.2369 -1.1109  0.1677
 3537SOL    HW222071   2.903   0.437   4.333  0.9150  0.0272 -0.0003
 3538SOL     OW22072   1.525   3.328   5.144 -0.3420 -1.0715  0.1981
 3538SOL    HW122073   1.568   3.293   5.066  1.6894  2.4086 -0.2250
 3538SOL    HW222074   1.526   3.248   5.197  1.0198 -2.6212 -2.1862
 3539SOL     OW22075   1.016   4.235   5.970 -0.3463  0.1745  0.4663
 3539SOL    HW122076   1.060   4.267   6.048 -1.9422  1.1508  0.9441
 3539SOL    HW222077   1.090   4.197   5.923 -0.6285  1.7659 -1.2815
 3540SOL     OW22078   4.365   3.806   7.396  0.0985  0.3755 -0.5699
 3540SOL    HW122079   4.407   3.869   7.455 -0.5483 -0.8367  1.1823
 3540SOL    HW222080   4.366   3.736   7.462  0.1772 -1.7052 -2.7784
 3541SOL     OW22081   0.820   1.602  15.948  0.0015 -0.2674 -0.2900
 3541SOL    HW122082   0.830   1.640  15.861  2.5542 -1.2517 -0.4121
 3541SOL    HW222083   0.731   1.569  15.939  0.8556 -1.5281 -3.6887
 3542SOL     OW22084   1.490   0.160   7.204  0.0231  0.2500 -0.2978
 3542SOL    HW122085   1.497   0.247   7.165  1.0586 -0.3209 -1.3599
 3542SOL    HW222086   1.418   0.111   7.164 -0.1099  0.1481  0.0560
 3543SOL     OW22087   2.306   2.113   3.644  0.0420  0.3945 -0.4420
 3543SOL    HW122088   2.233   2.165   3.679 -1.6922 -2.8242  0.6831
 3543SOL    HW222089   2.294   2.035   3.698  1.8197  0.4320  0.0129
 3544SOL     OW22090   3.862   2.029  15.864 -0.2337  0.3451  0.1100
 3544SOL    HW122091   3.815   2.033  15.781 -1.1675  0.2709  0.6404
 3544SOL    HW222092   3.908   1.945  15.856 -1.9628 -0.7960  2.0611
 3545SOL     OW22093   2.995   2.954   3.177  0.0300  0.5650 -0.0163
 3545SOL    HW122094   3.052   2.883   3.149  0.9631  0.8236  1.2122
 3545SOL    HW222095   2.920   2.899   3.202  2.2032 -1.8327  1.2264
 3546SOL     OW22096   2.901   3.903  13.091 -0.1906  0.3211 -0.1331
 3546SOL    HW122097   2.949   3.922  13.171  0.6870  1.0809 -0.8491
 3546SOL    HW222098   2.861   3.820  13.118 -1.3095  0.4130 -1.4862
 3547SOL     OW22099   3.422   0.947   5.807  0.1528  0.2166 -0.6914
 3547SOL    HW122100   3.492   1.001   5.843 -0.8062  0.0112  1.4741
 3547SOL    HW222101   3.402   0.990   5.724 -0.3477  0.4819 -0.4308
 3548SOL     OW22102   2.734   1.843   2.769 -0.1827  0.2441 -0.4685
 3548SOL    HW122103   2.699   1.847   2.680  2.1779 -0.2095 -1.3974
 3548SOL    HW222104   2.655   1.883   2.807  0.4047  3.0371 -2.1692
 3549SOL     OW22105   4.301   0.276   0.683  0.1231 -0.3784 -0.1764
 3549SOL    HW122106   4.207   0.287   0.699  0.3036  2.8279 -1.3638
 3549SOL    HW222107   4.328   0.309   0.769 -2.4045  0.1153  0.4150
 3550SOL     OW22108   3.981   4.213   0.346 -0.3055 -0.8470 -0.0352
 3550SOL    HW122109   3.904   4.227   0.292 -0.4143 -0.2964  0.2637
 3550SOL    HW222110   3.953   4.256   0.427  1.1041 -1.3983  0.7586
 3551SOL     OW22111   1.785   0.119  17.219  0.2834  0.3313  0.1480
 3551SOL    HW122112   1.788   0.094  17.312 -0.5966 -0.6491 -0.0868
 3551SOL    HW222113   1.703   0.165  17.205 -0.1588 -0.7670 -0.8823
 3552SOL     OW22114   0.742   4.001   9.918  0.4759 -0.0600 -0.0603
 3552SOL    HW122115   0.799   3.981   9.992  0.6448  0.1698 -0.1291
 3552SOL    HW222116   0.667   4.039   9.963  0.8513  1.1270 -0.4064
 3553SOL     OW22117   2.692   1.224  10.397  0.2923  0.0202  0.4381
 3553SOL    HW122118   2.692   1.153  10.462 -1.6886  0.4740  0.9349
 3553SOL    HW222119   2.769   1.203  10.344 -0.0434 -3.7215  1.4079
 3554SOL     OW22120   0.425   0.399   4.217  0.2152 -0.1916 -0.2779
 3554SOL    HW122121   0.436   0.491   4.192 -1.4809  0.3029  0.7724
 3554SOL    HW222122   0.519   0.381   4.222  0.3778 -0.1809 -3.3553
 3555SOL     OW22123   3.917   2.869  15.199  0.1741 -0.4636 -0.0493
 3555SOL    HW122124   3.849   2.821  15.152  2.0386 -1.4769 -1.6937
 3555SOL    HW222125   3.994   2.822  15.169  0.8814  1.0998 -0.6758
 3556SOL     OW22126   0.596   2.195   5.384  0.0193  0.0883  0.5858
 3556SOL    HW122127   0.627   2.112   5.346 -2.1352  0.2067 -1.3950
 3556SOL    HW222128   0.598   2.248   5.305 -1.7276  0.7616  0.9948
 3557SOL     OW22129   0.247   3.604  17.637  0.3735 -0.1934 -0.2135
 3557SOL    HW122130   0.310   3.617   0.027  1.2748  2.3237 -1.4667
 3557SOL    HW222131   0.267   3.511  17.628  0.3890 -0.3063  1.0768
 3558SOL     OW22132   3.336   0.408   2.347  0.2388 -0.1328 -0.0258
 3558SOL    HW122133   3.283   0.468   2.295 -1.6063 -0.5850  1.3297
 3558SOL    HW222134   3.371   0.350   2.280 -2.8344 -0.8230 -1.0539
 3559SOL     OW22135   3.934   4.627   5.246  0.3692 -0.2985 -0.4481
 3559SOL    HW122136   3.840   4.637   5.228  0.7300  0.1155 -2.0507
 3559SOL    HW222137   3.964   4.716   5.263  1.2089 -1.1007  2.3780
 3560SOL     OW22138   2.971   4.523   8.634 -0.3270  0.3166 -0.1275
 3560SOL    HW122139   3.008   4.563   8.555 -1.7659  0.1213 -0.8996
 3560SOL    HW222140   2.882   4.533   8.600 -1.1588 -3.0738  1.0991
 3561SOL     OW22141   1.051   0.509   4.922 -0.1066  0.8248 -0.0827
 3561SOL    HW122142   1.101   0.575   4.873  1.1556 -0.2746 -0.2965
 3561SOL    HW222143   1.108   0.436   4.896  0.8217  1.7316 -0.6297
 3562SOL     OW22144   0.625   3.625  10.567 -0.2076 -0.0119 -0.4600
 3562SOL    HW122145   0.534   3.650  10.583 -0.1137 -1.4123  2.2442
 3562SOL    HW222146   0.633   3.534  10.597 -2.2664  1.2063  3.8878
 3563SOL     OW22147   2.326   4.481   4.378 -0.2743 -0.0046 -0.1722
 3563SOL    HW122148   2.269   4.558   4.377  0.2713  0.4069  0.6338
 3563SOL    HW222149   2.404   4.523   4.344 -0.6414 -0.0600 -1.0685
 3564SOL     OW22150   2.485   1.920   2.854  0.0751 -0.8464  0.2002
 3564SOL    HW122151   2.452   1.845   2.805 -1.3676  0.0222 -0.1589
 3564SOL    HW222152   2.430   1.911   2.931 -1.9681 -2.3346 -1.4630
 3565SOL     OW22153   3.340   4.003   7.008  0.5622  0.0902 -0.5640
 3565SOL    HW122154   3.350   3.908   7.005 -0.2504 -0.0079 -0.1259
 3565SOL    HW222155   3.287   4.003   7.088  1.8006  0.4078  0.2609
 3566SOL     OW22156   0.779   1.286   7.033  0.1793 -0.2300  0.2847
 3566SOL    HW122157   0.800   1.263   7.124  1.0199 -0.5792  0.0033
 3566SOL    HW222158   0.750   1.377   7.032 -5.4291 -1.9955  1.6369
 3567SOL     OW22159   2.500   2.358   0.172 -0.0833 -0.7485 -0.1718
 3567SOL    HW122160   2.404   2.365   0.175  0.0125  0.6150  0.0927
 3567SOL    HW222161   2.542   2.404   0.246 -1.1124 -0.6011  0.3285
 3568SOL     OW22162   2.178   2.483   4.541  0.0571  0.1898  0.0132
 3568SOL    HW122163   2.133   2.405   4.507 -2.7014  1.7355  0.1248
 3568SOL    HW222164   2.116   2.547   4.507 -0.2276  0.1016  0.3647
 3569SOL     OW22165   1.514   2.823   3.571 -0.2011 -0.3722 -0.3032
 3569SOL    HW122166   1.467   2.901   3.542 -2.2818 -1.2687  0.6707
 3569SOL    HW222167   1.591   2.844   3.519  0.4291 -1.1664  0.3110
 3570SOL     OW22168   0.498   1.014   3.293 -0.1146  0.3459 -0.0040
 3570SOL    HW122169   0.501   1.110   3.287 -1.6715  0.3939  0.2055
 3570SOL    HW222170   0.487   0.992   3.200 -0.7705  0.7791 -0.0271
 3571SOL     OW22171   4.613   0.777   1.335 -0.5350  0.7541 -0.2563
 3571SOL    HW122172   4.609   0.720   1.412 -2.6352  0.5271 -0.5506
 3571SOL    HW222173   4.548   0.843   1.360 -0.8550  0.0845  0.6621
 3572SOL     OW22174   0.665   3.604   4.660  0.6370 -0.0746 -0.4538
 3572SOL    HW122175   0.759   3.610   4.677  0.3717  0.1593  0.9278
 3572SOL    HW222176   0.667   3.683   4.607 -1.2904  0.7341  0.6796
 3573SOL     OW22177   0.402   3.361   8.486  0.0605  0.4125  0.0989
 3573SOL    HW122178   0.332   3.394   8.431 -0.5041 -1.2920 -0.2175
 3573SOL    HW222179   0.473   3.410   8.444  0.3035 -1.0163 -1.1377
 3574SOL     OW22180   2.901   3.046   4.410 -0.0089  0.0727  0.4245
 3574SOL    HW122181   2.830   3.107   4.390  1.8331  1.8560 -0.7145
 3574SOL    HW222182   2.955   3.097   4.470  2.2649 -2.2208  0.3180
 3575SOL     OW22183   3.795   1.662   3.886 -0.0055 -0.5373  0.3712
 3575SOL    HW122184   3.821   1.574   3.859  0.6109 -0.3632  0.4069
 3575SOL    HW222185   3.802   1.658   3.982 -1.1835  2.4199  0.6083
 3576SOL     OW22186   1.441   4.055   0.961 -0.5039 -0.8050  0.1214
 3576SOL    HW122187   1.476   4.016   1.041  2.3022  0.5172 -0.4493
 3576SOL    HW222188   1.469   3.990   0.896  1.0767  1.2901 -1.2927
 3577SOL     OW22189   1.726   1.346   4.300 -0.0474 -0.4673  0.6517
 3577SOL    HW122190   1.801   1.378   4.351 -0.8058 -0.8264  1.9845
 3577SOL    HW222191   1.652   1.395   4.335 -1.1473 -0.9651 -0.9748
 3578SOL     OW22192   1.971   1.607   0.827 -0.1117 -0.2230  0.3074
 3578SOL    HW122193   2.037   1.674   0.811  0.8237 -1.0084  0.9132
 3578SOL    HW222194   2.019   1.524   0.823 -0.6975 -0.4787 -1.5673
 3579SOL     OW22195   0.453   1.365   4.118 -0.0467  0.1564 -0.3524
 3579SOL    HW122196   0.532   1.410   4.149  0.1757 -0.6366  0.2344
 3579SOL    HW222197   0.416   1.416   4.046  2.4924  0.5050 -1.3992
 3580SOL     OW22198   2.749   1.481   5.642  0.2462  0.0814  0.5928
 3580SOL    HW122199   2.778   1.573   5.646  2.9237 -0.8195  1.9926
 3580SOL    HW222200   2.679   1.471   5.707 -1.6987 -2.3889 -1.8754
 3581SOL     OW22201   3.611   1.794   5.403  0.3606  0.1349  0.2602
 3581SOL    HW122202   3.606   1.699   5.397  0.3742  0.1287  0.3501
 3581SOL    HW222203   3.631   1.822   5.313  1.3916 -0.2586  0.3690
 3582SOL     OW22204   2.608   3.612   3.299 -0.1075 -0.1709  0.0085
 3582SOL    HW122205   2.661   3.631   3.222  0.0740 -2.3362 -0.4158
 3582SOL    HW222206   2.587   3.519   3.287 -1.6417  0.1469  0.1826
 3583SOL     OW22207   0.815   3.886   5.377 -0.2758 -0.1243  0.2134
 3583SOL    HW122208   0.813   3.871   5.283  1.5048  3.3346 -0.3893
 3583SOL    HW222209   0.876   3.960   5.384 -1.9427  1.1513  1.3815
 3584SOL     OW22210   1.980   4.384   4.642 -0.6378  0.0555 -0.7191
 3584SOL    HW122211   1.945   4.473   4.638  0.8768  0.7351  1.5945
 3584SOL    HW222212   1.938   4.327   4.706 -0.8773  1.2795  0.2084
 3585SOL     OW22213   2.531   4.694  15.521  0.7082 -0.2915 -0.3436
 3585SOL    HW122214   2.447   4.697  15.566  0.6208  1.8348 -0.6309
 3585SOL    HW222215   2.582   4.714  15.599 -0.0659  0.5673 -0.0542
 3586SOL     OW22216   3.575   4.663   2.558 -0.0139 -0.3205 -0.4119
 3586SOL    HW122217   3.629   0.014   2.524  2.0847 -1.0664  1.3887
 3586SOL    HW222218   3.519   4.709   2.621 -0.0945 -1.3444  0.2591
 3587SOL     OW22219   3.996   2.928   8.623 -0.2769  0.0618  0.5151
 3587SOL    HW122220   4.069   2.866   8.624  0.1601  0.5987  1.3118
 3587SOL    HW222221   4.037   3.012   8.605 -1.5730  0.4270 -0.8370
 3588SOL     OW22222   0.014   1.600   4.596  0.3020  0.0831  0.1551
 3588SOL    HW122223   0.007   1.665   4.666  1.6286  0.9336 -0.5017
 3588SOL    HW222224   0.034   1.514   4.635 -1.2731 -1.0996 -1.6621
 3589SOL     OW22225   1.166   3.217   4.420  0.4648 -0.2497 -0.8702
 3589SOL    HW122226   1.174   3.257   4.506 -0.5050 -1.8882 -0.0267
 3589SOL    HW222227   1.074   3.187   4.422 -0.1206  1.6352  0.4793
 3590SOL     OW22228   2.562   1.190   4.207 -0.1743 -0.5174  0.1755
 3590SOL    HW122229   2.537   1.119   4.148  2.9877 -1.5584  0.0956
 3590SOL    HW222230   2.489   1.185   4.270 -0.0909 -1.1570  0.2133
 3591SOL     OW22231   1.187   3.484   3.464 -0.6735 -0.0071 -0.3460
 3591SOL    HW122232   1.220   3.541   3.395  1.2354  0.8120  1.2410
 3591SOL    HW222233   1.268   3.438   3.484  0.1028  1.4658 -0.0853
 3592SOL     OW22234   1.005   4.175  13.151 -0.2159  0.4706 -0.3805
 3592SOL    HW122235   0.981   4.260  13.188 -1.4288 -0.8333  1.8508
 3592SOL    HW222236   0.940   4.121  13.195  1.7920 -0.1309  1.8695
 3593SOL     OW22237   4.208   1.321   8.300 -0.4039  0.3402 -0.5556
 3593SOL    HW122238   4.163   1.325   8.216  0.1963  2.6505 -0.7597
 3593SOL    HW222239   4.275   1.256   8.280 -1.7708 -1.4788  0.8678
 3594SOL     OW22240   3.714   3.363   2.954  0.3469  0.0325 -0.2502
 3594SOL    HW122241   3.655   3.372   3.029  1.3983 -2.1124  0.8475
 3594SOL    HW222242   3.791   3.402   2.996  1.4265  0.8210 -2.9999
 3595SOL     OW22243   2.037   0.109  15.670 -0.4154  0.6966  0.7444
 3595SOL    HW122244   1.953   0.070  15.693  0.7111 -1.6514  0.8810
 3595SOL    HW222245   2.011   0.134  15.581 -1.9795  0.0357  1.0230
 3596SOL     OW22246   2.971   1.678   7.140  0.8619  0.2396 -0.3701
 3596SOL    HW122247   2.984   1.697   7.233  2.2325  1.2403 -0.7604
 3596SOL    HW222248   3.047   1.713   7.094  1.0205 -1.0755 -1.1055
 3597SOL     OW22249   2.149   1.123   6.241 -0.1985 -0.3085  0.5282
 3597SOL    HW122250   2.177   1.088   6.326 -2.0993 -0.4599  1.1028
 3597SOL    HW222251   2.090   1.057   6.206 -1.7557  1.5914 -0.4332
 3598SOL     OW22252   2.674   2.070   9.303  0.4617 -0.1957  0.6455
 3598SOL    HW122253   2.611   2.126   9.348 -3.6699 -0.7835 -4.4954
 3598SOL    HW222254   2.747   2.060   9.365  0.2324  1.8751  1.2307
 3599SOL     OW22255   0.527   4.071   2.693 -0.5027 -0.4725  0.3277
 3599SOL    HW122256   0.516   4.038   2.782  0.6360 -0.8787  0.3143
 3599SOL    HW222257   0.622   4.081   2.698 -0.4337 -0.3177 -1.2029
 3600SOL     OW22258   0.029   1.583   3.907 -0.1469  0.0200  0.0690
 3600SOL    HW122259   0.093   1.567   3.976 -1.2930  1.5704  1.5029
 3600SOL    HW222260   0.083   1.563   3.831 -1.0285  1.3329 -0.8781
 3601SOL     OW22261   2.487   2.453  15.112  0.1950  0.7772 -0.0279
 3601SOL    HW122262   2.465   2.520  15.176 -2.7157 -0.7265  0.5124
 3601SOL    HW222263   2.404   2.419  15.080  0.5801 -0.3694  0.1854
 3602SOL     OW22264   0.132   0.935   3.932 -0.2076 -0.0472 -0.3371
 3602SOL    HW122265   0.151   0.865   3.994 -1.9880 -1.6628 -1.5815
 3602SOL    HW222266   0.221   0.966   3.918  0.2472 -1.2005 -0.0275
 3603SOL     OW22267   3.134   1.663   6.047  0.0916 -0.0936 -0.0971
 3603SOL    HW122268   3.044   1.632   6.053  0.3562 -0.6061  1.1052
 3603SOL    HW222269   3.181   1.581   6.032  0.3493  0.1070 -0.3970
 3604SOL     OW22270   3.807   4.663   6.496  0.3944 -0.2247  0.2870
 3604SOL    HW122271   3.725   4.626   6.529 -1.6276  3.6376 -0.4625
 3604SOL    HW222272   3.869   4.644   6.566  0.8779  2.1780  0.5145
 3605SOL     OW22273   0.822   0.971  12.799 -0.2132  0.0345 -0.2973
 3605SOL    HW122274   0.839   1.014  12.715 -2.8535 -0.4576 -1.0741
 3605SOL    HW222275   0.763   0.901  12.771  4.0718 -2.7769 -2.2576
 3606SOL     OW22276   1.188   2.288   0.872 -0.3604  0.2645  0.3577
 3606SOL    HW122277   1.233   2.207   0.895 -1.0710 -0.7584 -1.8489
 3606SOL    HW222278   1.217   2.312   0.784  0.3136  2.9035  1.3077
 3607SOL     OW22279   0.512   0.507   0.295  0.0205 -0.7030  0.0165
 3607SOL    HW122280   0.469   0.484   0.377 -0.9021  3.3389  0.6835
 3607SOL    HW222281   0.526   0.601   0.311 -0.7149 -0.4361 -0.9379
 3608SOL     OW22282   4.547   0.781   3.988 -0.6637  0.1278 -0.2898
 3608SOL    HW122283   4.459   0.777   3.950 -0.2842 -0.9562 -1.0433
 3608SOL    HW222284   4.562   0.690   4.013  0.9852  0.0938 -1.4654
 3609SOL     OW22285   0.631   3.804  14.478  0.3278 -0.1504  0.2101
 3609SOL    HW122286   0.581   3.863  14.535  3.5523  2.0084  0.8094
 3609SOL    HW222287   0.683   3.752  14.540 -0.3482  0.6669  1.4695
 3610SOL     OW22288   2.265   2.187   7.982  0.3723  0.1459 -0.5981
 3610SOL    HW122289   2.336   2.235   8.023  2.1917 -2.2913 -0.8810
 3610SOL    HW222290   2.299   2.102   8.010 -0.6240 -0.2802 -0.6842
 3611SOL     OW22291   1.371   4.551   5.424 -0.0471 -0.2260  0.3109
 3611SOL    HW122292   1.361   4.477   5.365  0.1882  0.1389 -0.1849
 3611SOL    HW222293   1.414   4.510   5.499 -0.3627 -0.0546  0.5901
 3612SOL     OW22294   1.232   3.762   6.095 -0.4531  0.2993  0.1615
 3612SOL    HW122295   1.172   3.783   6.023  0.7917  3.2197 -0.0254
 3612SOL    HW222296   1.189   3.773   6.180 -0.0567 -2.4414  0.7096
 3613SOL     OW22297   3.884   3.733   3.602 -0.0633 -0.1327  0.3581
 3613SOL    HW122298   3.831   3.760   3.527  0.2281 -1.1307 -0.2016
 3613SOL    HW222299   3.830   3.736   3.681  0.7244  1.0777  0.8417
 3614SOL     OW22300   3.231   2.870   6.792  0.1507 -0.4760  0.2579
 3614SOL    HW122301   3.226   2.909   6.705 -0.0259 -0.0704  0.4508
 3614SOL    HW222302   3.148   2.901   6.828  0.6280  0.6193  0.4010
 3615SOL     OW22303   3.641   1.459  14.384 -0.5202 -0.4428  0.3846
 3615SOL    HW122304   3.560   1.507  14.400 -0.0959  0.3100  0.2430
 3615SOL    HW222305   3.663   1.432  14.473 -1.6935  1.4163  1.2181
 3616SOL     OW22306   3.659   3.911   4.893 -0.1157  0.0279  0.3851
 3616SOL    HW122307   3.593   3.968   4.931 -0.3365 -1.7469  2.7074
 3616SOL    HW222308   3.602   3.848   4.849  0.1183 -0.0408  0.1777
 3617SOL     OW22309   1.009   3.994   7.184  0.3028  0.0434 -0.3597
 3617SOL    HW122310   1.084   3.941   7.156  0.0201 -0.5160 -0.0611
 3617SOL    HW222311   0.974   3.944   7.257  1.5070 -1.0403 -0.5217
 3618SOL     OW22312   2.269   0.657   3.531 -0.2855 -0.0914 -0.1907
 3618SOL    HW122313   2.320   0.584   3.496  0.7315 -0.3212  1.7666
 3618SOL    HW222314   2.207   0.681   3.462 -2.4439 -1.0226  1.4313
 3619SOL     OW22315   1.174   3.315   8.800 -0.1620  0.1118  0.6529
 3619SOL    HW122316   1.115   3.242   8.782  0.0369  0.0896  0.0934
 3619SOL    HW222317   1.236   3.276   8.861 -1.6388 -0.1428  1.9805
 3620SOL     OW22318   2.839   3.891   3.257 -0.2465  0.1645  0.1744
 3620SOL    HW122319   2.777   3.860   3.322  0.4710  1.8700  1.6740
 3620SOL    HW222320   2.839   3.826   3.186  2.5249 -1.2916  1.4894
 3621SOL     OW22321   3.042   3.287   8.469 -0.1969 -0.0035 -0.4676
 3621SOL    HW122322   2.988   3.348   8.520 -0.6416  1.5528 -2.8340
 3621SOL    HW222323   2.978   3.216   8.461  1.1262 -0.8913 -2.9842
 3622SOL     OW22324   4.570   0.657   5.115  0.4446  0.2277  0.0133
 3622SOL    HW122325   4.513   0.728   5.085 -3.1792 -1.5991  2.5610
 3622SOL    HW222326   4.518   0.604   5.176  0.4078  0.6327  0.3283
 3623SOL     OW22327   1.924   3.601   7.086 -0.3816  0.6521  0.0632
 3623SOL    HW122328   1.874   3.634   7.161  0.2976  1.1145  0.3134
 3623SOL    HW222329   2.012   3.580   7.119 -1.0914  0.3093  1.7764
 3624SOL     OW22330   0.014   0.280   4.673  0.0345 -0.1775 -0.0088
 3624SOL    HW122331   0.075   0.352   4.687  0.6474 -0.5672 -0.6849
 3624SOL    HW222332   4.671   0.315   4.609 -0.0908  0.8987  0.7116
 3625SOL     OW22333   3.176   1.144   2.080 -0.1283 -0.4872  0.1561
 3625SOL    HW122334   3.223   1.132   2.162 -0.5131 -1.7049  0.2003
 3625SOL    HW222335   3.083   1.129   2.094 -0.3568 -1.3273 -2.1325
 3626SOL     OW22336   0.105   2.934   9.170  0.4847  0.3409 -0.6276
 3626SOL    HW122337   0.045   2.991   9.122 -0.0324  1.3422  1.1969
 3626SOL    HW222338   0.173   2.999   9.188 -0.6066  1.3303 -0.0877
 3627SOL     OW22339   1.276   3.244  10.950  0.0820  0.3679  0.2362
 3627SOL    HW122340   1.341   3.241  11.020  0.1136  1.4796  0.2537
 3627SOL    HW222341   1.242   3.334  10.955  0.7025  0.5884  0.4913
 3628SOL     OW22342   2.818   2.191  12.554 -0.5113  0.0484  0.0546
 3628SOL    HW122343   2.793   2.137  12.629  1.4376  1.4439  1.7046
 3628SOL    HW222344   2.794   2.282  12.574 -0.4872  0.2333 -0.7330
 3629SOL     OW22345   3.784   3.687  11.511 -0.1434  0.3484 -0.2351
 3629SOL    HW122346   3.743   3.603  11.530 -1.4355  0.9238 -0.5062
 3629SOL    HW222347   3.850   3.697  11.580 -2.3571 -0.5742  1.9967
 3630SOL     OW22348   2.569   2.167   6.280 -0.1690  0.2094  0.5468
 3630SOL    HW122349   2.475   2.150   6.268 -0.2344  1.5717 -0.8260
 3630SOL    HW222350   2.605   2.080   6.266  0.1644  0.2198  1.3192
 3631SOL     OW22351   1.680   1.116   6.652 -0.6094  0.3771 -0.2060
 3631SOL    HW122352   1.611   1.050   6.652  0.1648 -0.4226 -0.9909
 3631SOL    HW222353   1.716   1.099   6.565  2.9905 -0.9854  1.5489
 3632SOL     OW22354   3.059   1.907   5.968 -0.5459 -0.3390  0.2593
 3632SOL    HW122355   3.061   1.862   5.883  0.5055  0.4461 -0.1155
 3632SOL    HW222356   3.107   1.835   6.009 -0.9794 -0.3697  0.7097
 3633SOL     OW22357   0.661   1.584   6.635  0.5070 -0.0287 -0.0740
 3633SOL    HW122358   0.645   1.582   6.540 -2.6177  2.2304  0.3871
 3633SOL    HW222359   0.708   1.503   6.655 -2.7386 -1.6188  1.2338
 3634SOL     OW22360   1.025   3.750   6.564 -0.0885  0.2414  0.2202
 3634SOL    HW122361   1.058   3.839   6.575  0.2585  0.3464 -1.6677
 3634SOL    HW222362   1.082   3.708   6.629 -0.7165 -0.6009  0.2183
 3635SOL     OW22363   2.331   1.728   4.345  1.0127  0.6397 -0.0468
 3635SOL    HW122364   2.265   1.739   4.276  0.6427  0.8279  0.3363
 3635SOL    HW222365   2.281   1.705   4.423  0.7307  2.2246  0.2548
 3636SOL     OW22366   0.789   4.136   6.320  0.0921 -0.1764 -0.0472
 3636SOL    HW122367   0.714   4.083   6.291 -0.8787  0.5928  1.0888
 3636SOL    HW222368   0.862   4.090   6.278 -0.5295  0.7439 -2.1072
 3637SOL     OW22369   3.070   0.203   8.465  0.3335 -0.2771  0.1281
 3637SOL    HW122370   3.121   0.280   8.489 -2.2813  1.5162 -0.0954
 3637SOL    HW222371   3.091   0.195   8.372 -0.5972  1.1976 -0.1989
 3638SOL     OW22372   2.379   3.315   7.192  0.0158 -0.3472 -0.2299
 3638SOL    HW122373   2.329   3.309   7.111  0.2626 -1.3514 -0.3103
 3638SOL    HW222374   2.402   3.222   7.200 -0.7898 -0.4484  0.9615
 3639SOL     OW22375   0.438   1.870   2.763  0.2424 -0.2824 -0.2234
 3639SOL    HW122376   0.434   1.908   2.851 -0.2799  0.7084 -0.6634
 3639SOL    HW222377   0.487   1.788   2.760 -0.3902 -0.7102  1.4119
 3640SOL     OW22378   3.204   3.271   1.221  0.1586  0.3577 -0.4390
 3640SOL    HW122379   3.168   3.184   1.242 -2.9236  0.8873 -3.5132
 3640SOL    HW222380   3.120   3.317   1.228  1.2573  2.3641 -0.6615
 3641SOL     OW22381   3.576   2.219   8.601 -0.3484  0.4352  0.0129
 3641SOL    HW122382   3.632   2.176   8.536 -2.0914 -1.5258 -0.1783
 3641SOL    HW222383   3.550   2.149   8.660  1.5220  0.4079  0.7897
 3642SOL     OW22384   4.134   0.218   6.414 -0.0792  0.2510 -0.6976
 3642SOL    HW122385   4.143   0.127   6.384  1.0834 -0.6084  2.3115
 3642SOL    HW222386   4.166   0.266   6.337  0.7005 -1.9914 -1.7812
 3643SOL     OW22387   0.081   0.573   5.779 -0.1922  0.6001 -0.0797
 3643SOL    HW122388   0.149   0.629   5.817  0.1617  0.3891 -0.4040
 3643SOL    HW222389   0.124   0.535   5.702  0.6587  1.9998 -0.2881
 3644SOL     OW22390   0.983   0.319  10.038 -0.1290  0.1243  0.4451
 3644SOL    HW122391   0.999   0.288  10.127 -3.0792  1.5171  1.4764
 3644SOL    HW222392   1.068   0.333   9.996 -0.3373 -0.8657 -0.2952
 3645SOL     OW22393   4.188   0.624   8.104 -0.7329  0.4762 -0.2768
 3645SOL    HW122394   4.276   0.660   8.117 -1.6302  1.2652  3.3820
 3645SOL    HW222395   4.214   0.535   8.131 -0.5685  0.2330 -1.2283
 3646SOL     OW22396   1.554   2.667  11.788 -0.1256  0.1819 -0.2339
 3646SOL    HW122397   1.486   2.653  11.855  0.9971  2.6205  1.4154
 3646SOL    HW222398   1.504   2.691  11.710  0.9997  1.3989 -0.5676
 3647SOL     OW22399   1.752   0.417  14.681  0.2005  0.4814  0.7532
 3647SOL    HW122400   1.667   0.421  14.636  1.4377  0.6117 -1.5361
 3647SOL    HW222401   1.771   0.509  14.665  0.6530  0.7465  2.8164
 3648SOL     OW22402   1.740   1.155  12.722 -0.0085 -0.3117 -0.2357
 3648SOL    HW122403   1.744   1.070  12.766 -0.7741 -0.8663 -1.2388
 3648SOL    HW222404   1.672   1.199  12.772 -1.3588 -1.2797 -1.2302
 3649SOL     OW22405   0.875   2.063   5.155  0.0200  0.2721 -0.2763
 3649SOL    HW122406   0.813   2.037   5.223 -1.1960 -0.6266 -1.7347
 3649SOL    HW222407   0.813   2.095   5.088 -0.0276  0.6313 -0.0588
 3650SOL     OW22408   0.136   1.073  14.048  0.5124  0.2365  0.2256
 3650SOL    HW122409   0.159   0.991  14.004  1.9562  0.6556  0.1911
 3650SOL    HW222410   0.208   1.132  14.025 -0.6712  1.0577 -1.3897
 3651SOL     OW22411   3.900   0.459   1.932  0.0558  0.0396  0.1379
 3651SOL    HW122412   3.961   0.476   1.861 -1.8674  2.5663 -0.9224
 3651SOL    HW222413   3.960   0.473   2.006 -1.6606 -0.2274  1.5869
 3652SOL     OW22414   1.604   1.355  15.574 -0.2087  0.4294 -0.6990
 3652SOL    HW122415   1.554   1.370  15.654  1.4432 -1.5534  0.7042
 3652SOL    HW222416   1.677   1.417  15.574  0.1227  0.0384 -0.2924
 3653SOL     OW22417   1.343   0.913   6.429 -0.5483 -0.5927  0.2149
 3653SOL    HW122418   1.411   0.956   6.377 -1.4415  0.7280  0.1470
 3653SOL    HW222419   1.399   0.891   6.504  0.6556  2.5032  0.2236
 3654SOL     OW22420   0.422   3.788   8.058 -0.4673  0.5054 -0.7257
 3654SOL    HW122421   0.463   3.873   8.074 -2.5511  1.3851 -0.0381
 3654SOL    HW222422   0.393   3.810   7.969  1.9527  1.5806 -1.2488
 3655SOL     OW22423   3.247   0.610   4.393  0.1310  0.3262  0.9120
 3655SOL    HW122424   3.224   0.600   4.486 -1.8860 -0.0800  0.3649
 3655SOL    HW222425   3.286   0.697   4.402  0.2846  0.2690  0.8110
 3656SOL     OW22426   4.585   2.799   5.884  0.2093 -0.2874  0.4957
 3656SOL    HW122427   4.585   2.732   5.952 -0.1595 -1.0442 -0.2488
 3656SOL    HW222428   4.676   2.806   5.855 -0.0280 -0.5698 -0.3309
 3657SOL     OW22429   2.915   0.019   9.350  0.0163  0.0276  0.5084
 3657SOL    HW122430   2.899   4.654   9.391  1.0858 -0.5825 -0.3145
 3657SOL    HW222431   3.000   0.002   9.308 -1.6261 -0.8543 -2.4433
 3658SOL     OW22432   2.015   1.147  12.623 -0.3737  0.0473 -0.2472
 3658SOL    HW122433   2.104   1.168  12.596 -0.5537  1.0456 -0.0360
 3658SOL    HW222434   2.016   1.069  12.679 -0.4462  1.0857  1.1954
 3659SOL     OW22435   4.385   1.098   1.720 -0.1599  0.0901 -0.4324
 3659SOL    HW122436   4.353   1.070   1.806 -0.3902 -0.7112 -0.7763
 3659SOL    HW222437   4.477   1.082   1.741  0.3450 -1.1566 -3.5204
 3660SOL     OW22438   1.650   2.844   0.447  0.1432 -0.0745 -0.0484
 3660SOL    HW122439   1.729   2.811   0.405 -0.2380 -1.9605  0.6977
 3660SOL    HW222440   1.666   2.830   0.540  1.3227  1.3274 -0.0487
 3661SOL     OW22441   3.055   0.652  14.913  0.3208  0.2214 -0.1144
 3661SOL    HW122442   2.965   0.676  14.936  0.4433 -0.1033  0.7058
 3661SOL    HW222443   3.031   0.607  14.832 -1.8332  2.3313 -0.6542
 3662SOL     OW22444   1.617   4.530   7.564  0.2156 -0.0796 -0.1118
 3662SOL    HW122445   1.531   4.519   7.603 -0.4363  2.1771 -0.9143
 3662SOL    HW222446   1.589   4.522   7.473 -0.0183  0.3854 -0.0781
 3663SOL     OW22447   3.980   1.794   2.396  0.3957 -0.1430 -0.0844
 3663SOL    HW122448   3.939   1.801   2.310 -0.9892 -1.9642  0.4350
 3663SOL    HW222449   4.064   1.834   2.373  0.3339 -0.7558 -1.3431
 3664SOL     OW22450   4.101   2.023   0.457  0.0414 -0.4755 -0.0452
 3664SOL    HW122451   4.084   1.938   0.498 -0.6977 -0.4937 -0.3921
 3664SOL    HW222452   4.062   2.017   0.370 -1.2322 -0.4074  0.5293
 3665SOL     OW22453   0.896   1.964   7.576  0.6695  0.1490  0.4797
 3665SOL    HW122454   0.863   1.919   7.499  0.6179 -0.0221  0.6016
 3665SOL    HW222455   0.820   2.018   7.598 -0.1095 -0.3486 -1.0227
 3666SOL     OW22456   2.539   2.839   5.838  0.3542 -0.1287  0.0991
 3666SOL    HW122457   2.609   2.821   5.900  1.0196  0.2495 -0.5320
 3666SOL    HW222458   2.466   2.864   5.895  1.1053  0.7000  0.6971
 3667SOL     OW22459   2.952   0.047   7.236  0.2636  0.1426 -0.4923
 3667SOL    HW122460   3.012   0.118   7.258  0.7683 -0.5935  0.4543
 3667SOL    HW222461   2.927   0.069   7.146  1.7110 -0.7466 -1.1084
 3668SOL     OW22462   0.633   2.259   6.037 -0.2919  0.1413 -0.2371
 3668SOL    HW122463   0.643   2.322   5.965 -0.1924  0.4084  0.0101
 3668SOL    HW222464   0.591   2.323   6.095  0.4638 -0.7443  1.2717
 3669SOL     OW22465   3.875   1.393   5.773  0.4198 -0.6091  0.2110
 3669SOL    HW122466   3.872   1.464   5.837 -0.4384 -0.4722  0.0160
 3669SOL    HW222467   3.896   1.327   5.839  1.9715 -0.3539 -0.0129
 3670SOL     OW22468   0.137   4.496   4.777 -0.0489  0.2528 -0.2555
 3670SOL    HW122469   0.192   4.433   4.825 -0.8432 -1.6810 -1.8887
 3670SOL    HW222470   0.170   4.575   4.820 -0.5143  0.0250  0.5326
 3671SOL     OW22471   2.309   3.467   1.884 -0.0005 -0.4043  0.1775
 3671SOL    HW122472   2.271   3.384   1.855  1.5857 -1.2096  0.3722
 3671SOL    HW222473   2.356   3.434   1.961  1.9926 -0.6465 -1.1521
 3672SOL     OW22474   0.106   0.674   4.991  0.0672  0.2891 -0.3711
 3672SOL    HW122475   0.014   0.665   5.014  0.7416 -1.5008  1.6143
 3672SOL    HW222476   0.140   0.593   5.029  1.5082  1.2541  0.3938
 3673SOL     OW22477   3.822   0.645  12.607 -0.5288  0.1387  0.0463
 3673SOL    HW122478   3.745   0.633  12.551 -0.0176  1.4077 -0.9310
 3673SOL    HW222479   3.885   0.661  12.537 -0.2278  1.1637  0.5546
 3674SOL     OW22480   3.514   3.798   8.739  0.1584  0.0865  0.2736
 3674SOL    HW122481   3.593   3.843   8.768  0.4339  0.0545 -0.4246
 3674SOL    HW222482   3.548   3.710   8.724  1.6946  0.4519  1.5730
 3675SOL     OW22483   3.597   3.683   5.914 -0.2750  0.1754 -0.6573
 3675SOL    HW122484   3.646   3.719   5.988  0.9907 -3.0390  0.0961
 3675SOL    HW222485   3.557   3.611   5.962 -0.9072  0.4593 -0.7703
 3676SOL     OW22486   4.625   1.145  15.672  0.0311 -0.3267 -0.0418
 3676SOL    HW122487   4.649   1.157  15.764 -3.3588  0.2041  0.7638
 3676SOL    HW222488   4.713   1.127  15.640  0.4106  0.5923  0.4725
 3677SOL     OW22489   1.355   2.596   4.029  0.8401 -0.1438  0.1335
 3677SOL    HW122490   1.342   2.505   4.004 -3.3654  0.6546 -0.5907
 3677SOL    HW222491   1.416   2.624   3.961  0.9909 -2.6646 -0.7575
 3678SOL     OW22492   3.299   2.010   5.783  0.1425 -0.4619  0.3493
 3678SOL    HW122493   3.228   2.071   5.804 -0.0901 -0.7919  0.5135
 3678SOL    HW222494   3.341   2.014   5.869 -0.2659  0.7419  0.4861
 3679SOL     OW22495   2.075   0.780  14.765 -0.3068  0.2329  0.0673
 3679SOL    HW122496   2.133   0.841  14.810 -1.7681  1.1516  0.7152
 3679SOL    HW222497   2.084   0.699  14.815 -1.5750  1.1734  1.7662
 3680SOL     OW22498   1.587   4.538   5.767 -0.3215  0.0595  0.1126
 3680SOL    HW122499   1.527   4.467   5.747 -2.0492  1.9303 -1.3836
 3680SOL    HW222500   1.546   4.614   5.725 -0.8510 -0.2590  0.0579
 3681SOL     OW22501   2.118   4.227   0.402  0.0263 -0.5871 -1.1021
 3681SOL    HW122502   2.157   4.140   0.412  2.7496  0.6474 -1.0460
 3681SOL    HW222503   2.024   4.212   0.412  0.4162 -0.9570  2.0653
 3682SOL     OW22504   3.011   0.925   9.962 -0.3715 -0.3001  0.4812
 3682SOL    HW122505   2.971   1.012   9.959 -2.2442 -1.1515  0.8397
 3682SOL    HW222506   3.076   0.927  10.033  2.4793  1.3306 -2.1291
 3683SOL     OW22507   4.403   1.998   5.044  0.2513 -0.8842  0.6790
 3683SOL    HW122508   4.367   2.038   4.964 -0.1181 -1.0283  0.7725
 3683SOL    HW222509   4.431   1.911   5.015  0.7958 -0.1857 -0.8946
 3684SOL     OW22510   2.107   3.221   1.903  0.0662 -0.0986  0.0218
 3684SOL    HW122511   2.104   3.245   1.996  2.4001  0.4014 -0.0354
 3684SOL    HW222512   2.040   3.281   1.870 -0.1768 -0.9431 -1.0159
 3685SOL     OW22513   2.907   1.805   3.465 -0.2449  0.1313 -0.0220
 3685SOL    HW122514   2.858   1.797   3.383  2.0807  0.1481 -1.4214
 3685SOL    HW222515   2.978   1.866   3.445 -0.1615 -0.1319 -0.5310
 3686SOL     OW22516   3.471   1.346   6.911  0.3157 -0.1263 -0.3249
 3686SOL    HW122517   3.467   1.276   6.976  1.7623 -0.8350 -0.9994
 3686SOL    HW222518   3.489   1.293   6.834  0.4442 -1.3131  0.5187
 3687SOL     OW22519   3.550   0.509  11.571 -0.6221 -0.6024  0.2962
 3687SOL    HW122520   3.457   0.526  11.579 -0.1003  2.8747 -1.0264
 3687SOL    HW222521   3.579   0.590  11.613 -0.4105 -1.4139  1.6958
 3688SOL     OW22522   1.679   2.332   3.538  0.2542  0.3012 -0.3684
 3688SOL    HW122523   1.756   2.312   3.486  0.7789 -1.8305  1.2194
 3688SOL    HW222524   1.707   2.302   3.625  1.8969 -0.9828 -1.3560
 3689SOL     OW22525   3.448   4.322  17.201 -0.3432 -0.2280  0.3924
 3689SOL    HW122526   3.353   4.315  17.191 -0.6131  0.4298  2.4323
 3689SOL    HW222527   3.478   4.237  17.169 -1.5271 -0.9620  1.2231
 3690SOL     OW22528   2.574   1.954   4.848 -0.2908 -0.0463  0.1494
 3690SOL    HW122529   2.484   1.979   4.868 -0.1777  0.0575  0.5393
 3690SOL    HW222530   2.624   2.026   4.887 -0.9352  0.2954  0.3436
 3691SOL     OW22531   3.066   3.578   7.083  0.4052 -0.3289  0.3845
 3691SOL    HW122532   2.984   3.589   7.034  1.2460  0.8579 -0.7628
 3691SOL    HW222533   3.118   3.520   7.027  0.4694 -2.0634  2.2598
 3692SOL     OW22534   2.329   4.234  11.163  0.2260  0.2089  0.9453
 3692SOL    HW122535   2.283   4.269  11.239  0.1718  0.4533  0.8007
 3692SOL    HW222536   2.303   4.142  11.167  1.1276 -0.0636  0.5872
 3693SOL     OW22537   2.619   0.475   7.359 -0.1487 -0.1829 -0.1537
 3693SOL    HW122538   2.613   0.523   7.276 -0.2115 -0.0390 -0.0660
 3693SOL    HW222539   2.532   0.492   7.393 -0.4217  0.6054 -1.2421
 3694SOL     OW22540   0.399   2.017   8.841  0.5020  0.6975 -0.3371
 3694SOL    HW122541   0.417   2.109   8.858  0.8598  0.6664 -0.5479
 3694SOL    HW222542   0.418   1.991   8.932 -1.6928  0.6803  0.1129
 3695SOL     OW22543   0.220   3.207  11.987 -0.4940 -0.2441 -0.0303
 3695SOL    HW122544   0.167   3.261  12.045 -2.6890 -1.7712 -0.5946
 3695SOL    HW222545   0.269   3.279  11.948 -0.2054 -0.0039  0.7996
 3696SOL     OW22546   2.407   2.348   8.246  0.2844 -0.6026  0.5219
 3696SOL    HW122547   2.485   2.322   8.197 -0.9421 -1.7670 -0.8113
 3696SOL    HW222548   2.432   2.352   8.339  0.2558 -1.9721  0.5949
 3697SOL     OW22549   1.825   2.350   7.027 -0.1367  0.2333  0.2107
 3697SOL    HW122550   1.781   2.421   7.073  1.8764  1.4027  0.3714
 3697SOL    HW222551   1.888   2.321   7.093 -1.2092 -3.6087 -0.4614
 3698SOL     OW22552   3.448   1.435   7.799  0.5075  0.3420  0.2083
 3698SOL    HW122553   3.433   1.512   7.853  1.1304 -0.2379  1.2011
 3698SOL    HW222554   3.534   1.450   7.760 -0.2368  1.2002 -1.1032
 3699SOL     OW22555   0.805   4.100   2.749 -0.6338 -0.0037 -0.1804
 3699SOL    HW122556   0.832   4.027   2.804  3.0438  0.0605 -1.8775
 3699SOL    HW222557   0.795   4.167   2.816 -0.8684 -1.4480  1.2151
 3700SOL     OW22558   3.328   0.865   9.815  0.3755 -0.7040 -0.1040
 3700SOL    HW122559   3.317   0.960   9.812  0.9389 -0.6158  0.6074
 3700SOL    HW222560   3.378   0.869   9.897  1.0399 -0.3466 -0.5195
 3701SOL     OW22561   4.025   0.899  17.274 -0.1760 -0.2993  0.3563
 3701SOL    HW122562   4.056   0.914  17.364 -1.3272  0.9661  0.5431
 3701SOL    HW222563   4.026   0.806  17.251 -3.8751  0.1883 -1.6547
 3702SOL     OW22564   2.308   2.856   5.981 -0.2089  0.2861  0.5482
 3702SOL    HW122565   2.341   2.776   6.021  1.4360  1.0609  0.7375
 3702SOL    HW222566   2.266   2.890   6.060 -0.7838  0.8661 -0.0028
 3703SOL     OW22567   2.725   0.343   3.904 -0.4527  0.0130  0.5748
 3703SOL    HW122568   2.744   0.365   3.813 -1.5397 -0.7488  0.1737
 3703SOL    HW222569   2.660   0.274   3.898  0.7575 -1.0541 -0.3123
 3704SOL     OW22570   3.929   0.698  10.961  0.2438 -0.2487  0.7470
 3704SOL    HW122571   3.893   0.619  11.002 -1.0485 -0.4638 -0.8317
 3704SOL    HW222572   3.953   0.748  11.040  1.1521 -3.1545  2.3187
 3705SOL     OW22573   3.177   0.838   3.556  0.2003  0.4506  0.0299
 3705SOL    HW122574   3.157   0.784   3.479  0.9383 -0.4330  0.4575
 3705SOL    HW222575   3.254   0.793   3.590  1.3722  2.3139 -0.1983
 3706SOL     OW22576   2.786   1.346   4.235  0.5573  0.0301 -0.2036
 3706SOL    HW122577   2.821   1.320   4.150 -2.0508  0.0684 -1.3118
 3706SOL    HW222578   2.700   1.303   4.239 -0.1601  1.5507  0.5090
 3707SOL     OW22579   3.634   0.454   4.829 -0.9388 -0.1298  0.2724
 3707SOL    HW122580   3.603   0.543   4.815 -0.2266 -0.3456 -2.5451
 3707SOL    HW222581   3.645   0.424   4.739  0.8672  2.7202 -0.4576
 3708SOL     OW22582   1.280   0.830   6.063 -0.2589  0.0269  0.5460
 3708SOL    HW122583   1.348   0.764   6.074 -0.5506 -0.4216 -0.2767
 3708SOL    HW222584   1.200   0.781   6.082 -0.3938 -0.2212 -0.6333
 3709SOL     OW22585   2.101   4.645   0.929  0.1401  0.8550  0.4126
 3709SOL    HW122586   2.164   4.650   0.857 -1.2508  2.8211 -0.6853
 3709SOL    HW222587   2.092   0.019   0.949  0.1354  1.2703 -1.5806
 3710SOL     OW22588   4.054   0.645   3.651 -0.2210  0.0441  0.5155
 3710SOL    HW122589   4.010   0.597   3.581  0.1128  1.4283 -0.6273
 3710SOL    HW222590   4.147   0.622   3.643 -0.2063  0.2179  0.1902
 3711SOL     OW22591   1.636   0.092   4.322 -0.0833 -0.1619  0.1285
 3711SOL    HW122592   1.678   0.149   4.386  0.1958 -1.3490  1.0163
 3711SOL    HW222593   1.554   0.139   4.310  1.0072  1.4785 -0.8796
 3712SOL     OW22594   4.175   2.716   1.166 -0.5178 -0.2989 -0.2938
 3712SOL    HW122595   4.239   2.647   1.152  0.1859  0.0508  1.1175
 3712SOL    HW222596   4.196   2.744   1.256 -0.8603  0.8039 -0.5547
 3713SOL     OW22597   2.986   4.512   0.333  0.1496 -0.0467 -0.5252
 3713SOL    HW122598   2.970   4.417   0.328  1.0985 -0.1983 -0.6813
 3713SOL    HW222599   3.056   4.526   0.270  0.3830  1.6122  0.0945
 3714SOL     OW22600   0.387   1.931   3.559  0.5523  0.0266  0.1474
 3714SOL    HW122601   0.470   1.949   3.604 -0.0724  1.1598  0.8425
 3714SOL    HW222602   0.409   1.950   3.468  0.2648  1.1705  0.3105
 3715SOL     OW22603   1.098   3.612   9.222  0.0009 -0.3166  0.1125
 3715SOL    HW122604   1.070   3.579   9.307 -0.5663 -0.9246 -0.3071
 3715SOL    HW222605   1.057   3.553   9.159 -0.4789 -0.4633  0.5656
 3716SOL     OW22606   0.552   1.604   0.370 -0.3722  0.3563  0.2052
 3716SOL    HW122607   0.611   1.672   0.404 -1.6860  1.0456  1.0867
 3716SOL    HW222608   0.553   1.621   0.275 -3.5399 -0.5421  0.0333
 3717SOL     OW22609   2.800   1.078   3.715 -0.7174  0.2946 -0.8180
 3717SOL    HW122610   2.876   1.135   3.723  1.6669 -2.9678  0.1474
 3717SOL    HW222611   2.734   1.146   3.722 -0.9623  0.0264 -0.5585
 3718SOL     OW22612   0.471   3.738   7.584 -0.1753 -0.2467 -0.3095
 3718SOL    HW122613   0.553   3.721   7.630 -0.4418  0.9896  0.5954
 3718SOL    HW222614   0.458   3.655   7.538  2.1619 -0.4481 -0.5610
 3719SOL     OW22615   0.254   2.930   5.726 -0.2491 -0.5914  0.2431
 3719SOL    HW122616   0.347   2.914   5.714 -0.3264  0.2818 -1.5491
 3719SOL    HW222617   0.222   2.856   5.777 -1.9608 -1.1867 -1.6899
 3720SOL     OW22618   0.468   4.086   3.943  0.3822 -0.3062 -0.0602
 3720SOL    HW122619   0.562   4.098   3.933 -0.1227  1.6771 -2.2001
 3720SOL    HW222620   0.447   3.993   3.933 -0.4992  0.0606 -1.5992
 3721SOL     OW22621   2.061   0.624  15.026  0.2993 -0.7375 -0.4601
 3721SOL    HW122622   2.099   0.571  15.096 -2.1763  0.9863  2.1913
 3721SOL    HW222623   2.086   0.706  15.068 -1.1983 -0.1037 -0.8121
 3722SOL     OW22624   1.589   3.949   1.161  0.3318 -0.2197  0.3741
 3722SOL    HW122625   1.574   3.872   1.216  0.5854 -0.7767 -0.3425
 3722SOL    HW222626   1.564   4.022   1.219  1.5055 -1.1258  2.0306
 3723SOL     OW22627   3.204   1.178   8.643 -0.5855  0.2010 -0.1403
 3723SOL    HW122628   3.173   1.227   8.568 -2.0017  1.9932  1.6202
 3723SOL    HW222629   3.273   1.234   8.677 -0.4719 -0.6401  1.0337
 3724SOL     OW22630   1.868   0.740   1.183  0.3334 -0.8143 -0.0412
 3724SOL    HW122631   1.866   0.670   1.118 -0.4929 -1.1618  0.3557
 3724SOL    HW222632   1.801   0.705   1.242  2.7088  0.3573  3.3138
 3725SOL     OW22633   1.778   4.172  11.678  0.2005  0.1683  0.2578
 3725SOL    HW122634   1.763   4.078  11.681  0.6690  0.1090  0.9762
 3725SOL    HW222635   1.793   4.203  11.588 -4.5289  1.1947 -0.1663
 3726SOL     OW22636   2.155   2.767  13.701  0.0381  0.5690  0.1309
 3726SOL    HW122637   2.194   2.825  13.636 -1.3435 -1.6214 -2.6532
 3726SOL    HW222638   2.222   2.699  13.701  0.7456  1.2706  0.4730
 3727SOL     OW22639   2.823   0.364   6.729 -1.0877 -0.0312  0.3147
 3727SOL    HW122640   2.862   0.313   6.799  0.3783 -2.9376 -2.6509
 3727SOL    HW222641   2.738   0.389   6.766 -2.2474 -0.9474 -1.7112
 3728SOL     OW22642   2.242   4.460   0.487 -0.0062  0.4612 -0.1353
 3728SOL    HW122643   2.297   4.431   0.559 -0.6193  2.3449  1.1113
 3728SOL    HW222644   2.178   4.390   0.475 -0.1440  0.5810 -0.0988
 3729SOL     OW22645   3.962   2.440  15.061  0.4713  0.2832 -0.4793
 3729SOL    HW122646   4.028   2.503  15.090  1.6046 -0.0185 -2.4222
 3729SOL    HW222647   3.994   2.350  15.070  0.3225  0.2697 -0.0756
 3730SOL     OW22648   2.875   2.398   2.134 -0.2474  0.3599  0.3059
 3730SOL    HW122649   2.876   2.417   2.040 -1.6002  2.1036  0.6678
 3730SOL    HW222650   2.966   2.418   2.159  0.0118  0.3497 -0.6364
 3731SOL     OW22651   4.551   1.333   3.978  0.1725  0.4771 -0.2130
 3731SOL    HW122652   4.479   1.296   3.926 -1.0044  1.0605  1.0036
 3731SOL    HW222653   4.613   1.261   3.972  0.4409  0.5946  1.3168
 3732SOL     OW22654   1.920   2.272   1.979 -0.7294 -0.0044 -0.0874
 3732SOL    HW122655   1.888   2.205   2.039  0.4196 -1.2711 -0.8821
 3732SOL    HW222656   1.900   2.348   2.033  0.0406 -0.1888  0.4569
 3733SOL     OW22657   1.248   4.307   6.998 -0.3969 -0.2951 -0.2395
 3733SOL    HW122658   1.185   4.373   6.968 -2.6681 -1.0204  2.9317
 3733SOL    HW222659   1.327   4.355   6.973  0.7498 -0.7060  2.6213
 3734SOL     OW22660   1.012   0.153   3.195  0.0004  0.5541 -0.0922
 3734SOL    HW122661   0.964   0.129   3.116 -0.4734  1.1571  0.0112
 3734SOL    HW222662   1.105   0.140   3.175 -0.5863 -0.4434 -2.2148
 3735SOL     OW22663   0.986   4.329   7.624  0.5855  0.4555 -0.1553
 3735SOL    HW122664   1.023   4.417   7.623 -0.1609  0.7917  1.7169
 3735SOL    HW222665   0.948   4.335   7.712 -3.8714 -0.9719 -1.9820
 3736SOL     OW22666   4.294   1.267   6.601  0.5162  0.1177 -0.0109
 3736SOL    HW122667   4.219   1.250   6.544 -0.4311  0.4367  1.1457
 3736SOL    HW222668   4.316   1.177   6.622  0.4132 -0.0093 -0.4569
 3737SOL     OW22669   0.843   2.167  11.448 -0.0736 -0.7704  0.1169
 3737SOL    HW122670   0.916   2.202  11.499  0.4877  0.9731 -1.8930
 3737SOL    HW222671   0.834   2.078  11.482 -0.9516 -0.5505  0.4522
 3738SOL     OW22672   2.518   0.432   6.827 -0.3666  0.9530 -0.4635
 3738SOL    HW122673   2.473   0.348   6.831  0.6913  0.4007 -0.0357
 3738SOL    HW222674   2.454   0.484   6.779  0.6511  1.7645 -0.9604
 3739SOL     OW22675   3.342   4.060   2.787 -0.1708  0.4336 -0.1421
 3739SOL    HW122676   3.314   4.007   2.712 -0.3859  1.4178 -0.7620
 3739SOL    HW222677   3.302   4.141   2.755 -2.5636 -0.0322  1.7309
 3740SOL     OW22678   4.547   4.642   1.639 -0.0697  0.1808 -0.3759
 3740SOL    HW122679   4.562   0.012   1.669  0.8958 -1.5111  4.2162
 3740SOL    HW222680   4.564   4.652   1.546  1.5489  0.0862 -0.0871
 3741SOL     OW22681   0.144   4.261   8.890  0.3662 -0.0367  0.0031
 3741SOL    HW122682   0.181   4.253   8.978 -0.9905 -2.2025  0.3767
 3741SOL    HW222683   0.146   4.356   8.882  1.2440  0.0025  0.7855
 3742SOL     OW22684   0.248   3.243   4.251 -0.0806 -0.6171  0.0204
 3742SOL    HW122685   0.294   3.236   4.334  0.6545 -0.1066 -0.3419
 3742SOL    HW222686   0.310   3.295   4.200 -2.0101  0.2606 -1.4462
 3743SOL     OW22687   4.073   4.390   9.360 -0.3105  0.2512  0.8856
 3743SOL    HW122688   3.981   4.384   9.334 -0.5025  0.0186  1.6034
 3743SOL    HW222689   4.061   4.402   9.454  0.5427  3.4625  0.5784
 3744SOL     OW22690   0.264   0.737   5.846 -0.4153 -0.2603  0.4878
 3744SOL    HW122691   0.336   0.732   5.783 -0.5206  0.9359  0.2626
 3744SOL    HW222692   0.314   0.733   5.928  0.1046 -0.7362  0.1496
 3745SOL     OW22693   3.744   2.141  12.211  0.2268  0.2476  0.1621
 3745SOL    HW122694   3.817   2.202  12.219 -0.0365  0.5124  0.5969
 3745SOL    HW222695   3.788   2.058  12.231  0.9601  0.3674 -1.0159
 3746SOL     OW22696   1.176   2.209   7.628  0.2296 -0.5247  0.1797
 3746SOL    HW122697   1.268   2.182   7.633 -0.0016 -0.6779  3.5616
 3746SOL    HW222698   1.141   2.152   7.696  0.0290 -0.0868  0.4388
 3747SOL     OW22699   2.882   0.114  12.961  0.1364  0.5028 -0.3620
 3747SOL    HW122700   2.838   0.198  12.945  0.4133  0.2608 -2.3682
 3747SOL    HW222701   2.906   0.079  12.875  0.5881 -1.8958  0.7537
 3748SOL     OW22702   2.497   0.561   0.225  0.3309 -0.3940  0.1898
 3748SOL    HW122703   2.515   0.631   0.162 -2.9868 -1.0322 -1.4668
 3748SOL    HW222704   2.436   0.608   0.281  2.1029  2.1526 -0.0001
 3749SOL     OW22705   0.581   3.182   9.066 -0.2149  0.1780  0.7875
 3749SOL    HW122706   0.546   3.159   9.152  1.1811  0.8815  1.5390
 3749SOL    HW222707   0.653   3.119   9.069 -1.7463 -1.6104  0.3585
 3750SOL     OW22708   4.594   1.963  14.203  0.2580  0.3406  0.2069
 3750SOL    HW122709   4.686   1.953  14.229 -0.0516 -3.3017 -0.0789
 3750SOL    HW222710   4.587   2.024  14.130  3.5941  1.5882  0.9043
 3751SOL     OW22711   1.635   1.306   5.117  0.2500  0.2271 -0.1880
 3751SOL    HW122712   1.584   1.295   5.037 -0.1847  4.1263 -0.4847
 3751SOL    HW222713   1.719   1.348   5.097  0.4044 -0.8236 -1.7004
 3752SOL     OW22714   1.960   2.574  13.760  0.0957 -0.3332 -0.1074
 3752SOL    HW122715   1.959   2.533  13.674 -0.4924  1.1822 -0.8218
 3752SOL    HW222716   2.041   2.624  13.750  0.7943 -1.9348 -2.2426
 3753SOL     OW22717   4.376   1.200   2.710 -0.0292  0.0758  0.2429
 3753SOL    HW122718   4.350   1.291   2.693 -0.0188 -0.6203 -3.4655
 3753SOL    HW222719   4.331   1.190   2.795  1.5752  2.6573  1.3863
 3754SOL     OW22720   3.469   1.528   4.787  0.1563 -0.1179 -0.3491
 3754SOL    HW122721   3.475   1.433   4.802  0.6154  0.1754  1.2321
 3754SOL    HW222722   3.447   1.557   4.875 -1.1530 -2.0217 -0.0382
 3755SOL     OW22723   2.953   3.256   6.955  0.1115 -0.2256 -0.4869
 3755SOL    HW122724   2.956   3.161   6.967  1.1112 -0.0225  0.8401
 3755SOL    HW222725   2.879   3.266   7.014  1.5241  0.7118  1.1082
 3756SOL     OW22726   1.586   1.375   8.925 -0.4632 -0.3067  0.0578
 3756SOL    HW122727   1.576   1.353   9.018 -1.9324 -1.9481 -0.4837
 3756SOL    HW222728   1.506   1.329   8.901 -0.6141  1.1561 -2.2229
 3757SOL     OW22729   4.604   1.501   0.757 -0.0531 -0.5493  0.0059
 3757SOL    HW122730   4.567   1.562   0.821  0.1006 -2.1759  1.6577
 3757SOL    HW222731   4.548   1.424   0.747 -0.2135 -0.5243  0.7146
 3758SOL     OW22732   3.485   4.144   4.550  0.4228 -0.3187  0.4115
 3758SOL    HW122733   3.555   4.120   4.489  1.0295  1.5456  0.3837
 3758SOL    HW222734   3.410   4.115   4.499  0.3975  0.6212 -0.0839
 3759SOL     OW22735   4.278   2.628   7.384  0.2504 -0.1763 -0.3345
 3759SOL    HW122736   4.259   2.661   7.296 -1.5524  1.7086  0.7745
 3759SOL    HW222737   4.211   2.674   7.434  1.4194 -0.5824  1.6121
 3760SOL     OW22738   1.172   2.194  10.924 -0.2151  0.7544  0.1656
 3760SOL    HW122739   1.109   2.152  10.866  1.0954  0.7444 -1.2551
 3760SOL    HW222740   1.192   2.129  10.992 -0.4220  1.3830  0.8318
 3761SOL     OW22741   0.795   0.803   0.410 -0.1315  0.0848  0.0308
 3761SOL    HW122742   0.865   0.766   0.465 -0.3241 -0.2489  0.0544
 3761SOL    HW222743   0.833   0.833   0.328 -1.0243 -0.2971 -0.5129
 3762SOL     OW22744   0.684   2.840   2.700  0.0648  0.2396  0.3601
 3762SOL    HW122745   0.714   2.810   2.615 -0.7885  2.1233 -0.5942
 3762SOL    HW222746   0.589   2.825   2.697 -0.2084  2.3031 -0.8986
 3763SOL     OW22747   2.119   2.297   8.254  0.4683  0.3417 -0.4706
 3763SOL    HW122748   2.198   2.247   8.231  0.2310 -0.5436  0.6751
 3763SOL    HW222749   2.150   2.387   8.266 -1.2118  0.8600 -0.1067
 3764SOL     OW22750   0.752   0.354  13.675  0.0712  0.5655  0.1272
 3764SOL    HW122751   0.736   0.393  13.761 -3.4567  0.8160 -0.6356
 3764SOL    HW222752   0.807   0.281  13.703  0.6364  0.2348 -1.8139
 3765SOL     OW22753   4.346   0.169   3.089  0.2654 -0.0255 -0.7656
 3765SOL    HW122754   4.342   0.189   3.183  0.8005  0.2753 -0.8118
 3765SOL    HW222755   4.375   0.079   3.102  4.1494  1.3905  0.4706
 3766SOL     OW22756   1.514   0.209   8.273 -0.3202 -0.0840  0.0932
 3766SOL    HW122757   1.503   0.264   8.351 -1.9824 -0.7648  0.3370
 3766SOL    HW222758   1.610   0.203   8.274 -0.3095  0.0826  0.3462
 3767SOL     OW22759   1.739   2.952   7.616 -0.0705  0.3363 -0.2929
 3767SOL    HW122760   1.725   3.031   7.564 -1.0616 -0.2278 -0.8733
 3767SOL    HW222761   1.823   2.978   7.655  0.6573 -1.4218 -0.6963
 3768SOL     OW22762   1.942   0.080  12.324  0.2917  0.1899 -0.1240
 3768SOL    HW122763   1.957   4.705  12.316 -0.2690 -0.1644  3.0451
 3768SOL    HW222764   1.901   0.096  12.239  0.6058 -0.9677 -0.4983
 3769SOL     OW22765   0.170   1.222   1.156  0.1347  0.4393  0.0753
 3769SOL    HW122766   0.263   1.224   1.178  0.3560 -0.0295 -0.8059
 3769SOL    HW222767   0.167   1.142   1.104 -0.0099 -0.3195  1.2729
 3770SOL     OW22768   3.428   1.351   2.970  0.6176 -0.4588  0.0642
 3770SOL    HW122769   3.399   1.368   2.880 -4.5842 -1.0249  1.6490
 3770SOL    HW222770   3.492   1.284   2.945  0.8161 -0.1434 -0.2764
 3771SOL     OW22771   3.988   1.286   3.198  0.0661 -0.0009 -0.7049
 3771SOL    HW122772   3.926   1.359   3.198  0.0751  0.0024  2.9125
 3771SOL    HW222773   4.072   1.322   3.168 -0.2786 -0.1555 -1.8534
 3772SOL     OW22774   3.562   2.286  16.175 -0.0801 -0.3538 -0.0854
 3772SOL    HW122775   3.481   2.257  16.218 -0.5733 -1.9967 -2.0950
 3772SOL    HW222776   3.602   2.204  16.145  2.1131  0.3148  0.9593
 3773SOL     OW22777   1.994   2.244   2.847  0.8839 -0.1052 -0.2725
 3773SOL    HW122778   1.915   2.191   2.851 -0.9211  2.7616  1.9924
 3773SOL    HW222779   2.016   2.255   2.940  1.3911  1.4895 -0.5840
 3774SOL     OW22780   1.215   3.843   3.477 -0.9186  0.1661 -0.3512
 3774SOL    HW122781   1.226   3.773   3.413  0.9765 -1.5478  1.8434
 3774SOL    HW222782   1.124   3.818   3.492 -0.9612  0.9130  0.6262
 3775SOL     OW22783   2.002   1.046   7.568  0.5450  0.1152 -0.3108
 3775SOL    HW122784   1.986   1.139   7.583 -0.2277 -0.2796  1.3017
 3775SOL    HW222785   2.082   1.042   7.516 -0.1590 -0.0505 -1.3805
 3776SOL     OW22786   0.523   2.363   8.533  0.7497  0.6091 -0.3487
 3776SOL    HW122787   0.454   2.391   8.472  0.0980  0.4149  0.3064
 3776SOL    HW222788   0.524   2.440   8.589  1.0359 -0.0410  0.5251
 3777SOL     OW22789   1.426   1.584   2.625 -0.0528  0.2419 -0.4045
 3777SOL    HW122790   1.497   1.525   2.598 -0.8451 -0.8449 -0.1303
 3777SOL    HW222791   1.463   1.626   2.702  2.2328  1.3952 -2.1250
 3778SOL     OW22792   3.429   4.036  14.329 -0.6187  0.3511  0.5703
 3778SOL    HW122793   3.491   4.073  14.391  2.0297  3.3034 -3.9291
 3778SOL    HW222794   3.376   3.977  14.384 -0.9839  0.5307  0.4152
 3779SOL     OW22795   2.082   0.286   9.601  0.1494  0.2595 -0.4592
 3779SOL    HW122796   2.011   0.250   9.654 -0.5149 -1.5069 -2.5343
 3779SOL    HW222797   2.078   0.373   9.642 -1.1832  1.0236 -2.1931
 3780SOL     OW22798   2.339   3.199   6.163 -0.3282 -0.7327 -0.4358
 3780SOL    HW122799   2.361   3.260   6.093  0.3543 -1.4102 -0.8115
 3780SOL    HW222800   2.404   3.130   6.152  2.3578  1.5596  0.8739
 3781SOL     OW22801   3.365   2.940   5.469 -1.0856  0.2227 -0.5957
 3781SOL    HW122802   3.451   2.939   5.427 -0.4242  1.1802  0.7558
 3781SOL    HW222803   3.327   3.020   5.433 -0.5735  0.5979 -0.3057
 3782SOL     OW22804   2.820   4.481   5.038  0.1956  0.6687 -0.0257
 3782SOL    HW122805   2.879   4.411   5.064 -0.9558  0.7489  2.8311
 3782SOL    HW222806   2.849   4.549   5.100 -0.5190  1.0745 -0.1320
 3783SOL     OW22807   1.242   3.588   5.492 -0.3724  0.0609  0.9436
 3783SOL    HW122808   1.221   3.678   5.465  0.2311 -0.2558 -0.5653
 3783SOL    HW222809   1.325   3.562   5.453 -1.8051 -0.3836 -1.8049
 3784SOL     OW22810   3.793   0.819  11.573  0.2187 -0.2487  0.3893
 3784SOL    HW122811   3.752   0.882  11.514 -0.2291  0.6489  1.6478
 3784SOL    HW222812   3.838   0.773  11.502 -1.9974  2.2203 -2.6435
 3785SOL     OW22813   1.543   2.051   6.611  0.3420  0.1511 -0.5211
 3785SOL    HW122814   1.533   1.963   6.646  0.8221  0.4977  0.5043
 3785SOL    HW222815   1.596   2.102   6.672 -0.9979 -0.0166  0.7841
 3786SOL     OW22816   1.136   1.640   2.769  0.1097  0.0817  0.2354
 3786SOL    HW122817   1.057   1.591   2.747 -0.1524  0.5769  0.0703
 3786SOL    HW222818   1.194   1.571   2.802  0.9330 -0.0412 -1.4332
 3787SOL     OW22819   1.045   1.787   4.211 -0.3511  0.2193  0.2357
 3787SOL    HW122820   1.010   1.747   4.132  0.3963  1.4777 -0.7404
 3787SOL    HW222821   1.107   1.720   4.240  0.2873  1.0855  0.8686
 3788SOL     OW22822   2.526   3.827   7.174  0.5372 -0.9027 -0.0446
 3788SOL    HW122823   2.437   3.819   7.210  0.7429  2.4401  1.2303
 3788SOL    HW222824   2.549   3.737   7.151  0.9843 -0.4743 -1.2280
 3789SOL     OW22825   0.949   1.331   7.365 -0.1100  0.1980 -0.0524
 3789SOL    HW122826   0.996   1.266   7.312  2.7881 -0.1183  2.9023
 3789SOL    HW222827   0.886   1.270   7.404  2.8818 -1.9470  1.3834
 3790SOL     OW22828   2.393   1.031  14.378 -0.7058  0.3784  0.3904
 3790SOL    HW122829   2.374   0.953  14.431 -0.3668  0.4495  0.6180
 3790SOL    HW222830   2.487   1.021  14.362 -0.5996  1.0249  0.6230
 3791SOL     OW22831   1.728   1.472   8.349  0.3422 -0.7401 -0.3310
 3791SOL    HW122832   1.723   1.461   8.254  0.4509  0.9622 -0.5467
 3791SOL    HW222833   1.671   1.405   8.386  0.3421 -0.9747 -0.7690
 3792SOL     OW22834   0.063   1.334  10.883 -0.2286 -0.0245 -0.0938
 3792SOL    HW122835   4.699   1.353  10.840 -1.2034  1.1190  2.3212
 3792SOL    HW222836   0.042   1.309  10.973  0.5643 -3.6573 -0.9327
 3793SOL     OW22837   4.086   2.640  10.418 -0.3954  0.2334  0.1795
 3793SOL    HW122838   4.022   2.702  10.384 -1.3817  0.5599  2.6509
 3793SOL    HW222839   4.170   2.681  10.396 -0.2235  0.1842  0.7333
 3794SOL     OW22840   4.271   3.875   3.785 -0.2466  0.4082 -0.0895
 3794SOL    HW122841   4.322   3.909   3.712  0.0087  0.6452  0.1965
 3794SOL    HW222842   4.207   3.819   3.741 -2.4371  2.0830  0.9898
 3795SOL     OW22843   0.708   0.382   2.718 -0.0699 -0.1656 -0.0550
 3795SOL    HW122844   0.803   0.391   2.724 -0.0486 -0.3566 -0.0853
 3795SOL    HW222845   0.677   0.315   2.779  0.7208 -0.2521  0.2595
 3796SOL     OW22846   2.707   1.332   2.910  0.4801 -0.5821  0.0813
 3796SOL    HW122847   2.660   1.416   2.908  0.1394 -0.7591  0.8102
 3796SOL    HW222848   2.649   1.283   2.969 -0.0959 -0.7524 -0.6138
 3797SOL     OW22849   0.941   1.607  16.179 -0.1881  0.1501  0.1885
 3797SOL    HW122850   0.905   1.520  16.201 -0.3042 -0.1778 -1.3018
 3797SOL    HW222851   0.897   1.619  16.095 -1.9866 -0.5880  1.0264
 3798SOL     OW22852   2.521   3.209   1.568  0.3313 -0.5231  0.2364
 3798SOL    HW122853   2.568   3.126   1.578  0.3828 -0.8080 -2.3415
 3798SOL    HW222854   2.457   3.200   1.639 -0.2382  0.6546 -0.1243
 3799SOL     OW22855   0.786   2.994   4.021  0.2471 -0.3146  0.0627
 3799SOL    HW122856   0.841   3.067   3.990 -0.8567 -0.3485 -1.9467
 3799SOL    HW222857   0.710   3.034   4.062  0.7586  0.4754  0.2495
 3800SOL     OW22858   3.267   0.196   0.224 -0.1071 -0.5943 -0.2445
 3800SOL    HW122859   3.211   0.263   0.265 -0.8033 -0.5040 -1.3431
 3800SOL    HW222860   3.259   0.125   0.288  0.1209  0.4919  1.0075
 3801SOL     OW22861   2.851   0.838   3.159 -0.2502 -0.0734 -0.0988
 3801SOL    HW122862   2.884   0.791   3.236 -1.6700 -0.0213  0.5419
 3801SOL    HW222863   2.805   0.910   3.202  0.1915  0.3592 -0.3555
 3802SOL     OW22864   4.242   1.408   7.684 -0.9599 -0.1817  0.0599
 3802SOL    HW122865   4.301   1.483   7.678  1.2431 -1.8235  0.8772
 3802SOL    HW222866   4.217   1.386   7.594 -0.8369  0.1451 -0.0527
 3803SOL     OW22867   1.475   0.041   6.174 -0.1619  0.6800 -0.9906
 3803SOL    HW122868   1.447   4.683   6.125 -0.0215  0.5342 -0.8418
 3803SOL    HW222869   1.438   0.106   6.114  2.0675 -0.7396 -3.8717
 3804SOL     OW22870   4.093   0.587   2.664 -0.1851 -0.0528 -0.2369
 3804SOL    HW122871   4.151   0.511   2.665 -1.0633 -0.7426 -1.1404
 3804SOL    HW222872   4.127   0.639   2.591 -1.2299 -0.8039 -1.2543
 3805SOL     OW22873   2.456   3.525  13.410 -0.3191 -0.1691 -0.6366
 3805SOL    HW122874   2.463   3.598  13.348 -0.1290  0.6727  0.3673
 3805SOL    HW222875   2.362   3.509  13.415  0.2239 -2.5132  1.7322
 3806SOL     OW22876   3.337   2.389   9.091  0.4763 -0.0663 -0.5247
 3806SOL    HW122877   3.381   2.340   9.023 -0.9384 -0.1765 -1.3577
 3806SOL    HW222878   3.408   2.397   9.155 -1.0294 -2.5266  1.4497
 3807SOL     OW22879   1.104   4.401   8.554  0.2725 -0.3616 -0.3657
 3807SOL    HW122880   1.057   4.480   8.581  0.6898 -0.1323 -0.2985
 3807SOL    HW222881   1.049   4.344   8.608 -0.8414  1.4187  0.3862
 3808SOL     OW22882   1.036   3.616   5.247 -0.2113 -0.5904  0.0476
 3808SOL    HW122883   1.052   3.527   5.277 -1.2959 -0.1934  1.8220
 3808SOL    HW222884   0.946   3.634   5.275 -0.7351 -1.2481 -1.2557
 3809SOL     OW22885   4.701   4.663   6.806  0.0418 -0.1095 -0.4569
 3809SOL    HW122886   4.641   4.598   6.769 -1.2420 -0.0402  1.4919
 3809SOL    HW222887   0.061   4.610   6.802  0.1733 -0.2234  3.6175
 3810SOL     OW22888   4.314   1.147  10.037  0.1898 -0.1634 -0.4351
 3810SOL    HW122889   4.313   1.108   9.950 -2.0181 -1.4677  0.1758
 3810SOL    HW222890   4.406   1.147  10.061 -0.3509 -2.2508  1.6375
 3811SOL     OW22891   0.111   2.767   4.982 -0.2187  0.4274  0.1252
 3811SOL    HW122892   0.096   2.781   5.076 -1.4170 -0.2004  0.0217
 3811SOL    HW222893   0.059   2.836   4.942 -2.2883 -0.6944  0.8868
 3812SOL     OW22894   4.561   1.305  14.815  0.3129 -0.1365 -0.0801
 3812SOL    HW122895   4.580   1.357  14.893  0.4781  0.4686 -0.5261
 3812SOL    HW222896   4.608   1.222  14.827  2.0547  0.7609 -0.7091
 3813SOL     OW22897   2.665   2.770   0.413 -0.2128 -0.9127  0.4219
 3813SOL    HW122898   2.700   2.837   0.354 -1.7494  1.6065  2.3571
 3813SOL    HW222899   2.639   2.825   0.487 -2.3959 -1.2684 -0.0551
 3814SOL     OW22900   1.265   4.260   6.098 -0.5969 -0.4169  0.1238
 3814SOL    HW122901   1.273   4.186   6.158 -1.5977 -0.1556  0.5722
 3814SOL    HW222902   1.290   4.339   6.146  1.0954 -2.9290  3.3512
 3815SOL     OW22903   3.981   0.786   5.890 -0.6543 -0.3987 -0.1469
 3815SOL    HW122904   4.066   0.752   5.861  0.1286  1.6486 -0.2542
 3815SOL    HW222905   4.016   0.861   5.938 -0.9514 -0.0269 -0.5094
 3816SOL     OW22906   0.553   0.096   7.559 -0.1347  0.3906 -0.4463
 3816SOL    HW122907   0.564   0.005   7.589  0.2934  0.3664 -0.6836
 3816SOL    HW222908   0.510   0.132   7.637  0.0692  1.8607 -1.0227
 3817SOL     OW22909   1.061   3.028  12.714  0.0262 -0.0282  0.3979
 3817SOL    HW122910   1.132   3.054  12.654 -0.2211  0.4298  0.3061
 3817SOL    HW222911   1.091   3.043  12.803  0.0731 -2.4030  0.8010
 3818SOL     OW22912   1.983   1.985  16.126 -0.1693  0.4644 -0.0092
 3818SOL    HW122913   1.952   1.934  16.051 -1.6483  1.7008 -0.2162
 3818SOL    HW222914   1.992   1.911  16.186  3.1328  0.4369 -0.5399
 3819SOL     OW22915   2.888   2.219   6.339  0.5010  0.4185  0.0791
 3819SOL    HW122916   2.954   2.161   6.302  0.0677  0.3831 -0.6379
 3819SOL    HW222917   2.809   2.174   6.309  0.8072 -0.5809  0.7976
 3820SOL     OW22918   1.186   1.398   8.801  0.0039  0.4862 -0.1552
 3820SOL    HW122919   1.110   1.375   8.854 -1.7938  0.5434 -2.6701
 3820SOL    HW222920   1.255   1.389   8.866 -0.0429 -2.2574 -0.4960
 3821SOL     OW22921   3.896   1.420   5.509  0.6422 -0.3399 -0.1086
 3821SOL    HW122922   3.952   1.348   5.480  0.3101 -0.4410 -0.5138
 3821SOL    HW222923   3.897   1.398   5.602 -3.9597 -0.8423 -0.1541
 3822SOL     OW22924   4.138   0.152   2.678 -0.2436 -0.0420 -0.0182
 3822SOL    HW122925   4.079   0.101   2.734  0.9509  1.4450  2.6059
 3822SOL    HW222926   4.083   0.200   2.617 -1.5238 -0.2736  0.9539
 3823SOL     OW22927   1.788   0.935   7.747 -0.1276  0.2878 -0.1861
 3823SOL    HW122928   1.873   0.979   7.741  0.2064 -0.6092 -1.8962
 3823SOL    HW222929   1.744   0.996   7.688 -0.4564  0.0262 -0.2134
 3824SOL     OW22930   3.762   0.782   2.623 -0.1382 -0.3715 -0.6668
 3824SOL    HW122931   3.727   0.758   2.537  0.3551 -0.4451 -0.8517
 3824SOL    HW222932   3.801   0.703   2.661 -0.2702  0.1734  0.5923
 3825SOL     OW22933   2.025   1.071   5.253 -0.2752 -0.2248  0.2173
 3825SOL    HW122934   1.997   1.124   5.327 -0.1780  0.3132 -0.1315
 3825SOL    HW222935   1.948   1.014   5.257 -1.8303  1.8641  0.0032
 3826SOL     OW22936   4.527   1.015   3.676  0.2061  0.2918  0.4980
 3826SOL    HW122937   4.438   0.993   3.650  0.1093 -0.6126  1.6224
 3826SOL    HW222938   4.520   1.038   3.769  0.7328 -1.3187  0.9423
 3827SOL     OW22939   0.907   3.387   2.543 -0.2232  0.2571  0.1562
 3827SOL    HW122940   1.000   3.377   2.563 -0.5873 -2.3651  0.6352
 3827SOL    HW222941   0.901   3.309   2.487 -0.9736  0.2816  0.2027
 3828SOL     OW22942   3.948   3.883   2.462 -0.1356  0.0929  0.0603
 3828SOL    HW122943   3.893   3.829   2.518  0.7696 -1.2312 -0.3313
 3828SOL    HW222944   3.957   3.823   2.388  3.4634  1.5718 -0.7219
 3829SOL     OW22945   0.593   0.661   7.407  1.1335  0.0766  0.2561
 3829SOL    HW122946   0.555   0.723   7.469  1.0490  0.2225  0.0537
 3829SOL    HW222947   0.609   0.715   7.330 -0.0039  2.4954  1.7420
 3830SOL     OW22948   0.411   3.777   3.668 -0.1025 -0.2716 -0.4861
 3830SOL    HW122949   0.353   3.833   3.617 -2.6636 -1.2273  1.4062
 3830SOL    HW222950   0.356   3.699   3.669  1.8882 -1.6769  0.5063
 3831SOL     OW22951   1.664   3.276   3.542  0.1800 -0.0364 -0.3539
 3831SOL    HW122952   1.681   3.341   3.610  1.4170  0.0250 -0.7157
 3831SOL    HW222953   1.755   3.261   3.515 -0.1443  1.7891 -2.4614
 3832SOL     OW22954   4.208   1.930   9.264  0.3018 -0.5889  0.3262
 3832SOL    HW122955   4.195   1.839   9.239 -1.2995 -0.3585  0.3117
 3832SOL    HW222956   4.138   1.939   9.329  1.1903 -1.0886  1.3551
 3833SOL     OW22957   3.774   2.404  11.882  0.0025  0.1505 -0.3382
 3833SOL    HW122958   3.842   2.353  11.838  1.6626  2.0600  0.0071
 3833SOL    HW222959   3.801   2.493  11.858  0.8526  0.4081  1.5083
 3834SOL     OW22960   2.249   1.211  10.246  0.1231 -0.2164 -0.2634
 3834SOL    HW122961   2.181   1.217  10.313  1.6492 -0.4602  1.3019
 3834SOL    HW222962   2.238   1.120  10.219  0.6370 -0.7514  1.3597
 3835SOL     OW22963   4.448   1.013  11.264 -0.7808  0.7613  0.0590
 3835SOL    HW122964   4.388   0.990  11.335  1.1843  0.1770  1.4960
 3835SOL    HW222965   4.404   0.983  11.184 -1.8540 -0.9587  1.2967
 3836SOL     OW22966   0.015   3.299   6.299 -0.6560  0.0730 -0.3002
 3836SOL    HW122967   4.714   3.355   6.375 -0.7340  0.5187 -0.6488
 3836SOL    HW222968   0.094   3.345   6.269 -0.3451 -0.0117  0.3765
 3837SOL     OW22969   4.383   4.347   7.218  0.1493  0.3092 -0.0905
 3837SOL    HW122970   4.385   4.334   7.313 -0.3695  1.3969  0.0812
 3837SOL    HW222971   4.477   4.342   7.202 -0.0970  1.3109 -1.8450
 3838SOL     OW22972   2.435   1.020   4.066 -0.2372 -0.1976 -0.7027
 3838SOL    HW122973   2.437   0.925   4.078  1.2551  0.0836  1.3254
 3838SOL    HW222974   2.400   1.022   3.977 -0.2237  0.0465 -0.7029
 3839SOL     OW22975   4.051   4.407   5.349  0.1098 -0.4384 -0.2726
 3839SOL    HW122976   4.087   4.431   5.435 -1.1711  1.5297 -0.2779
 3839SOL    HW222977   4.015   4.487   5.311  0.5998 -0.4180 -0.6980
 3840SOL     OW22978   0.536   0.704   4.204 -0.1596 -0.3816  0.0319
 3840SOL    HW122979   0.612   0.732   4.152 -0.2009  1.5733  1.0279
 3840SOL    HW222980   0.559   0.742   4.288  1.9057 -0.2216 -0.5968
 3841SOL     OW22981   2.550   3.864   6.010 -0.2929  0.3539  0.5554
 3841SOL    HW122982   2.481   3.881   6.074 -0.9298 -2.4722  0.6586
 3841SOL    HW222983   2.532   3.770   5.996 -0.4522  0.7381 -1.8676
 3842SOL     OW22984   0.702   2.701   7.164  0.0250  0.1296 -0.1100
 3842SOL    HW122985   0.680   2.691   7.071  1.0053  0.4379 -0.3787
 3842SOL    HW222986   0.657   2.628   7.206 -1.7604  2.6147  2.3094
 3843SOL     OW22987   1.575   3.852   8.859 -0.0217 -0.4851  0.0368
 3843SOL    HW122988   1.493   3.872   8.903  0.1352 -0.4203  0.3005
 3843SOL    HW222989   1.543   3.842   8.770  0.6050 -1.4487 -0.0850
 3844SOL     OW22990   1.011   0.773   0.566 -0.2045  0.2301 -0.4982
 3844SOL    HW122991   1.020   0.810   0.654  0.2421 -0.2649 -0.3307
 3844SOL    HW222992   1.016   0.678   0.581  0.6897  0.3410 -0.0419
 3845SOL     OW22993   3.445   3.087  12.300  0.2203 -0.3031 -0.3748
 3845SOL    HW122994   3.443   3.180  12.324 -1.2492 -0.5309  0.3983
 3845SOL    HW222995   3.383   3.065  12.231 -1.1096 -1.4178  1.1584
 3846SOL     OW22996   3.182   3.009   6.545  0.0532  0.4132 -0.1815
 3846SOL    HW122997   3.160   2.946   6.476 -1.3814 -0.9132  1.5030
 3846SOL    HW222998   3.269   3.036   6.514  0.3823 -3.4580 -2.7114
 3847SOL     OW22999   1.254   2.190   5.338 -0.3034  0.2193 -0.2271
 3847SOL    HW123000   1.207   2.195   5.254  2.5813 -0.2949 -1.8456
 3847SOL    HW223001   1.348   2.190   5.320  0.1079 -1.6097  1.9494
 3848SOL     OW23002   1.983   3.993   8.999  0.0428 -0.1849 -0.7112
 3848SOL    HW123003   1.977   3.958   9.088  1.5335 -2.2224 -1.4118
 3848SOL    HW223004   1.936   3.926   8.949 -2.0280  0.6983  0.0755
 3849SOL     OW23005   1.587   0.670  16.908 -0.2698  0.3752  0.1955
 3849SOL    HW123006   1.566   0.722  16.985  0.5495  3.8337 -1.9004
 3849SOL    HW223007   1.500   0.630  16.900  0.3113 -0.1941 -3.2846
 3850SOL     OW23008   0.720   2.808   4.260  0.1620 -0.2077  0.1433
 3850SOL    HW123009   0.800   2.861   4.268  1.6718 -2.2157 -1.3936
 3850SOL    HW223010   0.658   2.868   4.219  2.3555  2.3542  0.5240
 3851SOL     OW23011   4.349   3.977   6.301  0.0799  0.1873 -0.6586
 3851SOL    HW123012   4.258   3.956   6.323  0.6258 -1.4886 -0.0037
 3851SOL    HW223013   4.388   3.891   6.313 -0.2945 -0.0937 -1.4396
 3852SOL     OW23014   4.452   4.079   9.581  0.1361  0.3329  0.5536
 3852SOL    HW123015   4.544   4.057   9.593  0.7274  1.3182 -2.2135
 3852SOL    HW223016   4.417   4.010   9.636 -0.1163 -1.5798 -2.0109
 3853SOL     OW23017   0.226   4.531   6.811 -0.3167  0.0348  0.2968
 3853SOL    HW123018   0.305   4.576   6.840 -1.0255 -0.5078  3.0213
 3853SOL    HW223019   0.239   4.437   6.821  2.3421  0.3215 -0.4717
 3854SOL     OW23020   2.143   1.820  14.066 -0.7492 -0.6360  0.1943
 3854SOL    HW123021   2.105   1.908  14.065 -1.2597 -0.8621 -0.5342
 3854SOL    HW223022   2.157   1.785  13.978  3.0164  2.5979 -0.4981
 3855SOL     OW23023   2.691   3.428   1.307 -0.1253 -0.1534  0.4736
 3855SOL    HW123024   2.722   3.397   1.222 -0.6964  0.2262  0.1312
 3855SOL    HW223025   2.682   3.515   1.270  0.6218 -0.5866 -0.7221
 3856SOL     OW23026   4.568   0.347  14.342  0.2776  0.4122 -0.2025
 3856SOL    HW123027   4.593   0.342  14.250 -2.4226  0.0837 -0.8953
 3856SOL    HW223028   4.476   0.369  14.332  0.1284  0.6201  1.6317
 3857SOL     OW23029   2.650   0.857   9.876 -0.2643 -0.3064 -0.0524
 3857SOL    HW123030   2.686   0.772   9.903 -2.1029 -1.1673 -0.2772
 3857SOL    HW223031   2.652   0.904   9.960 -0.5672  1.1252 -0.8565
 3858SOL     OW23032   2.087   4.248   8.302 -0.8216 -0.2210 -0.5934
 3858SOL    HW123033   2.072   4.275   8.211 -1.5364  1.8174  0.1303
 3858SOL    HW223034   2.021   4.306   8.341  0.6141  0.6016  0.5827
 3859SOL     OW23035   4.628   4.393   6.198  0.3968 -0.0806  0.2673
 3859SOL    HW123036   4.615   4.482   6.164  0.8924 -0.7447 -1.6614
 3859SOL    HW223037   4.705   4.402   6.254  0.0493 -0.4490  0.8090
 3860SOL     OW23038   3.694   0.130  17.631  0.2595  0.1970 -0.9884
 3860SOL    HW123039   3.653   0.190   0.013 -0.0258  0.2667 -1.2399
 3860SOL    HW223040   3.728   0.196  17.571 -3.3056  1.8701 -1.1917
 3861SOL     OW23041   2.013   2.243   8.825  0.2223  0.1774  0.0245
 3861SOL    HW123042   1.988   2.150   8.826  2.4558 -0.4059  1.6675
 3861SOL    HW223043   1.933   2.289   8.798  1.3421  1.8124 -0.4825
 3862SOL     OW23044   2.094   3.244  10.640 -0.2490  0.2739  0.1417
 3862SOL    HW123045   2.116   3.252  10.733  3.2349 -1.6878 -0.5474
 3862SOL    HW223046   2.074   3.336  10.619  1.4796  0.2766 -1.4937
 3863SOL     OW23047   1.662   2.900  15.999  0.0783 -0.3513 -0.1433
 3863SOL    HW123048   1.700   2.813  15.989 -2.1758 -1.3532  0.0929
 3863SOL    HW223049   1.577   2.882  15.960  0.7339 -0.3852 -1.5570
 3864SOL     OW23050   1.390   0.471   8.987  0.0048  0.5237  0.0648
 3864SOL    HW123051   1.344   0.543   9.030  1.2947  0.4689  1.5342
 3864SOL    HW223052   1.316   0.411   8.973  0.1898  0.1611  0.6327
 3865SOL     OW23053   2.444   2.879   7.799 -0.0583  0.2424 -0.4717
 3865SOL    HW123054   2.391   2.921   7.731 -1.7707 -1.3829 -0.1403
 3865SOL    HW223055   2.518   2.940   7.794  1.8386 -1.9121  1.5159
 3866SOL     OW23056   4.374   0.327   8.377 -0.1941 -0.1141 -0.1665
 3866SOL    HW123057   4.436   0.332   8.304  0.6373 -1.9093  0.4136
 3866SOL    HW223058   4.419   0.258   8.426  0.7363  0.1439 -0.6533
 3867SOL     OW23059   2.804   1.224   6.397  0.5202  0.4442 -0.3866
 3867SOL    HW123060   2.711   1.238   6.413  0.5364  0.3895 -0.2465
 3867SOL    HW223061   2.840   1.242   6.484  0.5579 -0.2834 -0.2527
 3868SOL     OW23062   1.647   2.532  10.803  0.0736 -0.0889  0.2240
 3868SOL    HW123063   1.725   2.575  10.768  1.5079 -1.4699  1.7438
 3868SOL    HW223064   1.611   2.503  10.719 -0.5427 -0.5314  0.6402
 3869SOL     OW23065   4.033   1.517   4.336  0.0612 -0.3796  0.6000
 3869SOL    HW123066   4.028   1.551   4.425  0.7659  0.7693  0.2055
 3869SOL    HW223067   4.115   1.555   4.304 -1.2600  1.4146 -0.6609
 3870SOL     OW23068   3.725   0.924   8.324  0.1975  0.4742 -0.0870
 3870SOL    HW123069   3.661   0.993   8.305 -1.0583 -0.8989 -0.8249
 3870SOL    HW223070   3.760   0.950   8.409  0.5986  0.4845 -0.2587
 3871SOL     OW23071   3.606   4.532   8.824 -0.4264  0.3414  0.1300
 3871SOL    HW123072   3.686   4.573   8.792 -0.4219  1.2960  1.3681
 3871SOL    HW223073   3.649   4.466   8.879  2.3822  2.4927  0.5118
 3872SOL     OW23074   0.804   1.819   4.841  0.0779 -0.3142  0.4364
 3872SOL    HW123075   0.873   1.883   4.856 -0.2338 -0.0234  0.6250
 3872SOL    HW223076   0.788   1.827   4.747 -1.2486  2.0572  0.8749
 3873SOL     OW23077   1.776   4.400   4.247  0.1545 -0.0058 -0.6878
 3873SOL    HW123078   1.809   4.490   4.251  1.3269 -0.3921 -1.6472
 3873SOL    HW223079   1.686   4.412   4.217 -0.0493 -3.0445 -1.2740
 3874SOL     OW23080   0.468   1.114   2.108 -0.4142 -0.1190 -0.9881
 3874SOL    HW123081   0.553   1.095   2.068 -0.1582 -2.2047  0.5297
 3874SOL    HW223082   0.480   1.081   2.197 -1.5169  1.0471 -0.4096
 3875SOL     OW23083   0.532   2.010   2.308 -0.5465 -0.0461  0.2318
 3875SOL    HW123084   0.605   1.957   2.277 -0.5657 -0.9261  1.6689
 3875SOL    HW223085   0.562   2.083   2.362 -0.4421 -0.6000  0.9216
 3876SOL     OW23086   0.642   0.428   6.584  0.3399 -0.1006  0.5334
 3876SOL    HW123087   0.565   0.372   6.585  1.0410 -1.0540  0.8755
 3876SOL    HW223088   0.675   0.410   6.496 -1.6865 -1.0149 -0.0358
 3877SOL     OW23089   0.170   2.192   1.680 -0.1935  0.0218  0.5644
 3877SOL    HW123090   0.235   2.231   1.621 -1.3482  2.6455  1.0369
 3877SOL    HW223091   0.203   2.102   1.680 -0.4998 -0.0863  3.6298
 3878SOL     OW23092   4.687   3.709   3.433  0.0894 -0.2871  0.1019
 3878SOL    HW123093   4.698   3.617   3.410  1.0254 -0.0013 -0.6094
 3878SOL    HW223094   4.700   3.689   3.526  0.4661  0.8924  0.2998
 3879SOL     OW23095   0.018   3.730   6.730 -0.6171  0.1659 -1.0218
 3879SOL    HW123096   0.068   3.777   6.797 -0.2247 -1.7912  0.0595
 3879SOL    HW223097   0.072   3.651   6.725  0.4259  0.7439  1.1862
 3880SOL     OW23098   3.231   2.580  16.387  0.8654 -0.1414 -0.3928
 3880SOL    HW123099   3.274   2.664  16.376  0.4469  0.2463  0.9171
 3880SOL    HW223100   3.246   2.540  16.301  0.6585  0.8111 -0.8636
 3881SOL     OW23101   4.272   1.625  17.437  1.2053  0.0865 -0.3374
 3881SOL    HW123102   4.185   1.638  17.474  0.4244 -2.3224 -1.3037
 3881SOL    HW223103   4.315   1.615  17.522 -1.2045  0.7540  0.9427
 3882SOL     OW23104   1.005   3.490  17.465 -0.0948 -0.2137 -0.9327
 3882SOL    HW123105   1.048   3.472  17.381 -0.8888 -3.2458 -0.7074
 3882SOL    HW223106   1.041   3.577  17.483 -0.3896 -0.0826 -0.9812
 3883SOL     OW23107   2.466   3.189  13.646 -0.1987  1.2628 -0.2597
 3883SOL    HW123108   2.467   3.163  13.738 -1.4217 -0.4032 -0.7248
 3883SOL    HW223109   2.519   3.269  13.649 -0.2018  1.3023 -1.6369
 3884SOL     OW23110   1.759   2.868   5.665  0.2780  0.2403 -0.4588
 3884SOL    HW123111   1.741   2.808   5.737  1.4040 -0.7222 -0.9884
 3884SOL    HW223112   1.671   2.907   5.667 -0.3071 -1.1426  1.7802
 3885SOL     OW23113   2.151   3.301   4.134 -0.7535  0.4195  0.6372
 3885SOL    HW123114   2.193   3.358   4.198  1.2929  0.5630 -0.8566
 3885SOL    HW223115   2.060   3.297   4.163 -0.2772  3.1966  2.4600
 3886SOL     OW23116   4.324   4.373   9.220  0.2679 -0.5349  0.2634
 3886SOL    HW123117   4.253   4.383   9.283  0.2564  0.3601  0.1175
 3886SOL    HW223118   4.341   4.466   9.206 -2.7728 -0.0910 -0.4379
 3887SOL     OW23119   3.368   1.610  16.235  0.2628 -0.0243 -0.1743
 3887SOL    HW123120   3.348   1.521  16.263  0.2594  0.1131  0.2522
 3887SOL    HW223121   3.367   1.594  16.140 -1.5149 -1.7489  0.1237
 3888SOL     OW23122   1.943   0.685   8.051 -0.1396 -0.4517 -0.2456
 3888SOL    HW123123   1.926   0.653   7.962 -0.5547  0.5525 -0.5162
 3888SOL    HW223124   1.945   0.604   8.103  2.3218  0.2125  0.7124
 3889SOL     OW23125   3.910   0.028   9.787  0.1800 -0.5329  0.1157
 3889SOL    HW123126   3.920   0.064   9.698  0.5801 -2.2058 -0.5112
 3889SOL    HW223127   3.986   0.066   9.830  0.6642 -1.4547  0.0599
 3890SOL     OW23128   3.163   0.699   3.933 -0.4563 -0.3313 -0.3317
 3890SOL    HW123129   3.151   0.779   3.882  0.4760  0.4129  0.6181
 3890SOL    HW223130   3.087   0.653   3.896 -0.5055 -1.8623  1.6600
 3891SOL     OW23131   1.378   3.385  12.175  0.0390 -0.2144  0.3818
 3891SOL    HW123132   1.433   3.370  12.252 -0.6391 -0.3331  0.8421
 3891SOL    HW223133   1.383   3.480  12.166  1.2257 -0.4796 -1.6967
 3892SOL     OW23134   3.771   0.320   7.209  0.2620 -0.3561  0.0467
 3892SOL    HW123135   3.813   0.366   7.282  0.2589 -1.9582  1.0594
 3892SOL    HW223136   3.694   0.377   7.203 -0.1775 -0.9552  0.0264
 3893SOL     OW23137   0.226   0.904   6.802  0.0519 -0.0445 -0.4730
 3893SOL    HW123138   0.140   0.908   6.844  0.2293  0.2941 -0.1417
 3893SOL    HW223139   0.191   0.875   6.718  0.0117  2.5066 -1.3387
 3894SOL     OW23140   3.049   3.688   2.404 -0.8200 -0.5770  0.3560
 3894SOL    HW123141   3.141   3.663   2.413 -0.9135 -1.0647 -0.0198
 3894SOL    HW223142   3.013   3.599   2.401 -1.2570 -0.3365 -1.2864
 3895SOL     OW23143   2.456   2.729   2.730 -0.3181  0.2500 -0.0980
 3895SOL    HW123144   2.423   2.644   2.701  2.3336 -0.9991  0.6002
 3895SOL    HW223145   2.502   2.751   2.649 -1.2511 -0.0733 -0.7208
 3896SOL     OW23146   3.800   2.255   6.968 -0.0173 -0.2195 -0.1169
 3896SOL    HW123147   3.881   2.203   6.977 -0.1547 -0.2781  0.8144
 3896SOL    HW223148   3.825   2.310   6.894  1.2936  0.5946  0.9362
 3897SOL     OW23149   2.492   0.261   0.779  0.0364 -0.1101  0.8500
 3897SOL    HW123150   2.571   0.227   0.739 -0.5372 -1.6484  1.0406
 3897SOL    HW223151   2.505   0.220   0.864  4.4260 -1.2266 -0.3779
 3898SOL     OW23152   3.417   1.687   2.919 -0.0926  0.8802 -0.4899
 3898SOL    HW123153   3.463   1.676   2.835  0.2844  0.3356 -0.2132
 3898SOL    HW223154   3.324   1.690   2.896 -0.2509  1.1034  0.1755
 3899SOL     OW23155   2.638   0.694  11.946 -0.0151 -0.3165 -0.2998
 3899SOL    HW123156   2.606   0.723  12.031  1.3110  0.1443  0.0446
 3899SOL    HW223157   2.585   0.616  11.930 -0.4672 -0.6413  2.7749
 3900SOL     OW23158   4.038   4.080   5.026  0.6102 -0.0214  0.6331
 3900SOL    HW123159   3.957   4.129   5.008  0.8089  0.5178  1.1817
 3900SOL    HW223160   4.002   4.005   5.073  0.9266 -0.1291  0.7003
 3901SOL     OW23161   4.173   1.226   6.078  0.5277  0.0171  0.6111
 3901SOL    HW123162   4.203   1.278   6.153  2.6035 -2.4474  1.4859
 3901SOL    HW223163   4.165   1.293   6.010  0.1744  0.4273  1.0556
 3902SOL     OW23164   3.846   1.168   7.692  0.1103  0.2533 -0.1907
 3902SOL    HW123165   3.929   1.176   7.739  0.0805  2.8900 -0.5943
 3902SOL    HW223166   3.873   1.136   7.606 -1.4266  1.1436 -1.0018
 3903SOL     OW23167   0.179   0.369   6.476  0.2035  0.3948 -0.8592
 3903SOL    HW123168   0.191   0.377   6.571 -2.6292  1.3911 -0.5813
 3903SOL    HW223169   0.094   0.413   6.463 -0.0342  0.5248  1.0769
 3904SOL     OW23170   3.565   0.247   6.342  0.9384  0.3046  0.5132
 3904SOL    HW123171   3.647   0.230   6.297  0.2195  0.9498 -1.0554
 3904SOL    HW223172   3.572   0.185   6.415 -0.5840  1.1813  1.4250
 3905SOL     OW23173   3.214   4.607  13.232  0.3747  0.1444 -0.0153
 3905SOL    HW123174   3.282   4.632  13.295  0.9858 -1.0622 -0.1946
 3905SOL    HW223175   3.141   4.667  13.246 -1.1193 -1.6428 -0.1587
 3906SOL     OW23176   4.061   1.684  11.686 -0.1424  0.3075  0.3292
 3906SOL    HW123177   4.115   1.624  11.738  0.3469  0.5135  0.0599
 3906SOL    HW223178   3.986   1.696  11.744  0.5963 -1.6978  1.7142
 3907SOL     OW23179   3.318   1.735   8.345  0.2221  0.2451 -0.3183
 3907SOL    HW123180   3.332   1.724   8.251 -2.1644  0.8686 -0.7493
 3907SOL    HW223181   3.407   1.714   8.372 -0.1035 -1.7835 -0.7919
 3908SOL     OW23182   1.963   3.569   5.976 -0.3325 -0.4905 -0.6275
 3908SOL    HW123183   1.981   3.552   5.884 -2.4713 -0.9174 -0.9612
 3908SOL    HW223184   1.870   3.545   5.978  0.0464 -1.7962  1.9378
 3909SOL     OW23185   4.584   0.134   5.375  0.0857  0.1177  0.8266
 3909SOL    HW123186   4.647   0.126   5.304 -1.2373  1.8578 -0.5506
 3909SOL    HW223187   4.641   0.114   5.448  0.1361 -0.4344  0.6353
 3910SOL     OW23188   0.025   4.345   1.496 -0.1022  0.4938  0.0187
 3910SOL    HW123189   0.012   4.355   1.590 -1.6036  1.7394 -0.3312
 3910SOL    HW223190   0.046   4.252   1.500  1.0322  0.7853  0.9095
 3911SOL     OW23191   3.221   3.095   3.127  0.1734 -0.3340 -0.3395
 3911SOL    HW123192   3.264   3.159   3.184  0.9556 -0.8874 -0.3181
 3911SOL    HW223193   3.137   3.084   3.172 -0.7694  2.5892 -1.3533
 3912SOL     OW23194   2.295   2.385   2.899 -0.1147  0.0573 -0.3535
 3912SOL    HW123195   2.293   2.352   2.809  1.1497 -2.1387  0.4150
 3912SOL    HW223196   2.388   2.394   2.918  0.4478 -2.0623 -2.1236
 3913SOL     OW23197   2.169   0.946  10.196  0.0184 -0.4753  0.7825
 3913SOL    HW123198   2.076   0.936  10.217 -0.8065  0.6449 -2.3754
 3913SOL    HW223199   2.176   0.934  10.101  0.5575 -3.4281  1.1768
 3914SOL     OW23200   2.493   2.243  10.395 -0.3551  0.1794 -0.3350
 3914SOL    HW123201   2.562   2.219  10.456 -1.7747  0.9841  1.5897
 3914SOL    HW223202   2.487   2.334  10.424  2.9780  0.4911 -0.6422
 3915SOL     OW23203   1.324   3.976  11.219  0.0009 -0.0075 -0.0391
 3915SOL    HW123204   1.277   4.032  11.158  1.3811  0.7325 -0.4232
 3915SOL    HW223205   1.297   4.024  11.298 -1.6603 -1.3124  0.1867
 3916SOL     OW23206   1.212   0.971   2.245 -0.3398 -0.1982  0.4235
 3916SOL    HW123207   1.304   0.948   2.253 -0.5387 -0.6774  1.3334
 3916SOL    HW223208   1.178   0.885   2.220 -4.3664  1.5050 -0.0176
 3917SOL     OW23209   2.559   3.929   5.296 -0.0859  0.1282 -0.4759
 3917SOL    HW123210   2.612   3.858   5.259 -0.5705 -1.3391  1.6284
 3917SOL    HW223211   2.513   3.882   5.366  2.0405 -1.6071 -0.2133
 3918SOL     OW23212   2.471   3.362  10.694  0.1424  0.2543 -0.1190
 3918SOL    HW123213   2.553   3.313  10.683 -1.4935 -2.6237  0.5778
 3918SOL    HW223214   2.425   3.313  10.762 -0.7335  1.5740  0.2294
 3919SOL     OW23215   2.249   1.822  11.890  0.5096  0.2605 -0.1478
 3919SOL    HW123216   2.251   1.762  11.816  1.5125 -1.6240  1.3843
 3919SOL    HW223217   2.337   1.860  11.883  0.1315  1.2200  0.3418
 3920SOL     OW23218   4.507   3.019   1.991 -0.3501  0.1340  0.4430
 3920SOL    HW123219   4.453   2.944   1.966 -1.6308  0.7945  1.2546
 3920SOL    HW223220   4.596   3.004   1.959 -0.8365 -2.5946  0.3603
 3921SOL     OW23221   4.217   0.499   3.309 -0.2993 -0.0068 -0.5341
 3921SOL    HW123222   4.252   0.549   3.383  0.1604 -0.8063 -0.2097
 3921SOL    HW223223   4.299   0.496   3.260 -0.8002 -0.6029 -1.3206
 3922SOL     OW23224   2.543   1.759   3.541  0.7416 -0.4195 -0.4837
 3922SOL    HW123225   2.580   1.670   3.544  0.3014 -0.5800  0.0523
 3922SOL    HW223226   2.512   1.770   3.631 -2.4468 -1.0903 -1.5081
 3923SOL     OW23227   2.368   4.605   3.583 -0.0389 -0.0292 -0.1723
 3923SOL    HW123228   2.439   4.594   3.519  0.3045  0.9963  0.0211
 3923SOL    HW223229   2.310   4.536   3.552  0.0742  1.0560 -2.8625
 3924SOL     OW23230   0.007   2.234  11.223  0.3604  0.3090 -0.0486
 3924SOL    HW123231   4.634   2.231  11.198  0.0712 -0.8724  1.1677
 3924SOL    HW223232   0.041   2.171  11.160  1.5717  1.4271 -0.5170
 3925SOL     OW23233   1.608   2.952   7.196  0.1349 -0.4204 -0.1134
 3925SOL    HW123234   1.519   2.985   7.180  1.0997  2.7787  0.9636
 3925SOL    HW223235   1.610   2.940   7.291  0.5108  0.2186 -0.0355
 3926SOL     OW23236   3.567   4.606   3.532 -0.3591 -0.1202  0.0847
 3926SOL    HW123237   3.491   4.608   3.474  0.8732 -0.7107 -1.5325
 3926SOL    HW223238   3.631   4.659   3.485 -1.1172  1.5639  0.9442
 3927SOL     OW23239   0.751   4.236   8.128 -0.4907  0.5355 -0.3393
 3927SOL    HW123240   0.742   4.215   8.221 -0.1108 -0.6618 -0.5750
 3927SOL    HW223241   0.842   4.214   8.110 -0.2673  1.0141  0.2006
 3928SOL     OW23242   0.905   0.432   7.517 -0.2805 -0.2213 -0.2571
 3928SOL    HW123243   0.905   0.342   7.549  0.8353  0.0723  0.5669
 3928SOL    HW223244   0.995   0.454   7.540 -1.0104  1.9601  0.5661
 3929SOL     OW23245   3.445   1.711   0.405  0.5846 -0.0468 -0.0497
 3929SOL    HW123246   3.504   1.762   0.460  0.2903  0.7665 -0.4923
 3929SOL    HW223247   3.396   1.771   0.348 -3.4609 -1.9160  1.4814
 3930SOL     OW23248   3.173   0.198   7.321 -0.3360 -0.0885 -0.3899
 3930SOL    HW123249   3.245   0.141   7.295  0.3690 -0.4895  2.3623
 3930SOL    HW223250   3.227   0.277   7.311  0.9186 -1.0711 -1.2928
 3931SOL     OW23251   1.553   0.691   5.303 -0.2320 -0.8021 -0.4779
 3931SOL    HW123252   1.481   0.629   5.295  0.3079 -1.3117 -1.3909
 3931SOL    HW223253   1.517   0.765   5.255  0.4245  0.0293  0.3063
 3932SOL     OW23254   2.111   1.394  15.609 -0.2381  0.1879 -0.1775
 3932SOL    HW123255   2.121   1.301  15.589  1.9725  0.2812  0.5659
 3932SOL    HW223256   2.201   1.426  15.613 -0.4275  0.7403 -0.2780
 3933SOL     OW23257   0.629   2.533   3.400 -0.2403 -0.8289  0.1531
 3933SOL    HW123258   0.665   2.535   3.489 -0.2236 -2.8353  0.1971
 3933SOL    HW223259   0.659   2.448   3.368  0.1228 -1.2155  1.5132
 3934SOL     OW23260   3.271   4.640   4.422  0.0674 -0.5637  0.2172
 3934SOL    HW123261   3.249   0.000   4.373 -0.6361 -1.0410 -0.2458
 3934SOL    HW223262   3.365   4.635   4.404  0.0772  0.8859 -0.1765
 3935SOL     OW23263   0.572   2.207   4.741 -0.1857  0.3933  0.5061
 3935SOL    HW123264   0.508   2.179   4.676  2.8244  0.5581 -2.4754
 3935SOL    HW223265   0.544   2.298   4.745  2.1820  1.1450 -0.1756
 3936SOL     OW23266   2.520   1.353   4.903  0.2636 -0.4500 -0.1881
 3936SOL    HW123267   2.566   1.310   4.975 -0.7995 -1.0547  0.1393
 3936SOL    HW223268   2.580   1.353   4.829 -0.1549  2.2346 -0.5031
 3937SOL     OW23269   2.899   4.488   3.374  0.0030 -0.0407 -0.0932
 3937SOL    HW123270   2.939   4.412   3.415  0.0477 -0.5291 -1.0405
 3937SOL    HW223271   2.976   4.529   3.333  0.4295  0.4660  1.1943
 3938SOL     OW23272   1.631   1.349   6.043  0.6866  0.3324  0.1321
 3938SOL    HW123273   1.589   1.412   6.101  0.2506  0.1784 -0.0092
 3938SOL    HW223274   1.590   1.264   6.057 -1.6077  1.5012  0.6127
 3939SOL     OW23275   1.092   1.353   1.084 -0.0211  0.2857  0.2183
 3939SOL    HW123276   1.023   1.294   1.115  0.3874 -0.6632 -0.6701
 3939SOL    HW223277   1.161   1.314   1.137  0.3361  1.0054  0.2769
 3940SOL     OW23278   4.093   3.986   8.438 -0.3292  0.0478 -0.5935
 3940SOL    HW123279   4.125   4.075   8.430  0.1804 -0.2495 -1.8538
 3940SOL    HW223280   4.152   3.961   8.509 -1.3994  1.1376  0.6796
 3941SOL     OW23281   1.931   2.969   3.333  0.0538  0.1568 -0.1461
 3941SOL    HW123282   1.940   2.878   3.361  0.0203 -0.2149 -1.3244
 3941SOL    HW223283   1.921   2.955   3.238 -2.0229 -0.2256  0.1287
 3942SOL     OW23284   3.057   2.107   6.154  0.6617  0.2708  0.0361
 3942SOL    HW123285   3.089   2.038   6.096 -1.0246  0.3545 -0.9519
 3942SOL    HW223286   3.101   2.184   6.119  1.4439  0.0903  0.6104
 3943SOL     OW23287   1.848   3.656   6.314 -0.5689 -0.6484 -0.1564
 3943SOL    HW123288   1.820   3.566   6.294 -0.8122 -0.7185  0.4978
 3943SOL    HW223289   1.836   3.656   6.409 -0.4204 -0.5513 -0.1382
 3944SOL     OW23290   1.599   1.527   7.375  0.2556 -0.5920  0.1683
 3944SOL    HW123291   1.576   1.610   7.417  0.5733  0.0159 -0.8539
 3944SOL    HW223292   1.607   1.466   7.449 -1.6835 -1.1142 -0.0650
 3945SOL     OW23293   0.290   0.173   4.688  0.2917 -0.0303  0.5577
 3945SOL    HW123294   0.366   0.230   4.685  0.5227 -0.3120  0.9637
 3945SOL    HW223295   0.236   0.206   4.617  0.7071  1.3394  0.8882
 3946SOL     OW23296   1.813   1.048   6.412  0.2914 -0.4442 -0.0616
 3946SOL    HW123297   1.863   1.033   6.332 -1.0980  0.8034 -1.1856
 3946SOL    HW223298   1.767   1.127   6.381 -1.3020 -0.3930  2.4344
 3947SOL     OW23299   2.194   4.433  13.324  0.6310 -0.1669  0.1999
 3947SOL    HW123300   2.203   4.410  13.416 -0.4494  0.0081  0.3525
 3947SOL    HW223301   2.194   4.524  13.354 -2.0576  0.2703 -1.0729
 3948SOL     OW23302   2.379   0.224  10.618  0.6903 -0.1997  0.4928
 3948SOL    HW123303   2.306   0.207  10.558  0.0277  0.6073  1.0691
 3948SOL    HW223304   2.430   0.143  10.610 -0.5425 -1.0631  1.3161
 3949SOL     OW23305   4.390   2.026   4.048 -0.2597 -0.2208 -0.1765
 3949SOL    HW123306   4.400   1.946   4.099  1.1620 -0.3905 -0.7135
 3949SOL    HW223307   4.380   1.981   3.964  0.5039 -2.4147  0.9310
 3950SOL     OW23308   2.867   3.868   2.893 -0.5352  0.3208 -0.2488
 3950SOL    HW123309   2.831   3.861   2.804  0.1705 -1.9759 -0.3598
 3950SOL    HW223310   2.925   3.792   2.896  1.2137  1.6505 -0.5566
 3951SOL     OW23311   0.070   0.833  13.540 -0.4066  0.3444  0.6673
 3951SOL    HW123312   0.144   0.888  13.566 -0.0632  0.7911 -1.2166
 3951SOL    HW223313   0.115   0.798  13.464 -1.4803 -3.5134  1.7818
 3952SOL     OW23314   3.747   2.681   2.427  0.4422 -0.1485  0.0573
 3952SOL    HW123315   3.777   2.608   2.373 -1.6848 -0.7025 -0.3918
 3952SOL    HW223316   3.787   2.656   2.511 -2.5980 -2.8997  0.6800
 3953SOL     OW23317   1.262   2.040   3.010 -0.3519  0.2238 -0.2175
 3953SOL    HW123318   1.193   1.983   2.975 -0.2787  0.2126 -0.3429
 3953SOL    HW223319   1.339   1.985   2.992 -0.0333  0.3175  0.9007
 3954SOL     OW23320   1.344   4.483   7.624  0.5121  0.2085 -0.0257
 3954SOL    HW123321   1.311   4.472   7.535  0.1775  0.4240  0.0714
 3954SOL    HW223322   1.344   4.396   7.664 -1.8016  0.3700  0.3033
 3955SOL     OW23323   1.793   1.054   4.390 -0.4464  0.7566  0.3519
 3955SOL    HW123324   1.883   1.064   4.423 -0.8076  1.0534  1.2494
 3955SOL    HW223325   1.779   1.144   4.363 -0.4033  0.1766 -1.5818
 3956SOL     OW23326   3.824   1.398   4.737 -0.4247 -0.0229 -0.0765
 3956SOL    HW123327   3.857   1.318   4.778 -0.7205  0.1742  0.5450
 3956SOL    HW223328   3.902   1.452   4.751 -2.6513  2.7000  1.9250
 3957SOL     OW23329   2.283   2.162   7.155  0.1344 -0.4195  0.2903
 3957SOL    HW123330   2.312   2.074   7.129 -1.5174 -1.8300  3.2270
 3957SOL    HW223331   2.281   2.195   7.065  0.7264  1.2772  0.8902
 3958SOL     OW23332   1.951   4.543   3.519 -0.3875 -0.1795 -0.9659
 3958SOL    HW123333   1.946   4.631   3.482  0.0827  0.5709  0.7444
 3958SOL    HW223334   1.894   4.491   3.463  2.6161 -2.6044 -1.7715
 3959SOL     OW23335   3.140   3.058   8.149 -0.6629 -0.0266 -0.4563
 3959SOL    HW123336   3.107   3.033   8.062 -1.8025 -0.4691  0.1058
 3959SOL    HW223337   3.140   3.153   8.137 -0.9898 -0.0577 -0.6981
 3960SOL     OW23338   1.502   3.293   6.687  0.3269  0.6107  0.6603
 3960SOL    HW123339   1.534   3.372   6.731  2.6671  0.0383  0.0117
 3960SOL    HW223340   1.416   3.317   6.652  0.3789 -0.3672 -0.1565
 3961SOL     OW23341   3.915   4.146   2.393 -0.2234  0.8784  0.4304
 3961SOL    HW123342   3.963   4.161   2.311 -2.6762 -2.6382 -1.6131
 3961SOL    HW223343   3.933   4.055   2.416  0.3683  1.2201  1.3220
 3962SOL     OW23344   1.342   2.054   8.951 -0.2710  0.1764 -0.6149
 3962SOL    HW123345   1.283   1.989   8.989  0.0863  0.1520 -0.1109
 3962SOL    HW223346   1.349   2.014   8.864  0.5466 -1.9981  0.4517
 3963SOL     OW23347   0.150   2.865  17.589 -0.1285  0.0332 -0.2364
 3963SOL    HW123348   0.117   2.943  17.633  0.3040  1.6813 -2.8198
 3963SOL    HW223349   0.134   2.878  17.495  1.8108 -0.2428 -0.5970
 3964SOL     OW23350   0.331   1.956   1.688 -0.1130  0.0983  0.1029
 3964SOL    HW123351   0.402   1.992   1.634  0.7220  1.8411  2.3494
 3964SOL    HW223352   0.366   1.870   1.712  1.5696  0.4784 -0.9998
 3965SOL     OW23353   3.134   1.552   9.154 -0.3344 -0.3928  0.1373
 3965SOL    HW123354   3.064   1.551   9.089 -0.4861 -1.3069  0.3177
 3965SOL    HW223355   3.105   1.628   9.204  1.8031 -0.3108  1.2730
 3966SOL     OW23356   3.639   1.376   7.439  0.3464 -0.2418  0.6210
 3966SOL    HW123357   3.623   1.369   7.533  4.4280  1.2895  1.4351
 3966SOL    HW223358   3.621   1.289   7.404 -2.2287  0.9484 -0.9892
 3967SOL     OW23359   1.253   4.366  17.343  0.3721 -0.2099  0.3738
 3967SOL    HW123360   1.205   4.398  17.419 -0.2186 -0.3604  0.0656
 3967SOL    HW223361   1.318   4.301  17.373 -1.6813 -2.6590 -0.5164
 3968SOL     OW23362   4.499   1.231   5.897 -0.0770 -0.1727  0.6956
 3968SOL    HW123363   4.482   1.320   5.929  1.8345  0.7525 -0.8131
 3968SOL    HW223364   4.515   1.255   5.805 -2.4173  1.0782  0.6054
 3969SOL     OW23365   1.925   2.834   8.625  0.9566 -0.3466 -0.2162
 3969SOL    HW123366   1.858   2.775   8.590 -0.9589  2.5500 -1.5125
 3969SOL    HW223367   1.989   2.806   8.560  0.0371  0.8017 -1.6412
 3970SOL     OW23368   3.673   3.535   4.129  0.6929  0.3724  0.5968
 3970SOL    HW123369   3.744   3.482   4.093 -0.9253 -1.0162 -0.5759
 3970SOL    HW223370   3.712   3.580   4.204  1.3219  0.9278 -0.0725
 3971SOL     OW23371   0.158   3.774  15.582  0.6705  0.0151 -0.4422
 3971SOL    HW123372   0.085   3.712  15.581 -0.3538  1.1989  0.4912
 3971SOL    HW223373   0.195   3.782  15.494 -0.1137  0.8441 -0.6928
 3972SOL     OW23374   3.863   3.813   5.089 -0.2276  0.0287 -0.0342
 3972SOL    HW123375   3.795   3.853   5.034 -1.0862 -1.0482  0.2347
 3972SOL    HW223376   3.852   3.720   5.067  2.4036 -0.5694  1.1648
 3973SOL     OW23377   2.446   4.599   6.056 -0.3707 -0.6919  0.2622
 3973SOL    HW123378   2.480   4.570   6.141 -0.0204 -1.1465 -0.0386
 3973SOL    HW223379   2.372   4.540   6.043 -0.1717 -0.6603 -0.9709
 3974SOL     OW23380   1.853   2.445   9.471  0.7408  0.6557  0.7777
 3974SOL    HW123381   1.829   2.353   9.478  0.0968  0.7276 -0.4663
 3974SOL    HW223382   1.770   2.490   9.456 -0.1800 -0.5082  2.4000
 3975SOL     OW23383   4.278   4.625   5.155 -0.3237  0.2800  0.4688
 3975SOL    HW123384   4.193   4.617   5.113  0.4325  0.4916 -1.0863
 3975SOL    HW223385   4.342   4.621   5.084 -2.0353  0.9068 -1.0795
 3976SOL     OW23386   2.365   1.008   2.840  0.2667  0.6130  0.2552
 3976SOL    HW123387   2.395   0.989   2.750  0.0476 -0.8472  0.4921
 3976SOL    HW223388   2.420   0.951   2.895 -0.6671 -0.7488 -0.2168
 3977SOL     OW23389   0.397   0.512   3.612 -0.7539  0.4299  0.2065
 3977SOL    HW123390   0.427   0.598   3.641  1.1561  0.6584 -2.3946
 3977SOL    HW223391   0.306   0.518   3.640 -0.2535  3.3955  1.1709
 3978SOL     OW23392   2.692   4.223   6.827 -0.4827 -0.2896  0.0490
 3978SOL    HW123393   2.681   4.313   6.859  0.1099 -0.1896 -0.0240
 3978SOL    HW223394   2.769   4.204   6.880 -0.7443  0.5329  0.7255
 3979SOL     OW23395   4.559   4.651   4.616 -0.2958 -0.4734 -0.3256
 3979SOL    HW123396   4.501   4.576   4.629  1.3035 -1.7622 -0.5560
 3979SOL    HW223397   4.567   4.688   4.704  2.1623 -0.7133 -0.4403
 3980SOL     OW23398   4.694   1.488   2.189  0.7332 -0.5997 -0.8775
 3980SOL    HW123399   0.012   1.464   2.273 -0.6167 -1.3214 -0.4877
 3980SOL    HW223400   0.055   1.510   2.142 -0.1669  2.8116 -0.8330
 3981SOL     OW23401   1.425   2.403   2.645 -0.0017 -0.1386  0.7732
 3981SOL    HW123402   1.489   2.347   2.689  1.2500 -0.3362 -1.2821
 3981SOL    HW223403   1.345   2.373   2.688 -0.8658  1.6152  0.4046
 3982SOL     OW23404   1.670   3.727  15.138  0.3730  0.4942  0.3955
 3982SOL    HW123405   1.672   3.797  15.074 -0.6601 -0.4844 -0.6945
 3982SOL    HW223406   1.579   3.701  15.149 -0.2857  3.3011  1.4086
 3983SOL     OW23407   3.422   0.560  13.721  0.0406 -0.1842  0.2110
 3983SOL    HW123408   3.405   0.599  13.807 -3.5508 -1.1923 -0.0515
 3983SOL    HW223409   3.337   0.525  13.696 -0.7007  1.6271  0.1391
 3984SOL     OW23410   3.946   2.839   0.895  0.4879 -0.1776  0.3304
 3984SOL    HW123411   3.867   2.879   0.861  2.4632  4.0011  0.6789
 3984SOL    HW223412   3.922   2.798   0.978 -0.2216  0.5742  0.4921
 3985SOL     OW23413   1.718   1.305   4.014 -0.4082  0.2368 -0.2258
 3985SOL    HW123414   1.802   1.262   3.999 -0.2284  1.2209 -2.0626
 3985SOL    HW223415   1.705   1.302   4.108 -1.3773  0.9247 -0.3325
 3986SOL     OW23416   2.456   2.202   7.581 -0.2185  0.0412 -0.2330
 3986SOL    HW123417   2.513   2.255   7.526 -1.8603  1.6917 -0.3210
 3986SOL    HW223418   2.478   2.113   7.553 -0.1408  0.1543 -0.5227
 3987SOL     OW23419   1.066   1.107   1.678  0.5005  0.0008  0.0292
 3987SOL    HW123420   1.006   1.181   1.690  0.4639 -0.2458  1.3392
 3987SOL    HW223421   1.145   1.130   1.728  2.3270 -1.0001 -2.3856
 3988SOL     OW23422   3.063   0.003   0.663  0.6293  0.2589  0.3517
 3988SOL    HW123423   3.116   4.708   0.741  2.7141 -1.2318 -1.3265
 3988SOL    HW223424   2.988   0.056   0.692 -0.1604 -0.5833 -0.1742
 3989SOL     OW23425   1.484   1.437  10.887  0.0354  0.0441 -0.3461
 3989SOL    HW123426   1.555   1.434  10.951  1.3708 -2.8230 -1.9624
 3989SOL    HW223427   1.414   1.415  10.948  1.2303  1.6339  1.6166
 3990SOL     OW23428   4.333   2.718   6.202  0.3590  0.4555 -0.9089
 3990SOL    HW123429   4.364   2.808   6.209 -4.0197  1.8823  0.4039
 3990SOL    HW223430   4.410   2.662   6.197 -0.7989 -1.0945 -1.6650
 3991SOL     OW23431   0.958   2.759   8.548  0.4576  0.2756 -0.3216
 3991SOL    HW123432   0.970   2.842   8.502 -0.7203 -0.2498 -1.6054
 3991SOL    HW223433   0.976   2.782   8.639  3.3553  1.2649 -1.1705
 3992SOL     OW23434   0.793   0.228   5.351 -0.2730  0.3798  0.2905
 3992SOL    HW123435   0.710   0.181   5.356  0.1903 -0.5083 -0.6530
 3992SOL    HW223436   0.804   0.233   5.256 -1.5963  1.9824  0.2177
 3993SOL     OW23437   1.600   3.782   3.681 -0.3161 -0.3518 -0.6469
 3993SOL    HW123438   1.607   3.836   3.760  1.6514 -2.7369  0.8118
 3993SOL    HW223439   1.690   3.796   3.651 -0.8811 -1.6715 -2.9444
 3994SOL     OW23440   3.386   0.560  14.858  0.1671  0.4271  0.4603
 3994SOL    HW123441   3.419   0.499  14.791 -1.7737  1.1502 -1.1323
 3994SOL    HW223442   3.375   0.506  14.936  1.6636  1.0169  1.0841
 3995SOL     OW23443   4.055   4.521  12.971  0.4890 -0.3816 -0.0752
 3995SOL    HW123444   4.047   4.486  12.882 -0.8066 -2.6346  0.9276
 3995SOL    HW223445   4.084   4.440  13.014  1.1899 -0.2416 -0.2866
 3996SOL     OW23446   2.235   3.911   6.058 -0.3149 -0.2450 -0.2016
 3996SOL    HW123447   2.191   3.856   6.123 -0.3805 -0.6197 -0.5649
 3996SOL    HW223448   2.161   3.967   6.036 -0.8967 -0.5609  0.9363
 3997SOL     OW23449   0.356   3.186   6.259  0.3517  0.1645  0.7046
 3997SOL    HW123450   0.440   3.141   6.249 -1.6547 -3.0748 -1.1647
 3997SOL    HW223451   0.349   3.180   6.355  0.7480 -0.0418  0.7215
 3998SOL     OW23452   3.601   2.733  17.289  0.1485 -0.1694 -0.0325
 3998SOL    HW123453   3.561   2.650  17.264 -2.9683  0.9763  1.0929
 3998SOL    HW223454   3.614   2.720  17.383 -0.0698  3.6635  0.5662
 3999SOL     OW23455   0.286   2.372   5.049 -0.0815 -0.2691  0.3090
 3999SOL    HW123456   0.285   2.371   5.145  0.7177 -1.6274  0.3063
 3999SOL    HW223457   0.350   2.438   5.023  0.4577 -0.7610  0.3922
 4000SOL     OW23458   0.523   0.004  13.185 -0.0626  0.4983  0.2310
 4000SOL    HW123459   0.560   0.088  13.158 -0.8904  0.7860 -0.0049
 4000SOL    HW223460   0.598   4.692  13.235  1.0662  1.3205 -0.9296
 4001SOL     OW23461   1.778   2.704   4.316  0.0149  0.4198 -0.2998
 4001SOL    HW123462   1.704   2.648   4.291  0.0508  0.7180 -1.0666
 4001SOL    HW223463   1.733   2.789   4.313 -1.0693 -0.1213  0.5083
 4002SOL     OW23464   4.199   0.216   4.927  0.2644 -0.1235  0.4334
 4002SOL    HW123465   4.114   0.230   4.967  0.4274 -1.3844  1.2243
 4002SOL    HW223466   4.188   0.138   4.872 -0.6632  0.9367 -0.8701
 4003SOL     OW23467   2.789   4.512   6.986  0.2360 -0.1318  0.5285
 4003SOL    HW123468   2.715   4.570   6.966  0.9881  0.7375  0.2791
 4003SOL    HW223469   2.868   4.565   6.979  0.3018 -0.2217  0.5849
 4004SOL     OW23470   1.691   0.373   2.258  0.2822 -0.5635 -0.5165
 4004SOL    HW123471   1.722   0.464   2.257 -4.8505  1.1789 -2.0469
 4004SOL    HW223472   1.775   0.330   2.243  0.7342  0.3908 -0.7419
 4005SOL     OW23473   2.749   2.294   3.516  0.9832 -0.1909  0.0680
 4005SOL    HW123474   2.740   2.379   3.559 -0.4556  0.8220 -2.2436
 4005SOL    HW223475   2.659   2.266   3.500  0.7889 -0.4239  1.5625
 4006SOL     OW23476   2.895   1.061  10.280  0.0991  0.4982  0.2094
 4006SOL    HW123477   2.909   0.991  10.345  0.6159 -0.4386 -0.9025
 4006SOL    HW223478   2.985   1.066  10.247  0.4457  0.4368  1.1420
 4007SOL     OW23479   2.453   0.052  17.094  0.2487  0.2992 -0.3868
 4007SOL    HW123480   2.409   4.687  17.103 -0.7595  1.2000  3.3600
 4007SOL    HW223481   2.417   0.088  17.013 -2.0658 -0.2765  0.3930
 4008SOL     OW23482   0.013   4.432   8.290  0.0331 -0.4826 -0.2532
 4008SOL    HW123483   4.653   4.479   8.265  0.4443  1.2427  1.6074
 4008SOL    HW223484   0.041   4.390   8.209 -1.8298 -0.5994 -0.8381
 4009SOL     OW23485   4.065   3.224   7.582 -0.0883 -0.0328 -0.1333
 4009SOL    HW123486   4.004   3.255   7.515  1.6558 -1.2148 -2.2585
 4009SOL    HW223487   4.057   3.291   7.650  1.4271  0.0518 -0.0400
 4010SOL     OW23488   4.503   3.337   0.898 -0.0506 -0.0575  0.0002
 4010SOL    HW123489   4.557   3.318   0.821 -1.7878 -0.8053 -1.0343
 4010SOL    HW223490   4.458   3.254   0.914 -0.2767  0.0917  0.1357
 4011SOL     OW23491   2.187   3.514  13.408 -0.5604 -0.2811  0.3099
 4011SOL    HW123492   2.133   3.587  13.435 -0.9377 -0.0644 -1.0728
 4011SOL    HW223493   2.151   3.444  13.463  0.8941 -0.4219  1.1169
 4012SOL     OW23494   4.598   3.092  13.562  0.0186  0.1030 -0.4161
 4012SOL    HW123495   4.582   3.174  13.609 -2.5929 -1.8357  2.0059
 4012SOL    HW223496   4.686   3.069  13.592 -0.1290  2.0383  1.4972
 4013SOL     OW23497   4.544   3.873   4.141  0.4301  0.6106 -0.1519
 4013SOL    HW123498   4.627   3.863   4.096 -0.5665 -1.5722 -1.4858
 4013SOL    HW223499   4.483   3.921   4.085  0.4884 -0.8727 -1.4764
 4014SOL     OW23500   0.541   1.713   8.079 -0.3474 -0.3054 -0.0033
 4014SOL    HW123501   0.502   1.626   8.082  0.8696 -0.7864  1.9944
 4014SOL    HW223502   0.492   1.766   8.016  0.7544  1.2160  0.4370
 4015SOL     OW23503   4.680   0.590   1.109  0.1296 -0.2517 -0.0701
 4015SOL    HW123504   4.588   0.565   1.118 -0.0686  0.0808 -1.1483
 4015SOL    HW223505   4.680   0.679   1.143 -1.9264 -0.3717  0.2442
 4016SOL     OW23506   4.210   4.548   2.214  0.1587  0.0482  0.1681
 4016SOL    HW123507   4.204   4.634   2.256  1.0829 -1.2935  3.0551
 4016SOL    HW223508   4.121   4.514   2.222 -0.2935  0.8201 -1.4134
 4017SOL     OW23509   0.126   1.484   5.009 -0.3155  0.0179 -0.7333
 4017SOL    HW123510   0.184   1.458   4.936  0.1145  0.9873 -0.7481
 4017SOL    HW223511   0.057   1.420   4.992  0.0525 -0.9930  1.6566
 4018SOL     OW23512   1.829   1.722   2.810  0.4281 -0.0141 -0.2531
 4018SOL    HW123513   1.857   1.630   2.817  0.5375  0.0210 -0.2232
 4018SOL    HW223514   1.869   1.753   2.729  0.1662  0.6405 -0.1343
 4019SOL     OW23515   2.963   4.402   2.980  0.4200 -0.1342  0.2172
 4019SOL    HW123516   2.996   4.408   2.890  2.6654 -0.3797  1.0175
 4019SOL    HW223517   2.953   4.307   2.988 -0.8786  0.0227  0.5084
 4020SOL     OW23518   1.471   0.244   2.090  0.0398 -0.4941  0.5528
 4020SOL    HW123519   1.559   0.281   2.084 -0.9360  1.3929 -1.8295
 4020SOL    HW223520   1.466   0.187   2.168  1.9388  0.0578  1.0811
 4021SOL     OW23521   3.368   4.171   4.048  0.3519  0.6812 -0.4886
 4021SOL    HW123522   3.289   4.194   3.999  0.2763 -0.9006 -1.1152
 4021SOL    HW223523   3.360   4.076   4.050 -0.0982  0.7478  0.6323
 4022SOL     OW23524   1.339   2.480   7.785  0.0237 -0.3547 -0.0267
 4022SOL    HW123525   1.343   2.538   7.709 -0.4222 -1.0734 -0.5996
 4022SOL    HW223526   1.261   2.506   7.833 -0.1840 -0.5300 -0.2711
 4023SOL     OW23527   3.940   4.698   0.026  0.0592  0.2952 -0.4383
 4023SOL    HW123528   3.958   0.053   0.084 -1.0777  0.6672 -0.5614
 4023SOL    HW223529   3.847   4.712   0.011  0.4596  2.1041 -1.2581
 4024SOL     OW23530   3.681   1.977   0.448 -0.2771 -0.0761 -0.4311
 4024SOL    HW123531   3.733   2.047   0.486 -0.4895 -1.5222  2.5148
 4024SOL    HW223532   3.601   2.028   0.437 -0.2606  0.0558  0.0609
 4025SOL     OW23533   0.964   0.667   2.765  0.1595 -0.1168  0.3167
 4025SOL    HW123534   0.976   0.660   2.671 -0.0052 -1.7475  0.4184
 4025SOL    HW223535   1.008   0.747   2.795 -0.8699  0.4274  0.3969
 4026SOL     OW23536   3.433   4.591   3.869 -0.3748  0.0316  0.5857
 4026SOL    HW123537   3.445   4.497   3.854 -1.7011  0.3105 -2.0381
 4026SOL    HW223538   3.499   4.592   3.939 -0.2496 -1.6345  0.4799
 4027SOL     OW23539   2.663   3.039   7.756  0.5103  0.6378  0.5554
 4027SOL    HW123540   2.683   3.123   7.799 -0.5693  0.4468  1.4329
 4027SOL    HW223541   2.712   3.056   7.676 -1.4362 -1.5402 -1.1050
 4028SOL     OW23542   0.786   2.575   8.422  0.3166 -0.1256 -0.1412
 4028SOL    HW123543   0.834   2.634   8.480 -0.0389 -0.1774  0.2089
 4028SOL    HW223544   0.710   2.633   8.414 -0.0239 -0.6697 -0.9043
 4029SOL     OW23545   1.390   0.037  10.819 -0.2441 -0.3546  0.2468
 4029SOL    HW123546   1.440   0.111  10.853  0.3293 -1.7991  2.5822
 4029SOL    HW223547   1.303   0.071  10.841 -1.7962 -3.4999 -0.9758
 4030SOL     OW23548   1.936   0.907  17.601 -0.2792  0.0926 -0.8140
 4030SOL    HW123549   2.018   0.895  17.552  0.3625 -1.1126  0.5461
 4030SOL    HW223550   1.974   0.934   0.003 -2.6438 -0.3123  0.4132
 4031SOL     OW23551   0.339   3.567   4.065  0.1285  0.0613  0.2438
 4031SOL    HW123552   0.377   3.542   4.149 -0.7952 -1.3273  0.2494
 4031SOL    HW223553   0.377   3.497   4.012  1.1785  0.7716  0.0656
 4032SOL     OW23554   2.454   0.289   3.601 -0.2939  0.1531  0.2119
 4032SOL    HW123555   2.532   0.242   3.572 -2.2209 -2.6439 -0.4367
 4032SOL    HW223556   2.384   0.231   3.571  2.1622 -1.6338 -2.0564
 4033SOL     OW23557   2.449   1.200   6.041  0.3242  0.1867  0.1528
 4033SOL    HW123558   2.510   1.135   6.077  1.2859  1.1295  0.2216
 4033SOL    HW223559   2.387   1.209   6.113 -0.1388 -1.5172 -0.0401
 4034SOL     OW23560   0.061   0.043  13.659  0.4143  0.3410  0.6083
 4034SOL    HW123561   0.145   0.060  13.702  0.2571 -2.4184  2.0036
 4034SOL    HW223562   0.003   0.049  13.735  0.8273  0.6581  0.8984
 4035SOL     OW23563   1.384   0.828  10.906  0.0711 -0.0724 -0.0885
 4035SOL    HW123564   1.373   0.894  10.973  0.4596 -0.3948  0.2895
 4035SOL    HW223565   1.459   0.862  10.858  0.2985  1.7808  1.6202
 4036SOL     OW23566   0.586   3.728  14.974 -0.0120 -0.6096  0.1294
 4036SOL    HW123567   0.613   3.657  14.916  0.7056  0.0320 -0.3166
 4036SOL    HW223568   0.634   3.801  14.934 -0.3846 -1.1340 -1.2484
 4037SOL     OW23569   0.402   0.131   2.804  0.2050 -0.1270  0.3057
 4037SOL    HW123570   0.367   0.220   2.815 -0.3608 -0.2139 -0.8434
 4037SOL    HW223571   0.497   0.137   2.812  0.2097  0.0517  0.1195
 4038SOL     OW23572   2.925   3.353  16.728  0.1003 -0.0214  0.1326
 4038SOL    HW123573   2.877   3.300  16.792  0.8056 -0.5668  0.2153
 4038SOL    HW223574   3.011   3.312  16.737  0.4935  1.3426  2.7302
 4039SOL     OW23575   1.887   4.235   7.328  0.3138  0.1790  0.5292
 4039SOL    HW123576   1.795   4.221   7.308  0.0579 -1.6171  3.0349
 4039SOL    HW223577   1.922   4.276   7.249  0.0094  1.2886  0.9748
 4040SOL     OW23578   3.921   0.522  16.608 -0.5422  0.1920 -0.2728
 4040SOL    HW123579   3.853   0.577  16.570  0.1432 -0.5940 -2.6559
 4040SOL    HW223580   3.932   0.568  16.691 -0.2948 -0.7255  0.1924
 4041SOL     OW23581   4.702   4.351   2.880 -0.1297 -0.1888 -0.1494
 4041SOL    HW123582   0.017   4.434   2.845  0.9400  0.0926  1.5272
 4041SOL    HW223583   4.608   4.366   2.870 -0.1169 -0.6645 -0.9490
 4042SOL     OW23584   2.919   4.037   3.935 -0.7655 -0.0901  0.4397
 4042SOL    HW123585   2.954   3.953   3.903 -0.8002 -0.0088  0.1890
 4042SOL    HW223586   2.996   4.092   3.948 -0.5663 -0.1512 -0.4637
 4043SOL     OW23587   0.556   0.287   4.688 -0.1813 -0.0854 -0.0106
 4043SOL    HW123588   0.636   0.270   4.737  0.1722  0.6720 -0.3224
 4043SOL    HW223589   0.519   0.353   4.747 -1.1233 -1.2817  0.7452
 4044SOL     OW23590   4.260   1.635   8.828 -0.4088  0.0631  0.1519
 4044SOL    HW123591   4.324   1.607   8.893  0.7965  4.7354  0.9680
 4044SOL    HW223592   4.181   1.583   8.847 -0.4336 -0.0516 -0.2641
 4045SOL     OW23593   1.411   1.480   2.138 -0.2587 -0.0845  0.1999
 4045SOL    HW123594   1.396   1.392   2.102 -0.1174 -1.4743  3.5975
 4045SOL    HW223595   1.394   1.528   2.057  0.5896  0.3214  0.2651
 4046SOL     OW23596   4.283   4.554   6.115 -0.0678 -0.3690 -0.2738
 4046SOL    HW123597   4.317   4.571   6.027  1.6827  1.2149  0.6941
 4046SOL    HW223598   4.359   4.530   6.167  1.0153 -1.5092 -2.3810
 4047SOL     OW23599   2.671   2.745   8.755  0.9870  0.2106 -0.2133
 4047SOL    HW123600   2.584   2.785   8.766  0.4356 -0.6850 -1.2899
 4047SOL    HW223601   2.716   2.799   8.691 -0.6398 -0.0319 -1.5495
 4048SOL     OW23602   2.064   0.745   6.576 -0.1791  0.1987 -0.1594
 4048SOL    HW123603   2.101   0.819   6.527  1.2637 -2.0730 -2.5013
 4048SOL    HW223604   2.101   0.758   6.664 -0.4777 -0.2239  0.0305
 4049SOL     OW23605   0.267   0.504   5.589 -0.1722  0.3852 -0.1191
 4049SOL    HW123606   0.332   0.550   5.537 -0.8277  1.0278 -0.3614
 4049SOL    HW223607   0.312   0.423   5.614  1.9942  1.5279 -0.3315
 4050SOL     OW23608   4.578   3.400   6.071 -0.6137 -0.1027  0.7241
 4050SOL    HW123609   4.625   3.363   6.146 -0.1926  2.4060  1.6984
 4050SOL    HW223610   4.651   3.420   6.012  0.9296 -0.8908  2.3480
 4051SOL     OW23611   1.123   0.864   5.507  0.6060 -0.0237 -0.1592
 4051SOL    HW123612   1.214   0.840   5.491  0.7029 -1.2123  2.1347
 4051SOL    HW223613   1.135   0.920   5.584 -0.0141 -1.1040  0.7286
 4052SOL     OW23614   3.380   4.157  13.506  0.3060 -0.2406  0.3616
 4052SOL    HW123615   3.335   4.209  13.439  0.8140  0.4974  0.6012
 4052SOL    HW223616   3.454   4.212  13.531  1.2428 -1.1166 -0.4849
 4053SOL     OW23617   0.312   0.642   3.172  0.1040 -0.7049 -0.1681
 4053SOL    HW123618   0.305   0.550   3.145  2.3427 -0.7854 -0.4268
 4053SOL    HW223619   0.407   0.648   3.178 -0.0368  1.8974 -0.6412
 4054SOL     OW23620   0.208   0.393   4.970  0.3262 -0.4057  0.5191
 4054SOL    HW123621   0.168   0.427   4.890  2.7767 -1.3736 -1.1300
 4054SOL    HW223622   0.125   0.363   5.006  0.3328  0.3080  1.1254
 4055SOL     OW23623   0.517   0.163   2.448 -0.1345  0.0430  0.4163
 4055SOL    HW123624   0.565   0.104   2.506 -0.6165 -0.9124 -0.1639
 4055SOL    HW223625   0.592   0.202   2.402 -0.8203  1.3039  0.3551
 4056SOL     OW23626   0.391   4.333   2.352 -0.1729  0.3484  0.0744
 4056SOL    HW123627   0.306   4.288   2.362  0.5127 -1.6390 -2.8621
 4056SOL    HW223628   0.404   4.369   2.439  1.9604  1.2629 -0.6412
 4057SOL     OW23629   4.289   2.712   7.092  0.1672  0.5211 -0.0208
 4057SOL    HW123630   4.267   2.804   7.110 -0.8146  0.3397 -0.3131
 4057SOL    HW223631   4.383   2.725   7.077  0.8535 -3.1725  1.2062
 4058SOL     OW23632   2.065   3.481  10.522  0.2276 -0.0145 -0.0985
 4058SOL    HW123633   2.013   3.541  10.468  0.5059 -0.3274 -0.7108
 4058SOL    HW223634   2.141   3.535  10.543  0.4204 -1.1803  2.2204
 4059SOL     OW23635   1.257   0.993  13.790 -0.0546 -0.2955  0.5919
 4059SOL    HW123636   1.229   0.958  13.706  1.2823 -2.3696  0.9963
 4059SOL    HW223637   1.343   0.952  13.804 -0.1495 -0.4359  0.7649
 4060SOL     OW23638   4.595   2.820   7.058 -1.2395 -0.1284  0.0980
 4060SOL    HW123639   4.542   2.888   7.017  1.4122  1.7335 -0.2856
 4060SOL    HW223640   4.655   2.806   6.984 -3.2934  1.3540 -1.8431
 4061SOL     OW23641   0.734   2.441   8.949 -0.8671 -0.2163  0.4000
 4061SOL    HW123642   0.640   2.449   8.932 -1.2081 -0.8388  2.0556
 4061SOL    HW223643   0.736   2.452   9.044 -0.9501  0.8961  0.2784
 4062SOL     OW23644   1.072   3.256   3.266 -0.0794  0.1823  0.5165
 4062SOL    HW123645   1.113   3.335   3.229 -2.8284  1.5772  0.4575
 4062SOL    HW223646   1.021   3.291   3.339  0.6689  2.3290  0.0221
 4063SOL     OW23647   4.012   3.412   4.331  0.2928 -0.0445  0.0891
 4063SOL    HW123648   4.099   3.374   4.319  0.2529 -0.3534  0.8105
 4063SOL    HW223649   3.971   3.400   4.246 -0.6910  2.1348  0.2437
 4064SOL     OW23650   0.934   0.249  17.407 -0.4449  0.5556 -0.2543
 4064SOL    HW123651   0.858   0.262  17.350 -0.3888 -1.1822 -0.7268
 4064SOL    HW223652   0.879   0.239  17.485  0.8829 -1.5851  0.3919
 4065SOL     OW23653   0.719   1.578   7.122 -0.3674  0.1428 -0.0037
 4065SOL    HW123654   0.795   1.608   7.172 -1.4324  0.6076  1.3238
 4065SOL    HW223655   0.724   1.635   7.045  0.3164 -0.8387 -0.6904
 4066SOL     OW23656   2.288   2.333  14.023  0.1310  0.0506 -0.7899
 4066SOL    HW123657   2.280   2.245  13.987  0.2589 -0.2542 -0.0621
 4066SOL    HW223658   2.197   2.332  14.051  0.9362 -0.2808  1.8500
 4067SOL     OW23659   0.837   1.992   1.182 -0.1159 -0.1196  0.0863
 4067SOL    HW123660   0.754   1.958   1.149 -0.4323  0.4996  0.2576
 4067SOL    HW223661   0.811   2.032   1.265  0.7424  0.3210  0.1428
 4068SOL     OW23662   1.991   3.638   3.714  0.4810 -0.1396 -0.5053
 4068SOL    HW123663   1.967   3.727   3.687  0.8986  0.7561  2.0217
 4068SOL    HW223664   2.082   3.652   3.740  0.2244  1.3041 -0.3531
 4069SOL     OW23665   4.514   2.272   4.044 -0.0324  0.1824 -1.0045
 4069SOL    HW123666   4.454   2.306   4.110  0.9916 -0.6152  0.3418
 4069SOL    HW223667   4.471   2.190   4.020  1.4448 -0.7275 -0.5495
 4070SOL     OW23668   0.861   3.288   5.950  0.0646  0.1188  0.2355
 4070SOL    HW123669   0.906   3.361   5.908  1.9900 -0.7568  0.7720
 4070SOL    HW223670   0.773   3.325   5.947 -0.8321 -2.0281  0.2627
 4071SOL     OW23671   3.304   1.134  11.187  0.2949  0.2302  0.1902
 4071SOL    HW123672   3.358   1.069  11.143  2.1823  0.6630  1.9009
 4071SOL    HW223673   3.243   1.153  11.115 -1.5349 -1.8082  1.1905
 4072SOL     OW23674   3.641   0.597  16.190 -0.3338 -0.1592 -0.4334
 4072SOL    HW123675   3.713   0.535  16.200  0.3154  0.3240 -2.1501
 4072SOL    HW223676   3.586   0.547  16.130 -1.4570 -1.1459  1.4036
 4073SOL     OW23677   3.883   3.043  12.567  0.0474  0.1190  0.3026
 4073SOL    HW123678   3.800   3.006  12.537 -0.3739  0.4477  1.0644
 4073SOL    HW223679   3.919   2.955  12.577 -2.2678 -0.9669 -0.9408
 4074SOL     OW23680   4.256   4.365   7.495  0.6487 -0.2383  0.0811
 4074SOL    HW123681   4.177   4.319   7.466  0.5834 -2.0979  3.1589
 4074SOL    HW223682   4.230   4.449   7.531  0.1980 -0.0549 -0.6863
 4075SOL     OW23683   2.101   3.709   4.703 -0.6264  0.1160 -0.1253
 4075SOL    HW123684   2.123   3.616   4.693 -1.2290 -0.1586  1.1369
 4075SOL    HW223685   2.013   3.698   4.737  0.1302 -1.5305  1.3019
 4076SOL     OW23686   3.713   2.568   6.261  0.3041  0.5694 -0.5914
 4076SOL    HW123687   3.618   2.566   6.257  0.3688  0.6748 -2.2304
 4076SOL    HW223688   3.736   2.589   6.170  2.4395  0.3074 -0.1175
 4077SOL     OW23689   0.373   0.978  11.634  0.3449  0.1895 -0.2710
 4077SOL    HW123690   0.340   0.899  11.675  5.6153 -0.9284  1.7360
 4077SOL    HW223691   0.460   0.976  11.671  0.3115  0.3904 -0.1793
 4078SOL     OW23692   4.432   1.104   4.239  0.0711  0.1631 -0.3870
 4078SOL    HW123693   4.504   1.069   4.186  0.5278  0.2835  0.1630
 4078SOL    HW223694   4.443   1.056   4.321  2.8042 -0.0367 -0.8800
 4079SOL     OW23695   2.442   3.673   5.184  0.2812  0.2811  0.4591
 4079SOL    HW123696   2.532   3.670   5.152 -0.0030 -0.4514 -0.2537
 4079SOL    HW223697   2.394   3.619   5.122  0.2320  2.2668 -1.2447
 4080SOL     OW23698   0.764   4.307  14.746  0.1839 -0.4614  0.6189
 4080SOL    HW123699   0.759   4.274  14.656 -0.3746  0.1187  0.4283
 4080SOL    HW223700   0.688   4.274  14.793 -1.3116  1.4193 -0.4486
 4081SOL     OW23701   0.668   1.997  17.268 -0.1432  0.0385 -0.3502
 4081SOL    HW123702   0.619   1.977  17.347 -1.4063 -0.2713 -1.2169
 4081SOL    HW223703   0.601   2.012  17.201 -0.9042  0.3743  0.4952
 4082SOL     OW23704   3.864   2.927   2.060 -0.5804  0.8206 -0.7804
 4082SOL    HW123705   3.803   2.919   2.133  0.2272  0.7196 -0.1154
 4082SOL    HW223706   3.805   2.887   1.996  1.9723 -1.6707 -1.5387
 4083SOL     OW23707   0.967   0.545   4.116 -0.7330  0.4042 -0.1577
 4083SOL    HW123708   0.964   0.467   4.172 -0.4453 -0.3514 -1.2027
 4083SOL    HW223709   0.890   0.525   4.062  0.8814 -0.3612 -2.1829
 4084SOL     OW23710   3.572   1.100  13.721 -0.2464 -0.3958 -0.3397
 4084SOL    HW123711   3.500   1.038  13.729  0.6915 -1.3902  0.4331
 4084SOL    HW223712   3.554   1.153  13.799 -1.2692 -0.5222 -0.4856
 4085SOL     OW23713   3.765   0.817   2.955 -0.4439  0.0793  0.1095
 4085SOL    HW123714   3.765   0.903   2.913 -0.8498 -0.7761 -1.6313
 4085SOL    HW223715   3.860   0.811   2.942 -0.3092  3.6848 -0.5772
 4086SOL     OW23716   3.818   4.308   9.331 -0.4041  0.3113  0.2547
 4086SOL    HW123717   3.817   4.212   9.334 -0.0734  0.3291  0.9038
 4086SOL    HW223718   3.729   4.332   9.354 -0.2140  2.3265 -1.0727
 4087SOL     OW23719   2.995   3.188  10.236  0.2282  0.0440  0.3871
 4087SOL    HW123720   2.929   3.248  10.202  0.0953 -0.1263  0.3484
 4087SOL    HW223721   3.077   3.214  10.193  0.3878  0.1596  0.7565
 4088SOL     OW23722   0.114   3.438   1.235 -0.2996 -0.2548  0.1733
 4088SOL    HW123723   0.070   3.372   1.181 -0.6191  1.5460 -1.7660
 4088SOL    HW223724   0.105   3.518   1.183 -1.0209 -1.0596 -0.9368
 4089SOL     OW23725   2.308   2.720  10.480 -0.0558 -0.2197 -0.0187
 4089SOL    HW123726   2.282   2.712  10.389 -0.3778 -1.2787  0.1642
 4089SOL    HW223727   2.265   2.802  10.504  1.2858  0.1730  1.0334
 4090SOL     OW23728   1.993   3.419   6.505  0.0114  0.2084  0.0547
 4090SOL    HW123729   1.904   3.420   6.539  0.3033 -0.6389  0.8314
 4090SOL    HW223730   2.024   3.493   6.557  0.4829  0.3186 -0.3753
 4091SOL     OW23731   2.410   4.071   6.221  0.4894  0.0349 -0.1991
 4091SOL    HW123732   2.361   4.047   6.300 -0.6227  1.1269 -0.5523
 4091SOL    HW223733   2.363   4.032   6.148  0.0428  0.4216 -0.1152
 4092SOL     OW23734   3.822   4.285  16.031  0.1193  0.2091 -0.1247
 4092SOL    HW123735   3.876   4.227  16.086 -2.4310 -0.8942  1.1849
 4092SOL    HW223736   3.802   4.341  16.106 -0.9523  0.7163 -0.7874
 4093SOL     OW23737   4.354   1.232  12.628 -0.3165 -0.6286  0.0361
 4093SOL    HW123738   4.433   1.285  12.622 -1.2555  0.5762 -1.7495
 4093SOL    HW223739   4.378   1.162  12.568  0.8862  0.2377 -0.4877
 4094SOL     OW23740   3.177   0.856   9.404 -0.3615  0.2467  0.3786
 4094SOL    HW123741   3.183   0.822   9.494  0.0793  1.4444  0.7989
 4094SOL    HW223742   3.084   0.878   9.404  0.2931  2.9669  0.2546
 4095SOL     OW23743   1.195   0.469   7.571  0.1326 -0.3718  0.1968
 4095SOL    HW123744   1.244   0.422   7.504  0.7903 -0.4677  0.7478
 4095SOL    HW223745   1.225   0.416   7.645  0.6054  0.6449  0.7386
 4096SOL     OW23746   1.445   2.593   4.721  0.3500  0.6485  0.2908
 4096SOL    HW123747   1.384   2.657   4.686 -1.5191  0.3214  2.9473
 4096SOL    HW223748   1.479   2.645   4.793  0.3820 -0.6487  1.2139
 4097SOL     OW23749   1.392   2.717  11.544  0.1605 -0.2569  0.0758
 4097SOL    HW123750   1.438   2.785  11.494  0.9053 -0.7377  0.1055
 4097SOL    HW223751   1.312   2.719  11.491  0.6089 -0.3446 -0.6049
 4098SOL     OW23752   1.350   4.045  12.585  0.6080  0.0214 -0.4977
 4098SOL    HW123753   1.255   4.034  12.597  0.7361  0.2335  0.7364
 4098SOL    HW223754   1.357   4.092  12.502 -0.9845 -0.6676 -1.0270
 4099SOL     OW23755   0.531   0.894   0.773 -0.6591  0.7053  0.9568
 4099SOL    HW123756   0.490   0.970   0.732  0.8410  1.9970  1.8310
 4099SOL    HW223757   0.466   0.825   0.772  1.2823 -1.0673 -4.9663
 4100SOL     OW23758   1.305   0.259   7.693 -0.0880 -0.6132  0.1501
 4100SOL    HW123759   1.396   0.261   7.723 -0.4905 -2.3802  1.5100
 4100SOL    HW223760   1.331   0.237   7.603  0.1695  0.1681  0.0365
 4101SOL     OW23761   2.520   4.186   3.113  0.4053  0.0266 -0.5018
 4101SOL    HW123762   2.601   4.209   3.158  0.6882  0.0121 -1.0022
 4101SOL    HW223763   2.504   4.263   3.058  3.3905  0.6904 -0.4168
 4102SOL     OW23764   0.971   1.715   3.254  0.3883 -0.0325 -0.2654
 4102SOL    HW123765   0.966   1.806   3.225 -0.4821 -0.0447 -0.1591
 4102SOL    HW223766   1.052   1.719   3.304 -0.3174  3.8139  0.5660
 4103SOL     OW23767   3.441   3.739   7.008  0.7636  0.6616  0.1376
 4103SOL    HW123768   3.516   3.773   7.057 -0.0977  1.7288  0.7238
 4103SOL    HW223769   3.393   3.720   7.089  0.0380  1.0528 -0.2019
 4104SOL     OW23770   3.482   2.173   1.598  0.1359 -0.3606 -0.4263
 4104SOL    HW123771   3.506   2.120   1.522 -0.3716  0.6782 -1.3126
 4104SOL    HW223772   3.429   2.107   1.642  1.9066  0.0939  2.3336
 4105SOL     OW23773   4.270   3.156  13.681 -0.0061 -0.2124  0.1883
 4105SOL    HW123774   4.227   3.188  13.760 -3.6782 -1.7383 -1.1857
 4105SOL    HW223775   4.356   3.197  13.687  0.2976 -0.3088 -3.4281
 4106SOL     OW23776   1.603   2.586  10.227 -0.3107 -0.1100  0.0060
 4106SOL    HW123777   1.567   2.584  10.138 -1.0620  2.0507  0.2579
 4106SOL    HW223778   1.666   2.514  10.228  0.4343  0.5446  0.4011
 4107SOL     OW23779   4.435   3.213   7.171 -0.0372  0.6828  0.6609
 4107SOL    HW123780   4.446   3.229   7.077  0.0706 -0.3129  0.5049
 4107SOL    HW223781   4.372   3.282   7.188 -1.0007  0.0106 -0.2383
 4108SOL     OW23782   2.966   3.822   8.828  0.0274  0.5006  0.4050
 4108SOL    HW123783   3.055   3.826   8.793 -0.6607 -3.2276 -1.7976
 4108SOL    HW223784   2.908   3.799   8.755  2.1818 -3.1918 -0.1459
 4109SOL     OW23785   3.614   3.513   4.801  0.6704 -0.1212 -0.3357
 4109SOL    HW123786   3.651   3.525   4.889 -0.9899  0.6541  0.2620
 4109SOL    HW223787   3.593   3.602   4.775 -0.7316 -0.0821  0.9435
 4110SOL     OW23788   3.651   1.828  12.844  0.4832 -0.4384 -0.2177
 4110SOL    HW123789   3.596   1.749  12.840 -0.2570  0.0392  0.4809
 4110SOL    HW223790   3.684   1.817  12.933  0.7134 -0.1208 -0.2643
 4111SOL     OW23791   4.403   3.313   8.340 -0.2003  0.6818  0.1116
 4111SOL    HW123792   4.397   3.404   8.311  0.8385  0.6596 -0.1546
 4111SOL    HW223793   4.327   3.278   8.293  0.5272  0.7556 -1.1117
 4112SOL     OW23794   2.458   4.437   5.539 -0.4978 -0.1819 -0.5969
 4112SOL    HW123795   2.416   4.510   5.495 -0.4134 -0.0574 -0.4706
 4112SOL    HW223796   2.504   4.398   5.464  2.7240 -0.2550  1.4057
 4113SOL     OW23797   1.037   1.209  13.119 -0.3048 -0.2033 -0.3096
 4113SOL    HW123798   0.999   1.186  13.204  1.0535 -1.9320 -0.1759
 4113SOL    HW223799   1.004   1.143  13.058  0.8798 -1.7469  0.7278
 4114SOL     OW23800   3.763   0.255   5.891 -0.6269  0.3710  0.3231
 4114SOL    HW123801   3.688   0.283   5.839 -1.4290 -1.0724  0.7323
 4114SOL    HW223802   3.752   0.162   5.872 -0.7139  0.0229  2.0832
 4115SOL     OW23803   1.096   0.487   5.924 -0.3302  0.4407 -0.1976
 4115SOL    HW123804   1.050   0.535   5.856 -0.3408  1.0440  0.2376
 4115SOL    HW223805   1.179   0.477   5.877 -1.0221 -1.1541 -1.1113
 4116SOL     OW23806   4.552   4.133   3.885 -0.0271 -0.8987  0.1208
 4116SOL    HW123807   4.471   4.118   3.933  0.2421  0.4310  1.0125
 4116SOL    HW223808   4.526   4.195   3.817  1.2481 -2.2382 -1.5708
 4117SOL     OW23809   2.558   3.686   7.476  0.1949 -0.2346 -0.3600
 4117SOL    HW123810   2.546   3.594   7.455  0.0439 -0.4199  0.5167
 4117SOL    HW223811   2.642   3.706   7.434  1.9994  1.4941  3.9635
 4118SOL     OW23812   3.689   4.207   7.553  0.0662  0.2512  0.2850
 4118SOL    HW123813   3.696   4.272   7.623  0.6317  2.0631 -1.4413
 4118SOL    HW223814   3.634   4.257   7.493 -0.4819  0.4117  0.9149
 4119SOL     OW23815   4.441   1.922   4.623 -0.7322  0.2595  0.4224
 4119SOL    HW123816   4.373   1.949   4.684  0.8121 -0.7402  2.5876
 4119SOL    HW223817   4.439   1.829   4.644 -1.7370  0.1554 -0.1618
 4120SOL     OW23818   2.552   1.227   0.187 -0.1768 -0.0086 -0.1622
 4120SOL    HW123819   2.594   1.145   0.211 -0.1970  1.0539  3.5775
 4120SOL    HW223820   2.587   1.285   0.255 -1.2235  1.7701 -1.1497
 4121SOL     OW23821   3.701   2.932   2.652 -0.0324 -0.1574  0.2904
 4121SOL    HW123822   3.670   2.853   2.696  1.9215 -0.4177  1.1857
 4121SOL    HW223823   3.671   2.995   2.717 -0.1297  2.7017 -2.4841
 4122SOL     OW23824   1.501   1.408   7.160 -0.0405 -0.4996 -0.1963
 4122SOL    HW123825   1.423   1.440   7.205 -0.7516 -0.7594 -1.2291
 4122SOL    HW223826   1.564   1.435   7.226  1.1593  1.7764 -2.2669
 4123SOL     OW23827   3.246   0.079   2.218  0.3610 -0.0324  0.3802
 4123SOL    HW123828   3.328   0.063   2.171  0.3397  2.8950 -0.6353
 4123SOL    HW223829   3.262   0.003   2.274 -0.1994  0.6588  1.4729
 4124SOL     OW23830   2.073   1.955  14.955  0.6241 -0.3540 -0.2031
 4124SOL    HW123831   2.099   1.896  14.884 -0.8956 -3.2822  1.6900
 4124SOL    HW223832   2.120   1.912  15.026 -0.5109  2.3574  2.1792
 4125SOL     OW23833   3.157   1.361   7.789 -0.5179 -0.3731  0.0957
 4125SOL    HW123834   3.118   1.416   7.721 -0.4150 -1.5801 -0.9564
 4125SOL    HW223835   3.249   1.375   7.767 -0.6249 -1.0915 -0.8519
 4126SOL     OW23836   1.415   1.690   4.348  0.9102  0.8692 -0.0667
 4126SOL    HW123837   1.387   1.681   4.257 -2.9178  3.1985  0.8786
 4126SOL    HW223838   1.505   1.722   4.341  1.3254 -0.7112 -1.8536
 4127SOL     OW23839   4.026   1.469   1.887  0.1146 -0.0987 -0.1827
 4127SOL    HW123840   4.118   1.450   1.865  0.4240  0.5072  0.6088
 4127SOL    HW223841   3.975   1.407   1.835 -1.5139  0.1431  1.1485
 4128SOL     OW23842   4.057   4.643   4.999  0.1850  0.1307 -0.1998
 4128SOL    HW123843   4.004   4.659   5.078  3.0890 -1.6355  2.1157
 4128SOL    HW223844   3.991   4.596   4.948 -0.1387 -0.2246  0.5370
 4129SOL     OW23845   0.619   0.512  17.582  0.4185 -0.3700  0.2679
 4129SOL    HW123846   0.549   0.575  17.566  0.1485 -1.3565 -2.4555
 4129SOL    HW223847   0.594   0.466  17.662  1.5669  0.1421  0.9268
 4130SOL     OW23848   0.116   4.128   5.559 -0.3021  0.1299 -0.0660
 4130SOL    HW123849   0.144   4.144   5.649  1.9559  0.6094 -0.8431
 4130SOL    HW223850   0.181   4.065   5.529 -1.0530 -0.0984 -1.2083
 4131SOL     OW23851   3.079   3.213   9.493  0.1956 -0.1631  0.2602
 4131SOL    HW123852   3.081   3.232   9.399  0.5559 -0.1739  0.2664
 4131SOL    HW223853   2.992   3.252   9.503  0.4872  0.3012  0.9665
 4132SOL     OW23854   2.934   1.422   0.111 -0.8062  0.4162  0.4197
 4132SOL    HW123855   2.940   1.502   0.163  1.0446  1.1973 -0.9756
 4132SOL    HW223856   3.029   1.423   0.097 -0.7621  0.8484  0.7683
 4133SOL     OW23857   0.597   1.120   8.460 -0.1295 -1.0758 -0.1366
 4133SOL    HW123858   0.605   1.188   8.394  0.0479  0.6351  1.6704
 4133SOL    HW223859   0.510   1.093   8.431 -0.6682 -0.7503  1.2105
 4134SOL     OW23860   0.491   2.800   7.810  0.0037  0.0654 -0.2500
 4134SOL    HW123861   0.442   2.725   7.778  0.7688 -0.3523 -0.4435
 4134SOL    HW223862   0.500   2.795   7.905 -0.7779 -1.2123 -0.2433
 4135SOL     OW23863   2.744   3.939   7.468  0.4615  0.1594  0.1127
 4135SOL    HW123864   2.738   4.025   7.427  2.2670  0.1439 -0.1785
 4135SOL    HW223865   2.650   3.926   7.481  0.3785  1.3280  0.6674
 4136SOL     OW23866   2.509   1.387   4.022  0.2790 -0.6163  0.1190
 4136SOL    HW123867   2.515   1.331   4.100  1.8602  1.6937  1.6762
 4136SOL    HW223868   2.603   1.396   4.008  0.0558 -1.3337 -1.7493
 4137SOL     OW23869   1.805   2.773   6.570  0.8322  0.3127 -0.4834
 4137SOL    HW123870   1.733   2.717   6.541 -0.0325  0.8262  0.6954
 4137SOL    HW223871   1.798   2.759   6.665 -0.1524 -2.8849 -1.0414
 4138SOL     OW23872   0.318   4.082  10.827 -0.1205  0.3815 -0.3533
 4138SOL    HW123873   0.391   4.137  10.853 -0.0915  0.3314 -0.3298
 4138SOL    HW223874   0.274   4.153  10.780 -1.1750 -0.2858 -0.3740
 4139SOL     OW23875   0.094   4.273   7.163 -0.0447 -0.4973  0.1203
 4139SOL    HW123876   0.140   4.197   7.127  0.4842  0.2613 -0.8155
 4139SOL    HW223877   0.163   4.339   7.170  1.1077 -1.4893 -1.8191
 4140SOL     OW23878   0.942   1.943   4.417  0.2190 -0.0553 -0.1827
 4140SOL    HW123879   1.024   1.976   4.455 -0.0052  0.5309 -0.2020
 4140SOL    HW223880   0.963   1.903   4.333  0.9847 -1.0407  0.4770
 4141SOL     OW23881   2.297   2.559   3.665 -0.3582 -0.0017  0.8529
 4141SOL    HW123882   2.241   2.629   3.701 -0.9632  0.0454 -0.1845
 4141SOL    HW223883   2.372   2.564   3.725 -1.3738 -1.3635  2.2452
 4142SOL     OW23884   2.217   2.346   1.116 -0.2204 -1.0086 -0.0998
 4142SOL    HW123885   2.295   2.388   1.152 -0.2038  0.5993 -1.9860
 4142SOL    HW223886   2.256   2.263   1.089  1.0865  0.1487 -1.7380
 4143SOL     OW23887   0.630   3.316   1.801  0.1013 -0.0825 -0.6691
 4143SOL    HW123888   0.616   3.328   1.895  2.3400  1.4926 -0.5338
 4143SOL    HW223889   0.547   3.283   1.767  0.1567 -1.0201  0.0954
 4144SOL     OW23890   1.810   0.404   7.201 -0.1872  0.0960 -0.0570
 4144SOL    HW123891   1.802   0.441   7.289 -1.4224  3.3358 -1.5268
 4144SOL    HW223892   1.794   0.488   7.157 -1.3836 -0.2922 -0.3645
 4145SOL     OW23893   1.448   4.085  10.414  0.1480 -0.1157  0.7198
 4145SOL    HW123894   1.449   4.004  10.464 -0.1282  0.5170  1.7677
 4145SOL    HW223895   1.406   4.050  10.336 -2.4799  1.0331  1.5941
 4146SOL     OW23896   4.302   0.140   4.080  0.3526  0.1560 -0.0421
 4146SOL    HW123897   4.279   0.105   4.166 -1.3185 -0.7873 -0.8700
 4146SOL    HW223898   4.228   0.198   4.061  0.1933 -0.5065 -1.4970
 4147SOL     OW23899   0.555   1.105   0.380 -0.2890  0.0635 -0.1965
 4147SOL    HW123900   0.618   1.076   0.446  0.9887  3.4296  0.0513
 4147SOL    HW223901   0.468   1.093   0.417  0.2481 -0.0604  1.0134
 4148SOL     OW23902   2.345   4.411   1.492 -0.1714 -0.0066 -0.3337
 4148SOL    HW123903   2.345   4.327   1.538  1.1297  0.1990  0.0664
 4148SOL    HW223904   2.432   4.406   1.451 -0.7208 -1.7930 -1.2631
 4149SOL     OW23905   4.474   3.266   8.876 -0.6046 -0.4534  0.0099
 4149SOL    HW123906   4.455   3.219   8.958 -0.0041  0.5195  0.7072
 4149SOL    HW223907   4.406   3.333   8.891  1.3760  1.2683  1.3217
 4150SOL     OW23908   0.094   1.933   3.225  0.1234  0.2594  0.0687
 4150SOL    HW123909   0.025   1.868   3.212  0.1701  0.3616 -0.7475
 4150SOL    HW223910   0.136   1.903   3.306 -1.9085  2.2175  1.8312
 4151SOL     OW23911   4.083   3.894   7.456 -0.1340  0.5063  0.1423
 4151SOL    HW123912   4.031   3.949   7.397 -2.0629 -1.0293  0.4326
 4151SOL    HW223913   4.171   3.932   7.445  0.6586 -1.9940 -2.3112
 4152SOL     OW23914   2.900   0.697   4.067 -0.2593 -0.2940  0.1157
 4152SOL    HW123915   2.828   0.692   4.005  1.4782 -2.6295 -1.7049
 4152SOL    HW223916   2.920   0.786   4.035 -1.4017 -0.0288  0.1503
 4153SOL     OW23917   2.701   1.785   5.770  0.0964  0.2439 -0.2573
 4153SOL    HW123918   2.641   1.748   5.835 -0.4627 -2.0887 -2.0965
 4153SOL    HW223919   2.759   1.842   5.821  1.7021 -1.8483  0.2675
 4154SOL     OW23920   2.723   1.105   8.975 -0.4176  0.2378  0.2438
 4154SOL    HW123921   2.744   1.012   8.981 -0.6406  0.0632 -1.9153
 4154SOL    HW223922   2.811   1.140   8.957 -0.4256  0.3465  0.4163
 4155SOL     OW23923   4.291   1.842  11.635  0.2456 -0.5540 -0.5029
 4155SOL    HW123924   4.317   1.897  11.709 -1.3012 -0.7545  0.2095
 4155SOL    HW223925   4.226   1.783  11.674 -1.6557  0.8679 -1.5202
 4156SOL     OW23926   2.020   4.315   7.545  0.5089  0.1916  0.2381
 4156SOL    HW123927   1.984   4.277   7.465 -0.2033  4.3823 -1.4546
 4156SOL    HW223928   1.940   4.332   7.596 -0.1105  0.2118 -0.7458
 4157SOL     OW23929   1.788   3.169   7.178 -0.3275  0.7033 -0.1260
 4157SOL    HW123930   1.773   3.087   7.131 -2.9184 -0.1443  2.2408
 4157SOL    HW223931   1.767   3.231   7.108  0.5067  2.8465  1.5010
 4158SOL     OW23932   2.556   3.346   8.440  0.4123  0.2792  0.2156
 4158SOL    HW123933   2.584   3.256   8.460 -2.0541 -0.3783  0.6943
 4158SOL    HW223934   2.486   3.326   8.378  0.4903 -0.9648  0.5230
 4159SOL     OW23935   1.934   0.528  11.856  0.9121 -0.2849  0.4563
 4159SOL    HW123936   1.860   0.495  11.908  1.2375  0.4480  1.3803
 4159SOL    HW223937   1.890   0.597  11.808  0.9342 -0.9933 -0.5838
 4160SOL     OW23938   0.734   1.161   8.917  0.0223  0.2276  0.1946
 4160SOL    HW123939   0.799   1.107   8.873 -2.0127 -1.9390 -0.1529
 4160SOL    HW223940   0.669   1.166   8.847  1.1257 -1.8224 -0.9468
 4161SOL     OW23941   4.435   0.312   2.856 -0.3788  0.1235  0.0289
 4161SOL    HW123942   4.409   0.263   2.934 -0.7576 -0.5080 -0.4997
 4161SOL    HW223943   4.515   0.268   2.829 -0.9731 -1.0869  0.2692
 4162SOL     OW23944   2.629   3.660   8.034 -0.3669  0.4449  0.2796
 4162SOL    HW123945   2.646   3.603   8.110 -1.2655 -0.9779 -0.5885
 4162SOL    HW223946   2.616   3.742   8.081 -2.5889  1.1187 -1.4811
 4163SOL     OW23947   1.033   2.040   6.933 -0.0367 -0.3933  0.1063
 4163SOL    HW123948   1.096   1.983   6.976 -0.5058 -1.0536 -0.0840
 4163SOL    HW223949   1.003   1.988   6.858 -2.8333  1.5760 -0.1420
 4164SOL     OW23950   4.163   1.751   5.691  0.6607  0.4980  0.1809
 4164SOL    HW123951   4.078   1.748   5.648  1.6809  0.7350 -1.8413
 4164SOL    HW223952   4.156   1.712   5.778  0.8740 -0.6555 -0.3216
 4165SOL     OW23953   4.299   3.173   7.416  0.1852  0.0595  0.6342
 4165SOL    HW123954   4.320   3.260   7.382  0.3903 -0.3026 -0.1586
 4165SOL    HW223955   4.226   3.202   7.472 -0.1828 -2.5894  1.5482
 4166SOL     OW23956   0.844   1.587   4.490  0.1851 -0.7747  0.2142
 4166SOL    HW123957   0.932   1.597   4.453  0.2197 -2.7350 -0.2609
 4166SOL    HW223958   0.800   1.516   4.442  1.9897 -2.7842  1.5243
 4167SOL     OW23959   3.767   4.283   6.227 -0.0675  0.2675 -0.2613
 4167SOL    HW123960   3.696   4.309   6.168 -0.5169 -2.0607 -0.7632
 4167SOL    HW223961   3.832   4.352   6.217 -0.0987  0.1293 -1.4895
 4168SOL     OW23962   1.677   4.621   5.337 -0.1375 -0.5237 -0.3786
 4168SOL    HW123963   1.581   4.619   5.340 -0.1250 -1.3263 -0.5898
 4168SOL    HW223964   1.705   4.597   5.249  2.0314 -0.5677  0.3073
 4169SOL     OW23965   4.365   0.144   4.555  0.5415  0.0518  0.1084
 4169SOL    HW123966   4.455   0.114   4.538  0.9682  0.5637  1.5020
 4169SOL    HW223967   4.336   0.079   4.619 -1.0472  1.3715  0.7186
 4170SOL     OW23968   3.191   0.663   5.187  0.2101 -0.3741 -0.1037
 4170SOL    HW123969   3.283   0.637   5.179 -0.0409 -1.3945  0.2962
 4170SOL    HW223970   3.159   0.606   5.256  2.9140 -2.4978 -0.5972
 4171SOL     OW23971   3.040   1.599   8.406  0.2818  0.6349 -0.0307
 4171SOL    HW123972   2.982   1.658   8.456 -0.1305  1.0932 -1.0559
 4171SOL    HW223973   3.129   1.631   8.417  0.1341  0.7206  0.9700
 4172SOL     OW23974   0.430   2.217   8.229  0.4470  0.2497 -0.6237
 4172SOL    HW123975   0.457   2.130   8.201 -0.5847  0.3058 -1.8174
 4172SOL    HW223976   0.510   2.257   8.262  1.4201 -1.9504 -0.3220
 4173SOL     OW23977   4.642   2.668  15.640  0.1559 -0.4059  0.1730
 4173SOL    HW123978   0.014   2.649  15.659  0.3424  0.0805 -0.2387
 4173SOL    HW223979   4.649   2.699  15.549  1.8289  0.4264  0.5817
 4174SOL     OW23980   3.348   4.607   0.263 -0.0852  0.3290  0.3409
 4174SOL    HW123981   3.275   4.598   0.201  0.8092 -1.8098 -0.4145
 4174SOL    HW223982   3.304   4.644   0.339  0.5741  3.0796 -0.6004
 4175SOL     OW23983   3.252   3.869   2.605  0.5382  0.0703 -0.1221
 4175SOL    HW123984   3.297   3.843   2.525  2.2852 -0.3846  1.0156
 4175SOL    HW223985   3.199   3.790   2.615  1.1596 -0.5331 -1.6355
 4176SOL     OW23986   1.959   0.172   8.836  0.2950  0.5186  0.3096
 4176SOL    HW123987   2.004   0.191   8.919 -2.5023  2.0361  1.4949
 4176SOL    HW223988   1.937   0.080   8.850  2.3202  0.1464  1.0618
 4177SOL     OW23989   1.697   0.216   3.422  0.5410  0.0146  0.1218
 4177SOL    HW123990   1.770   0.230   3.362  0.2954  0.7218 -0.0048
 4177SOL    HW223991   1.654   0.301   3.417  0.5373 -0.0908 -1.4399
 4178SOL     OW23992   3.643   3.527  13.132 -0.1200 -0.0563  0.0904
 4178SOL    HW123993   3.633   3.622  13.122  0.1033 -0.1915 -1.4472
 4178SOL    HW223994   3.602   3.518  13.218 -1.3932  2.2310 -0.2869
 4179SOL     OW23995   4.697   2.196   6.382  0.1234  0.5883  0.4946
 4179SOL    HW123996   0.062   2.219   6.422  0.4153  2.4600 -1.1660
 4179SOL    HW223997   0.016   2.115   6.349  0.1571  0.7956  0.0302
 4180SOL     OW23998   4.118   2.255   9.558  0.9025 -0.0188  0.2380
 4180SOL    HW123999   4.190   2.305   9.596  0.1765  0.5146  0.8982
 4180SOL    HW224000   4.170   2.181   9.524  0.3446 -0.1837 -0.2566
 4181SOL     OW24001   2.121   4.172   3.715  0.5275  0.1528  0.2967
 4181SOL    HW124002   2.093   4.199   3.628 -0.7644  1.1622  1.0262
 4181SOL    HW224003   2.103   4.256   3.757  1.6856  1.8232 -2.5083
 4182SOL     OW24004   0.041   1.509  17.367  0.3482  0.0928  0.3220
 4182SOL    HW124005   0.124   1.531  17.324 -0.9519 -0.7686 -2.6421
 4182SOL    HW224006   0.044   1.580  17.431 -0.4044  2.5927 -2.3962
 4183SOL     OW24007   1.402   3.048   7.915 -0.0891  0.4107  0.2310
 4183SOL    HW124008   1.430   3.105   7.986  1.5614  1.4288 -1.2507
 4183SOL    HW224009   1.341   2.988   7.960  0.2313 -0.0521  0.0509
 4184SOL     OW24010   0.677   0.398  13.917 -0.1146  0.0726 -0.0012
 4184SOL    HW124011   0.703   0.377  14.007  1.6289  3.2890  0.2517
 4184SOL    HW224012   0.663   0.492  13.927  0.6923 -0.0157  1.9492
 4185SOL     OW24013   0.636   1.664   3.666  0.1092 -0.3220 -0.0009
 4185SOL    HW124014   0.714   1.636   3.714  1.2240  1.7292 -0.6035
 4185SOL    HW224015   0.628   1.759   3.672 -2.2158 -0.5484  0.7057
 4186SOL     OW24016   3.244   2.818   7.982  0.3161 -0.2030  0.4859
 4186SOL    HW124017   3.178   2.868   7.932  1.8723  1.3840  0.0152
 4186SOL    HW224018   3.321   2.874   7.970 -0.5175  0.6512 -0.9642
 4187SOL     OW24019   4.432   4.346   3.301  0.0307  0.3289 -0.1038
 4187SOL    HW124020   4.448   4.353   3.207  2.7607 -1.2060  0.2370
 4187SOL    HW224021   4.500   4.403   3.338  0.2397  0.5246 -0.7840
 4188SOL     OW24022   1.322   2.800   5.089  0.6387  0.3442  0.0406
 4188SOL    HW124023   1.299   2.719   5.043  0.8562 -0.9395  2.1578
 4188SOL    HW224024   1.236   2.840   5.099  1.0523  1.5461 -1.1947
 4189SOL     OW24025   2.063   0.487   6.519  0.3850 -0.3139  0.1810
 4189SOL    HW124026   2.052   0.581   6.534 -0.4550 -0.0658 -2.0526
 4189SOL    HW224027   2.010   0.450   6.590 -1.8455 -1.0797 -1.8875
 4190SOL     OW24028   1.181   2.804  17.475  0.4542 -0.3116  0.0734
 4190SOL    HW124029   1.147   2.717  17.497 -1.6007  0.0593 -1.6919
 4190SOL    HW224030   1.156   2.815  17.384  1.0874 -0.0297 -0.0662
 4191SOL     OW24031   1.876   3.267   3.960 -0.3994  0.4888  0.2282
 4191SOL    HW124032   1.883   3.359   3.987  2.8033  0.3648 -0.1178
 4191SOL    HW224033   1.961   3.253   3.919 -1.9459 -1.7588 -2.2043
 4192SOL     OW24034   1.073   3.909   9.121 -0.0950  0.5816  0.1714
 4192SOL    HW124035   1.035   3.822   9.112 -0.5356  0.9518 -1.6513
 4192SOL    HW224036   1.002   3.958   9.162 -0.5615 -0.3138  0.4363
 4193SOL     OW24037   1.979   2.605  12.282 -0.2837 -0.1607 -0.3896
 4193SOL    HW124038   1.980   2.671  12.350 -2.8129  0.2685 -0.7498
 4193SOL    HW224039   2.052   2.545  12.300 -1.2491 -0.5574  2.1123
 4194SOL     OW24040   3.047   2.054   1.309  0.3559 -0.1524 -0.0568
 4194SOL    HW124041   2.968   2.080   1.261  0.5520  1.4757  0.5113
 4194SOL    HW224042   3.096   2.136   1.308 -0.6810  0.4678 -0.3839
 4195SOL     OW24043   0.424   0.114   8.252 -0.6075  0.4698  0.2091
 4195SOL    HW124044   0.516   0.112   8.279 -0.3142  1.0741 -0.7608
 4195SOL    HW224045   0.396   0.031   8.291 -2.0571  0.2971 -1.1805
 4196SOL     OW24046   0.394   3.921   2.089 -0.1433 -0.3311  0.7327
 4196SOL    HW124047   0.328   3.963   2.034  1.1991  1.3392  0.4135
 4196SOL    HW224048   0.475   3.972   2.082 -1.7993  2.2223  0.2552
 4197SOL     OW24049   3.710   1.643  13.434 -0.2734  0.2288 -0.7326
 4197SOL    HW124050   3.729   1.596  13.515  0.7196 -1.2598 -1.8316
 4197SOL    HW224051   3.787   1.618  13.383 -1.0169 -1.7152 -0.8898
 4198SOL     OW24052   0.120   3.757   2.564 -0.3231  0.1806  0.0672
 4198SOL    HW124053   0.056   3.737   2.632  0.2272 -1.2190  0.1855
 4198SOL    HW224054   0.200   3.744   2.615 -1.2300  1.3863  1.7745
 4199SOL     OW24055   1.850   0.883   9.044  0.0597 -0.2694 -0.0535
 4199SOL    HW124056   1.779   0.844   8.992 -1.0431  2.7063 -0.7910
 4199SOL    HW224057   1.909   0.810   9.062  0.2756 -0.3203 -0.9806
 4200SOL     OW24058   3.536   4.202  15.727  0.0723  0.1461  0.2096
 4200SOL    HW124059   3.515   4.137  15.660 -1.2672 -0.9710  1.7190
 4200SOL    HW224060   3.479   4.168  15.796  1.1354 -0.5473  0.7373
 4201SOL     OW24061   0.311   0.633   5.215  0.3685  0.3741 -0.5150
 4201SOL    HW124062   0.373   0.657   5.284  1.3368  0.6095 -1.4757
 4201SOL    HW224063   0.333   0.540   5.205 -2.6385 -0.4797  0.7970
 4202SOL     OW24064   1.883   1.745   5.157 -0.4457  0.5824  0.3288
 4202SOL    HW124065   1.915   1.791   5.079  0.9605 -0.7529  0.1162
 4202SOL    HW224066   1.869   1.821   5.213  2.6997  0.0636  1.7583
 4203SOL     OW24067   1.938   2.553   9.174 -0.7342 -0.1812 -0.3399
 4203SOL    HW124068   1.953   2.459   9.179 -0.0689  0.1031  3.0301
 4203SOL    HW224069   2.001   2.587   9.238  0.5647 -1.7610 -0.7860
 4204SOL     OW24070   1.935   1.184  12.216  0.4406  0.0972 -0.4350
 4204SOL    HW124071   1.899   1.106  12.257  1.6101  0.6390  1.6213
 4204SOL    HW224072   1.941   1.239  12.294 -1.0252 -2.3998  1.4481
 4205SOL     OW24073   3.651   0.731   1.722 -0.1552  0.3461 -0.2683
 4205SOL    HW124074   3.559   0.723   1.696 -0.7818  0.4146  1.9624
 4205SOL    HW224075   3.680   0.763   1.636 -0.3489  1.2951  0.0151
 4206SOL     OW24076   3.768   1.619   2.567  0.2218 -0.4896  0.2686
 4206SOL    HW124077   3.781   1.537   2.519  1.3015  0.7221 -1.4785
 4206SOL    HW224078   3.826   1.686   2.534 -1.6818  1.2877  0.5243
 4207SOL     OW24079   4.648   3.925   9.717 -0.2549 -0.4942 -0.2857
 4207SOL    HW124080   4.713   3.856   9.706 -0.9242 -0.9081 -1.5809
 4207SOL    HW224081   4.564   3.878   9.714 -0.4694 -0.2525  1.7883
 4208SOL     OW24082   0.962   3.997  15.894  0.4046 -0.2743  0.1028
 4208SOL    HW124083   1.031   4.063  15.887  0.0398  0.1151  0.1482
 4208SOL    HW224084   0.937   4.006  15.986  0.0199 -0.4422  0.0108
 4209SOL     OW24085   0.196   0.967   1.014  0.0262  0.4658 -0.2859
 4209SOL    HW124086   0.186   0.937   0.923 -0.8376 -0.0819 -0.0163
 4209SOL    HW224087   0.110   0.943   1.049  1.0547  0.2594  2.0390
 4210SOL     OW24088   2.626   4.018  13.066 -1.2634  0.0799 -0.0393
 4210SOL    HW124089   2.715   3.986  13.082 -1.0986  0.1373 -0.8272
 4210SOL    HW224090   2.615   4.080  13.138  1.5208 -1.4814  1.7356
 4211SOL     OW24091   3.462   2.599   6.189 -0.0307 -0.6217 -0.3197
 4211SOL    HW124092   3.438   2.592   6.097 -1.4497 -0.9707  0.0801
 4211SOL    HW224093   3.376   2.586   6.230 -0.1295  1.7991  0.2504
 4212SOL     OW24094   0.371   2.893  12.875  0.1220  0.6841  0.3689
 4212SOL    HW124095   0.398   2.814  12.828 -1.2389 -0.2088  1.0871
 4212SOL    HW224096   0.405   2.963  12.819  1.4912  0.9672  1.5555
 4213SOL     OW24097   2.046   2.467   8.542 -0.4893  0.1279  0.2658
 4213SOL    HW124098   2.049   2.381   8.499  1.6604 -1.6239  3.9291
 4213SOL    HW224099   1.960   2.448   8.578 -0.2775  1.8532  1.6611
 4214SOL     OW24100   2.529   3.694   4.242  0.3658 -0.6032 -0.5284
 4214SOL    HW124101   2.588   3.660   4.174 -0.0958 -0.8764 -0.7911
 4214SOL    HW224102   2.507   3.781   4.207  0.1341 -0.9727 -1.3117
 4215SOL     OW24103   3.858   1.689   1.942  0.1625  0.3942  0.5361
 4215SOL    HW124104   3.893   1.600   1.944  2.1490  1.1811  0.4928
 4215SOL    HW224105   3.928   1.741   1.903 -0.7383  1.0195 -0.2524
 4216SOL     OW24106   3.606   1.757  16.121 -0.2247 -0.8302 -0.1967
 4216SOL    HW124107   3.586   1.850  16.128 -1.7279 -1.1875  0.2750
 4216SOL    HW224108   3.535   1.720  16.175 -1.3430  1.7880  0.1041
 4217SOL     OW24109   4.416   3.981   7.605  0.3983  0.1702 -0.1302
 4217SOL    HW124110   4.425   3.952   7.696 -0.0245  0.6234  0.0556
 4217SOL    HW224111   4.488   4.041   7.588  0.6124 -0.3134 -0.9251
 4218SOL     OW24112   2.661   1.031  14.307 -0.7443  0.4740 -0.2583
 4218SOL    HW124113   2.725   0.980  14.257 -0.8299 -0.8234  0.9569
 4218SOL    HW224114   2.665   1.003  14.398  0.6073  2.9791  0.4519
 4219SOL     OW24115   0.634   1.399  14.170  0.9195  0.2758  0.7994
 4219SOL    HW124116   0.659   1.314  14.207 -0.7422 -0.3584  0.4316
 4219SOL    HW224117   0.628   1.458  14.245 -2.8184 -1.0735  1.5191
 4220SOL     OW24118   0.793   0.905   8.182 -0.3526 -0.0350 -0.2380
 4220SOL    HW124119   0.751   0.822   8.206 -1.6962  0.5777 -0.5016
 4220SOL    HW224120   0.772   0.956   8.261 -1.3060 -0.3476 -0.2884
 4221SOL     OW24121   1.103   2.923   7.163  0.5508  0.6397  0.2142
 4221SOL    HW124122   1.104   2.847   7.105  2.0844  0.5064  0.4150
 4221SOL    HW224123   1.042   2.898   7.233  1.3313 -0.9538  0.3362
 4222SOL     OW24124   1.611   4.638   0.881 -0.2036  0.4061 -0.1487
 4222SOL    HW124125   1.555   4.632   0.803  1.4219  0.2473 -1.3076
 4222SOL    HW224126   1.689   4.592   0.851 -0.0756  1.7650 -1.9475
 4223SOL     OW24127   1.125   0.337   3.861  0.4739 -0.0517 -0.0096
 4223SOL    HW124128   1.036   0.332   3.826 -0.7049  3.0014  2.5341
 4223SOL    HW224129   1.183   0.333   3.785  1.0820  1.3048  0.3893
 4224SOL     OW24130   1.036   0.223   4.705  0.0688  0.0483  0.3068
 4224SOL    HW124131   0.965   0.264   4.656  0.2107 -0.4324 -0.3076
 4224SOL    HW224132   1.060   0.159   4.638 -0.1286  0.6187 -0.3016
 4225SOL     OW24133   3.042   1.486   5.478 -0.3309 -0.2400  0.0170
 4225SOL    HW124134   3.123   1.501   5.429 -0.0908 -0.7255  0.2629
 4225SOL    HW224135   3.046   1.398   5.515  2.7909 -0.0085  0.2451
 4226SOL     OW24136   2.028   2.070   0.864  0.9657  0.1588  0.3322
 4226SOL    HW124137   1.971   2.092   0.938  0.1405  0.6375 -0.4465
 4226SOL    HW224138   2.106   2.111   0.901  0.9833  1.4285 -1.1345
 4227SOL     OW24139   2.867   3.379   7.502  0.2637 -0.2781 -0.0596
 4227SOL    HW124140   2.872   3.475   7.504  4.2143 -0.4826  0.3198
 4227SOL    HW224141   2.956   3.359   7.473  1.6262  1.6785  2.6489
 4228SOL     OW24142   1.436   1.764   7.173 -0.2336  0.6021 -0.0811
 4228SOL    HW124143   1.521   1.795   7.203  2.2602 -2.8782 -3.4712
 4228SOL    HW224144   1.382   1.838   7.200 -0.5628 -0.0996  1.1993
 4229SOL     OW24145   2.782   3.076   5.421  0.0851  0.7869 -0.1090
 4229SOL    HW124146   2.716   3.115   5.364 -0.3455 -2.2235 -1.6395
 4229SOL    HW224147   2.747   3.099   5.507  0.4850  0.2645  0.1904
 4230SOL     OW24148   1.509   2.938   8.613  0.0731  0.4726 -0.4353
 4230SOL    HW124149   1.465   2.915   8.694  0.8916 -0.8624 -0.3675
 4230SOL    HW224150   1.583   2.878   8.622 -0.7156 -0.8138 -2.3778
 4231SOL     OW24151   3.269   2.670   0.924 -0.4752 -0.4924 -0.1124
 4231SOL    HW124152   3.273   2.576   0.944 -0.6486 -0.6851 -0.9776
 4231SOL    HW224153   3.279   2.672   0.829 -0.6988 -0.4309 -0.1351
 4232SOL     OW24154   0.085   3.102   3.344 -0.6437  0.0395 -0.1399
 4232SOL    HW124155   0.008   3.140   3.387  1.0319  1.9807  1.1426
 4232SOL    HW224156   0.103   3.038   3.413  3.2114  2.2888  0.9367
 4233SOL     OW24157   3.196   0.187   2.549  0.4929 -0.4214  0.4468
 4233SOL    HW124158   3.200   0.213   2.458 -1.4434  0.0202  0.4737
 4233SOL    HW224159   3.143   0.261   2.579  2.2734  0.8697  0.3785
 4234SOL     OW24160   3.222   2.606   7.504  0.5211 -0.4517  0.4385
 4234SOL    HW124161   3.222   2.514   7.477 -1.0437  0.3014 -2.1307
 4234SOL    HW224162   3.194   2.602   7.596  1.7468  2.6058  0.9365
 4235SOL     OW24163   1.583   3.236   8.397  0.2211  0.3253 -0.0879
 4235SOL    HW124164   1.528   3.168   8.436 -2.9245  0.4652 -4.3967
 4235SOL    HW224165   1.672   3.198   8.397 -0.8336 -2.1445 -1.8306
 4236SOL     OW24166   1.716   4.334  16.979 -0.0614 -0.1670  0.6403
 4236SOL    HW124167   1.772   4.335  16.902  0.5417  1.3367  1.1062
 4236SOL    HW224168   1.680   4.245  16.979  0.0031 -0.1920  1.0601
 4237SOL     OW24169   2.116   0.612  12.020 -0.6711  0.0117 -0.1946
 4237SOL    HW124170   2.122   0.704  11.994 -2.0612  0.1133 -0.1425
 4237SOL    HW224171   2.062   0.569  11.953  0.7124 -2.4984  0.3068
 4238SOL     OW24172   2.657   1.534   3.308 -0.5901 -0.2528  0.7874
 4238SOL    HW124173   2.656   1.482   3.388 -1.3363  1.0988  1.6538
 4238SOL    HW224174   2.667   1.456   3.254 -0.5782  0.3076 -0.0370
 4239SOL     OW24175   2.142   4.709   5.649 -0.3711 -0.0845  0.2412
 4239SOL    HW124176   2.185   4.624   5.655  1.3061  0.9723  3.4473
 4239SOL    HW224177   2.217   0.042   5.618  0.0490 -0.9214 -0.1456
 4240SOL     OW24178   2.157   1.687   4.551  0.5114 -0.1051  0.0282
 4240SOL    HW124179   2.129   1.625   4.619 -0.8246  0.1486 -0.3065
 4240SOL    HW224180   2.155   1.774   4.591  0.8748 -0.9322  1.8656
 4241SOL     OW24181   2.747   3.693   7.776 -0.0011 -0.3808 -0.0840
 4241SOL    HW124182   2.776   3.694   7.867 -1.4864 -0.0936  0.3825
 4241SOL    HW224183   2.652   3.694   7.792 -0.1145  0.7271 -0.8119
 4242SOL     OW24184   1.713   1.294   6.345  0.1122  0.1661  0.4613
 4242SOL    HW124185   1.771   1.368   6.361 -0.2844  0.4288  0.7009
 4242SOL    HW224186   1.627   1.335   6.358  0.5057  1.2866 -0.5131
 4243SOL     OW24187   4.262   0.052   7.508 -0.1076  0.1319  0.4897
 4243SOL    HW124188   4.285   0.026   7.419 -1.7393 -0.0760  0.1235
 4243SOL    HW224189   4.216   0.134   7.492 -0.8805 -0.1007  1.5081
 4244SOL     OW24190   4.162   2.211   4.031  0.1132  0.1351 -0.0870
 4244SOL    HW124191   4.255   2.191   4.036  0.6441  2.8304  0.7907
 4244SOL    HW224192   4.138   2.156   3.957  1.8032  0.8496 -1.1633
 4245SOL     OW24193   1.654   0.369   3.764  0.2120 -0.1517  0.2609
 4245SOL    HW124194   1.733   0.408   3.803  0.6003 -0.3604 -0.3229
 4245SOL    HW224195   1.625   0.441   3.707  1.3243  0.7654  0.8467
 4246SOL     OW24196   4.091   2.662   0.560 -0.4451 -0.4844  0.3055
 4246SOL    HW124197   4.004   2.632   0.534 -0.2760 -1.5187  0.9753
 4246SOL    HW224198   4.139   2.598   0.508 -1.6883 -1.7680  0.7310
 4247SOL     OW24199   0.568   2.476   9.182 -0.1244  0.4831  0.0101
 4247SOL    HW124200   0.612   2.481   9.268  1.0832  3.2000 -0.7618
 4247SOL    HW224201   0.492   2.530   9.206  2.4877  3.1643  2.2587
 4248SOL     OW24202   2.839   4.142   4.925  0.0947 -0.0201  0.5923
 4248SOL    HW124203   2.756   4.145   4.974 -0.9300 -2.6023 -0.9851
 4248SOL    HW224204   2.839   4.221   4.870 -1.2816 -1.4193 -1.4104
 4249SOL     OW24205   3.075   3.050   3.830 -0.0974  0.4096 -0.0844
 4249SOL    HW124206   3.154   3.073   3.781  0.3027  0.5923  0.6450
 4249SOL    HW224207   3.010   3.110   3.793  0.4945  0.3021 -1.3095
 4250SOL     OW24208   1.769   0.881  12.550 -0.1672 -0.1882  0.2827
 4250SOL    HW124209   1.697   0.938  12.581 -0.4524 -0.3749 -0.0394
 4250SOL    HW224210   1.808   0.933  12.480 -2.0431  0.7313 -0.1027
 4251SOL     OW24211   4.036   1.627   5.065 -0.0068 -0.3448 -0.5200
 4251SOL    HW124212   4.030   1.583   4.980 -0.7217  0.3865 -0.8516
 4251SOL    HW224213   4.031   1.547   5.116  1.1549  0.0926  0.2886
 4252SOL     OW24214   4.176   0.482   2.398  0.0947  0.2784 -0.4193
 4252SOL    HW124215   4.231   0.436   2.461 -0.3737 -0.1671 -0.3312
 4252SOL    HW224216   4.223   0.564   2.388  0.4139 -0.0243 -1.3909
 4253SOL     OW24217   4.124   3.276   6.767 -0.0159  0.0755  0.6045
 4253SOL    HW124218   4.200   3.328   6.741 -0.1408  1.3975  2.9052
 4253SOL    HW224219   4.053   3.339   6.759 -1.2446 -1.7180 -2.4340
 4254SOL     OW24220   3.009   3.726   2.110 -0.0080 -0.2227 -0.4237
 4254SOL    HW124221   3.025   3.821   2.104 -0.2293 -0.1745 -0.2361
 4254SOL    HW224222   3.025   3.704   2.202  2.9773  1.0182 -0.6356
 4255SOL     OW24223   1.214   4.082   8.743 -0.3834 -0.3127  0.0237
 4255SOL    HW124224   1.238   4.077   8.651 -2.1950  3.0304 -0.6240
 4255SOL    HW224225   1.197   3.990   8.764  1.1628 -0.7628 -0.6744
 4256SOL     OW24226   3.991   3.541  11.058 -0.6660  0.6149  0.1382
 4256SOL    HW124227   3.945   3.614  11.017 -0.8444  1.2882  1.5483
 4256SOL    HW224228   3.949   3.542  11.144 -1.0874  2.4082 -0.0820
 4257SOL     OW24229   3.501   0.032  14.493  0.6128 -0.2246 -0.2047
 4257SOL    HW124230   3.424   0.076  14.528  1.0727 -0.0840  0.6317
 4257SOL    HW224231   3.537   0.105  14.444  0.2897 -0.1865 -0.3824
 4258SOL     OW24232   3.116   3.456   5.213 -0.5397  0.2843  0.7511
 4258SOL    HW124233   3.153   3.533   5.169  0.7945 -1.7412 -1.6663
 4258SOL    HW224234   3.023   3.475   5.203  0.0553  1.9516 -1.7712
 4259SOL     OW24235   3.339   0.774   1.375  0.6431  0.0167 -0.6368
 4259SOL    HW124236   3.262   0.718   1.369  0.4316  0.2492 -0.1435
 4259SOL    HW224237   3.303   0.861   1.353 -2.5851  0.1068  4.7703
 4260SOL     OW24238   0.340   2.949   7.264 -0.1477 -0.4143 -0.6026
 4260SOL    HW124239   0.365   2.908   7.346  0.3964 -0.0163 -0.5718
 4260SOL    HW224240   0.254   2.911   7.247  0.2552 -1.5129 -0.1877
 4261SOL     OW24241   0.261   0.761   4.129 -0.0806  0.9054 -0.1206
 4261SOL    HW124242   0.238   0.804   4.211  1.8504  1.4184  0.1522
 4261SOL    HW224243   0.355   0.747   4.140 -0.2282  0.0784  0.0762
 4262SOL     OW24244   2.074   2.342  16.281  0.6373 -0.0972 -0.3100
 4262SOL    HW124245   2.112   2.324  16.195  2.4672 -0.9532  0.6855
 4262SOL    HW224246   2.032   2.428  16.281 -0.5605 -0.6828  2.4722
 4263SOL     OW24247   0.187   3.622  10.339  0.2860 -0.0516  0.3382
 4263SOL    HW124248   0.153   3.708  10.361  1.7111  1.0069 -1.5518
 4263SOL    HW224249   0.101   3.587  10.316  0.4467  0.0955 -0.4984
 4264SOL     OW24250   4.376   2.443  15.803 -0.0684  0.1484 -0.0974
 4264SOL    HW124251   4.291   2.456  15.846  0.0499  1.9888 -0.4311
 4264SOL    HW224252   4.361   2.493  15.724 -2.7713  3.2336  2.3803
 4265SOL     OW24253   3.331   1.893  17.458  0.3448 -0.1680 -0.0320
 4265SOL    HW124254   3.395   1.823  17.447  1.4338  0.9354 -0.7637
 4265SOL    HW224255   3.350   1.938  17.541 -1.1194 -1.5091  1.0333
 4266SOL     OW24256   2.249   1.798  12.818 -0.2623  0.6012 -0.0020
 4266SOL    HW124257   2.235   1.754  12.901  0.3554  0.3773 -0.0115
 4266SOL    HW224258   2.255   1.887  12.853  2.6326  1.2985 -2.2391
 4267SOL     OW24259   3.635   3.251  16.448  0.4358  0.0507 -0.4169
 4267SOL    HW124260   3.677   3.332  16.477 -1.8356  1.1444 -0.1004
 4267SOL    HW224261   3.690   3.216  16.378 -0.5343 -1.5798 -0.3779
 4268SOL     OW24262   2.355   4.236  12.288 -0.4783  0.4491  0.0417
 4268SOL    HW124263   2.389   4.156  12.328 -0.2736  0.0788 -0.8917
 4268SOL    HW224264   2.278   4.215  12.237  0.5401 -1.4489 -0.7085
 4269SOL     OW24265   1.681   1.386   0.975  0.6915 -0.2423  0.4107
 4269SOL    HW124266   1.741   1.408   1.046  0.7438  0.2206  0.2209
 4269SOL    HW224267   1.724   1.390   0.889 -0.5046  1.0242 -0.1265
 4270SOL     OW24268   3.155   1.385   5.915 -0.1311  0.4408  0.1135
 4270SOL    HW124269   3.242   1.344   5.921  0.2166  1.4487  1.7335
 4270SOL    HW224270   3.108   1.319   5.966 -0.0914  1.0691  0.9548
 4271SOL     OW24271   1.458   3.601   7.226 -0.0437  0.0871 -0.0022
 4271SOL    HW124272   1.389   3.652   7.268 -0.3135 -2.2397  2.4119
 4271SOL    HW224273   1.421   3.574   7.143 -0.4823 -0.4782  0.3741
 4272SOL     OW24274   3.725   3.593   5.684 -0.1741  0.0826 -0.2426
 4272SOL    HW124275   3.790   3.534   5.722  0.1575  0.4342 -0.2691
 4272SOL    HW224276   3.680   3.644   5.752 -3.1937 -1.4460 -1.0653
 4273SOL     OW24277   0.921   1.574   0.463  0.7183  0.3844 -0.1747
 4273SOL    HW124278   0.872   1.514   0.520 -0.7152  0.7929 -0.9861
 4273SOL    HW224279   0.853   1.638   0.445 -1.7699 -1.9207  1.1452
 4274SOL     OW24280   2.260   0.271   8.195  0.2747  0.4974 -0.2272
 4274SOL    HW124281   2.261   0.292   8.101  1.4753  1.4302 -0.0064
 4274SOL    HW224282   2.254   0.176   8.198  0.9365  0.6031  3.5397
 4275SOL     OW24283   4.332   1.282  13.644  0.7209  0.8626  0.1585
 4275SOL    HW124284   4.426   1.288  13.661  1.4052  1.0745 -3.7979
 4275SOL    HW224285   4.303   1.367  13.611  0.8896  0.3212 -1.3709
 4276SOL     OW24286   1.234   1.513   5.353 -0.4084  0.4729  0.0192
 4276SOL    HW124287   1.182   1.593   5.366 -1.2587 -0.5634  3.0850
 4276SOL    HW224288   1.304   1.554   5.303  1.3872 -1.4293  0.9930
 4277SOL     OW24289   0.963   3.222   5.171 -0.0277 -0.2188  0.2095
 4277SOL    HW124290   0.911   3.290   5.129 -0.5396 -1.5817 -1.3801
 4277SOL    HW224291   1.003   3.273   5.241  0.7660  0.3792 -0.6768
 4278SOL     OW24292   3.433   2.992   6.941  0.6867 -0.5324  0.2474
 4278SOL    HW124293   3.488   3.031   6.874  2.3618 -3.7619 -0.2527
 4278SOL    HW224294   3.365   2.959   6.882  1.9925 -3.4032  0.3525
 4279SOL     OW24295   2.423   3.262   2.399 -0.7663 -0.8499  0.0197
 4279SOL    HW124296   2.374   3.192   2.442 -0.4721 -0.4154  1.0443
 4279SOL    HW224297   2.511   3.223   2.405 -1.0063 -1.0598  2.0294
 4280SOL     OW24298   3.184   2.345   0.154  0.5625 -0.6041 -0.4719
 4280SOL    HW124299   3.221   2.259   0.137 -2.7364 -1.4581 -3.2830
 4280SOL    HW224300   3.101   2.333   0.107  0.8774 -0.6382 -1.0152
 4281SOL     OW24301   3.159   0.034   5.248 -0.1574 -0.1361 -0.7531
 4281SOL    HW124302   3.224   4.685   5.235 -0.6468 -0.6193 -0.6468
 4281SOL    HW224303   3.100   0.022   5.173 -0.6415 -1.0825 -0.2168
 4282SOL     OW24304   2.885   4.390   4.053 -0.1986 -0.8412  0.3554
 4282SOL    HW124305   2.873   4.389   3.958  0.9481 -3.8240  0.2348
 4282SOL    HW224306   2.796   4.363   4.076 -0.4506 -1.2766 -1.1020
 4283SOL     OW24307   0.082   2.022   9.164 -0.4297 -0.2376  0.3508
 4283SOL    HW124308   0.124   1.961   9.225 -0.3188 -0.5865 -0.0794
 4283SOL    HW224309   0.115   1.991   9.080  1.5342  2.6579  0.0694
 4284SOL     OW24310   3.600   2.213  15.699 -0.4808  0.3272 -0.3327
 4284SOL    HW124311   3.545   2.243  15.628 -1.0610  2.1795  0.9043
 4284SOL    HW224312   3.646   2.140  15.656  1.6763  0.3607  1.8641
 4285SOL     OW24313   1.581   0.292   6.334  0.2326 -0.3890  0.2932
 4285SOL    HW124314   1.532   0.257   6.259 -0.2178  0.3235  0.2548
 4285SOL    HW224315   1.657   0.323   6.285 -1.0040 -0.6629 -1.8009
 4286SOL     OW24316   2.301   2.276   4.000  0.2278  0.0662 -0.2450
 4286SOL    HW124317   2.278   2.187   3.975  0.8003 -0.3031  0.5387
 4286SOL    HW224318   2.346   2.272   4.084  1.3638 -1.9276 -0.9627
 4287SOL     OW24319   4.514   3.244   7.618 -0.0412 -0.3645 -0.6807
 4287SOL    HW124320   4.473   3.220   7.535  1.3414 -2.8471 -0.6621
 4287SOL    HW224321   4.446   3.257   7.684 -0.7821 -1.6101 -1.1907
 4288SOL     OW24322   1.238   0.695  11.496 -0.3335  0.5171  0.1058
 4288SOL    HW124323   1.264   0.700  11.588  0.6448 -0.0492 -0.1367
 4288SOL    HW224324   1.159   0.642  11.497  0.0876 -0.0419  2.5264
 4289SOL     OW24325   4.022   2.688   9.383 -0.2458 -0.2513  0.4453
 4289SOL    HW124326   4.019   2.644   9.467 -2.6387  0.1624  0.5926
 4289SOL    HW224327   3.932   2.721   9.391 -0.1436 -0.0491  0.7525
 4290SOL     OW24328   1.607   2.198  12.733 -0.1754 -0.1248 -0.2832
 4290SOL    HW124329   1.633   2.178  12.643  0.0785 -2.6070  0.3333
 4290SOL    HW224330   1.633   2.290  12.740  3.8463 -1.1594 -1.2554
 4291SOL     OW24331   0.173   3.915   4.246  0.4345  0.2106  0.1426
 4291SOL    HW124332   0.138   3.969   4.175 -2.1322 -0.0844  1.1647
 4291SOL    HW224333   0.120   3.836   4.232 -0.5041  0.8585  0.0755
 4292SOL     OW24334   2.309   4.635   5.350 -0.3957 -0.2960  0.2310
 4292SOL    HW124335   2.220   4.613   5.378 -0.5989 -0.3129 -0.4221
 4292SOL    HW224336   2.296   0.007   5.323  1.6858  0.2077  0.9364
 4293SOL     OW24337   0.431   2.701  12.677  0.0673 -0.1710 -0.5549
 4293SOL    HW124338   0.370   2.762  12.635 -1.0949 -0.5106  0.6655
 4293SOL    HW224339   0.373   2.632  12.709 -0.7233  1.0175  0.5530
 4294SOL     OW24340   2.565   3.853   2.403  0.4203 -0.0633  0.0389
 4294SOL    HW124341   2.538   3.912   2.332  2.1050  0.8056  0.1188
 4294SOL    HW224342   2.656   3.881   2.415  0.3355  0.8042 -1.3307
 4295SOL     OW24343   3.523   2.681   0.573 -0.2166  0.3112 -0.4827
 4295SOL    HW124344   3.543   2.710   0.662 -0.7572 -2.1766  0.4402
 4295SOL    HW224345   3.427   2.676   0.577 -0.2453  0.6645 -0.7011
 4296SOL     OW24346   1.812   3.823  14.342 -0.1757  0.2701 -0.0977
 4296SOL    HW124347   1.816   3.832  14.437 -2.8123 -1.3319  0.1671
 4296SOL    HW224348   1.893   3.871  14.324 -0.4490  1.8887  2.9562
 4297SOL     OW24349   2.911   0.159   8.221 -0.6795 -0.5373 -0.3247
 4297SOL    HW124350   2.859   0.201   8.289  0.8792 -1.7479  1.5837
 4297SOL    HW224351   2.833   0.111   8.191  0.3627 -3.3037  1.3928
 4298SOL     OW24352   1.736   1.296  16.536 -0.1709 -0.1760 -0.0363
 4298SOL    HW124353   1.733   1.317  16.630  1.0040 -1.9515  0.3902
 4298SOL    HW224354   1.693   1.211  16.535  1.0878 -0.8225  0.4330
 4299SOL     OW24355   2.467   1.403  10.263 -0.0517 -0.7690  0.1653
 4299SOL    HW124356   2.528   1.342  10.305 -0.3412  1.1766  3.3436
 4299SOL    HW224357   2.396   1.343  10.237  0.0699 -0.4237 -0.9774
 4300SOL     OW24358   4.217   2.274  15.196 -0.3739 -0.0272 -0.1122
 4300SOL    HW124359   4.161   2.226  15.135 -0.6974 -1.3815  1.2371
 4300SOL    HW224360   4.180   2.247  15.280 -1.1400 -0.1307 -0.4825
 4301SOL     OW24361   3.118   3.402   7.405  0.0547 -0.6419 -0.4208
 4301SOL    HW124362   3.127   3.308   7.416 -0.5500 -0.4866  1.4992
 4301SOL    HW224363   3.189   3.420   7.344 -0.7829  0.1976 -1.1472
 4302SOL     OW24364   1.536   2.887  11.387 -0.0723 -0.0946  0.3846
 4302SOL    HW124365   1.547   2.891  11.292  0.8990 -0.8566  0.4604
 4302SOL    HW224366   1.624   2.909  11.416 -0.8172  0.9583  1.8421
 4303SOL     OW24367   2.687   2.100   4.595  0.4657  0.5406 -0.5003
 4303SOL    HW124368   2.708   2.043   4.669 -3.6515 -1.7964 -1.1163
 4303SOL    HW224369   2.754   2.077   4.530  0.2323  0.4503 -0.7113
 4304SOL     OW24370   0.884   1.773   7.823 -0.4956 -0.0692  0.6752
 4304SOL    HW124371   0.852   1.786   7.912 -0.9233  2.7468  0.1089
 4304SOL    HW224372   0.941   1.850   7.817 -1.3422  0.3755 -1.6635
 4305SOL     OW24373   3.194   0.641   9.947 -0.3821 -0.0902  0.3143
 4305SOL    HW124374   3.099   0.637   9.957 -0.0926 -2.3915  1.9788
 4305SOL    HW224375   3.209   0.731   9.917  1.2562 -0.6887 -0.6675
 4306SOL     OW24376   0.871   2.621  15.312  0.3054 -0.5488  0.4987
 4306SOL    HW124377   0.861   2.715  15.322 -0.0603 -0.2709 -2.4806
 4306SOL    HW224378   0.925   2.603  15.389  3.0349 -0.1832 -1.3241
 4307SOL     OW24379   1.616   3.908  14.944 -0.6500  0.4313  0.2720
 4307SOL    HW124380   1.642   3.999  14.957 -3.3562  1.2923 -0.5000
 4307SOL    HW224381   1.522   3.902  14.957 -0.7311 -2.3133 -1.4188
 4308SOL     OW24382   3.585   2.410   8.035 -0.1667  0.5760 -0.6959
 4308SOL    HW124383   3.521   2.457   7.981 -1.6164 -1.0239 -0.3839
 4308SOL    HW224384   3.651   2.476   8.053  1.1131 -0.6642 -0.8359
 4309SOL     OW24385   3.101   0.898   8.189  0.1819 -0.4457  0.6484
 4309SOL    HW124386   3.145   0.942   8.262 -0.4139 -0.0963  0.7888
 4309SOL    HW224387   3.176   0.841   8.169  0.3659 -0.1105  0.3616
 4310SOL     OW24388   2.852   3.237   5.659  0.0724 -0.1423  0.2704
 4310SOL    HW124389   2.825   3.266   5.571 -1.3509 -0.1489  0.7099
 4310SOL    HW224390   2.808   3.305   5.711 -0.1896 -0.2174  0.1478
 4311SOL     OW24391   3.549   1.433   6.217  0.0483 -0.1649 -0.3716
 4311SOL    HW124392   3.464   1.475   6.198 -0.7935 -1.1118  1.3210
 4311SOL    HW224393   3.566   1.486   6.295  1.7203 -1.6999  0.2960
 4312SOL     OW24394   0.536   3.893  12.446  0.0594  0.0495  0.1569
 4312SOL    HW124395   0.511   3.907  12.355 -0.3809  0.3147  0.3182
 4312SOL    HW224396   0.626   3.862  12.440 -0.4583 -1.5974  0.6358
 4313SOL     OW24397   3.825   4.669   8.731  0.1611 -0.2402  0.5101
 4313SOL    HW124398   3.917   4.662   8.757  0.6884 -1.2347 -1.6305
 4313SOL    HW224399   3.835   0.004   8.653 -2.9356 -1.1575 -0.5338
 4314SOL     OW24400   2.369   3.680  17.045 -0.2671  0.1590 -0.0754
 4314SOL    HW124401   2.447   3.627  17.031  1.1461  2.8766 -2.3698
 4314SOL    HW224402   2.321   3.625  17.108 -0.0715  0.1255  0.0463
 4315SOL     OW24403   1.846   1.851  11.742  0.1512  0.4498  0.1170
 4315SOL    HW124404   1.858   1.804  11.824 -4.0123  2.6276  1.9533
 4315SOL    HW224405   1.856   1.942  11.771 -4.8666  1.1762 -0.4381
 4316SOL     OW24406   1.918   0.298  17.035 -0.0845  0.5838  0.2859
 4316SOL    HW124407   1.913   0.357  17.110  0.3173 -0.4311  1.1156
 4316SOL    HW224408   1.886   0.222  17.083 -0.8652  0.8267  0.1418
 4317SOL     OW24409   1.203   0.968   5.744  0.4504  0.0409  0.5060
 4317SOL    HW124410   1.277   0.909   5.725 -0.8839 -1.1135 -1.0575
 4317SOL    HW224411   1.245   1.046   5.781  1.3284  0.5954 -1.6687
 4318SOL     OW24412   3.235   1.801   0.221 -0.3746  0.2980  0.4317
 4318SOL    HW124413   3.236   1.891   0.188 -2.0003  0.1498  0.0080
 4318SOL    HW224414   3.141   1.787   0.229 -0.2052 -0.0945  1.7209
 4319SOL     OW24415   4.612   3.981   7.285  0.0748 -0.3865 -0.8913
 4319SOL    HW124416   4.697   4.019   7.304 -0.9911  1.9469 -0.8381
 4319SOL    HW224417   4.630   3.887   7.276  1.4451 -0.0564 -1.5362
 4320SOL     OW24418   4.070   1.698  15.961  0.1465 -0.6358 -0.1219
 4320SOL    HW124419   4.008   1.630  15.986 -0.4442  0.8113  2.3071
 4320SOL    HW224420   4.103   1.743  16.039 -2.6776  1.8819 -0.4102
 4321SOL     OW24421   3.772   2.785   9.448  0.2783  0.3168 -0.2918
 4321SOL    HW124422   3.695   2.733   9.468  2.6489 -2.3393  2.0714
 4321SOL    HW224423   3.729   2.870   9.445 -2.0373 -0.8189  0.6866
 4322SOL     OW24424   4.669   1.128   9.380  0.2868  0.1186  0.7805
 4322SOL    HW124425   4.644   1.037   9.361  2.3868 -0.7866  2.4794
 4322SOL    HW224426   0.044   1.122   9.370  0.3069 -0.0789  1.1065
 4323SOL     OW24427   2.314   2.384   5.548 -0.9017 -0.2522  1.0269
 4323SOL    HW124428   2.380   2.325   5.512 -0.3264 -0.0731  1.8015
 4323SOL    HW224429   2.374   2.440   5.597  1.3959 -1.5082 -0.3323
 4324SOL     OW24430   3.226   3.679   9.948  0.8008  0.2153 -0.2698
 4324SOL    HW124431   3.257   3.765   9.919 -0.5752  0.3617 -1.2735
 4324SOL    HW224432   3.297   3.624   9.915 -0.9938 -0.2909 -3.2144
 4325SOL     OW24433   2.402   2.022   4.554 -0.3051 -0.0053  0.3343
 4325SOL    HW124434   2.498   2.023   4.560 -0.2828 -1.1399  0.0539
 4325SOL    HW224435   2.389   1.958   4.484  1.7543 -1.1212  0.9572
 4326SOL     OW24436   1.924   3.184   6.385 -0.6796  0.5451  0.3960
 4326SOL    HW124437   2.000   3.136   6.418 -0.7029 -0.1991 -0.6012
 4326SOL    HW224438   1.915   3.263   6.438 -2.2914 -1.4616  3.1039
 4327SOL     OW24439   3.333   0.713   8.120 -0.4561  0.3081 -0.2066
 4327SOL    HW124440   3.297   0.647   8.061  0.3039  0.2393 -0.5829
 4327SOL    HW224441   3.412   0.736   8.072  1.5474 -2.1802  1.9646
 4328SOL     OW24442   3.542   1.546   4.519  0.1145 -0.1145  0.0701
 4328SOL    HW124443   3.507   1.556   4.607 -2.1299 -2.0583 -0.5825
 4328SOL    HW224444   3.564   1.453   4.518 -1.7570 -0.6000  3.9227
 4329SOL     OW24445   2.587   4.327   1.368  0.5924 -0.2185  0.1579
 4329SOL    HW124446   2.681   4.312   1.382  0.5479 -0.9026 -0.2761
 4329SOL    HW224447   2.565   4.245   1.412  0.8787 -0.1797  0.3802
 4330SOL     OW24448   1.242   2.896   6.602 -0.2339 -0.2666 -0.4894
 4330SOL    HW124449   1.287   2.874   6.520  2.0270  2.9196 -0.1101
 4330SOL    HW224450   1.312   2.947   6.643 -0.0078  1.1873 -2.6299
 4331SOL     OW24451   4.406   3.705   8.989  0.4579  0.3338  0.3278
 4331SOL    HW124452   4.364   3.722   9.073  0.2094 -1.0829  0.4818
 4331SOL    HW224453   4.491   3.750   8.995 -0.3205  2.0196 -1.0756
 4332SOL     OW24454   2.747   2.890   6.018 -0.0285 -0.1555  0.0677
 4332SOL    HW124455   2.729   2.813   6.071 -1.7210  0.3867  0.2860
 4332SOL    HW224456   2.831   2.918   6.053  0.1928  1.2218 -1.5905
 4333SOL     OW24457   0.078   4.279   3.620 -0.0241 -0.5927  0.1566
 4333SOL    HW124458   0.075   4.316   3.708 -0.1915  1.6943 -0.8051
 4333SOL    HW224459   0.136   4.204   3.634 -0.1179 -0.3699  1.8043
 4334SOL     OW24460   2.470   2.368   5.828 -0.9992 -0.4255  0.1520
 4334SOL    HW124461   2.474   2.450   5.780 -0.1080 -0.2475  0.5296
 4334SOL    HW224462   2.539   2.368   5.895 -1.8096  0.5832  0.9751
 4335SOL     OW24463   3.800   4.152  12.099 -0.5494  0.7446  0.1703
 4335SOL    HW124464   3.818   4.151  12.193 -0.9439  0.3520  0.2422
 4335SOL    HW224465   3.864   4.088  12.069 -1.6564  0.2270 -1.0794
 4336SOL     OW24466   0.863   0.270   3.388  0.4022  0.1835 -0.0311
 4336SOL    HW124467   0.930   0.232   3.331  1.5028  0.2954  1.1851
 4336SOL    HW224468   0.780   0.230   3.364  0.7257 -0.7283  0.3629
 4337SOL     OW24469   0.658   0.831  14.469  0.4253 -0.1399  0.4759
 4337SOL    HW124470   0.739   0.786  14.492 -1.1164 -4.3557 -2.3023
 4337SOL    HW224471   0.599   0.764  14.502 -0.9581  1.0906  0.4905
 4338SOL     OW24472   3.354   2.325   4.419  0.3000 -0.3461  0.2108
 4338SOL    HW124473   3.430   2.381   4.434  0.2845 -0.2250 -0.1683
 4338SOL    HW224474   3.333   2.314   4.512 -1.3880  1.4737  0.0353
 4339SOL     OW24475   3.738   0.842   6.842 -0.3723 -0.2854  0.3159
 4339SOL    HW124476   3.823   0.876   6.870 -0.8478  0.9199  0.2919
 4339SOL    HW224477   3.746   0.760   6.891  2.7931  0.1161  0.4577
 4340SOL     OW24478   0.628   3.929   6.229  0.2338 -0.4458  0.2588
 4340SOL    HW124479   0.536   3.929   6.256  0.7724 -0.7658  2.1019
 4340SOL    HW224480   0.660   3.878   6.303 -1.1021 -0.2355  0.9820
 4341SOL     OW24481   0.211   4.430  13.139  0.4973  0.0997 -0.7999
 4341SOL    HW124482   0.139   4.434  13.076  0.6177 -0.1318 -0.9543
 4341SOL    HW224483   0.286   4.476  13.101  1.5226  1.6934  3.1733
 4342SOL     OW24484   4.038   2.868  16.902 -0.1250 -0.1797  0.5698
 4342SOL    HW124485   4.086   2.917  16.968  2.7038 -0.3498 -1.3403
 4342SOL    HW224486   4.007   2.941  16.848  0.4380 -0.0110  0.4715
 4343SOL     OW24487   3.772   1.810   3.288 -0.2993 -0.0558 -0.2654
 4343SOL    HW124488   3.708   1.831   3.220 -0.1201  1.7234  0.1132
 4343SOL    HW224489   3.715   1.766   3.351 -0.7105  0.2934 -0.4010
 4344SOL     OW24490   4.555   1.774   5.014  0.4351 -0.1533  0.1146
 4344SOL    HW124491   4.628   1.736   5.063  1.3840  0.3822 -0.8971
 4344SOL    HW224492   4.510   1.690   5.003  0.9781 -0.4878  0.4407
 4345SOL     OW24493   0.267   0.234   3.335 -0.2165  0.1379  0.3375
 4345SOL    HW124494   0.223   0.297   3.391 -0.5047  1.4492 -1.3491
 4345SOL    HW224495   0.291   0.178   3.409  0.9893  3.4188  2.4494
 4346SOL     OW24496   0.801   4.199  10.696 -0.0635 -0.5174 -0.4842
 4346SOL    HW124497   0.777   4.152  10.776  0.3308  0.9945  0.5245
 4346SOL    HW224498   0.896   4.200  10.698 -0.0646 -2.4382  0.5155
 4347SOL     OW24499   0.962   0.928   7.084  0.1022  0.2919 -0.2605
 4347SOL    HW124500   0.998   0.979   7.011  1.4739 -0.5230 -0.1421
 4347SOL    HW224501   0.996   0.843   7.058 -0.7242  0.5764 -2.2764
 4348SOL     OW24502   0.862   2.781   5.895  0.6202  0.3827 -0.4389
 4348SOL    HW124503   0.794   2.722   5.929  0.1284  0.6663 -0.9080
 4348SOL    HW224504   0.833   2.868   5.920 -2.0633 -0.4982 -0.3737
 4349SOL     OW24505   0.197   3.000   1.130 -0.4378  0.7220  0.3651
 4349SOL    HW124506   0.150   3.035   1.054  1.6983  2.2083 -0.2599
 4349SOL    HW224507   0.185   2.907   1.109 -3.8437  0.7375  2.2615
 4350SOL     OW24508   3.993   0.245  16.231  0.2591  0.1777  0.1272
 4350SOL    HW124509   4.032   0.181  16.172 -2.6928 -1.3970 -0.0718
 4350SOL    HW224510   4.072   0.276  16.276  0.8761  1.4011 -1.7841
 4351SOL     OW24511   2.893   1.199   7.366  0.1076 -0.3186 -0.1846
 4351SOL    HW124512   2.890   1.114   7.323  1.3609  0.0202 -0.9679
 4351SOL    HW224513   2.867   1.253   7.291 -0.1111 -0.5560 -0.2805
 4352SOL     OW24514   2.725   2.697  14.457 -0.0176 -0.8705 -0.1832
 4352SOL    HW124515   2.683   2.611  14.468  1.2814 -1.6881 -1.6596
 4352SOL    HW224516   2.700   2.708  14.366  0.8963  1.7476 -0.1220
 4353SOL     OW24517   1.835   3.878   1.086 -0.5822  0.1362  0.4708
 4353SOL    HW124518   1.875   3.928   1.158  2.1719 -0.7952 -0.3915
 4353SOL    HW224519   1.753   3.925   1.073  0.0657  0.8505 -0.9111
 4354SOL     OW24520   3.006   3.462   1.207 -0.1004 -0.1681 -0.1436
 4354SOL    HW124521   2.924   3.414   1.219 -1.5700  1.8895 -1.9944
 4354SOL    HW224522   3.007   3.467   1.111 -0.6704  0.9666 -0.0806
 4355SOL     OW24523   1.035   3.947  10.339  0.6115  0.3935 -0.6470
 4355SOL    HW124524   1.027   3.905  10.425 -0.4124 -1.1523 -1.4883
 4355SOL    HW224525   1.104   3.897  10.294 -0.5687 -0.7779 -1.1588
 4356SOL     OW24526   2.878   2.459   5.533  0.2727  0.1504 -0.2304
 4356SOL    HW124527   2.828   2.487   5.457  0.2763  1.5018  0.2587
 4356SOL    HW224528   2.933   2.395   5.487  1.1025  1.4195 -1.0035
 4357SOL     OW24529   3.414   3.232   9.920  0.3543 -0.1941 -0.1724
 4357SOL    HW124530   3.359   3.276   9.985  1.8739  1.0514  0.2622
 4357SOL    HW224531   3.406   3.137   9.935 -3.6405  0.0741 -0.4256
 4358SOL     OW24532   0.949   3.428   8.156 -0.0665 -0.2807 -0.1769
 4358SOL    HW124533   0.866   3.442   8.109 -0.4192  2.1806  1.1633
 4358SOL    HW224534   1.012   3.432   8.084  1.3336  1.3309  1.1372
 4359SOL     OW24535   3.270   3.574   5.410 -0.5570  0.2939 -0.2953
 4359SOL    HW124536   3.224   3.502   5.366  1.1076 -0.6525 -0.4602
 4359SOL    HW224537   3.342   3.526   5.450 -0.2210  2.6165  1.9230
 4360SOL     OW24538   4.072   1.824   4.020  0.5159  0.0303  0.4071
 4360SOL    HW124539   4.003   1.795   4.079  0.5662 -0.9169 -0.0009
 4360SOL    HW224540   4.039   1.908   3.987 -1.4498 -0.3364  1.4905
 4361SOL     OW24541   1.056   3.812   5.874 -0.1214  0.1573 -0.5418
 4361SOL    HW124542   1.034   3.868   5.800 -1.6000  1.6883  1.0706
 4361SOL    HW224543   0.988   3.840   5.935  0.8978 -1.1115  1.1589
 4362SOL     OW24544   3.384   3.864   4.094 -0.1822 -0.8938 -0.3521
 4362SOL    HW124545   3.440   3.790   4.069  0.1884 -0.2399 -1.4337
 4362SOL    HW224546   3.331   3.829   4.166  0.6538 -2.6812 -0.5995
 4363SOL     OW24547   1.326   2.539   5.965 -0.4230  0.0999  0.1260
 4363SOL    HW124548   1.290   2.495   5.889 -2.8362  0.1385  1.2515
 4363SOL    HW224549   1.260   2.607   5.974  0.2030  0.9397 -1.6867
 4364SOL     OW24550   0.658   2.942   2.345 -0.0933 -0.4497 -0.1594
 4364SOL    HW124551   0.753   2.946   2.357  0.1551  0.9621 -2.6567
 4364SOL    HW224552   0.651   2.898   2.261  0.5186  0.9143 -0.9281
 4365SOL     OW24553   2.099   0.991   4.784  0.5381 -0.8337 -0.9528
 4365SOL    HW124554   2.160   1.050   4.828  1.1631 -0.0210 -2.9235
 4365SOL    HW224555   2.108   0.902   4.818  0.5740 -0.0804  1.0387
 4366SOL     OW24556   2.966   0.267   6.981 -0.4517  0.0589  0.1898
 4366SOL    HW124557   2.957   0.294   7.073 -1.8567 -3.8186  1.1818
 4366SOL    HW224558   3.001   0.349   6.945 -1.0644  0.9849  1.6633
 4367SOL     OW24559   2.759   3.294   6.056 -0.0284 -0.4970 -0.4100
 4367SOL    HW124560   2.851   3.315   6.042 -0.3651  1.0365 -0.2278
 4367SOL    HW224561   2.732   3.279   5.965  2.7660  0.5971 -1.4215
 4368SOL     OW24562   3.448   3.017   6.406 -0.0568 -0.2150  0.2534
 4368SOL    HW124563   3.412   2.954   6.344  0.1282  2.5875 -2.7616
 4368SOL    HW224564   3.540   3.005   6.383 -0.2442 -2.4696  0.7423
 4369SOL     OW24565   2.706   0.398   0.282  0.1502 -0.1844 -0.4821
 4369SOL    HW124566   2.650   0.475   0.274  0.3339  0.1000  0.9862
 4369SOL    HW224567   2.652   0.326   0.250 -0.4071  0.2914 -0.6105
 4370SOL     OW24568   2.302   1.217   5.781 -0.4506  0.0947 -0.3193
 4370SOL    HW124569   2.345   1.233   5.865 -3.2192 -1.1279  1.3184
 4370SOL    HW224570   2.297   1.121   5.778 -1.8475  0.1321  0.6493
 4371SOL     OW24571   4.652   0.102   6.288 -0.0803  0.2506 -0.5822
 4371SOL    HW124572   4.650   0.084   6.382 -2.1507  1.1038 -0.4465
 4371SOL    HW224573   0.017   0.146   6.277  0.3290 -0.2171  0.6252
 4372SOL     OW24574   1.869   3.112  17.329  0.5046  0.5578  0.3099
 4372SOL    HW124575   1.907   3.070  17.252  2.1093 -0.4881  1.6496
 4372SOL    HW224576   1.777   3.092  17.314  1.4482 -3.4750 -0.1384
 4373SOL     OW24577   2.695   3.386  16.532  0.0150  0.8541 -0.3427
 4373SOL    HW124578   2.729   3.299  16.513  0.1445  1.3535 -2.3588
 4373SOL    HW224579   2.773   3.413  16.580  0.7861 -2.2274  0.1077
 4374SOL     OW24580   3.669   0.177   9.683  0.1204 -0.4968 -0.2660
 4374SOL    HW124581   3.662   0.271   9.694 -2.1257 -0.6008 -0.8726
 4374SOL    HW224582   3.730   0.144   9.750 -0.4519  1.4899  1.2173
 4375SOL     OW24583   4.472   2.150  11.171 -0.0060  0.3719 -0.2299
 4375SOL    HW124584   4.405   2.157  11.103  0.0106  0.3277 -0.2510
 4375SOL    HW224585   4.415   2.176  11.243  0.9609  0.1241  0.6284
 4376SOL     OW24586   2.861   4.131   5.775 -0.4581  0.4456  0.5495
 4376SOL    HW124587   2.829   4.045   5.800 -1.2762  0.0736 -1.7468
 4376SOL    HW224588   2.797   4.179   5.828  1.0226  2.5414  0.4744
 4377SOL     OW24589   4.559   3.361   3.125  0.6092  0.0461  0.2467
 4377SOL    HW124590   4.521   3.439   3.084 -1.2679 -0.5347  0.8471
 4377SOL    HW224591   4.620   3.323   3.062  3.6555  3.0330  1.3906
 4378SOL     OW24592   3.448   3.386   6.725 -0.4570 -0.1375 -0.2610
 4378SOL    HW124593   3.451   3.291   6.738 -0.0602  0.1995  2.2154
 4378SOL    HW224594   3.358   3.416   6.738 -0.1792  0.4552  0.2808
 4379SOL     OW24595   1.480   0.310   4.552 -0.2845 -0.3682  0.6753
 4379SOL    HW124596   1.449   0.243   4.614 -0.2679  0.8354  1.9820
 4379SOL    HW224597   1.430   0.281   4.476  1.7024 -1.2940 -0.2718
 4380SOL     OW24598   4.456   3.253   6.884  0.2968 -0.3766 -0.1737
 4380SOL    HW124599   4.404   3.333   6.885  1.5405  0.4296  0.7310
 4380SOL    HW224600   4.529   3.265   6.822 -2.1403  2.1404 -2.5455
 4381SOL     OW24601   0.672   0.616   6.796  0.1084  0.6442  0.4355
 4381SOL    HW124602   0.656   0.576   6.711 -1.5285 -1.9583  1.9782
 4381SOL    HW224603   0.584   0.649   6.816 -0.3819 -1.7628  2.2107
 4382SOL     OW24604   1.324   3.652   6.671 -0.5457  0.1171 -0.1695
 4382SOL    HW124605   1.252   3.661   6.733  3.0709  1.4601  3.8344
 4382SOL    HW224606   1.354   3.744   6.671  1.1056 -0.4183  0.4579
 4383SOL     OW24607   0.585   2.721   9.645  0.3609  0.5467  0.0102
 4383SOL    HW124608   0.673   2.696   9.675  0.3222  0.9509  0.4534
 4383SOL    HW224609   0.598   2.754   9.557 -1.3191 -2.2835 -1.2823
 4384SOL     OW24610   1.168   1.705  13.716  0.3132  0.1105 -0.4749
 4384SOL    HW124611   1.209   1.622  13.691 -1.4957 -1.1649  0.7720
 4384SOL    HW224612   1.228   1.766  13.672  0.1165  1.1075  0.6480
 4385SOL     OW24613   3.049   2.789   2.313 -0.1326  0.0676  0.3256
 4385SOL    HW124614   3.116   2.779   2.380  1.3598  1.8022 -0.9054
 4385SOL    HW224615   3.027   2.881   2.327  3.2536  1.5067 -3.7150
 4386SOL     OW24616   3.890   0.118  13.011  0.1631 -0.2889 -0.6241
 4386SOL    HW124617   3.813   0.062  13.004 -0.6007  0.3402  2.8218
 4386SOL    HW224618   3.847   0.204  13.012  0.5279 -0.1038 -0.6023
 4387SOL     OW24619   4.447   4.492   8.288 -0.3410  0.2335 -0.0563
 4387SOL    HW124620   4.404   4.577   8.303  0.7597  1.1518 -2.0623
 4387SOL    HW224621   4.416   4.458   8.372 -1.1048  0.1937 -0.3567
 4388SOL     OW24622   1.817   1.343   8.767 -0.3772  0.9209  0.4001
 4388SOL    HW124623   1.843   1.268   8.820  0.7426 -0.3633 -1.9248
 4388SOL    HW224624   1.726   1.348   8.795 -0.8967  2.5674 -1.5675
 4389SOL     OW24625   2.770   1.754   3.234 -0.1283 -0.0870 -0.5291
 4389SOL    HW124626   2.844   1.704   3.198  0.9850  0.8412  0.4697
 4389SOL    HW224627   2.718   1.677   3.255 -1.0852 -0.0086 -2.6540
 4390SOL     OW24628   2.010   0.940   8.076  0.4113 -0.5405  0.0104
 4390SOL    HW124629   2.025   0.993   7.997  2.3598  0.7738  1.2673
 4390SOL    HW224630   2.008   0.849   8.046 -0.6242 -0.4013 -0.3262
 4391SOL     OW24631   4.694   1.692   0.590 -0.4315 -0.1165  0.2251
 4391SOL    HW124632   4.690   1.747   0.668  0.6988  3.2407 -2.0775
 4391SOL    HW224633   4.686   1.605   0.629  0.0359 -0.2808 -0.0503
 4392SOL     OW24634   2.807   1.451  16.739 -0.1521  0.0517  0.2973
 4392SOL    HW124635   2.844   1.500  16.812 -0.3212  0.1081  0.3467
 4392SOL    HW224636   2.885   1.443  16.685  0.0382  0.2346  0.5462
 4393SOL     OW24637   0.270   1.212  17.519  0.1801  0.0877 -0.3436
 4393SOL    HW124638   0.281   1.190  17.427 -1.6351 -0.2273 -0.4784
 4393SOL    HW224639   0.190   1.263  17.517 -0.3300 -0.7241 -0.3882
 4394SOL     OW24640   4.406   3.073   2.837 -0.1060  0.1448  0.3476
 4394SOL    HW124641   4.398   3.024   2.919 -0.3930  0.0852  0.2837
 4394SOL    HW224642   4.497   3.067   2.807  0.2774 -0.5660  1.6628
 4395SOL     OW24643   1.034   3.797  12.736 -0.1078 -0.2346  0.3393
 4395SOL    HW124644   0.991   3.722  12.777  2.3142 -0.8885  1.7210
 4395SOL    HW224645   1.058   3.836  12.820  2.4938  0.0169 -0.5191
 4396SOL     OW24646   1.699   3.105   0.136  0.1971 -0.1249  0.3676
 4396SOL    HW124647   1.664   3.024   0.098  0.4579  0.7293 -1.6707
 4396SOL    HW224648   1.763   3.139   0.074 -0.1541 -0.4608 -0.1772
 4397SOL     OW24649   4.414   2.763  15.271 -0.1549  0.0042 -0.4762
 4397SOL    HW124650   4.507   2.784  15.256  0.3825 -0.5453  2.1757
 4397SOL    HW224651   4.414   2.669  15.255 -1.2298  0.0641 -0.8392
 4398SOL     OW24652   0.929   2.310   4.262 -0.4150 -0.2943 -0.4298
 4398SOL    HW124653   1.013   2.272   4.288 -0.4259 -0.5573 -0.7754
 4398SOL    HW224654   0.872   2.248   4.305 -0.2490  0.2745  0.6085
 4399SOL     OW24655   1.467   2.914   7.667 -0.3413 -0.4240 -0.7581
 4399SOL    HW124656   1.440   2.987   7.723  2.4378  0.0733 -0.1053
 4399SOL    HW224657   1.562   2.916   7.677 -0.3928 -0.7556 -0.1797
 4400SOL     OW24658   3.564   0.524   0.360 -0.1156  0.8276 -0.6190
 4400SOL    HW124659   3.605   0.592   0.307 -2.2435  2.2408 -0.4450
 4400SOL    HW224660   3.510   0.581   0.414  0.3782  0.1477  0.5930
 4401SOL     OW24661   0.603   3.669   3.856  0.1493 -0.1453  0.1236
 4401SOL    HW124662   0.581   3.593   3.803 -0.0186 -0.3904  0.5464
 4401SOL    HW224663   0.564   3.749   3.819 -0.8106 -1.0061 -0.7302
 4402SOL     OW24664   4.202   2.602   2.525 -0.3558  0.6029 -0.0608
 4402SOL    HW124665   4.211   2.676   2.465 -0.2636 -1.0128 -1.9975
 4402SOL    HW224666   4.166   2.543   2.459  0.9354 -1.8588  1.4230
 4403SOL     OW24667   1.184   3.297   8.310 -0.2041 -0.0252  0.1753
 4403SOL    HW124668   1.186   3.335   8.398 -1.8704  1.3732 -0.3812
 4403SOL    HW224669   1.145   3.370   8.262 -0.4197 -0.5057 -0.3869
 4404SOL     OW24670   0.456   4.593   3.149  0.8813  0.0108 -0.6276
 4404SOL    HW124671   0.446   4.593   3.054 -1.5541  1.5733 -0.3719
 4404SOL    HW224672   0.503   4.511   3.161 -0.3607 -0.5477  0.3796
 4405SOL     OW24673   1.701   3.499  13.961 -0.2209  0.2666  0.3067
 4405SOL    HW124674   1.737   3.572  14.011 -1.1612  0.7941  0.2085
 4405SOL    HW224675   1.739   3.427  14.011 -0.2484 -0.7613 -1.1412
 4406SOL     OW24676   1.256   2.624   8.049  0.3825  0.0926 -0.4174
 4406SOL    HW124677   1.198   2.621   8.125 -0.7695 -1.0276 -1.3394
 4406SOL    HW224678   1.322   2.558   8.067 -0.5820 -1.7379 -3.6345
 4407SOL     OW24679   3.769   2.602  13.295  0.1819 -0.4523  0.4824
 4407SOL    HW124680   3.778   2.541  13.222  0.8670  0.3196 -0.0855
 4407SOL    HW224681   3.692   2.575  13.345 -1.1957  2.4725 -0.0657
 4408SOL     OW24682   3.569   4.097  16.418 -0.0540  0.3130  0.2956
 4408SOL    HW124683   3.614   4.091  16.502 -0.4918  0.0637  0.5098
 4408SOL    HW224684   3.493   4.146  16.450  0.4599  0.8315  0.7294
 4409SOL     OW24685   4.220   2.717   7.699 -0.1791  0.7604 -0.4377
 4409SOL    HW124686   4.246   2.809   7.692 -2.1541  1.4621  1.8601
 4409SOL    HW224687   4.307   2.678   7.685 -0.4509 -0.1384  0.4238
 4410SOL     OW24688   0.972   0.670   9.861  0.1476 -0.6179 -0.2336
 4410SOL    HW124689   0.935   0.616   9.792  0.0723 -0.7625 -0.0808
 4410SOL    HW224690   0.934   0.626   9.937  0.7422 -0.2359  0.2862
 4411SOL     OW24691   0.033   1.140  13.456  0.5147  0.4751  0.6854
 4411SOL    HW124692   4.685   1.137  13.524  0.8293  0.4630  0.9954
 4411SOL    HW224693   0.106   1.165  13.512  0.3474 -0.0251  1.1228
 4412SOL     OW24694   2.596   2.505   0.392  0.1895  0.2551  0.0266
 4412SOL    HW124695   2.539   2.491   0.467  1.3813 -1.0531  0.6885
 4412SOL    HW224696   2.631   2.594   0.394 -1.2619  0.9348 -3.3254
 4413SOL     OW24697   2.918   1.456   3.150  0.1735 -0.1308 -0.0354
 4413SOL    HW124698   2.883   1.525   3.094  0.3243 -1.4496 -1.7529
 4413SOL    HW224699   3.010   1.455   3.124  0.3789  0.9639  0.6396
 4414SOL     OW24700   1.356   1.052   7.000 -0.0604  0.5656  0.3251
 4414SOL    HW124701   1.346   1.147   7.002  3.3702  0.8827  1.7597
 4414SOL    HW224702   1.329   1.019   6.914  0.4664  0.9557  0.0091
 4415SOL     OW24703   2.381   3.581   3.936  0.6572  0.5210 -0.3128
 4415SOL    HW124704   2.452   3.533   3.979 -0.5967 -1.2395 -0.1759
 4415SOL    HW224705   2.385   3.552   3.844  1.5230 -1.5675  0.3914
 4416SOL     OW24706   1.940   4.446  16.144 -0.4570  0.5511  0.2683
 4416SOL    HW124707   2.003   4.446  16.071 -0.0991  0.1913  0.5795
 4416SOL    HW224708   1.942   4.541  16.159 -0.4587  0.6650 -0.4263
 4417SOL     OW24709   1.990   4.071  12.810 -0.3307  0.0969  0.6985
 4417SOL    HW124710   1.897   4.059  12.796  0.2613 -0.5158 -2.6843
 4417SOL    HW224711   2.003   4.128  12.886  2.0197 -0.9451  1.0875
 4418SOL     OW24712   3.777   0.041  14.517  0.0054  0.5152 -0.0544
 4418SOL    HW124713   3.683   0.023  14.504 -0.0607  0.0756  1.0430
 4418SOL    HW224714   3.796   0.091  14.438 -0.8962  1.3524  0.2456
 4419SOL     OW24715   3.297   4.265  14.564 -0.0851 -0.2526 -0.2666
 4419SOL    HW124716   3.312   4.179  14.523  0.1486 -0.1664 -0.3643
 4419SOL    HW224717   3.369   4.321  14.534  0.6240 -0.2830  1.3870
 4420SOL     OW24718   2.463   4.007   2.189  0.2778  0.5945 -0.3987
 4420SOL    HW124719   2.417   4.089   2.206  1.3423  0.8429  1.3215
 4420SOL    HW224720   2.393   3.945   2.172  1.3218 -1.0049  1.0412
 4421SOL     OW24721   2.595   1.389   2.477  0.8665 -0.2443 -0.7721
 4421SOL    HW124722   2.645   1.465   2.447 -0.9689  0.8577 -0.9995
 4421SOL    HW224723   2.669   1.341   2.514  1.0370 -0.3189 -1.2086
 4422SOL     OW24724   1.317   0.242  12.232 -0.2856  0.0619  0.9397
 4422SOL    HW124725   1.254   0.238  12.304 -0.0874 -1.7790  1.0184
 4422SOL    HW224726   1.261   0.244  12.155  0.7396 -3.1006  0.1255
 4423SOL     OW24727   4.071   4.507  16.634 -0.3346  0.1631  0.0495
 4423SOL    HW124728   4.086   4.498  16.540  1.5075 -0.8566  0.4285
 4423SOL    HW224729   3.977   4.515  16.650 -0.3559 -1.5403  0.7842
 4424SOL     OW24730   2.486   0.518   6.209 -0.1179  0.3064 -0.4086
 4424SOL    HW124731   2.444   0.479   6.286 -0.3726  1.6263  0.1226
 4424SOL    HW224732   2.405   0.518   6.158 -0.2497 -3.3139 -0.2466
 4425SOL     OW24733   3.135   2.147   7.620 -0.2608  0.5477 -0.0345
 4425SOL    HW124734   3.155   2.145   7.713 -1.4492  1.5944  0.2445
 4425SOL    HW224735   3.184   2.077   7.578  2.3796  2.1307  0.4411
 4426SOL     OW24736   0.008   2.410  16.333  0.0239  0.0649 -0.1334
 4426SOL    HW124737   4.667   2.375  16.267  0.3872  0.1324 -0.5049
 4426SOL    HW224738   0.090   2.387  16.290 -0.9862 -2.2934 -0.7870
 4427SOL     OW24739   2.603   4.469   2.971 -0.1036  0.2562  0.0619
 4427SOL    HW124740   2.623   4.514   2.888 -0.6092  0.0992 -0.1432
 4427SOL    HW224741   2.686   4.481   3.018  0.5814  1.0382 -1.3304
 4428SOL     OW24742   4.643   0.901   5.603 -0.3837  0.2865  0.4173
 4428SOL    HW124743   4.610   0.812   5.592 -0.8286  0.5157 -0.0864
 4428SOL    HW224744   4.671   0.906   5.694 -0.8680 -0.8748  0.6350
 4429SOL     OW24745   0.648   1.959   3.597 -0.2220 -0.5533 -0.3060
 4429SOL    HW124746   0.676   2.047   3.621  0.0084 -0.0060 -2.5888
 4429SOL    HW224747   0.678   1.968   3.507  1.0291  0.4975  0.2163
 4430SOL     OW24748   1.127   4.561   9.299 -0.3638 -0.3621 -0.3031
 4430SOL    HW124749   1.104   4.611   9.378  2.4830  0.9666 -0.3091
 4430SOL    HW224750   1.078   4.603   9.228 -0.4379  0.0488 -0.0130
 4431SOL     OW24751   2.597   2.172  13.039 -0.9966  0.0105  0.2730
 4431SOL    HW124752   2.641   2.240  13.090 -0.3840 -1.1081  1.2208
 4431SOL    HW224753   2.632   2.093  13.080 -1.3910 -0.1719  0.2521
 4432SOL     OW24754   1.117   2.721   9.238  0.3829 -0.1776  0.2083
 4432SOL    HW124755   1.111   2.787   9.306  0.6161  1.3078 -1.2124
 4432SOL    HW224756   1.192   2.666   9.261  0.5737  0.8460  1.9873
 4433SOL     OW24757   1.565   1.020  15.215  0.0056  0.3095  0.0809
 4433SOL    HW124758   1.536   1.102  15.255  1.9150  0.7515  0.5539
 4433SOL    HW224759   1.504   0.950  15.241  0.4710 -0.4357 -0.8406
 4434SOL     OW24760   1.724   0.479   1.832 -0.1131 -0.0777  0.1594
 4434SOL    HW124761   1.645   0.525   1.803 -0.6444 -0.8378  0.4366
 4434SOL    HW224762   1.768   0.446   1.753 -0.2402  0.2380 -0.0429
 4435SOL     OW24763   2.251   1.540   3.088 -0.1059  0.0015  0.2367
 4435SOL    HW124764   2.291   1.555   3.174  0.5963 -0.3373 -0.0295
 4435SOL    HW224765   2.191   1.468   3.104 -1.5207  1.1311  0.0036
 4436SOL     OW24766   1.228   2.359   7.411 -0.4488  0.4543 -0.2237
 4436SOL    HW124767   1.318   2.391   7.412 -0.1296 -0.4406 -0.4704
 4436SOL    HW224768   1.224   2.300   7.486  1.8454  1.2610  0.5216
 4437SOL     OW24769   2.309   4.494   1.073 -0.2611  0.3688  0.2234
 4437SOL    HW124770   2.256   4.536   1.005 -0.1918  0.1275  0.0228
 4437SOL    HW224771   2.244   4.488   1.144  1.2281  1.9141  1.7195
 4438SOL     OW24772   0.421   2.108   9.345 -0.0854 -0.1149 -0.0245
 4438SOL    HW124773   0.359   2.179   9.360 -0.8022 -0.4603 -1.3191
 4438SOL    HW224774   0.454   2.083   9.431 -1.8113  3.5282  1.6900
 4439SOL     OW24775   1.569   1.134  13.937 -0.0836  0.2940 -0.0685
 4439SOL    HW124776   1.659   1.105  13.926 -0.1734  0.4661 -1.2486
 4439SOL    HW224777   1.590   1.222  13.968 -0.4390 -0.0702  1.1907
 4440SOL     OW24778   3.112   3.700   7.343 -0.1818  0.2011  0.5093
 4440SOL    HW124779   3.062   3.686   7.263  2.2964  0.4329 -1.0717
 4440SOL    HW224780   3.054   3.651   7.402 -4.0736  3.8583 -0.2980
 4441SOL     OW24781   2.045   3.856  12.972  0.1749  0.4371 -0.2494
 4441SOL    HW124782   2.006   3.914  12.905  0.2378  1.4220  0.5671
 4441SOL    HW224783   2.132   3.893  12.987  0.7192 -0.7963 -0.3898
 4442SOL     OW24784   0.143   2.991   8.168 -0.0106  0.6038 -0.3600
 4442SOL    HW124785   0.136   2.898   8.188  2.1526  0.8389  1.3631
 4442SOL    HW224786   0.201   3.025   8.236 -0.5833 -0.0717  0.4683
 4443SOL     OW24787   0.935   3.541   2.135  0.5913  0.8533 -0.7251
 4443SOL    HW124788   0.866   3.607   2.126 -1.2561 -1.1427 -1.3343
 4443SOL    HW224789   0.976   3.568   2.217 -1.1044  0.1122  0.3729
 4444SOL     OW24790   2.425   4.011   5.819  0.1553  0.2461 -0.0909
 4444SOL    HW124791   2.476   3.993   5.898  0.2326 -0.9231 -0.4045
 4444SOL    HW224792   2.420   4.106   5.823 -0.2504  0.2807 -1.4369
 4445SOL     OW24793   4.201   3.257  13.945  0.1856  0.1572 -0.3005
 4445SOL    HW124794   4.123   3.304  13.914 -0.3814  0.8661  2.1803
 4445SOL    HW224795   4.187   3.250  14.040 -0.5061  0.1403 -0.4024
 4446SOL     OW24796   2.907   1.943   3.797 -0.0358 -0.4753  0.3839
 4446SOL    HW124797   2.936   2.017   3.850 -2.0446  1.7601 -1.6570
 4446SOL    HW224798   2.948   1.959   3.713 -2.0650  1.1578 -0.3138
 4447SOL     OW24799   4.376   2.998   4.507 -0.3881  0.0214 -0.1518
 4447SOL    HW124800   4.412   3.055   4.439  0.5300  0.9690  1.1163
 4447SOL    HW224801   4.284   3.026   4.508  0.7113  3.6379 -0.2385
 4448SOL     OW24802   2.859   1.291   3.377  0.4775 -0.2433 -0.4623
 4448SOL    HW124803   2.934   1.301   3.436  0.2073  2.0676 -0.4933
 4448SOL    HW224804   2.883   1.349   3.305 -3.1630 -1.4924 -2.6838
 4449SOL     OW24805   1.430   3.767   4.261 -0.1356  0.4536 -0.9876
 4449SOL    HW124806   1.423   3.858   4.232 -0.3984 -0.1633 -2.8830
 4449SOL    HW224807   1.385   3.779   4.344 -1.6489 -1.9276 -1.4489
 4450SOL     OW24808   4.211   3.220   1.869  0.0853 -0.4472  0.4787
 4450SOL    HW124809   4.125   3.211   1.911 -0.7646  1.3606 -0.8681
 4450SOL    HW224810   4.227   3.130   1.842  0.2253 -0.3552  0.2495
 4451SOL     OW24811   3.601   1.156   7.831  0.0336 -0.5278  0.5806
 4451SOL    HW124812   3.675   1.165   7.771 -0.1237  1.5314  0.6966
 4451SOL    HW224813   3.571   1.247   7.840 -0.4173 -0.6590  0.4112
 4452SOL     OW24814   1.038   4.211   4.718  0.0982 -0.7608  0.3418
 4452SOL    HW124815   0.943   4.225   4.720  0.0740 -0.8132 -0.5222
 4452SOL    HW224816   1.062   4.300   4.693  1.1571 -0.7753  1.2939
 4453SOL     OW24817   1.340   2.525  16.619  0.3092  0.1749  0.2162
 4453SOL    HW124818   1.431   2.555  16.628  0.2936  0.0970  0.6689
 4453SOL    HW224819   1.340   2.483  16.534 -1.9116 -2.0622  1.3348
 4454SOL     OW24820   2.652   2.670   6.160  0.4526  0.0597 -0.4225
 4454SOL    HW124821   2.671   2.577   6.169 -0.5847 -0.2697 -1.5958
 4454SOL    HW224822   2.558   2.657   6.169  0.3166  0.5603 -1.0931
 4455SOL     OW24823   1.152   3.664   8.292  0.3410  0.3151 -0.2829
 4455SOL    HW124824   1.109   3.645   8.375 -0.0099  0.5198 -0.4180
 4455SOL    HW224825   1.080   3.678   8.231  1.1639  1.2158 -1.0603
 4456SOL     OW24826   2.585   4.529   8.016  0.0392  0.0842 -0.0492
 4456SOL    HW124827   2.565   4.437   8.032  0.2171 -0.3835 -2.5391
 4456SOL    HW224828   2.497   4.566   8.017  0.8512  1.9897  2.1738
 4457SOL     OW24829   2.433   3.517   6.760  0.7877 -0.0071 -0.2781
 4457SOL    HW124830   2.450   3.423   6.754 -0.0680 -0.3297  2.6554
 4457SOL    HW224831   2.417   3.552   6.672 -1.7656 -0.2073  0.1306
 4458SOL     OW24832   2.205   1.321   6.907 -0.0505  0.2063  0.2696
 4458SOL    HW124833   2.175   1.245   6.957  0.8386 -0.6079 -0.4414
 4458SOL    HW224834   2.176   1.394   6.962  0.0493  0.3461  0.1357
 4459SOL     OW24835   1.907   2.097   3.211  0.3293  0.3910 -0.0346
 4459SOL    HW124836   1.891   2.179   3.166 -0.3470 -0.0610 -0.6110
 4459SOL    HW224837   1.872   2.030   3.152  1.0880  1.0916 -1.2754
 4460SOL     OW24838   3.600   3.768  10.076  0.5012  0.0928  0.0164
 4460SOL    HW124839   3.555   3.810  10.003 -0.3921  0.1593  0.5998
 4460SOL    HW224840   3.542   3.694  10.093 -0.8882  0.9885 -0.8930
 4461SOL     OW24841   1.514   2.187   5.158  0.4950 -0.0837 -0.0048
 4461SOL    HW124842   1.494   2.103   5.117 -0.9069  0.7664 -1.0715
 4461SOL    HW224843   1.515   2.240   5.079 -0.1556  1.9495  1.3514
 4462SOL     OW24844   3.311   2.579   9.356  0.3742 -0.1626 -0.3344
 4462SOL    HW124845   3.268   2.581   9.270  0.5522  0.1591 -0.4172
 4462SOL    HW224846   3.270   2.656   9.395 -1.7586 -1.8236  0.7058
 4463SOL     OW24847   0.593   3.266   3.279  0.0288  1.1128  0.0149
 4463SOL    HW124848   0.606   3.305   3.193 -0.6650  2.2730  0.4331
 4463SOL    HW224849   0.509   3.222   3.265  0.9926 -1.0064  0.9277
 4464SOL     OW24850   1.357   2.945   9.366  0.6132 -0.4454 -0.0429
 4464SOL    HW124851   1.393   3.015   9.419 -3.1967  1.0619  0.5502
 4464SOL    HW224852   1.352   2.870   9.425 -1.0146 -1.2360 -1.1767
 4465SOL     OW24853   2.765   4.543   1.168  0.6046 -0.4119  0.1883
 4465SOL    HW124854   2.709   4.479   1.125  0.5211  1.7526 -2.8992
 4465SOL    HW224855   2.715   4.591   1.234  0.3635 -0.9330  0.3814
 4466SOL     OW24856   4.686   3.261   0.693 -0.0877  0.0556 -0.3029
 4466SOL    HW124857   0.037   3.310   0.650  0.1747  1.4029  1.6420
 4466SOL    HW224858   4.658   3.203   0.622 -0.2854  1.0977 -1.0871
 4467SOL     OW24859   4.557   3.392   5.631  0.4165  0.0291  0.0347
 4467SOL    HW124860   4.605   3.474   5.647  0.7534 -0.6749  2.5422
 4467SOL    HW224861   4.474   3.407   5.675  0.5989 -0.1859  0.4453
 4468SOL     OW24862   1.045   4.060  12.279  0.4369  0.6379  0.4434
 4468SOL    HW124863   1.122   4.022  12.320 -0.0728 -0.0109  0.7772
 4468SOL    HW224864   1.054   4.154  12.295  2.0188  0.4278  0.7828
 4469SOL     OW24865   0.428   1.297   1.323 -0.0412 -0.4729 -0.0030
 4469SOL    HW124866   0.425   1.325   1.415 -2.4088  1.8771 -0.7595
 4469SOL    HW224867   0.482   1.219   1.325  0.4738 -0.1279 -0.3484
 4470SOL     OW24868   4.260   4.703   4.757  0.4100  0.0353  0.3827
 4470SOL    HW124869   4.179   4.655   4.774  0.6096 -1.2190 -2.2863
 4470SOL    HW224870   4.320   4.665   4.822 -0.8967 -1.2418  0.8428
 4471SOL     OW24871   4.711   3.251   7.228  0.2223  0.2045 -0.3749
 4471SOL    HW124872   4.618   3.234   7.211 -0.5755  0.7265  3.4031
 4471SOL    HW224873   0.001   3.174   7.284  2.4980 -0.8036 -2.1559
 4472SOL     OW24874   2.694   3.222   0.432 -0.2623  0.0378 -0.0786
 4472SOL    HW124875   2.743   3.304   0.435  0.0155 -0.1530  0.5115
 4472SOL    HW224876   2.734   3.188   0.352  0.7901  0.8910  0.0738
 4473SOL     OW24877   4.313   0.740   3.893 -0.6994 -0.8128  0.3412
 4473SOL    HW124878   4.267   0.820   3.866  1.7400  0.6839  0.6314
 4473SOL    HW224879   4.309   0.679   3.820  0.7124  1.7959 -1.9172
 4474SOL     OW24880   0.164   2.748   6.143  0.2089 -0.1796 -0.1050
 4474SOL    HW124881   0.169   2.797   6.225 -0.5959  0.1505 -0.2542
 4474SOL    HW224882   0.069   2.745   6.129  0.2570  0.2285 -0.5154
 4475SOL     OW24883   1.681   3.111   3.208  0.7269 -0.1044 -0.2325
 4475SOL    HW124884   1.757   3.082   3.158 -0.2509  0.9590 -2.3366
 4475SOL    HW224885   1.673   3.204   3.185  0.5767  0.0662  0.4958
 4476SOL     OW24886   0.124   3.663  10.873  0.2562 -0.4375  0.1889
 4476SOL    HW124887   0.043   3.631  10.834  0.8399 -2.1188  0.3271
 4476SOL    HW224888   0.182   3.588  10.858  0.2071 -0.0079 -2.0920
 4477SOL     OW24889   3.534   2.279   6.521  0.4676 -0.2680  0.1974
 4477SOL    HW124890   3.488   2.214   6.573  0.5885  0.8929  1.7483
 4477SOL    HW224891   3.542   2.359   6.572 -1.0521  0.1618 -0.2496
 4478SOL     OW24892   1.875   0.846  10.670 -0.0049 -0.4914  0.2299
 4478SOL    HW124893   1.925   0.927  10.674  1.2236 -1.2248  0.0342
 4478SOL    HW224894   1.797   0.858  10.724 -0.4892 -1.1610 -0.3175
 4479SOL     OW24895   0.972   0.491   8.169 -0.0809  0.6466  0.1630
 4479SOL    HW124896   0.990   0.434   8.244  1.4591  0.1278 -0.6015
 4479SOL    HW224897   1.058   0.534   8.167  0.8893 -1.2422  1.4270
 4480SOL     OW24898   3.145   3.586  10.190  0.3968 -0.5107  0.2103
 4480SOL    HW124899   3.153   3.612  10.098  1.1037  0.7943  0.6448
 4480SOL    HW224900   3.051   3.607  10.192  0.1924 -1.3870 -0.3007
 4481SOL     OW24901   0.746   2.268  15.108 -0.3072  0.0784  0.6411
 4481SOL    HW124902   0.683   2.242  15.176 -1.5229 -0.7793 -0.8167
 4481SOL    HW224903   0.741   2.188  15.056  2.0366 -0.3021  1.0023
 4482SOL     OW24904   4.440   2.428   3.838 -0.9092 -0.4082  0.1589
 4482SOL    HW124905   4.500   2.371   3.886 -0.8094 -1.6659 -1.4410
 4482SOL    HW224906   4.460   2.393   3.750 -0.2299 -0.9775  0.5348
 4483SOL     OW24907   4.356   2.278  11.934  0.3229  0.6722  0.1566
 4483SOL    HW124908   4.378   2.354  11.988  1.1182 -0.5348  1.5150
 4483SOL    HW224909   4.398   2.298  11.850  1.0709  2.5451  0.9748
 4484SOL     OW24910   4.110   0.535   7.593 -0.0621 -0.5281  0.4977
 4484SOL    HW124911   4.028   0.521   7.641 -1.1723  0.2530 -1.1806
 4484SOL    HW224912   4.162   0.473   7.644 -2.2396  0.2625  3.7252
 4485SOL     OW24913   0.135   1.937   8.888 -0.7095  0.1125  0.0036
 4485SOL    HW124914   0.224   1.969   8.875 -0.1046 -1.8469 -0.7225
 4485SOL    HW224915   0.128   1.869   8.821  0.7605 -1.9728  1.9711
 4486SOL     OW24916   3.445   0.884   8.613 -0.0140 -0.5251  0.1301
 4486SOL    HW124917   3.512   0.947   8.639  0.0036  0.5552 -2.5804
 4486SOL    HW224918   3.408   0.866   8.700  1.7469  0.9646  1.1794
 4487SOL     OW24919   3.183   0.716   9.642 -0.4779 -0.1779  0.0257
 4487SOL    HW124920   3.248   0.749   9.705  0.2558  1.1054 -1.3951
 4487SOL    HW224921   3.209   0.624   9.641 -2.3239 -0.6705 -1.5169
 4488SOL     OW24922   3.134   4.282   4.222  0.6733 -0.0886 -0.0957
 4488SOL    HW124923   3.076   4.339   4.171  0.2536 -0.9900 -0.6191
 4488SOL    HW224924   3.064   4.230   4.260  0.0198  0.2780 -0.8058
 4489SOL     OW24925   1.889   0.057   5.648  0.1714 -0.3928  0.3503
 4489SOL    HW124926   1.849   4.700   5.606 -1.0565  0.8332 -0.7128
 4489SOL    HW224927   1.983   0.042   5.647 -0.1613 -2.4418 -0.9034
 4490SOL     OW24928   0.414   4.632   5.695 -0.3501  0.4742  0.2283
 4490SOL    HW124929   0.390   4.543   5.669 -0.9551  0.1214  1.9868
 4490SOL    HW224930   0.434   4.619   5.788 -0.3010 -3.2556 -0.2830
 4491SOL     OW24931   2.053   3.063  12.576 -0.1147 -0.5874 -0.4312
 4491SOL    HW124932   2.072   3.031  12.664  1.9598 -0.1235 -0.6915
 4491SOL    HW224933   1.966   3.101  12.588  0.1834  0.4501 -1.5190
 4492SOL     OW24934   3.914   4.421   0.521 -0.5139 -0.2423 -0.0482
 4492SOL    HW124935   3.998   4.466   0.507 -0.8428  0.7467  1.1680
 4492SOL    HW224936   3.850   4.481   0.481 -0.3386  0.6620  1.0309
 4493SOL     OW24937   3.276   2.085   0.180  0.6452 -1.2018 -0.2637
 4493SOL    HW124938   3.340   2.050   0.118  0.2764 -2.3811  0.0198
 4493SOL    HW224939   3.324   2.083   0.263 -1.0324 -0.2348  0.7441
 4494SOL     OW24940   2.985   0.276  13.449 -0.4324  0.1131  0.2475
 4494SOL    HW124941   3.008   0.361  13.412  0.1532  0.5163  1.5149
 4494SOL    HW224942   2.932   0.303  13.524 -1.1252  0.2569 -0.2941
 4495SOL     OW24943   2.967   0.593  10.887 -0.1659  0.4193  0.1326
 4495SOL    HW124944   2.992   0.527  10.952  0.4790 -0.6108 -1.1744
 4495SOL    HW224945   2.928   0.655  10.950 -0.9901 -1.1467  1.1536
 4496SOL     OW24946   1.837   1.404   5.008  0.6612 -0.1183 -0.3403
 4496SOL    HW124947   1.853   1.340   4.938 -0.4349 -0.3539 -0.3714
 4496SOL    HW224948   1.923   1.407   5.050  1.1362  0.3012 -1.3507
 4497SOL     OW24949   2.773   2.865   6.734 -0.2435  0.2905 -0.4317
 4497SOL    HW124950   2.781   2.916   6.653  1.9118  0.7591  0.0679
 4497SOL    HW224951   2.715   2.923   6.781 -1.8486 -1.1442 -0.6368
 4498SOL     OW24952   3.560   0.386   7.429  0.0450 -0.4023  0.2354
 4498SOL    HW124953   3.549   0.477   7.455  2.6935 -0.8645  2.9540
 4498SOL    HW224954   3.630   0.360   7.489 -0.2329  1.0962  1.1931
 4499SOL     OW24955   3.955   4.334   8.937 -0.4537  0.0982 -1.1782
 4499SOL    HW124956   3.955   4.421   8.977  2.5345 -1.0281  1.2858
 4499SOL    HW224957   4.037   4.334   8.888 -0.0057 -0.8355 -0.4370
 4500SOL     OW24958   3.572   3.130   2.299  0.3776 -0.3024  0.1457
 4500SOL    HW124959   3.581   3.114   2.205 -1.4683 -0.0138 -0.0852
 4500SOL    HW224960   3.643   3.074   2.331 -0.4809 -1.6826 -0.3792
 4501SOL     OW24961   3.421   3.598  10.194  0.1989 -0.0404 -0.0986
 4501SOL    HW124962   3.331   3.601  10.229  1.0969 -0.0301  2.1913
 4501SOL    HW224963   3.476   3.618  10.270  0.5196 -2.1422  0.2211
 4502SOL     OW24964   4.585   4.169  10.476 -0.3120 -0.4633 -0.2010
 4502SOL    HW124965   4.536   4.211  10.547 -2.0949 -0.0582 -1.6513
 4502SOL    HW224966   4.516   4.117  10.434 -0.5418  2.6798 -3.7433
 4503SOL     OW24967   0.950   2.708  14.245  0.1196  0.2863  0.0374
 4503SOL    HW124968   0.931   2.647  14.316  1.6036 -0.1152  0.1052
 4503SOL    HW224969   0.974   2.784  14.297 -0.6460 -0.7303  1.8853
 4504SOL     OW24970   2.405   1.534  13.246  0.1037 -0.0889  0.1226
 4504SOL    HW124971   2.418   1.461  13.185 -0.1093 -1.3054  1.5296
 4504SOL    HW224972   2.484   1.584  13.225 -0.3333  0.5329 -0.0105
 4505SOL     OW24973   2.337   1.545  14.034 -0.5854  0.3129  0.2569
 4505SOL    HW124974   2.313   1.570  14.123 -0.1333  2.0953 -0.1242
 4505SOL    HW224975   2.262   1.562  13.977 -1.2114  4.4520  2.3453
 4506SOL     OW24976   3.067   4.509   6.706  0.3799 -0.4092  0.1776
 4506SOL    HW124977   3.047   4.469   6.791 -0.8537  1.2179  0.6411
 4506SOL    HW224978   3.162   4.499   6.711  0.4367  0.9838  2.0052
 4507SOL     OW24979   3.995   0.176   5.286  0.2876 -0.1791  0.2679
 4507SOL    HW124980   4.047   0.254   5.303  1.4729 -0.6381 -1.3316
 4507SOL    HW224981   3.965   0.163   5.376  1.9491  1.5217  1.0622
 4508SOL     OW24982   2.267   1.101   3.479  0.5352  0.2270  0.0583
 4508SOL    HW124983   2.330   1.055   3.424 -0.6941 -0.9692 -0.3736
 4508SOL    HW224984   2.250   1.025   3.535 -0.7123  1.1728  0.9780
 4509SOL     OW24985   2.939   0.281  11.313 -0.1972 -0.4667  0.2179
 4509SOL    HW124986   2.891   0.248  11.389  1.8182 -0.7371  1.4075
 4509SOL    HW224987   2.976   0.201  11.276 -0.0875 -1.2050  1.8893
 4510SOL     OW24988   3.373   4.114  10.085  0.5673 -0.4644  0.5179
 4510SOL    HW124989   3.346   4.106   9.993  1.8113  3.5959 -0.1902
 4510SOL    HW224990   3.293   4.148  10.125  0.3639  0.1940 -0.4606
 4511SOL     OW24991   0.509   4.308   5.931 -0.0116  0.6448 -0.0394
 4511SOL    HW124992   0.451   4.289   6.004  0.3175  1.1096  0.3431
 4511SOL    HW224993   0.570   4.237   5.951 -0.5422 -0.1841 -1.3302
 4512SOL     OW24994   0.190   2.579  12.437 -0.3924 -0.7195 -0.4792
 4512SOL    HW124995   0.169   2.662  12.480  1.2840 -0.6469  0.1776
 4512SOL    HW224996   0.191   2.525  12.516 -0.1285  0.4291  0.2913
 4513SOL     OW24997   1.119   0.928  11.662  0.1530  0.0942  0.1219
 4513SOL    HW124998   1.139   0.996  11.597  0.5975 -0.3022 -0.1584
 4513SOL    HW224999   1.199   0.930  11.713  1.4375 -0.7680 -1.8415
 4514SOL     OW25000   4.462   0.017  11.811 -0.4515 -0.3621  0.0494
 4514SOL    HW125001   4.519   4.662  11.832  0.0326 -0.4677 -1.6480
 4514SOL    HW225002   4.382   4.690  11.834 -0.0292 -1.3890 -0.5578
 4515SOL     OW25003   0.031   4.338   1.764  0.8450  0.2532 -0.1201
 4515SOL    HW125004   0.069   4.353   1.851  2.2540  1.7151 -0.9891
 4515SOL    HW225005   4.660   4.357   1.789  0.2138 -0.4227 -1.9097
 4516SOL     OW25006   1.804   4.006  11.456  0.1578  0.1165 -0.7067
 4516SOL    HW125007   1.766   3.920  11.474  1.0805 -0.1900 -0.2719
 4516SOL    HW225008   1.893   3.982  11.434 -0.4229 -0.7149 -2.1468
 4517SOL     OW25009   2.638   2.255   2.224  0.5361  0.0414 -0.2854
 4517SOL    HW125010   2.626   2.250   2.130 -0.4503  2.7704 -0.3033
 4517SOL    HW225011   2.727   2.290   2.230 -0.0053  1.2947  0.5467
 4518SOL     OW25012   3.545   2.277   0.116 -0.2091 -0.8547 -0.1840
 4518SOL    HW125013   3.495   2.352   0.084 -1.5388 -2.2430 -1.4177
 4518SOL    HW225014   3.562   2.223   0.038 -0.3103 -1.5536  0.2789
 4519SOL     OW25015   1.909   1.176   2.092  0.0438 -0.4724  0.2672
 4519SOL    HW125016   1.831   1.131   2.059 -1.7090  0.1569  3.5817
 4519SOL    HW225017   1.965   1.099   2.106  1.8849  0.5807 -1.3617
 4520SOL     OW25018   4.100   1.876   6.497  0.1641 -0.6731  0.2832
 4520SOL    HW125019   4.008   1.903   6.494  0.7966  1.5359  0.9954
 4520SOL    HW225020   4.152   1.949   6.529 -0.3891  0.2279 -0.8879
 4521SOL     OW25021   2.482   4.459  12.395  0.4586 -0.4376  0.0131
 4521SOL    HW125022   2.436   4.379  12.421 -0.7766  0.5738  0.9394
 4521SOL    HW225023   2.426   4.484  12.322  1.0854  1.4503  0.1862
 4522SOL     OW25024   2.452   3.030   6.515  0.1485 -0.2246  0.2889
 4522SOL    HW125025   2.546   3.013   6.514 -0.1338 -1.6619 -1.8610
 4522SOL    HW225026   2.420   2.943   6.539  1.8601 -1.1387 -0.7655
 4523SOL     OW25027   1.905   0.195  14.132  0.1266  0.3425  0.1145
 4523SOL    HW125028   1.908   0.184  14.227  0.7524 -0.9427 -0.0558
 4523SOL    HW225029   1.954   0.117  14.104  0.5913  0.5574  0.3391
 4524SOL     OW25030   2.454   2.596   4.163  0.0262 -0.3960 -0.0478
 4524SOL    HW125031   2.390   2.597   4.234 -1.2505 -1.4975 -1.1915
 4524SOL    HW225032   2.470   2.502   4.174  0.7042 -0.3789 -0.9180
 4525SOL     OW25033   4.440   0.808  10.952 -0.4876 -0.0822  0.3043
 4525SOL    HW125034   4.368   0.858  10.991  2.2907  3.0109  1.4382
 4525SOL    HW225035   4.493   0.761  11.017  1.4762  2.2660  0.3632
 4526SOL     OW25036   4.065   2.001   4.610 -0.0079 -0.0339 -0.2088
 4526SOL    HW125037   3.986   1.957   4.644 -0.8336  2.1451  0.7529
 4526SOL    HW225038   4.040   2.021   4.520 -1.9681 -1.5009  0.0095
 4527SOL     OW25039   1.754   2.901  11.634 -0.4930  0.0250 -0.2230
 4527SOL    HW125040   1.834   2.921  11.682 -1.6223 -0.8596  2.0314
 4527SOL    HW225041   1.769   2.813  11.599  0.4965  0.2328 -0.3119
 4528SOL     OW25042   1.694   1.704  12.777 -0.7312 -0.2752  0.8440
 4528SOL    HW125043   1.770   1.695  12.835  0.4488  0.6087 -0.5638
 4528SOL    HW225044   1.727   1.787  12.741 -0.6651 -0.1140  1.2744
 4529SOL     OW25045   4.258   1.449   6.860 -0.1615  0.3423 -0.2616
 4529SOL    HW125046   4.163   1.451   6.874 -0.0491  0.6297  0.4496
 4529SOL    HW225047   4.258   1.380   6.793  0.8020  1.0590 -0.9897
 4530SOL     OW25048   3.841   3.468   3.797  0.2129  0.5357  0.1059
 4530SOL    HW125049   3.910   3.505   3.852  0.4261  0.6194 -0.2164
 4530SOL    HW225050   3.869   3.378   3.779 -1.1234  0.5665 -2.0612
 4531SOL     OW25051   2.903   2.267   1.504 -0.7180  0.5022 -0.4991
 4531SOL    HW125052   2.890   2.174   1.523  1.5787  0.5362  1.2379
 4531SOL    HW225053   2.906   2.263   1.408 -0.3894  0.7224 -0.4962
 4532SOL     OW25054   1.181   3.220   2.597  0.0519 -0.5209  0.4259
 4532SOL    HW125055   1.263   3.181   2.627  0.2019 -1.2883 -0.9471
 4532SOL    HW225056   1.184   3.206   2.502 -0.0798 -0.0116  0.3474
 4533SOL     OW25057   2.269   1.249   4.853 -0.1936 -0.1177 -0.2090
 4533SOL    HW125058   2.217   1.266   4.931  0.3682 -4.5678  1.1563
 4533SOL    HW225059   2.351   1.296   4.870  0.6191 -0.5266 -2.9660
 4534SOL     OW25060   2.089   1.486   4.720  0.3534  0.1688 -0.3205
 4534SOL    HW125061   2.159   1.491   4.786  1.9418  1.3399 -2.1193
 4534SOL    HW225062   2.045   1.406   4.750  0.5552  0.1065 -0.1812
 4535SOL     OW25063   2.901   1.762   4.359  0.0977 -0.1678  0.0998
 4535SOL    HW125064   2.857   1.747   4.275  1.6957 -1.9388 -0.4203
 4535SOL    HW225065   2.825   1.748   4.414 -0.6155 -0.9027 -1.0666
 4536SOL     OW25066   4.622   2.929   4.597 -0.0450  0.1706 -0.8599
 4536SOL    HW125067   4.535   2.941   4.559  0.1853 -0.7497 -1.6554
 4536SOL    HW225068   4.641   2.837   4.580 -3.7734 -0.5483 -1.1919
 4537SOL     OW25069   1.627   1.674   2.215 -0.2967  0.2153  0.3647
 4537SOL    HW125070   1.651   1.718   2.134  1.1221  0.2835  0.8051
 4537SOL    HW225071   1.557   1.615   2.188  0.5903 -2.4265  3.7448
 4538SOL     OW25072   2.742   4.537   8.475 -0.4324 -0.8629 -0.2657
 4538SOL    HW125073   2.672   4.597   8.450 -0.4006 -0.2974  1.0063
 4538SOL    HW225074   2.727   4.476   8.403  0.4328  2.5956 -3.3766
 4539SOL     OW25075   1.949   4.621   8.907 -0.4560  0.3477  0.7881
 4539SOL    HW125076   1.854   4.635   8.912 -0.5151  0.7688 -1.3203
 4539SOL    HW225077   1.944   4.526   8.893  1.4920  0.0873  1.9314
 4540SOL     OW25078   4.434   3.580   3.033 -0.0989 -0.8904 -0.3831
 4540SOL    HW125079   4.400   3.589   2.944 -0.6518  1.0693  0.0197
 4540SOL    HW225080   4.459   3.671   3.047 -2.7441 -0.1337 -0.4480
 4541SOL     OW25081   2.778   1.493   3.928  0.3765 -0.0502 -0.1579
 4541SOL    HW125082   2.857   1.546   3.935 -1.3374  2.2877  1.6704
 4541SOL    HW225083   2.802   1.407   3.962 -0.1073 -0.0173  0.2645
 4542SOL     OW25084   2.564   0.651   3.218  0.2002  0.6784  0.2466
 4542SOL    HW125085   2.517   0.594   3.279  3.0670 -0.2009  1.6283
 4542SOL    HW225086   2.624   0.701   3.273  1.2000 -1.6024  1.2673
 4543SOL     OW25087   0.663   0.451   8.065  0.7510  0.1551 -0.1995
 4543SOL    HW125088   0.721   0.398   8.010 -0.9649 -1.1043 -0.8027
 4543SOL    HW225089   0.720   0.526   8.084  1.7395 -0.2575 -1.5263
 4544SOL     OW25090   1.683   0.659   7.714  0.0846 -0.5423 -0.0316
 4544SOL    HW125091   1.730   0.735   7.748  0.9718 -0.8340 -0.5982
 4544SOL    HW225092   1.712   0.667   7.623 -0.2490 -0.1191 -0.1016
 4545SOL     OW25093   4.277   3.925   8.624  0.2163  0.8295  0.4623
 4545SOL    HW125094   4.346   3.988   8.601  0.8302 -0.5096 -1.3884
 4545SOL    HW225095   4.268   3.958   8.714  0.4320  1.0503  0.4055
 4546SOL     OW25096   3.014   0.242   7.969 -0.2641  0.4312  0.2647
 4546SOL    HW125097   2.961   0.181   7.918 -2.2871 -0.0585  2.9487
 4546SOL    HW225098   2.995   0.209   8.056 -2.1408 -1.4158 -0.8449
 4547SOL     OW25099   1.162   3.365   7.323  0.1693 -0.3877 -0.1761
 4547SOL    HW125100   1.083   3.392   7.369  0.4078 -0.2247  0.1423
 4547SOL    HW225101   1.131   3.324   7.242  1.4249 -0.1674 -0.7674
 4548SOL     OW25102   4.404   2.225   5.236  0.3556 -0.4302  0.0487
 4548SOL    HW125103   4.351   2.301   5.208  0.5418 -1.3356 -2.8190
 4548SOL    HW225104   4.374   2.157   5.175  1.1571 -0.2861 -0.4982
 4549SOL     OW25105   0.076   3.790   7.602  0.5058 -0.1597 -0.5398
 4549SOL    HW125106   0.074   3.694   7.605 -2.8831 -0.0158  1.3363
 4549SOL    HW225107   4.719   3.808   7.657  0.1790 -1.6687 -0.4956
 4550SOL     OW25108   3.127   1.227   3.455  0.2422 -0.7925  0.2508
 4550SOL    HW125109   3.151   1.161   3.391  1.0190  0.6779 -0.9904
 4550SOL    HW225110   3.167   1.307   3.420 -0.0788  0.9190  3.7735
 4551SOL     OW25111   4.271   1.969   3.515  0.2015  0.0700 -0.4192
 4551SOL    HW125112   4.254   1.989   3.423  0.6877  2.3336 -0.0116
 4551SOL    HW225113   4.250   1.875   3.508  2.2106 -0.1949 -3.3256
 4552SOL     OW25114   2.382   4.453   6.789 -0.4043  0.3816 -0.1607
 4552SOL    HW125115   2.450   4.495   6.738 -0.2448  0.7380  0.3466
 4552SOL    HW225116   2.380   4.513   6.864 -1.5502 -0.4205  0.4612
 4553SOL     OW25117   0.670   3.815   7.316  0.1573 -0.2304 -0.1044
 4553SOL    HW125118   0.737   3.751   7.338  0.5082  0.5337  1.0663
 4553SOL    HW225119   0.707   3.892   7.360 -0.2894  0.0748 -0.2752
 4554SOL     OW25120   0.027   4.351  16.030 -0.1093 -0.1788  0.3995
 4554SOL    HW125121   4.696   4.371  16.109 -2.4271 -0.2370 -1.0573
 4554SOL    HW225122   0.054   4.260  16.040  2.6916  0.5376 -0.7408
 4555SOL     OW25123   0.984   2.067   7.816  0.1732  0.3053  0.2331
 4555SOL    HW125124   0.926   2.143   7.808 -1.8646 -1.3278 -0.5259
 4555SOL    HW225125   0.971   2.043   7.724 -0.1038  0.0179  0.3507
 4556SOL     OW25126   2.226   2.505   7.813 -0.0922  0.5820  0.5257
 4556SOL    HW125127   2.218   2.418   7.775 -0.6971 -0.0444  2.0973
 4556SOL    HW225128   2.293   2.492   7.881 -0.4775  0.3022  0.8527
 4557SOL     OW25129   3.398   3.510   9.829  0.4837  0.2089 -0.7453
 4557SOL    HW125130   3.434   3.424   9.854 -0.2016 -0.1423 -0.9624
 4557SOL    HW225131   3.453   3.522   9.752 -1.2671  0.9453 -1.8714
 4558SOL     OW25132   4.706   4.245   9.940 -0.3823  0.3076 -0.4981
 4558SOL    HW125133   0.013   4.290   9.859 -0.1735 -0.9310 -1.1221
 4558SOL    HW225134   0.008   4.316  10.000 -1.5543  0.4476 -0.2552
 4559SOL     OW25135   0.860   0.573  15.468 -0.0589 -0.0772  0.0659
 4559SOL    HW125136   0.951   0.551  15.487  0.0919  1.2311  0.8891
 4559SOL    HW225137   0.833   0.497  15.416  0.3956  1.1072 -1.9148
 4560SOL     OW25138   3.150   0.010   0.410 -0.1149 -0.0282  0.4753
 4560SOL    HW125139   3.084   4.665   0.384 -1.3466  1.9520 -1.3900
 4560SOL    HW225140   3.129   0.020   0.503  1.0394 -1.6347  0.9087
 4561SOL     OW25141   2.540   4.226   1.803  0.1918  0.2769 -0.1477
 4561SOL    HW125142   2.476   4.271   1.859 -0.3678 -2.1424  1.1255
 4561SOL    HW225143   2.475   4.193   1.740 -0.1172 -0.1968  0.4224
 4562SOL     OW25144   1.275   0.724   7.758  0.0656  0.3901  0.5403
 4562SOL    HW125145   1.342   0.777   7.715 -0.7085  1.0635  0.1555
 4562SOL    HW225146   1.251   0.667   7.685  1.6526  0.1888  0.1857
 4563SOL     OW25147   4.196   2.995   8.384  0.3777  0.0300 -0.4168
 4563SOL    HW125148   4.210   2.901   8.374 -0.7919 -0.3543  1.5042
 4563SOL    HW225149   4.279   3.013   8.341  1.3452  0.4099  1.6265
 4564SOL     OW25150   1.404   2.734  14.288 -0.2760 -0.0357 -0.8642
 4564SOL    HW125151   1.319   2.692  14.277 -0.1237  0.0842 -2.4546
 4564SOL    HW225152   1.391   2.791  14.364 -2.9704 -0.5916 -0.9195
 4565SOL     OW25153   3.251   1.476  14.855  0.3755  0.0963  0.3481
 4565SOL    HW125154   3.310   1.422  14.907 -0.5158 -0.5458  0.7028
 4565SOL    HW225155   3.184   1.414  14.826 -0.5961  0.4254  1.8864
 4566SOL     OW25156   1.222   3.247   1.863  0.1215 -0.3463 -0.0125
 4566SOL    HW125157   1.285   3.289   1.805  0.3775 -0.6098  0.0700
 4566SOL    HW225158   1.143   3.250   1.809  1.7319 -1.0076 -2.4100
 4567SOL     OW25159   3.760   3.805  17.080  0.0207 -0.0784  0.2840
 4567SOL    HW125160   3.797   3.716  17.084  0.6532  0.2659  2.2765
 4567SOL    HW225161   3.797   3.839  17.161 -0.7634 -0.2717  0.7205
 4568SOL     OW25162   4.410   1.519   4.928 -0.3401  0.7218 -0.3403
 4568SOL    HW125163   4.336   1.486   4.978 -0.5589 -0.2358 -1.3080
 4568SOL    HW225164   4.455   1.437   4.908 -2.7739 -0.6005 -0.3406
 4569SOL     OW25165   3.958   1.104   8.894  0.0638  0.1924 -0.0026
 4569SOL    HW125166   3.997   1.025   8.857 -3.2601 -2.1333  1.5647
 4569SOL    HW225167   3.867   1.078   8.882  0.3563 -0.9248  0.1672
 4570SOL     OW25168   1.801   3.278   4.560  0.1036  0.6057 -0.1650
 4570SOL    HW125169   1.755   3.194   4.562  1.3748 -0.0779 -0.1369
 4570SOL    HW225170   1.741   3.325   4.502 -1.3859 -1.9279 -0.6813
 4571SOL     OW25171   3.897   3.789   3.046  0.1890  0.0441  0.5659
 4571SOL    HW125172   3.866   3.870   3.006 -0.2547  0.8223  2.4978
 4571SOL    HW225173   3.965   3.813   3.109  0.2466 -0.3163  0.6406
 4572SOL     OW25174   3.029   3.714  12.848 -0.2810 -0.4936  0.5449
 4572SOL    HW125175   3.101   3.739  12.907  0.4922  1.6919 -1.3145
 4572SOL    HW225176   2.968   3.667  12.904 -0.8808 -1.5542 -1.0248
 4573SOL     OW25177   3.212   3.301   2.625 -0.2265  0.2303 -0.2907
 4573SOL    HW125178   3.272   3.236   2.589 -0.7892 -1.0953  1.1348
 4573SOL    HW225179   3.224   3.379   2.571  0.4422  0.4051  0.1108
 4574SOL     OW25180   4.362   0.293   3.560 -0.0669  0.2448  0.3772
 4574SOL    HW125181   4.340   0.237   3.486 -3.0920  3.3206 -1.0726
 4574SOL    HW225182   4.446   0.260   3.592  0.9112  1.9596 -0.3708
 4575SOL     OW25183   3.486   2.811  11.345  0.5231 -0.0435 -0.0477
 4575SOL    HW125184   3.461   2.767  11.264  0.1950 -0.3709  0.2304
 4575SOL    HW225185   3.576   2.781  11.333  0.3028 -0.3263 -0.9950
 4576SOL     OW25186   2.254   2.078   1.100  0.3222  0.2173 -0.3202
 4576SOL    HW125187   2.310   2.004   1.076  0.0405  0.0844 -0.5766
 4576SOL    HW225188   2.238   2.062   1.193  1.4946 -2.2035 -0.5449
 4577SOL     OW25189   0.218   1.836   2.164  0.0280  0.0645 -0.1129
 4577SOL    HW125190   0.255   1.750   2.143  0.2364  0.1114  0.0651
 4577SOL    HW225191   0.164   1.797   2.232 -0.1771  1.1889  0.3677
 4578SOL     OW25192   1.609   2.915   2.974 -0.1780 -0.2215  0.3394
 4578SOL    HW125193   1.686   2.961   3.008  0.9343 -1.4141 -0.5312
 4578SOL    HW225194   1.623   2.830   3.016 -0.7787 -1.5071 -2.0080
 4579SOL     OW25195   2.883   2.850   6.327 -0.3982  0.0036 -0.3845
 4579SOL    HW125196   2.967   2.817   6.357  0.7783  3.7585  0.4542
 4579SOL    HW225197   2.826   2.775   6.342 -1.0558  1.1685  2.8871
 4580SOL     OW25198   1.901   4.439   6.379  0.1983  0.0861  0.1356
 4580SOL    HW125199   1.926   4.369   6.320  1.0070 -1.8438  2.7702
 4580SOL    HW225200   1.815   4.474   6.357  0.1600 -1.0404 -1.4596
 4581SOL     OW25201   4.607   4.344  16.267 -0.2493 -0.6590  0.2416
 4581SOL    HW125202   4.581   4.367  16.356  0.2618 -1.4121  0.5821
 4581SOL    HW225203   4.544   4.276  16.245  0.6774 -1.6498  0.6747
 4582SOL     OW25204   0.086   3.521   6.440  0.4238  0.5788 -1.0979
 4582SOL    HW125205   0.124   3.583   6.501  1.7144 -0.6213 -0.6771
 4582SOL    HW225206   0.165   3.507   6.388  1.4265  1.6676  0.1642
 4583SOL     OW25207   2.675   4.596   2.739  0.1954 -0.1030  0.0551
 4583SOL    HW125208   2.652   4.575   2.648 -0.4422  0.5441  0.0686
 4583SOL    HW225209   2.758   4.640   2.720  0.1802  0.2363  0.8061
 4584SOL     OW25210   1.102   3.316  17.647  0.4458 -0.2463 -0.0447
 4584SOL    HW125211   1.124   3.269  17.566  0.5983 -2.4032  1.2507
 4584SOL    HW225212   1.053   3.389  17.610  3.0571  1.4932 -0.1013
 4585SOL     OW25213   0.807   2.996   6.091  0.0340  0.1161  0.0514
 4585SOL    HW125214   0.887   3.046   6.109 -0.8297  0.1561  3.7672
 4585SOL    HW225215   0.766   3.047   6.021  0.6102 -0.7365 -0.9206
 4586SOL     OW25216   3.332   0.777  11.527 -0.1168 -0.6131  0.8274
 4586SOL    HW125217   3.409   0.790  11.581  0.7639 -0.0401 -0.5740
 4586SOL    HW225218   3.301   0.866  11.509 -0.1562 -1.0115 -1.0766
 4587SOL     OW25219   3.960   3.435   5.734 -0.1342 -0.8635 -0.2961
 4587SOL    HW125220   4.050   3.466   5.722 -0.5032 -0.0129 -0.8392
 4587SOL    HW225221   3.957   3.425   5.829 -1.6513  2.3331 -0.0028
 4588SOL     OW25222   1.689   1.457  12.616 -0.0607  0.0845  0.1759
 4588SOL    HW125223   1.690   1.539  12.665  0.8240  0.2544 -0.1136
 4588SOL    HW225224   1.599   1.426  12.621  0.4226 -1.4905 -0.6984
 4589SOL     OW25225   0.076   2.298   1.932 -0.3836 -0.1127  0.1577
 4589SOL    HW125226   0.085   2.262   1.844  0.9288 -0.6857  0.5303
 4589SOL    HW225227   0.005   2.361   1.921 -1.3329 -1.5508 -1.9171
 4590SOL     OW25228   1.707   2.318  13.754  0.0331 -0.0423  0.4878
 4590SOL    HW125229   1.752   2.359  13.680 -0.7357  0.1287  0.1211
 4590SOL    HW225230   1.644   2.385  13.779  0.8427  0.7843  0.3370
 4591SOL     OW25231   2.027   0.515   5.864  0.1850  0.6699 -0.1490
 4591SOL    HW125232   1.952   0.468   5.827  0.1962 -0.9491  1.8562
 4591SOL    HW225233   2.103   0.482   5.817  0.3725  1.0682 -0.1200
 4592SOL     OW25234   3.518   0.499   8.573 -0.5452  0.5150 -0.4338
 4592SOL    HW125235   3.449   0.542   8.523 -1.5536 -2.0513 -1.2489
 4592SOL    HW225236   3.530   0.570   8.636  4.3140 -1.7359  1.2044
 4593SOL     OW25237   1.924   1.816   4.697  0.1347  0.1959  0.3398
 4593SOL    HW125238   1.923   1.834   4.791  1.7294 -0.7652  0.5368
 4593SOL    HW225239   1.994   1.879   4.680  0.8605 -1.6953 -3.7346
 4594SOL     OW25240   2.246   0.097   7.518 -0.5058  0.2699  0.2030
 4594SOL    HW125241   2.272   0.053   7.599  0.6354  2.1740  0.8715
 4594SOL    HW225242   2.239   0.187   7.549  0.0368  0.6607 -0.8152
 4595SOL     OW25243   3.448   1.135   7.149  0.5972  0.2841 -0.1020
 4595SOL    HW125244   3.384   1.206   7.145 -0.7022 -0.7327  2.4292
 4595SOL    HW225245   3.401   1.054   7.168  0.8104  0.3495  0.7137
 4596SOL     OW25246   1.245   3.400   7.969  0.3246  0.0783  0.5756
 4596SOL    HW125247   1.289   3.452   8.037 -1.1824  1.1886  0.6997
 4596SOL    HW225248   1.255   3.310   8.000 -0.0820 -0.5515 -1.1585
 4597SOL     OW25249   1.151   1.257   0.107  0.2379 -0.3669 -0.3232
 4597SOL    HW125250   1.087   1.322   0.137  3.6939  3.1746 -0.6402
 4597SOL    HW225251   1.107   1.210   0.036  1.1584 -0.6231 -0.7137
 4598SOL     OW25252   4.327   0.071  12.393  0.6262  0.2893  0.0183
 4598SOL    HW125253   4.394   0.123  12.348  1.4987 -1.0181 -0.1962
 4598SOL    HW225254   4.289   0.020  12.321  1.0024  0.3378 -0.2142
 4599SOL     OW25255   0.303   2.059   6.948 -0.5656 -0.1840  0.7151
 4599SOL    HW125256   0.302   2.152   6.925  1.4350 -0.2590  0.3631
 4599SOL    HW225257   0.366   2.053   7.020 -1.6004  0.5770  1.7101
 4600SOL     OW25258   2.480   2.625   5.682  0.0800 -0.1861  0.2728
 4600SOL    HW125259   2.422   2.654   5.611 -0.1484  0.4241  0.7165
 4600SOL    HW225260   2.481   2.707   5.731  1.6869  0.1691 -0.3450
 4601SOL     OW25261   3.939   1.921   7.520 -0.3883  0.2248 -0.1604
 4601SOL    HW125262   3.969   1.907   7.431 -0.0720  1.2553 -0.2135
 4601SOL    HW225263   4.015   1.914   7.577 -0.0239  3.1668 -0.3064
 4602SOL     OW25264   3.021   4.472   5.361  0.3783  0.2655  0.1959
 4602SOL    HW125265   2.974   4.537   5.309  0.2072 -0.4884 -0.6019
 4602SOL    HW225266   2.986   4.391   5.324 -0.4798  1.1282 -0.8670
 4603SOL     OW25267   0.229   1.260  17.251  0.7777  0.2454  0.2227
 4603SOL    HW125268   0.310   1.234  17.206  0.1414  0.8054 -1.2190
 4603SOL    HW225269   0.244   1.352  17.272  0.1021  1.1524 -3.2056
 4604SOL     OW25270   2.674   4.674  11.940 -0.3877 -0.5169 -0.7631
 4604SOL    HW125271   2.600   4.710  11.988  0.8161  2.7198 -1.3240
 4604SOL    HW225272   2.731   4.671  12.016  0.8492 -1.0748 -1.7224
 4605SOL     OW25273   3.262   4.160   8.742  0.1308  0.7897 -0.4791
 4605SOL    HW125274   3.182   4.197   8.705  0.8166 -0.3683 -3.1039
 4605SOL    HW225275   3.252   4.066   8.725 -0.0627  0.7382 -0.0897
 4606SOL     OW25276   2.871   1.880  13.547 -0.3015 -0.4522  0.0830
 4606SOL    HW125277   2.818   1.958  13.531 -0.0530  0.1473  2.2547
 4606SOL    HW225278   2.951   1.919  13.513 -1.7408  1.4068 -1.1957
 4607SOL     OW25279   0.529   3.804   5.210  0.1216  0.2945 -0.3025
 4607SOL    HW125280   0.604   3.843   5.165  0.1784 -0.7303 -1.0947
 4607SOL    HW225281   0.475   3.787   5.133  3.7205 -2.6802 -2.1397
 4608SOL     OW25282   4.254   1.070   3.234 -0.1849 -0.1556 -0.7174
 4608SOL    HW125283   4.344   1.092   3.215 -0.3877  0.0076 -1.4614
 4608SOL    HW225284   4.243   1.127   3.311  0.2478 -1.9276  0.6660
 4609SOL     OW25285   3.238   0.220  13.231  0.4431  0.2363  0.0270
 4609SOL    HW125286   3.316   0.275  13.228  0.6138 -0.1070 -2.2633
 4609SOL    HW225287   3.162   0.271  13.260  0.2505  0.8270 -1.5514
 4610SOL     OW25288   4.269   2.758   8.758 -0.7828 -0.2076  0.5355
 4610SOL    HW125289   4.262   2.769   8.853  0.7772 -2.9117  0.9606
 4610SOL    HW225290   4.239   2.668   8.758 -1.4409  0.0168  2.4450
 4611SOL     OW25291   4.154   4.216   7.174 -0.3611  0.0582 -0.4076
 4611SOL    HW125292   4.239   4.261   7.170 -0.4144  0.0361 -1.7624
 4611SOL    HW225293   4.178   4.152   7.107  1.1044  0.8354 -0.6487
 4612SOL     OW25294   2.080   0.917   2.993 -0.0188  0.1994  0.3791
 4612SOL    HW125295   1.992   0.918   3.029  0.2389 -0.1526  1.0049
 4612SOL    HW225296   2.092   1.012   2.992 -0.4372  0.2488 -0.5084
 4613SOL     OW25297   0.421   4.184   6.424 -0.0825 -0.6562 -0.1770
 4613SOL    HW125298   0.385   4.105   6.465 -3.2589  1.3197  0.8295
 4613SOL    HW225299   0.347   4.237   6.453  0.3008 -1.1556  1.7124
 4614SOL     OW25300   2.637   2.673   3.652  0.8729  0.1693 -0.0377
 4614SOL    HW125301   2.693   2.743   3.686  1.2543 -0.7198  1.1897
 4614SOL    HW225302   2.582   2.645   3.726  1.2577  1.4879  0.7593
 4615SOL     OW25303   3.961   2.887   7.682  0.1024  0.3452  0.7352
 4615SOL    HW125304   3.965   2.809   7.627  1.3045 -0.3308  1.7669
 4615SOL    HW225305   4.019   2.943   7.630  0.0703  0.0407  0.3753
 4616SOL     OW25306   3.626   3.945   5.773  0.0575 -0.2534  0.0597
 4616SOL    HW125307   3.682   3.998   5.830  1.8538 -1.7161 -0.3408
 4616SOL    HW225308   3.555   3.920   5.832  0.7339  2.8198  2.1611
 4617SOL     OW25309   3.635   0.959   9.762 -0.3072 -0.3638  0.2842
 4617SOL    HW125310   3.656   1.020   9.833 -0.7098 -1.7402  1.5885
 4617SOL    HW225311   3.713   0.963   9.707 -0.6826  1.0168 -0.1553
 4618SOL     OW25312   1.281   4.365   5.829  0.1407  0.5293 -0.3292
 4618SOL    HW125313   1.280   4.332   5.919 -0.0878  2.0900  0.2399
 4618SOL    HW225314   1.283   4.457   5.856  1.2195 -0.2866  2.3765
 4619SOL     OW25315   3.873   2.747   5.551 -0.2924  0.4674 -0.0126
 4619SOL    HW125316   3.785   2.710   5.555  0.2420 -0.7332  0.7001
 4619SOL    HW225317   3.915   2.683   5.494 -1.7888 -1.9551  1.6177
 4620SOL     OW25318   1.375   0.844  11.795  0.4134 -0.4156 -0.0280
 4620SOL    HW125319   1.465   0.827  11.768  0.2409  1.3202 -1.6857
 4620SOL    HW225320   1.383   0.934  11.826  0.5583 -0.5792  0.4005
 4621SOL     OW25321   2.776   1.644   4.870  0.1139 -0.2298 -0.3266
 4621SOL    HW125322   2.858   1.691   4.857 -0.0873  0.2345  0.0863
 4621SOL    HW225323   2.802   1.565   4.917  1.1905  1.4823  1.9533
 4622SOL     OW25324   2.627   0.087   0.625 -0.5642 -0.0384  0.6004
 4622SOL    HW125325   2.552   0.118   0.573 -1.3706 -0.1433  1.7169
 4622SOL    HW225326   2.660   0.028   0.557 -0.8147 -0.9380  1.2628
 4623SOL     OW25327   2.470   1.296   6.900 -0.7204  0.0424  0.4984
 4623SOL    HW125328   2.384   1.317   6.863 -0.1985 -0.9546 -1.2828
 4623SOL    HW225329   2.529   1.340   6.838 -2.8054  0.8965 -0.8881
 4624SOL     OW25330   0.453   4.471   6.325 -0.4613 -0.1035  0.0460
 4624SOL    HW125331   0.548   4.462   6.331 -0.2573  0.3244 -2.6152
 4624SOL    HW225332   0.420   4.384   6.346  1.8357 -1.1122 -0.5776
 4625SOL     OW25333   3.270   2.595  16.668  0.3480 -0.2475  0.3906
 4625SOL    HW125334   3.214   2.582  16.591  1.0048 -0.1092 -0.1099
 4625SOL    HW225335   3.336   2.527  16.651  1.1295  0.6640 -0.2379
 4626SOL     OW25336   0.880   2.146   7.312  0.1933  0.0480 -0.5684
 4626SOL    HW125337   0.898   2.230   7.355 -0.0285  0.4976 -1.3578
 4626SOL    HW225338   0.968   2.109   7.321  0.7507  1.2171 -1.1940
 4627SOL     OW25339   3.333   0.665   7.660 -0.1911  0.3712  0.5506
 4627SOL    HW125340   3.292   0.619   7.733  1.0207 -0.4673  0.7176
 4627SOL    HW225341   3.313   0.754   7.689 -2.5475 -0.1676  0.5568
 4628SOL     OW25342   1.643   3.273  12.840  0.6609  0.5358  0.2041
 4628SOL    HW125343   1.635   3.344  12.903  0.2955  1.1589 -0.5401
 4628SOL    HW225344   1.584   3.215  12.889 -0.1520  0.5010 -0.8049
 4629SOL     OW25345   0.769   3.227  13.386 -0.0814 -0.4031  0.0255
 4629SOL    HW125346   0.831   3.268  13.445 -1.3437  1.2695  0.1974
 4629SOL    HW225347   0.788   3.133  13.381  1.3400 -0.1967  1.7250
 4630SOL     OW25348   1.451   1.187  14.984  0.5339  0.2741 -0.1582
 4630SOL    HW125349   1.505   1.122  15.029 -0.0293  0.0919  0.2607
 4630SOL    HW225350   1.510   1.257  14.959 -0.3813  0.7711 -0.9634
 4631SOL     OW25351   4.388   3.171   3.283 -0.0735  0.2509 -0.6931
 4631SOL    HW125352   4.442   3.226   3.227 -0.1884  0.1819 -0.8695
 4631SOL    HW225353   4.425   3.181   3.371 -0.0814 -0.4707 -0.6080
 4632SOL     OW25354   0.161   1.606   7.244  1.0159 -0.1351  0.3260
 4632SOL    HW125355   0.140   1.550   7.319 -2.1123  0.2966 -0.2235
 4632SOL    HW225356   0.157   1.688   7.294  2.6101 -0.3983  0.8987
 4633SOL     OW25357   3.787   4.319   6.968  0.1601  0.0643 -0.3206
 4633SOL    HW125358   3.710   4.265   6.954 -1.2976  1.0432  4.0116
 4633SOL    HW225359   3.772   4.352   7.057 -2.0596  0.2153 -0.7488
 4634SOL     OW25360   1.644   2.963  11.127  0.2295 -0.8295  0.4582
 4634SOL    HW125361   1.584   3.034  11.103  1.9340  1.1520  2.0294
 4634SOL    HW225362   1.655   2.918  11.044 -1.8296  1.9676 -1.3451
 4635SOL     OW25363   2.003   0.687   6.098 -0.3286 -0.1591 -0.3877
 4635SOL    HW125364   2.086   0.652   6.130 -1.5978  1.1896  4.4654
 4635SOL    HW225365   2.012   0.657   6.008 -0.1491 -1.3830  0.0431
 4636SOL     OW25366   1.463   4.672   3.989 -0.0963  0.2377  0.2351
 4636SOL    HW125367   1.554   4.696   3.974  0.0612 -0.2994  0.3508
 4636SOL    HW225368   1.419   0.030   3.954  0.4288  0.3625 -0.1542
 4637SOL     OW25369   0.539   0.152   8.701 -0.5215 -0.2975  0.2803
 4637SOL    HW125370   0.471   0.102   8.656  0.0890 -1.2942  0.4786
 4637SOL    HW225371   0.558   0.096   8.776 -0.8294 -2.3730 -1.2015
 4638SOL     OW25372   4.333   4.488  13.717  0.2174  0.4387 -0.2816
 4638SOL    HW125373   4.407   4.537  13.683 -0.4304  0.6204 -1.4367
 4638SOL    HW225374   4.275   4.480  13.641  0.0892 -0.8846 -0.0413
 4639SOL     OW25375   0.114   2.726   8.231 -0.0673 -0.0048 -0.3052
 4639SOL    HW125376   0.155   2.698   8.312  0.7401  0.8607 -0.4297
 4639SOL    HW225377   0.025   2.750   8.258 -0.6388 -0.0808 -2.0753
 4640SOL     OW25378   3.229   1.453   6.603 -0.5043 -0.2935 -0.0079
 4640SOL    HW125379   3.274   1.372   6.628 -0.8575 -0.4904 -0.0065
 4640SOL    HW225380   3.182   1.438   6.521  1.3805 -3.1097 -0.5719
 4641SOL     OW25381   0.177   3.536  13.110  0.1464  0.5351  0.2298
 4641SOL    HW125382   0.104   3.593  13.086 -0.8644 -0.3036  1.2928
 4641SOL    HW225383   0.247   3.559  13.049  2.0268 -1.8852  1.4699
 4642SOL     OW25384   1.817   2.864   7.064 -0.3865 -0.1277 -0.1955
 4642SOL    HW125385   1.748   2.899   7.121 -0.6418 -3.1206  1.3427
 4642SOL    HW225386   1.868   2.818   7.132 -2.2913  0.6345  1.7523
 4643SOL     OW25387   3.467   0.696   3.301  0.5600  0.3643  0.2931
 4643SOL    HW125388   3.494   0.716   3.211 -1.9955 -0.4058 -0.6654
 4643SOL    HW225389   3.553   0.699   3.343  0.9447 -2.6448 -0.2793
 4644SOL     OW25390   2.984   4.503   9.162 -0.0248  0.7102 -0.2469
 4644SOL    HW125391   3.041   4.580   9.173 -1.1352  1.8239 -2.4267
 4644SOL    HW225392   2.977   4.518   9.068 -2.7592  0.7911 -0.0163
 4645SOL     OW25393   0.221   4.127  12.079 -0.0314 -0.1563 -0.3621
 4645SOL    HW125394   0.148   4.168  12.032  1.2735  2.1611 -0.3493
 4645SOL    HW225395   0.295   4.139  12.020 -0.2188  1.6696 -0.2460
 4646SOL     OW25396   4.657   2.101   4.735 -0.5052 -0.4896 -0.7611
 4646SOL    HW125397   4.638   2.113   4.828  0.2056  2.0501 -0.9563
 4646SOL    HW225398   4.690   2.011   4.730  1.5311  0.2388 -0.6386
 4647SOL     OW25399   0.923   1.748  11.278 -0.1810  0.3667 -0.1910
 4647SOL    HW125400   0.978   1.755  11.200 -0.0129 -1.0432 -0.1867
 4647SOL    HW225401   0.869   1.671  11.265 -0.1427  0.6678 -2.0962
 4648SOL     OW25402   4.537   3.907  16.407  0.2543  0.3680 -0.1084
 4648SOL    HW125403   4.559   3.879  16.496  1.2697  3.4132  0.5895
 4648SOL    HW225404   4.574   3.835  16.356 -0.8478 -0.1178 -0.2313
 4649SOL     OW25405   0.511   4.679   0.069  0.1333 -0.0165  0.6513
 4649SOL    HW125406   0.482   4.671   0.160 -1.2381  3.1241  0.4839
 4649SOL    HW225407   0.453   4.613   0.032  0.7484 -0.4303  0.4245
 4650SOL     OW25408   1.551   2.618  12.360 -0.1831 -0.0530  0.4859
 4650SOL    HW125409   1.615   2.557  12.323  0.0328  0.0918  0.6139
 4650SOL    HW225410   1.477   2.566  12.390  1.5840 -1.6931  2.0639
 4651SOL     OW25411   3.883   2.371   2.005  0.2723  0.2566 -0.7917
 4651SOL    HW125412   3.944   2.298   1.998  0.2392  0.2279 -0.7829
 4651SOL    HW225413   3.925   2.446   1.962  0.9309  0.1601 -0.3063
 4652SOL     OW25414   0.671   4.332   5.637  0.1000  0.4004 -0.0924
 4652SOL    HW125415   0.701   4.365   5.722 -1.2311  2.5054 -0.4374
 4652SOL    HW225416   0.577   4.319   5.654  0.5135 -3.0295 -0.4891
 4653SOL     OW25417   0.491   0.748  10.819 -0.1095  0.1089 -0.8887
 4653SOL    HW125418   0.563   0.725  10.761 -1.3451  0.7372 -2.6779
 4653SOL    HW225419   0.418   0.733  10.759 -1.5722  1.6200  0.5008
 4654SOL     OW25420   2.021   2.921   0.484 -0.4330  0.3864  0.3070
 4654SOL    HW125421   1.999   2.887   0.571  0.3808  0.4168  0.5187
 4654SOL    HW225422   2.067   3.001   0.508 -0.4030  1.3718 -2.9995
 4655SOL     OW25423   3.420   2.888   5.011 -0.0919 -0.2002 -0.2678
 4655SOL    HW125424   3.514   2.873   5.018 -0.2125 -0.4276  0.9232
 4655SOL    HW225425   3.394   2.796   5.021  1.0479 -0.6724 -1.6811
 4656SOL     OW25426   0.765   1.435  14.488 -0.1568  0.6653 -0.7974
 4656SOL    HW125427   0.834   1.467  14.431 -0.0491  0.3478 -0.8485
 4656SOL    HW225428   0.688   1.462  14.439 -0.7505  1.3416  0.5070
 4657SOL     OW25429   0.449   0.529  10.984  0.4900 -0.2781 -0.4157
 4657SOL    HW125430   0.501   0.455  10.952  0.5784 -1.3165  2.1352
 4657SOL    HW225431   0.503   0.598  10.946 -1.6035  1.7135  0.2213
 4658SOL     OW25432   3.208   3.348  12.288  0.0418  0.5772  0.2399
 4658SOL    HW125433   3.114   3.338  12.272  0.5051 -0.3281 -1.9186
 4658SOL    HW225434   3.210   3.413  12.358 -0.8403 -0.7568  1.5107
 4659SOL     OW25435   3.792   4.360   7.268 -0.0005  0.2098  0.8066
 4659SOL    HW125436   3.699   4.381   7.278 -0.7113 -2.3071 -0.5850
 4659SOL    HW225437   3.840   4.425   7.320  0.4601 -0.5916  1.3799
 4660SOL     OW25438   2.123   2.825   7.925 -0.2201  0.1660 -0.2129
 4660SOL    HW125439   2.128   2.913   7.963  0.2108 -0.6400  1.6290
 4660SOL    HW225440   2.206   2.793   7.961 -1.4210 -0.0076  2.3868
 4661SOL     OW25441   2.948   2.587  16.597 -0.2335  0.0051  0.4990
 4661SOL    HW125442   2.877   2.534  16.632 -1.6375  1.1973 -0.5493
 4661SOL    HW225443   2.957   2.544  16.512  1.7585  1.6902 -0.1501
 4662SOL     OW25444   2.690   0.398   8.811 -0.2256 -0.3552  0.1352
 4662SOL    HW125445   2.723   0.352   8.735 -0.4701 -1.0116  0.4251
 4662SOL    HW225446   2.759   0.385   8.876 -1.3895 -0.4443  1.3769
 4663SOL     OW25447   2.777   3.070  12.299 -0.5741 -0.2298  0.4188
 4663SOL    HW125448   2.713   3.117  12.244 -0.0731  0.2959  0.2897
 4663SOL    HW225449   2.741   2.981  12.304  1.2932 -0.8662  2.3530
 4664SOL     OW25450   4.275   4.076  11.220 -0.1460 -0.2481 -1.0743
 4664SOL    HW125451   4.215   4.126  11.166  0.5252  1.5679 -0.1374
 4664SOL    HW225452   4.249   3.991  11.184 -1.7118 -0.1927 -0.0873
 4665SOL     OW25453   4.114   2.420   2.337 -0.0547 -0.1093 -0.5223
 4665SOL    HW125454   4.177   2.459   2.277 -0.0445 -1.2237 -1.2508
 4665SOL    HW225455   4.133   2.326   2.330 -0.1429 -0.2069  0.4798
 4666SOL     OW25456   0.212   4.187   3.097 -0.1231  0.3515 -0.4134
 4666SOL    HW125457   0.189   4.150   3.012  0.2147  2.9119 -1.6302
 4666SOL    HW225458   0.144   4.144   3.148  0.1387  0.4101 -0.0122
 4667SOL     OW25459   1.982   4.192   8.639 -0.1610 -0.7719 -0.0962
 4667SOL    HW125460   2.048   4.146   8.587 -0.8552 -2.1699  0.2611
 4667SOL    HW225461   1.950   4.263   8.584  0.8141  0.0421  0.3839
 4668SOL     OW25462   0.416   0.437   8.196 -0.4438  0.1711  0.0869
 4668SOL    HW125463   0.411   0.347   8.165  1.3217  0.0322  0.2428
 4668SOL    HW225464   0.504   0.456   8.164  1.6748 -3.3120  4.0535
 4669SOL     OW25465   3.863   2.837  10.455  0.2740  0.0471  0.3786
 4669SOL    HW125466   3.786   2.821  10.509  1.2573 -2.6653  0.9761
 4669SOL    HW225467   3.821   2.859  10.372  1.0502  0.5229  0.1107
 4670SOL     OW25468   2.568   2.755   9.352  0.5427 -0.1071 -0.0635
 4670SOL    HW125469   2.562   2.773   9.258 -2.1523 -0.9910 -0.0792
 4670SOL    HW225470   2.496   2.812   9.381  1.7841  2.7579 -2.6876
 4671SOL     OW25471   0.469   3.561   3.239  0.1836 -0.3385 -0.1048
 4671SOL    HW125472   0.475   3.521   3.326  0.2534  2.6687  1.2763
 4671SOL    HW225473   0.537   3.516   3.189  0.5355  0.4172 -0.3155
 4672SOL     OW25474   4.520   0.332   8.768  0.1553  0.0424 -0.0668
 4672SOL    HW125475   4.480   0.260   8.719  0.2521 -0.4520  0.5886
 4672SOL    HW225476   4.459   0.405   8.758  0.6360  0.7127  1.9426
 4673SOL     OW25477   2.470   4.414  15.551  0.5161 -0.2393  0.6186
 4673SOL    HW125478   2.459   4.505  15.522  0.0930 -0.7271 -0.7347
 4673SOL    HW225479   2.479   4.365  15.469 -0.3795 -1.1392  1.0627
 4674SOL     OW25480   0.325   0.040   4.378 -0.4429 -0.1901  0.2715
 4674SOL    HW125481   0.295   0.131   4.385 -0.3335 -0.0964 -0.5391
 4674SOL    HW225482   0.249   4.706   4.399 -1.2748 -0.4476 -3.4318
 4675SOL     OW25483   3.077   2.936   4.233 -0.1256  0.9118 -0.1447
 4675SOL    HW125484   3.081   2.842   4.248 -1.0019  1.0593  0.9594
 4675SOL    HW225485   3.015   2.959   4.302 -1.0788 -0.3965 -0.5555
 4676SOL     OW25486   3.838   1.082   0.320 -0.3279  0.0784 -0.2470
 4676SOL    HW125487   3.837   1.175   0.298 -3.2338  0.3774  1.1061
 4676SOL    HW225488   3.881   1.051   0.241 -1.4623 -0.1331 -0.7670
 4677SOL     OW25489   3.451   3.875   9.868 -0.5954  0.2086 -0.2496
 4677SOL    HW125490   3.489   3.962   9.863  1.3981 -0.5946  0.6341
 4677SOL    HW225491   3.450   3.843   9.778  1.8767  1.0897 -0.5744
 4678SOL     OW25492   2.310   3.240   4.596  0.2987 -0.6248  0.0966
 4678SOL    HW125493   2.257   3.250   4.517  1.0793 -0.0484 -0.3512
 4678SOL    HW225494   2.354   3.157   4.581  0.1599 -0.6692 -0.0708
 4679SOL     OW25495   3.627   4.074   8.975  0.0694 -0.4409 -0.8530
 4679SOL    HW125496   3.577   4.029   9.044  2.6885 -1.6557  0.2815
 4679SOL    HW225497   3.568   4.072   8.900 -2.7816  1.6018  1.3499
 4680SOL     OW25498   3.793   2.210   0.533 -0.3282  0.1093  0.0460
 4680SOL    HW125499   3.798   2.285   0.473 -0.5349  0.1464  0.0770
 4680SOL    HW225500   3.884   2.218   0.563  0.3708 -0.7431 -1.8387
 4681SOL     OW25501   3.028   1.853   7.891 -0.0359 -0.2089  0.8073
 4681SOL    HW125502   3.048   1.762   7.912  1.0283 -0.2954 -0.5963
 4681SOL    HW225503   3.104   1.868   7.835 -1.4311  0.0661 -1.0326
 4682SOL     OW25504   1.361   4.403   2.555  0.5250  0.0939  0.5294
 4682SOL    HW125505   1.280   4.377   2.598 -0.1204  0.6430 -0.3506
 4682SOL    HW225506   1.423   4.332   2.572 -0.3001 -0.3973  1.4291
 4683SOL     OW25507   0.343   2.103  11.073 -0.2780 -0.1048  0.3293
 4683SOL    HW125508   0.365   2.167  11.141 -0.0423 -0.4211  0.5523
 4683SOL    HW225509   0.428   2.061  11.060  0.4603  1.6218 -0.3572
 4684SOL     OW25510   4.571   0.603  16.666 -0.0293 -0.8394 -0.6889
 4684SOL    HW125511   4.539   0.634  16.582  0.1494 -1.6351 -1.0506
 4684SOL    HW225512   4.516   0.525  16.678  0.3386 -1.0172 -0.1430
 4685SOL     OW25513   0.615   1.536   3.081 -0.4656 -0.4345 -0.2575
 4685SOL    HW125514   0.642   1.464   3.138  0.7446  3.1159  3.6409
 4685SOL    HW225515   0.572   1.490   3.009 -2.6244  0.9327  0.1469
 4686SOL     OW25516   4.659   1.460   8.074  0.2286  0.4962 -0.7217
 4686SOL    HW125517   4.704   1.544   8.076 -1.0608  1.1615  0.6716
 4686SOL    HW225518   4.619   1.458   7.987 -2.3141 -0.9928  0.4924
 4687SOL     OW25519   2.119   3.971  15.243  0.2225  0.0797 -0.3194
 4687SOL    HW125520   2.173   4.048  15.227 -1.5592  1.5502  0.7665
 4687SOL    HW225521   2.103   3.966  15.337 -0.8296 -4.8201 -0.7338
 4688SOL     OW25522   3.495   0.370  14.701 -0.6852  0.0286  0.3807
 4688SOL    HW125523   3.472   0.355  14.609  1.1461  1.7783 -0.3697
 4688SOL    HW225524   3.580   0.329  14.710 -1.0352 -0.7024  0.3335
 4689SOL     OW25525   4.643   3.486  12.319 -0.8389  0.0098 -0.3123
 4689SOL    HW125526   4.632   3.536  12.400  0.7334  0.3214 -0.2937
 4689SOL    HW225527   4.555   3.501  12.284 -0.6292  0.9439 -0.4251
 4690SOL     OW25528   4.504   0.453  15.367  0.4107  0.7711 -0.3816
 4690SOL    HW125529   4.511   0.544  15.397 -0.6672 -0.0510  2.3548
 4690SOL    HW225530   4.554   0.463  15.286 -0.4422  2.8813 -0.6544
 4691SOL     OW25531   3.471   3.239   9.130 -0.1494  0.3979 -0.1215
 4691SOL    HW125532   3.552   3.288   9.117  0.6474 -0.5787  1.2298
 4691SOL    HW225533   3.420   3.307   9.175 -1.5255 -1.0513  0.5137
 4692SOL     OW25534   4.509   0.629   5.653 -0.0351 -0.7396 -0.1540
 4692SOL    HW125535   4.575   0.575   5.609  0.4244 -0.5544  0.3153
 4692SOL    HW225536   4.463   0.555   5.693  1.0191  0.5971  3.4913
 4693SOL     OW25537   2.367   1.044   3.820  0.1166  0.4096 -0.1622
 4693SOL    HW125538   2.285   1.016   3.780 -1.0577  2.5914  0.7034
 4693SOL    HW225539   2.432   0.983   3.784  1.3453  2.0074 -0.6656
 4694SOL     OW25540   2.318   1.145  14.143 -0.4993 -0.1501  0.0223
 4694SOL    HW125541   2.381   1.209  14.109 -0.8281  0.8949  1.3943
 4694SOL    HW225542   2.340   1.139  14.236 -1.9806 -2.8690  0.1879
 4695SOL     OW25543   0.746   3.821   4.504 -0.1256 -0.0434  1.0731
 4695SOL    HW125544   0.835   3.832   4.538  0.7624 -0.4477 -1.1251
 4695SOL    HW225545   0.755   3.885   4.433  1.8936 -2.8116 -1.1402
 4696SOL     OW25546   4.030   0.313   0.749  0.1351  0.0950  0.1086
 4696SOL    HW125547   3.972   0.323   0.825  0.4489 -1.8172  0.5912
 4696SOL    HW225548   4.064   0.401   0.763  0.2478  0.2444 -1.1552
 4697SOL     OW25549   1.265   0.398   7.257 -0.1259 -0.2578  0.3492
 4697SOL    HW125550   1.225   0.484   7.272  1.3604  1.0403 -3.1429
 4697SOL    HW225551   1.268   0.388   7.162 -3.5177 -2.2925  0.4499
 4698SOL     OW25552   3.523   1.093   3.171 -0.3611  0.1167  0.5468
 4698SOL    HW125553   3.510   1.075   3.078 -0.3280  2.6697  0.0693
 4698SOL    HW225554   3.616   1.117   3.165 -0.5617  0.0855 -2.5496
 4699SOL     OW25555   1.214   4.435   3.773  0.0322  0.3471 -0.3798
 4699SOL    HW125556   1.165   4.372   3.720 -1.1111  0.5570  0.4215
 4699SOL    HW225557   1.229   4.508   3.712 -1.0410  0.4020 -0.5810
 4700SOL     OW25558   2.939   3.480   2.553 -0.1717 -0.2217  0.0890
 4700SOL    HW125559   2.994   3.435   2.489 -1.7137  0.3912 -1.6689
 4700SOL    HW225560   2.869   3.521   2.502 -0.4623 -0.0797  0.5965
 4701SOL     OW25561   1.386   1.737  13.512 -0.5380 -0.2280  0.0187
 4701SOL    HW125562   1.450   1.758  13.444 -0.6000  1.3475  0.4389
 4701SOL    HW225563   1.362   1.653  13.473  0.8564 -1.2906  1.4444
 4702SOL     OW25564   2.670   0.975   1.813 -0.1249 -0.5453  0.2311
 4702SOL    HW125565   2.672   1.068   1.790 -0.6424 -0.5492  0.1606
 4702SOL    HW225566   2.582   0.950   1.782  0.1064 -1.2183  0.1182
 4703SOL     OW25567   2.989   4.229   7.852 -0.1204 -0.5489  0.0540
 4703SOL    HW125568   2.943   4.223   7.935  0.6296 -2.1784  0.3699
 4703SOL    HW225569   2.932   4.178   7.794 -0.5119  1.8124 -1.6371
 4704SOL     OW25570   3.333   3.563   8.992 -0.5971  0.0353 -0.6472
 4704SOL    HW125571   3.426   3.570   8.969 -0.5436  1.1729 -0.0487
 4704SOL    HW225572   3.314   3.654   9.013  3.7598  0.1192  2.8191
 4705SOL     OW25573   2.657   1.512   7.311  0.0715  0.0069  0.2436
 4705SOL    HW125574   2.580   1.495   7.256 -0.6247  1.2815  0.8387
 4705SOL    HW225575   2.644   1.595   7.356  0.2807  0.8107 -1.1932
 4706SOL     OW25576   3.465   0.614   5.145  0.3477 -0.1813 -0.2613
 4706SOL    HW125577   3.492   0.705   5.132  0.8907 -0.1945  0.7407
 4706SOL    HW225578   3.545   0.569   5.116 -0.0097 -0.4041 -0.8902
 4707SOL     OW25579   2.799   0.691  10.671  0.5011 -0.1003  0.4129
 4707SOL    HW125580   2.728   0.749  10.697  0.0037 -0.1145 -0.9183
 4707SOL    HW225581   2.843   0.674  10.755 -0.1036 -2.8921  0.1824
 4708SOL     OW25582   4.258   0.707   5.592 -0.0627 -0.4122  0.0365
 4708SOL    HW125583   4.349   0.677   5.589  0.0747 -0.1176  1.3913
 4708SOL    HW225584   4.260   0.762   5.671 -2.1859  0.5650 -0.5954
 4709SOL     OW25585   2.213   3.908   8.845  0.4418 -0.8543  0.4914
 4709SOL    HW125586   2.119   3.917   8.858  0.5466  0.3088  0.4962
 4709SOL    HW225587   2.249   3.895   8.933  0.0263  1.2300  0.9808
 4710SOL     OW25588   0.704   2.198   3.080 -0.0882  0.3370  0.2254
 4710SOL    HW125589   0.711   2.280   3.129  3.1448 -0.4063  1.0223
 4710SOL    HW225590   0.771   2.212   3.013  0.3298  0.2435  0.6213
 4711SOL     OW25591   2.101   1.474   5.105 -0.2377 -0.2482 -0.5431
 4711SOL    HW125592   2.175   1.469   5.044  2.1315 -0.1967  2.3314
 4711SOL    HW225593   2.139   1.516   5.182 -1.7346 -3.4086  1.8835
 4712SOL     OW25594   2.169   0.701   2.855 -0.1072 -0.8627 -0.5809
 4712SOL    HW125595   2.116   0.759   2.910 -0.2384  0.2996 -1.9346
 4712SOL    HW225596   2.223   0.651   2.916 -0.2423 -2.4184 -1.7321
 4713SOL     OW25597   3.469   1.699   9.511 -0.7143 -0.3084  0.2337
 4713SOL    HW125598   3.390   1.694   9.565 -2.4768 -0.1057 -2.3033
 4713SOL    HW225599   3.449   1.631   9.447 -1.0545 -0.8262  0.8868
 4714SOL     OW25600   0.024   2.877   5.247  0.1161  0.1709 -0.1164
 4714SOL    HW125601   0.024   2.822   5.325 -2.2589  0.9599  0.4473
 4714SOL    HW225602   4.650   2.896   5.242 -0.2722 -2.4609 -2.5059
 4715SOL     OW25603   2.829   3.508   0.764 -0.0859 -0.2317  0.2337
 4715SOL    HW125604   2.756   3.460   0.802  0.1385  2.1529  3.7846
 4715SOL    HW225605   2.848   3.452   0.689 -2.4960 -1.7382  0.7413
 4716SOL     OW25606   2.478   1.064   7.905 -0.2938 -0.3500  0.2708
 4716SOL    HW125607   2.531   0.985   7.915 -0.9575 -0.8170  0.1322
 4716SOL    HW225608   2.441   1.063   7.993 -2.0524  1.1622 -0.4617
 4717SOL     OW25609   0.393   2.112  15.446 -0.3182  0.7699 -0.2052
 4717SOL    HW125610   0.313   2.160  15.424 -0.0582  0.5373 -1.6912
 4717SOL    HW225611   0.381   2.025  15.407  0.8892  0.2954  0.4925
 4718SOL     OW25612   4.078   3.813   2.050  0.0355 -0.6400 -0.4366
 4718SOL    HW125613   3.983   3.813   2.050  0.0035  1.7306  1.8116
 4718SOL    HW225614   4.097   3.720   2.056 -1.0600 -0.9061 -1.2765
 4719SOL     OW25615   1.982   4.283   4.380  0.2603 -0.1723 -0.1572
 4719SOL    HW125616   1.905   4.331   4.350  1.1976 -0.0824 -2.3977
 4719SOL    HW225617   1.984   4.309   4.472 -1.3729  2.0550 -0.7364
 4720SOL     OW25618   1.488   2.272  17.371 -0.3162  0.0222 -0.1213
 4720SOL    HW125619   1.486   2.190  17.322  0.7371  0.8927 -1.6219
 4720SOL    HW225620   1.574   2.264  17.414 -1.9110  0.0087  3.0965
 4721SOL     OW25621   1.071   0.511  16.546  0.3970 -0.3568 -0.1248
 4721SOL    HW125622   1.121   0.593  16.541 -0.7806  0.3255 -0.7839
 4721SOL    HW225623   0.981   0.539  16.531  0.6058  1.4725  2.0201
 4722SOL     OW25624   4.397   4.457  14.359  0.2529 -0.1448 -0.2552
 4722SOL    HW125625   4.471   4.404  14.387  0.6035 -0.0502 -1.0075
 4722SOL    HW225626   4.430   4.546  14.374 -2.6806  0.6667  1.4105
 4723SOL     OW25627   0.135   2.782   8.786 -0.0647 -0.2001  0.2336
 4723SOL    HW125628   0.190   2.860   8.779  0.7578 -0.9401 -1.5592
 4723SOL    HW225629   0.114   2.782   8.879  0.1618 -1.7557  0.2754
 4724SOL     OW25630   3.692   0.597   7.920 -0.1583  0.4248  0.5333
 4724SOL    HW125631   3.786   0.610   7.933  0.2694 -2.0171 -0.1332
 4724SOL    HW225632   3.688   0.503   7.936 -0.2974  0.3689  0.1590
 4725SOL     OW25633   0.285   0.733  11.106 -0.3894 -0.6997 -0.1055
 4725SOL    HW125634   0.357   0.670  11.094  1.6576  1.5025  0.6881
 4725SOL    HW225635   0.236   0.699  11.031 -0.0500 -3.0174  0.7145
 4726SOL     OW25636   1.395   4.589   9.324 -0.7880  0.2028  0.0454
 4726SOL    HW125637   1.301   4.601   9.309 -0.3539  3.2240 -0.1246
 4726SOL    HW225638   1.395   4.501   9.362  5.0549  0.7502  1.2526
 4727SOL     OW25639   3.706   2.180   8.294 -0.1048 -0.3850 -0.2959
 4727SOL    HW125640   3.730   2.100   8.247 -3.2416 -2.4149  1.5684
 4727SOL    HW225641   3.775   2.184   8.360  0.0905  2.2857 -0.6664
 4728SOL     OW25642   2.323   4.588   8.067 -0.4640 -0.0797 -0.3208
 4728SOL    HW125643   2.260   4.651   8.034  0.4350  1.3715  0.7269
 4728SOL    HW225644   2.283   4.565   8.151  2.9454 -1.1567  1.0266
 4729SOL     OW25645   1.674   0.525   8.101  0.1652 -0.2576  0.4135
 4729SOL    HW125646   1.672   0.616   8.072 -0.2028  0.2092  1.9213
 4729SOL    HW225647   1.621   0.537   8.179 -0.3755 -1.4170  0.2219
 4730SOL     OW25648   2.482   1.977  10.082 -0.3496  0.0820 -0.1774
 4730SOL    HW125649   2.500   2.043  10.014  0.7084  0.6134  0.6272
 4730SOL    HW225650   2.469   1.903  10.023  0.6562  0.5754 -1.0278
 4731SOL     OW25651   1.463   1.604   6.153  0.6690  0.3232  0.4893
 4731SOL    HW125652   1.383   1.650   6.179  0.5903 -0.2170  1.2095
 4731SOL    HW225653   1.502   1.606   6.241  1.4406 -0.0169  0.1517
 4732SOL     OW25654   4.028   1.106   4.743  0.9288  0.4273  0.2445
 4732SOL    HW125655   4.112   1.148   4.726  0.7445 -0.1083 -1.8726
 4732SOL    HW225656   3.986   1.116   4.658  1.5137 -2.5207 -0.3732
 4733SOL     OW25657   3.976   3.443   7.716  0.2939  0.9221  0.6975
 4733SOL    HW125658   3.905   3.481   7.767 -0.4080  1.3727 -0.6191
 4733SOL    HW225659   3.972   3.503   7.642 -0.0638  0.6568  0.5044
 4734SOL     OW25660   3.393   4.274   1.134 -0.1830 -0.4186 -0.0381
 4734SOL    HW125661   3.457   4.220   1.182 -0.6141  0.2176  1.2608
 4734SOL    HW225662   3.439   4.306   1.057  2.0043  2.6513  2.5454
 4735SOL     OW25663   1.416   1.624   1.476 -0.2762 -0.0059 -0.1666
 4735SOL    HW125664   1.339   1.570   1.492 -0.7725  0.5483 -0.6849
 4735SOL    HW225665   1.484   1.573   1.520 -0.3214  0.7740  0.7949
 4736SOL     OW25666   1.519   3.495  16.150 -0.0886 -0.5475 -0.2284
 4736SOL    HW125667   1.426   3.511  16.165 -0.6449 -3.2721 -0.7979
 4736SOL    HW225668   1.518   3.403  16.176  1.6000 -0.7753 -0.9524
 4737SOL     OW25669   3.611   0.625   7.581 -0.0899  0.5401  0.2786
 4737SOL    HW125670   3.518   0.612   7.599 -0.2707 -1.1827 -1.9158
 4737SOL    HW225671   3.628   0.702   7.636  0.8347  0.3784  0.2127
 4738SOL     OW25672   2.650   0.069   2.979  0.4338 -0.3436 -0.2801
 4738SOL    HW125673   2.690   0.146   2.938 -0.2033  0.2399  0.1871
 4738SOL    HW225674   2.622   0.018   2.904  1.2179  0.3703 -1.0665
 4739SOL     OW25675   2.430   2.027  12.390  0.2483  0.0018 -0.4480
 4739SOL    HW125676   2.437   1.974  12.469  3.4186  3.7647  1.8594
 4739SOL    HW225677   2.356   1.984  12.348  0.3076 -1.5966  1.0684
 4740SOL     OW25678   3.373   2.622   5.141 -0.1904  0.7408 -0.3623
 4740SOL    HW125679   3.394   2.549   5.200  0.6770  2.8561  1.9106
 4740SOL    HW225680   3.281   2.632   5.162 -0.7446 -1.5401 -1.6127
 4741SOL     OW25681   3.211   0.841   4.180  0.4193  0.1940 -0.3218
 4741SOL    HW125682   3.188   0.794   4.100  0.6301  1.3222 -1.0453
 4741SOL    HW225683   3.137   0.901   4.187  0.8783  0.5972  1.1300
 4742SOL     OW25684   3.730   3.083   7.821  0.0651 -0.1811  0.1253
 4742SOL    HW125685   3.740   3.147   7.891 -0.9333 -1.8597  1.7921
 4742SOL    HW225686   3.817   3.047   7.804  0.1799  0.6319 -1.0476
 4743SOL     OW25687   2.905   0.209   2.083 -0.1548  0.3589 -0.1788
 4743SOL    HW125688   2.922   0.263   2.006  1.0416  0.9211  0.4623
 4743SOL    HW225689   2.833   0.258   2.123  0.4548  1.6669 -0.6674
 4744SOL     OW25690   3.540   2.832   8.419  0.0273  0.1595  0.1412
 4744SOL    HW125691   3.587   2.909   8.387 -0.7814  1.3600  1.8376
 4744SOL    HW225692   3.486   2.870   8.488  0.4203  2.4094 -0.7937
 4745SOL     OW25693   0.265   3.920  10.462 -1.0921  0.6410 -0.1746
 4745SOL    HW125694   0.327   3.991  10.447 -1.5388  0.3373 -3.4698
 4745SOL    HW225695   0.225   3.920  10.375 -0.1625  1.2671 -0.6075
 4746SOL     OW25696   2.111   0.641  10.399  0.2907 -0.3640  0.1867
 4746SOL    HW125697   2.205   0.641  10.382  0.4394 -0.2642  1.0031
 4746SOL    HW225698   2.070   0.690  10.327 -0.3478  1.0731  1.5190
 4747SOL     OW25699   2.024   3.577  11.715  0.1821 -0.1261  0.5139
 4747SOL    HW125700   1.954   3.591  11.778  0.5658  0.0272  0.9017
 4747SOL    HW225701   1.981   3.565  11.630  2.7277  2.1975 -1.0814
 4748SOL     OW25702   3.592   3.166   8.765  0.3898  0.4418  0.1653
 4748SOL    HW125703   3.645   3.144   8.689  1.2026 -0.1187  0.8945
 4748SOL    HW225704   3.653   3.225   8.811  0.0933  1.6571 -0.9935
 4749SOL     OW25705   1.343   4.292   3.435  0.1419  0.3569 -0.0057
 4749SOL    HW125706   1.372   4.339   3.357 -0.9639  0.8334 -0.1192
 4749SOL    HW225707   1.274   4.339   3.481 -0.3498 -1.3148  0.9676
 4750SOL     OW25708   2.221   0.477   6.750 -0.7546  0.3941 -0.0474
 4750SOL    HW125709   2.201   0.492   6.658  1.5586  0.1738 -0.5774
 4750SOL    HW225710   2.170   0.397   6.766 -0.9553  0.3351 -0.9927
 4751SOL     OW25711   4.297   2.369   0.819 -0.2002  0.1391 -0.7920
 4751SOL    HW125712   4.292   2.374   0.723 -0.9315  0.2827 -0.7500
 4751SOL    HW225713   4.209   2.334   0.837 -0.1356  1.0770  1.3201
 4752SOL     OW25714   2.001   1.490   2.841  0.0350  0.2486 -0.1356
 4752SOL    HW125715   2.096   1.488   2.837  0.0043  0.2068 -0.7335
 4752SOL    HW225716   1.977   1.446   2.760 -2.7852 -0.0870  0.8748
 4753SOL     OW25717   3.151   3.438   9.147 -0.0686  0.0892 -0.2396
 4753SOL    HW125718   3.108   3.522   9.162  0.2448 -0.0868  1.6550
 4753SOL    HW225719   3.166   3.440   9.052 -2.7820 -2.3478 -0.7137
 4754SOL     OW25720   1.648   2.923   3.864  0.0050  0.0437  0.2090
 4754SOL    HW125721   1.702   2.936   3.786 -0.2841  3.2401  0.5460
 4754SOL    HW225722   1.557   2.937   3.836 -0.3072 -0.9576  0.7264
 4755SOL     OW25723   1.976   0.413   2.182  0.0910  0.6568  0.2889
 4755SOL    HW125724   2.037   0.350   2.142 -1.5229 -1.5688  1.2883
 4755SOL    HW225725   2.025   0.425   2.264  1.9633 -1.8081 -0.4428
 4756SOL     OW25726   2.517   4.437   4.790  0.1277 -0.5143 -0.4421
 4756SOL    HW125727   2.444   4.490   4.759  1.8737  1.8477 -0.5975
 4756SOL    HW225728   2.471   4.371   4.841 -2.0925  1.3384 -0.0378
 4757SOL     OW25729   3.717   2.327  12.560  0.2222 -0.1172  0.5412
 4757SOL    HW125730   3.655   2.377  12.506 -0.7173 -2.0445 -0.1398
 4757SOL    HW225731   3.727   2.244  12.514  0.8977 -1.4070  3.0303
 4758SOL     OW25732   1.906   2.939   1.996  0.6891 -0.2585  0.1553
 4758SOL    HW125733   1.959   2.984   2.062  0.5314  0.3080 -0.1050
 4758SOL    HW225734   1.903   2.854   2.040 -1.5201 -1.3956 -2.2677
 4759SOL     OW25735   2.817   2.210   1.209  0.3760 -0.3491  0.7217
 4759SOL    HW125736   2.785   2.296   1.181 -2.5319 -1.8891 -0.7542
 4759SOL    HW225737   2.737   2.157   1.214  1.0107 -1.5357 -1.4416
 4760SOL     OW25738   2.248   2.584   8.257  0.6496 -1.0091 -0.5090
 4760SOL    HW125739   2.321   2.541   8.302 -0.4111 -0.3041  1.9185
 4760SOL    HW225740   2.288   2.599   8.172  0.4469  1.1838 -0.2051
 4761SOL     OW25741   4.005   0.967  10.906  0.0896  0.2998  0.1585
 4761SOL    HW125742   3.921   0.970  10.953 -0.9902  1.0743 -1.8445
 4761SOL    HW225743   3.993   0.881  10.864  1.8780  0.0289  0.2144
 4762SOL     OW25744   1.644   1.897   7.294  0.1873 -0.4519  0.1677
 4762SOL    HW125745   1.668   1.989   7.278 -1.4918 -0.0307  0.0453
 4762SOL    HW225746   1.703   1.849   7.236  0.3199 -0.0479 -0.0380
 4763SOL     OW25747   2.975   3.600   6.491  0.0244 -0.1732  0.0381
 4763SOL    HW125748   2.954   3.691   6.470 -0.4788 -0.5600 -1.1318
 4763SOL    HW225749   2.957   3.567   6.403  1.6869 -4.0853  1.1807
 4764SOL     OW25750   0.231   0.308   4.403 -0.4284  0.3413 -0.2385
 4764SOL    HW125751   0.270   0.342   4.322  0.0094  1.7031  0.5576
 4764SOL    HW225752   0.139   0.301   4.378 -0.9545  0.4110  1.6879
 4765SOL     OW25753   2.006   1.984   5.913  0.3246  0.2266 -0.2873
 4765SOL    HW125754   1.939   1.921   5.942  0.6211  0.7811  1.6099
 4765SOL    HW225755   1.950   2.060   5.901  0.7396  0.9484  2.2835
 4766SOL     OW25756   1.868   1.721   6.926 -0.2815 -0.0924  0.0931
 4766SOL    HW125757   1.785   1.686   6.955  0.9091 -2.6809  0.3447
 4766SOL    HW225758   1.874   1.683   6.838  2.0186 -0.3329  0.3473
 4767SOL     OW25759   0.099   2.647   1.382 -0.5034  0.3465  0.1966
 4767SOL    HW125760   0.141   2.650   1.296 -0.6495  0.9981  0.1440
 4767SOL    HW225761   0.058   2.734   1.389 -1.4021  0.0977 -1.9365
 4768SOL     OW25762   4.471   2.760  15.877 -0.8227  0.2176  0.1123
 4768SOL    HW125763   4.381   2.792  15.876 -1.3957 -1.2542  1.8990
 4768SOL    HW225764   4.490   2.734  15.787  2.9390 -1.5259  1.4210
 4769SOL     OW25765   1.784   2.120   2.169  0.0148 -0.1169  0.5713
 4769SOL    HW125766   1.751   2.032   2.186 -1.8791  1.1201  3.3904
 4769SOL    HW225767   1.793   2.152   2.259 -1.6880 -0.9947  1.0706
 4770SOL     OW25768   4.341   2.385   4.210 -0.1742  0.4670 -0.0326
 4770SOL    HW125769   4.279   2.394   4.283 -0.1179  0.2091  0.0467
 4770SOL    HW225770   4.407   2.438   4.255  2.8453 -1.5665 -2.1597
 4771SOL     OW25771   2.798   3.947   9.356  0.1388 -0.4165  0.0285
 4771SOL    HW125772   2.733   3.996   9.408 -0.2048  0.6603 -1.4271
 4771SOL    HW225773   2.760   3.859   9.349 -0.1360 -0.3868  1.1323
 4772SOL     OW25774   4.291   1.481   2.905  0.2445  0.1395  0.3969
 4772SOL    HW125775   4.308   1.468   2.812 -0.7753 -0.0469  0.2313
 4772SOL    HW225776   4.374   1.521   2.930  0.4521 -1.3063  2.0019
 4773SOL     OW25777   1.934   2.509  14.024  0.0084 -0.3356  0.2060
 4773SOL    HW125778   1.967   2.503  13.934 -0.6678  0.5066 -0.0953
 4773SOL    HW225779   1.846   2.546  14.017  0.9710  1.4252 -2.5315
 4774SOL     OW25780   2.026   3.308  12.465  0.2171 -0.0270  0.1069
 4774SOL    HW125781   2.067   3.223  12.479 -0.2434  0.2166  3.0223
 4774SOL    HW225782   1.997   3.333  12.553 -0.2540 -1.1447  0.2652
 4775SOL     OW25783   4.208   1.134  12.842 -0.3885  0.0877  0.4646
 4775SOL    HW125784   4.210   1.157  12.749 -0.1775 -0.0822  0.4283
 4775SOL    HW225785   4.296   1.159  12.872 -0.9686  1.0371  1.3954
 4776SOL     OW25786   0.467   3.643  13.265 -0.0598 -0.0723  0.0591
 4776SOL    HW125787   0.376   3.615  13.249 -0.0120 -1.7643  2.8154
 4776SOL    HW225788   0.498   3.600  13.344 -2.7843  1.3010  1.8821
 4777SOL     OW25789   1.808   3.285   2.215 -0.2339 -0.7944  0.0466
 4777SOL    HW125790   1.881   3.319   2.163  0.3108 -1.5916  0.2977
 4777SOL    HW225791   1.856   3.219   2.266  0.4992 -0.8266 -0.6834
 4778SOL     OW25792   4.369   3.584   3.601 -0.1543 -0.0684  0.4287
 4778SOL    HW125793   4.421   3.640   3.658  2.5717 -0.2585 -1.8338
 4778SOL    HW225794   4.281   3.611   3.627  0.4078  0.9018  1.3078
 4779SOL     OW25795   0.599   2.851   9.383 -0.1243  0.3493 -0.0051
 4779SOL    HW125796   0.511   2.889   9.383 -0.6503 -0.8400 -1.9528
 4779SOL    HW225797   0.590   2.812   9.295 -2.9010 -0.0934  0.4809
 4780SOL     OW25798   2.912   0.667   3.362  0.0510 -0.2742  0.3051
 4780SOL    HW125799   2.889   0.588   3.314  0.3421 -0.1506 -0.0381
 4780SOL    HW225800   2.927   0.631   3.450  0.7367 -2.4775 -0.7232
 4781SOL     OW25801   3.435   0.492   9.165  0.1321  0.5433  0.1823
 4781SOL    HW125802   3.496   0.479   9.092  2.3778 -0.0049  2.1527
 4781SOL    HW225803   3.350   0.513   9.127  1.2967  3.7022 -0.6550
 4782SOL     OW25804   0.701   4.147   2.413 -0.3289 -0.3847  0.5791
 4782SOL    HW125805   0.787   4.181   2.438 -0.6101  2.3552 -2.2045
 4782SOL    HW225806   0.653   4.230   2.408 -1.0030 -0.8328 -0.2963
 4783SOL     OW25807   2.751   0.382  12.976  0.5578  0.5294  0.0839
 4783SOL    HW125808   2.749   0.450  12.910  1.0163  2.8021  2.4259
 4783SOL    HW225809   2.672   0.389  13.030  0.8447  2.2742  0.2509
 4784SOL     OW25810   2.536   0.662   2.723 -0.1978 -0.1063 -0.4697
 4784SOL    HW125811   2.626   0.684   2.749  0.2799 -2.2724 -0.2123
 4784SOL    HW225812   2.550   0.676   2.629  0.0023 -0.5127 -0.5029
 4785SOL     OW25813   2.404   1.637  15.135  0.1698 -0.3862  0.0758
 4785SOL    HW125814   2.404   1.580  15.058  0.4814 -1.7246  1.0619
 4785SOL    HW225815   2.403   1.574  15.207  0.2482 -0.6276 -0.1360
 4786SOL     OW25816   2.941   3.616  12.180 -0.2877 -0.5094  0.0066
 4786SOL    HW125817   3.013   3.617  12.117  1.2555 -1.0101  1.7659
 4786SOL    HW225818   2.875   3.668  12.135  0.5471 -0.1866 -0.8387
 4787SOL     OW25819   1.222   2.680   7.043 -0.4646 -0.2318 -0.1725
 4787SOL    HW125820   1.285   2.702   7.112 -0.3514  0.3561 -0.4623
 4787SOL    HW225821   1.156   2.648   7.105 -1.5575 -0.3872 -1.4090
 4788SOL     OW25822   2.170   4.656   7.822  0.1023 -0.0347 -0.3231
 4788SOL    HW125823   2.085   4.612   7.814 -0.1910  0.2905  1.0152
 4788SOL    HW225824   2.226   4.599   7.770  3.8452  3.2146  0.1362
 4789SOL     OW25825   3.678   0.805   5.446 -0.2927 -0.2960  0.1480
 4789SOL    HW125826   3.747   0.796   5.512  0.6643  0.6445 -0.7305
 4789SOL    HW225827   3.715   0.748   5.379  0.2819  2.6440 -1.9952
 4790SOL     OW25828   0.237   0.576   1.019 -0.1225 -0.1076  0.5734
 4790SOL    HW125829   0.253   0.485   0.993 -3.2921 -0.4843 -0.0464
 4790SOL    HW225830   0.196   0.565   1.105 -1.0178  1.5294  0.3598
 4791SOL     OW25831   4.181   3.909   8.090 -0.1485 -0.0607  0.0188
 4791SOL    HW125832   4.176   3.827   8.140 -2.4439  0.4178  0.5848
 4791SOL    HW225833   4.235   3.968   8.142  0.2326 -0.3931  0.0019
 4792SOL     OW25834   1.031   1.610   6.940 -0.0925  0.3932  0.1094
 4792SOL    HW125835   1.027   1.605   6.844  2.6015 -2.6870  0.1274
 4792SOL    HW225836   0.944   1.648   6.955 -0.0013  2.0919 -3.6377
 4793SOL     OW25837   2.926   2.530   3.606  0.9414  0.8254  0.4312
 4793SOL    HW125838   2.919   2.517   3.701  1.3268  2.8360  0.7383
 4793SOL    HW225839   2.909   2.624   3.602 -0.8332  0.4752 -0.3626
 4794SOL     OW25840   1.798   2.749  12.045  0.3038 -0.2241 -0.3971
 4794SOL    HW125841   1.842   2.820  12.090  1.8240 -2.1400  1.1225
 4794SOL    HW225842   1.717   2.739  12.096 -0.0701  0.2526 -0.8963
 4795SOL     OW25843   4.495   4.432   8.551 -0.1371 -0.4366  0.4686
 4795SOL    HW125844   4.586   4.410   8.531 -0.6038 -1.4353 -0.5668
 4795SOL    HW225845   4.471   4.390   8.634 -0.5591  0.8748  1.0093
 4796SOL     OW25846   1.138   1.027   9.167 -0.3195 -0.5653 -0.2561
 4796SOL    HW125847   1.198   1.073   9.226  1.7064 -0.3283 -2.5451
 4796SOL    HW225848   1.087   0.978   9.232 -1.9676 -0.7037 -1.6705
 4797SOL     OW25849   3.609   2.769  13.942  0.6729  0.2658 -0.4273
 4797SOL    HW125850   3.598   2.864  13.950  0.3372  0.2647 -0.8907
 4797SOL    HW225851   3.702   2.756  13.928  0.7473  2.7557 -2.2790
 4798SOL     OW25852   2.339   0.812   8.080  0.2600 -0.8819 -0.2479
 4798SOL    HW125853   2.368   0.898   8.110 -1.5674  0.3323 -1.9423
 4798SOL    HW225854   2.385   0.750   8.137 -1.9175  0.0533  2.4961
 4799SOL     OW25855   1.901   2.107   1.095 -0.1156  0.3665  0.3297
 4799SOL    HW125856   1.923   2.192   1.133 -0.2320 -0.3640  2.0418
 4799SOL    HW225857   1.812   2.097   1.129  0.5484 -1.7641  1.4292
 4800SOL     OW25858   2.707   0.180   3.495 -0.0558 -0.8932  0.3583
 4800SOL    HW125859   2.764   0.108   3.522  0.4030 -1.2123 -1.4306
 4800SOL    HW225860   2.706   0.171   3.400  3.2012  1.9735  0.0646
 4801SOL     OW25861   1.053   4.553   6.371 -0.2832  0.4250  0.4493
 4801SOL    HW125862   1.002   4.478   6.400 -0.5029 -0.4459 -2.1396
 4801SOL    HW225863   1.137   4.510   6.361 -0.4814 -0.3205  1.9828
 4802SOL     OW25864   4.026   1.817   2.902 -0.5267 -0.3677  0.3422
 4802SOL    HW125865   4.043   1.801   2.809 -0.4718  0.0201  0.2872
 4802SOL    HW225866   4.063   1.904   2.915  1.0861 -1.1570  1.0234
 4803SOL     OW25867   0.935   1.635  16.624 -0.3510  0.0588 -0.4823
 4803SOL    HW125868   0.848   1.676  16.619 -0.3420 -0.0421 -1.5676
 4803SOL    HW225869   0.908   1.548  16.651 -1.0820 -0.0496 -1.5383
 4804SOL     OW25870   3.843   1.866   7.877 -0.2158  0.1001  0.7526
 4804SOL    HW125871   3.863   1.812   7.953 -0.3778 -2.9478 -1.3878
 4804SOL    HW225872   3.749   1.882   7.881 -0.4425 -0.4250 -2.3688
 4805SOL     OW25873   0.063   1.331  16.135 -0.0447  0.0530  0.2501
 4805SOL    HW125874   0.085   1.411  16.088  0.7707 -0.2829  0.0629
 4805SOL    HW225875   0.017   1.357  16.214  0.2952  0.9465  0.1478
 4806SOL     OW25876   3.417   3.353  12.120  0.5585  0.2379 -0.0826
 4806SOL    HW125877   3.457   3.324  12.201  1.3622 -0.2187 -0.6514
 4806SOL    HW225878   3.325   3.333  12.137  0.5044 -0.5190 -1.2992
 4807SOL     OW25879   2.951   0.334  16.288 -0.1137 -0.1425 -0.0485
 4807SOL    HW125880   2.864   0.348  16.253  0.6044  0.1330 -1.7215
 4807SOL    HW225881   2.949   0.238  16.286  0.0250 -0.1485  0.0683
 4808SOL     OW25882   0.947   3.847   7.395  0.0264  0.2969 -0.0483
 4808SOL    HW125883   0.958   3.932   7.438  0.0388 -0.7447  1.9926
 4808SOL    HW225884   1.020   3.792   7.420  1.5113  2.1052 -0.3767
 4809SOL     OW25885   1.498   1.174   0.952  0.4207  0.3976  0.3046
 4809SOL    HW125886   1.567   1.238   0.971 -0.3367  1.3377 -0.0831
 4809SOL    HW225887   1.535   1.100   0.999  0.5364 -1.0127 -2.0114
 4810SOL     OW25888   0.885   0.036   7.439  0.0596 -0.3127 -0.4987
 4810SOL    HW125889   0.909   4.690   7.505  1.3759  0.6074 -0.0601
 4810SOL    HW225890   0.879   0.112   7.498  1.8875 -1.0591  0.6454
 4811SOL     OW25891   4.421   1.670   5.399  0.6898  0.1980 -0.1341
 4811SOL    HW125892   4.368   1.716   5.334  0.5845  0.8677  0.4331
 4811SOL    HW225893   4.359   1.601   5.424 -2.0991  2.4832 -0.7317
 4812SOL     OW25894   2.282   3.515   4.608 -0.2046 -0.5629 -0.2310
 4812SOL    HW125895   2.198   3.479   4.578  0.1045 -0.2706 -1.4492
 4812SOL    HW225896   2.324   3.432   4.630  1.5303  0.1887 -0.7563
 4813SOL     OW25897   2.508   1.652   6.989 -0.7985 -0.2016  0.1565
 4813SOL    HW125898   2.589   1.695   7.016 -1.1338  0.0706  0.7406
 4813SOL    HW225899   2.493   1.677   6.898 -1.9902 -0.3883  0.2939
 4814SOL     OW25900   2.114   2.115   2.625  0.6598  0.1711 -0.4921
 4814SOL    HW125901   2.092   2.166   2.703 -0.2183  1.4344 -1.5567
 4814SOL    HW225902   2.132   2.029   2.662 -0.3010  0.0590 -0.2865
 4815SOL     OW25903   4.224   3.206   9.369 -0.2723 -0.4236 -0.0429
 4815SOL    HW125904   4.161   3.168   9.308  1.0376 -1.7556 -0.5645
 4815SOL    HW225905   4.233   3.295   9.335  0.7449 -0.3987  0.2913
 4816SOL     OW25906   1.352   4.428   0.083  0.1713  0.1523 -0.1731
 4816SOL    HW125907   1.305   4.410   0.164 -0.9199  0.1466 -0.8063
 4816SOL    HW225908   1.427   4.475   0.120 -0.1821  2.1617 -1.9884
 4817SOL     OW25909   3.833   1.793   0.354 -0.0316 -0.2427 -0.1449
 4817SOL    HW125910   3.902   1.806   0.419  0.5031  0.1432 -0.7896
 4817SOL    HW225911   3.763   1.849   0.388 -0.5781 -0.6922 -0.5237
 4818SOL     OW25912   1.427   1.226   2.741  0.0986 -0.1755 -0.0199
 4818SOL    HW125913   1.406   1.253   2.652  0.0695 -0.6863 -0.1664
 4818SOL    HW225914   1.443   1.133   2.728 -1.5481 -0.7144  1.8227
 4819SOL     OW25915   1.466   0.393   2.403 -0.0588  0.6719  0.9019
 4819SOL    HW125916   1.546   0.383   2.351  1.1320 -1.0443  3.0819
 4819SOL    HW225917   1.475   0.326   2.471 -0.4199 -1.2297 -0.9283
 4820SOL     OW25918   0.535   4.338   3.189  0.2602 -0.0155  0.1668
 4820SOL    HW125919   0.582   4.289   3.121 -1.3476 -0.6050 -0.5285
 4820SOL    HW225920   0.492   4.266   3.235  0.5515  0.5877  1.3613
 4821SOL     OW25921   0.354   4.508   2.142  0.0574 -0.3560  0.0856
 4821SOL    HW125922   0.302   4.575   2.187  1.1901 -0.5883  1.7023
 4821SOL    HW225923   0.391   4.459   2.215 -0.7520 -0.3194  0.5176
 4822SOL     OW25924   0.629   2.252   7.357 -0.0026  0.6287 -0.5686
 4822SOL    HW125925   0.701   2.199   7.323 -1.2245 -0.9250 -0.7408
 4822SOL    HW225926   0.618   2.227   7.449 -0.9692 -0.6059 -1.0075
 4823SOL     OW25927   0.679   4.169   7.676 -0.3949 -0.7250  0.4409
 4823SOL    HW125928   0.742   4.232   7.712 -0.7326  0.7575 -1.5237
 4823SOL    HW225929   0.596   4.210   7.698 -0.4928 -0.3572 -0.5926
 4824SOL     OW25930   1.105   3.678   7.521 -0.1186  0.0080  0.8735
 4824SOL    HW125931   1.052   3.598   7.525  1.5194 -1.1273 -0.0425
 4824SOL    HW225932   1.133   3.694   7.611  1.1083  1.2177  0.2713
 4825SOL     OW25933   4.713   0.049   6.542 -0.7597  0.3288 -0.1333
 4825SOL    HW125934   0.088   0.050   6.555 -0.4693  2.1001 -2.4145
 4825SOL    HW225935   4.676   0.070   6.628  1.6111  1.7089  0.5423
 4826SOL     OW25936   1.131   3.145   3.630 -0.1717  0.1199 -0.0459
 4826SOL    HW125937   1.088   3.226   3.603 -1.2588 -0.6149 -0.5022
 4826SOL    HW225938   1.201   3.184   3.681  0.2400 -0.5613 -0.0787
 4827SOL     OW25939   0.313   0.450   2.251  0.1015 -0.4521  0.4102
 4827SOL    HW125940   0.246   0.518   2.251  0.4175 -0.1523 -1.0482
 4827SOL    HW225941   0.283   0.397   2.178 -1.1046  0.5512  0.1824
 4828SOL     OW25942   2.954   3.257  13.819 -0.2065 -0.6671 -0.0447
 4828SOL    HW125943   2.942   3.292  13.731 -0.0401 -0.0268  0.1882
 4828SOL    HW225944   2.918   3.327  13.874 -2.6999 -1.8104 -0.2285
 4829SOL     OW25945   1.970   4.538   0.043 -0.0966  0.0273  0.0190
 4829SOL    HW125946   1.913   4.460   0.042  0.1508 -0.1510 -0.2511
 4829SOL    HW225947   2.032   4.515  17.654 -2.2718  1.3380 -2.3350
 4830SOL     OW25948   2.094   0.954   7.211  0.2574  0.3154  0.4149
 4830SOL    HW125949   2.012   0.979   7.254  0.7974  2.1307  0.4031
 4830SOL    HW225950   2.134   0.885   7.263 -1.0887 -1.3581 -0.7472
 4831SOL     OW25951   1.439   2.493   8.599  0.2048 -0.0640 -0.2373
 4831SOL    HW125952   1.411   2.413   8.556  0.4030 -0.9229  1.2142
 4831SOL    HW225953   1.356   2.536   8.618 -1.6937 -4.2992  0.9711
 4832SOL     OW25954   3.638   2.998  11.457 -0.0557  0.1259 -0.6231
 4832SOL    HW125955   3.610   2.946  11.533  0.2444  1.1352  0.1915
 4832SOL    HW225956   3.598   2.948  11.386  1.7758 -0.2519 -1.3907
 4833SOL     OW25957   2.475   0.796   0.959  0.0062 -0.0571 -0.3003
 4833SOL    HW125958   2.516   0.752   0.885  0.5339 -1.0329  0.5703
 4833SOL    HW225959   2.471   0.718   1.014  1.6372 -0.6885 -1.0734
 4834SOL     OW25960   1.029   2.587   5.172 -0.2603 -0.0562 -0.5624
 4834SOL    HW125961   1.077   2.594   5.254  0.3072 -0.5454 -0.8600
 4834SOL    HW225962   0.955   2.540   5.211 -0.8180 -0.5363 -2.1834
 4835SOL     OW25963   3.543   2.059   2.967 -0.7262  0.2479 -0.0514
 4835SOL    HW125964   3.598   1.983   2.987  0.2985  1.2740  1.0338
 4835SOL    HW225965   3.544   2.103   3.052 -1.3237  1.4624 -0.6786
 4836SOL     OW25966   4.640   0.454  14.596 -0.7099 -0.4852 -0.0760
 4836SOL    HW125967   4.623   0.545  14.572 -0.9733 -0.4736  0.1570
 4836SOL    HW225968   4.631   0.411  14.511  3.3597 -0.6809 -0.4109
 4837SOL     OW25969   3.645   0.323   4.014  0.1374 -0.1585  0.2561
 4837SOL    HW125970   3.643   0.268   3.936 -1.8302  1.3058 -0.7297
 4837SOL    HW225971   3.552   0.347   4.018 -0.0882 -0.7571 -1.5610
 4838SOL     OW25972   2.771   0.878   2.139  0.3122 -0.3944 -0.1586
 4838SOL    HW125973   2.696   0.822   2.120  0.2663 -0.1822 -0.6250
 4838SOL    HW225974   2.778   0.890   2.234  0.7991  2.0316 -0.4887
 4839SOL     OW25975   2.462   3.101   4.228  0.2323 -0.3547 -0.0811
 4839SOL    HW125976   2.454   3.014   4.189 -2.2823  0.4007 -1.3007
 4839SOL    HW225977   2.378   3.111   4.272  0.1189 -0.4329 -0.2813
 4840SOL     OW25978   2.348   0.750  14.497  0.1060 -0.4833 -0.6573
 4840SOL    HW125979   2.296   0.669  14.496  0.0491 -0.4541 -0.0685
 4840SOL    HW225980   2.368   0.753  14.590 -0.1864  1.0519 -0.6417
 4841SOL     OW25981   3.482   0.865   9.519  0.8279 -0.4112 -0.1756
 4841SOL    HW125982   3.484   0.775   9.551  0.8547 -0.5343 -0.5292
 4841SOL    HW225983   3.494   0.906   9.605 -0.5457 -1.2773  0.4342
 4842SOL     OW25984   1.897   0.504   2.966 -0.0384 -0.2443 -0.0412
 4842SOL    HW125985   1.846   0.519   2.886 -0.1563  0.2436  0.1311
 4842SOL    HW225986   1.852   0.565   3.024  3.4893  1.2309  1.1564
 4843SOL     OW25987   3.254   4.265   5.016 -0.2071  0.1732  0.1428
 4843SOL    HW125988   3.282   4.270   4.924 -0.3758  1.4025  0.1533
 4843SOL    HW225989   3.217   4.177   5.012 -0.2302  0.2687 -1.7190
 4844SOL     OW25990   2.937   3.805   5.434  0.4503  0.2802  0.2714
 4844SOL    HW125991   3.028   3.825   5.457  0.7099 -1.1226  0.4531
 4844SOL    HW225992   2.906   3.753   5.507  1.6609 -1.6964 -0.6118
 4845SOL     OW25993   3.225   2.086   8.584 -0.2049  0.3650 -0.8162
 4845SOL    HW125994   3.313   2.055   8.605  0.2002  1.4525 -0.9172
 4845SOL    HW225995   3.217   2.050   8.496  2.1102  0.8468 -1.2323
 4846SOL     OW25996   1.880   0.171   6.310  0.2083  0.0444 -0.1376
 4846SOL    HW125997   1.847   0.091   6.268 -1.5289  1.8122 -2.1113
 4846SOL    HW225998   1.894   0.131   6.396  0.2319 -0.7303 -0.4972
 4847SOL     OW25999   0.293   2.994   8.741  0.3360 -0.8795  0.7518
 4847SOL    HW126000   0.316   3.061   8.806 -0.1566 -0.4587  0.4950
 4847SOL    HW226001   0.372   3.007   8.687  0.2625 -2.8164  0.1837
 4848SOL     OW26002   2.603   4.074   5.022  0.2202 -0.4144 -0.3792
 4848SOL    HW126003   2.574   4.057   5.111  0.7852  1.1246  0.1128
 4848SOL    HW226004   2.600   3.987   4.983 -0.0948 -0.6643  0.2246
 4849SOL     OW26005   2.229   0.400  11.425 -0.2365  0.1362  0.1035
 4849SOL    HW126006   2.138   0.417  11.403 -0.1821  1.2878  0.7850
 4849SOL    HW226007   2.225   0.307  11.402  2.6097 -0.2418  1.0264
 4850SOL     OW26008   2.053   1.141  11.605 -0.0584 -0.8024 -0.3894
 4850SOL    HW126009   2.038   1.047  11.594 -3.0032 -0.5627  1.5610
 4850SOL    HW226010   2.148   1.130  11.612  0.1747  1.8282  0.6135
 4851SOL     OW26011   3.056   3.888  14.894 -0.0779 -0.1420 -0.9321
 4851SOL    HW126012   3.142   3.846  14.894  0.5207  1.0851 -0.7106
 4851SOL    HW226013   3.076   3.964  14.840 -2.0860  0.3331 -1.0000
 4852SOL     OW26014   4.240   0.557   2.079 -0.0046  0.2570  0.1889
 4852SOL    HW126015   4.212   0.636   2.034 -1.1690  0.0197  0.5122
 4852SOL    HW226016   4.159   0.508   2.095 -0.1123 -0.2214 -1.9032
 4853SOL     OW26017   0.031   0.077   8.321 -0.2016  0.4815 -0.1918
 4853SOL    HW126018   0.035   0.024   8.241 -1.4689  2.6173 -1.6852
 4853SOL    HW226019   0.078   0.019   8.381 -2.5836 -1.0921  0.1556
 4854SOL     OW26020   0.348   4.173   9.545 -0.3137  0.0305  0.0785
 4854SOL    HW126021   0.302   4.097   9.579  1.1074 -1.2922 -0.9958
 4854SOL    HW226022   0.291   4.216   9.480  1.4593  0.6684 -1.0513
 4855SOL     OW26023   1.608   1.409   7.630  0.2077  0.1990 -0.5110
 4855SOL    HW126024   1.644   1.418   7.718 -0.0304  2.8900 -0.6836
 4855SOL    HW226025   1.551   1.334   7.644  1.5016 -0.4257  1.3283
 4856SOL     OW26026   3.712   2.058   5.213 -0.0342 -0.4058  0.0672
 4856SOL    HW126027   3.798   2.090   5.187  0.0535 -0.3899  0.3682
 4856SOL    HW226028   3.716   1.964   5.195  1.4647 -0.9652  3.2562
 4857SOL     OW26029   0.979   1.382   6.578  0.2011 -0.3102  0.2032
 4857SOL    HW126030   1.021   1.303   6.613  0.3757 -0.0432  0.5862
 4857SOL    HW226031   0.901   1.348   6.534 -0.9557 -0.9354  2.7300
 4858SOL     OW26032   3.978   3.502  10.738 -0.3201 -0.1563  0.0354
 4858SOL    HW126033   3.973   3.418  10.691 -2.1832 -0.8359  1.4493
 4858SOL    HW226034   3.981   3.473  10.830  1.6426 -1.9473 -0.5886
 4859SOL     OW26035   3.721   3.850   3.952  0.2578 -0.4153 -0.3456
 4859SOL    HW126036   3.665   3.893   4.016  1.1461 -0.1767  0.2727
 4859SOL    HW226037   3.804   3.885   3.986 -0.1578  0.5524 -0.3268
 4860SOL     OW26038   0.206   2.024   2.995 -0.1271  0.0584 -0.8149
 4860SOL    HW126039   0.163   1.976   3.066 -0.4904  0.4487 -0.7707
 4860SOL    HW226040   0.300   2.029   3.010 -0.9531 -0.1389  4.5315
 4861SOL     OW26041   0.752   1.537   2.350 -0.1754 -0.2881 -0.6975
 4861SOL    HW126042   0.705   1.586   2.418  0.2234 -4.2780  2.4724
 4861SOL    HW226043   0.840   1.539   2.386 -1.9226  0.0476  3.6450
 4862SOL     OW26044   4.539   0.587  16.035  0.1432  0.3164  0.0267
 4862SOL    HW126045   4.596   0.647  16.083 -1.9475  1.2076  1.4037
 4862SOL    HW226046   4.474   0.649  16.001  0.6383 -0.7010 -2.7724
 4863SOL     OW26047   3.743   2.755   1.872  0.0192  0.5643 -0.1042
 4863SOL    HW126048   3.660   2.799   1.851  0.8329  1.3259 -1.7756
 4863SOL    HW226049   3.729   2.709   1.954  2.9804  2.8325  1.6617
 4864SOL     OW26050   0.949   3.776  10.927 -0.6193 -0.7189  0.7523
 4864SOL    HW126051   0.952   3.690  10.968  0.6698 -1.0026  0.0758
 4864SOL    HW226052   0.882   3.821  10.978 -0.5194 -2.5644  2.4900
 4865SOL     OW26053   2.736   2.388   4.011 -0.0790  0.1048 -0.1541
 4865SOL    HW126054   2.797   2.419   3.944  0.4314 -1.3412 -0.3365
 4865SOL    HW226055   2.787   2.349   4.081  1.5056  1.8820 -0.3321
 4866SOL     OW26056   2.768   2.111   8.045  0.4400  0.0851 -0.4586
 4866SOL    HW126057   2.851   2.158   8.056  1.9685 -2.7234  0.0582
 4866SOL    HW226058   2.800   2.025   8.074  1.5755  0.6060 -0.1936
 4867SOL     OW26059   0.966   1.898   9.226 -0.6331 -0.1539 -0.1848
 4867SOL    HW126060   1.040   1.897   9.165 -1.1929  0.1095 -0.8660
 4867SOL    HW226061   0.915   1.977   9.208 -1.2148 -0.1146  1.6006
 4868SOL     OW26062   4.526   2.984   1.608 -0.0630 -0.9026  0.1012
 4868SOL    HW126063   4.577   2.914   1.648  0.8485  0.7604  1.7973
 4868SOL    HW226064   4.600   3.042   1.593 -0.6024 -0.4468 -0.8021
 4869SOL     OW26065   0.955   3.350   3.521 -0.4464  0.1377  0.0147
 4869SOL    HW126066   0.888   3.415   3.542 -2.3212 -1.6371 -0.4587
 4869SOL    HW226067   1.027   3.411   3.506 -0.2224 -0.2102 -0.3437
 4870SOL     OW26068   3.412   1.330  14.998  0.2366 -0.5545  0.2130
 4870SOL    HW126069   3.347   1.266  15.027 -0.5557 -0.7195 -1.9166
 4870SOL    HW226070   3.463   1.346  15.077  1.0500  2.2955 -0.9057
 4871SOL     OW26071   3.186   1.197   7.511 -0.4383  0.2386  0.6210
 4871SOL    HW126072   3.126   1.157   7.574 -0.2524 -2.8707 -1.1449
 4871SOL    HW226073   3.121   1.256   7.471  0.4000 -1.3216 -3.1169
 4872SOL     OW26074   3.226   4.020   1.145  0.2767  0.2274 -0.0786
 4872SOL    HW126075   3.283   4.070   1.086 -1.5620  2.2860 -0.1020
 4872SOL    HW226076   3.245   3.927   1.132 -3.7476 -0.9027  2.1406
 4873SOL     OW26077   0.301   3.754   9.429 -0.4465 -0.5292  0.6151
 4873SOL    HW126078   0.381   3.720   9.469  0.2620  0.2754 -0.1104
 4873SOL    HW226079   0.303   3.738   9.335  0.0525  0.9433  0.3747
 4874SOL     OW26080   4.255   1.253   5.018  0.1055 -0.0060  0.1904
 4874SOL    HW126081   4.304   1.284   5.094  1.0512 -1.2096  0.0636
 4874SOL    HW226082   4.244   1.161   5.043  0.9290  0.0561  0.7882
 4875SOL     OW26083   4.025   3.133   8.058  0.1710 -0.1549 -0.2103
 4875SOL    HW126084   4.032   3.059   7.998  2.3819  0.0091 -0.1308
 4875SOL    HW226085   3.985   3.206   8.010  0.0096 -1.0174 -1.3935
 4876SOL     OW26086   1.353   2.164  14.318 -0.2591  0.0240 -0.3402
 4876SOL    HW126087   1.277   2.122  14.359 -0.0178 -0.2613 -0.1806
 4876SOL    HW226088   1.342   2.258  14.334 -7.3994 -0.9309  0.1018
 4877SOL     OW26089   0.325   2.141   5.319 -0.1236  0.6550 -0.0791
 4877SOL    HW126090   0.299   2.077   5.385 -1.7031 -0.0010 -1.3202
 4877SOL    HW226091   0.403   2.170   5.365 -0.1499  0.7848 -0.1166
 4878SOL     OW26092   3.321   2.172   3.863  0.4944  0.1330  0.1719
 4878SOL    HW126093   3.332   2.220   3.781 -3.0251  0.4311 -0.1429
 4878SOL    HW226094   3.358   2.236   3.923 -1.6006  1.0294  0.5087
 4879SOL     OW26095   1.371   0.243   8.732  0.3216  0.5463  0.3915
 4879SOL    HW126096   1.328   0.183   8.793 -1.7649  0.8670 -0.7364
 4879SOL    HW226097   1.459   0.207   8.737  0.2597  0.3805  0.2941
 4880SOL     OW26098   3.839   1.565  16.022 -0.1055 -0.0277  0.5200
 4880SOL    HW126099   3.801   1.623  16.089 -1.5025 -0.2853 -0.0564
 4880SOL    HW226100   3.781   1.574  15.947  1.4996 -1.3682 -0.8635
 4881SOL     OW26101   1.196   3.859   3.769 -0.1060  0.4847 -0.2673
 4881SOL    HW126102   1.148   3.789   3.725 -2.2794  2.1450 -0.5098
 4881SOL    HW226103   1.271   3.867   3.710  0.3382  0.0695  0.2467
 4882SOL     OW26104   2.432   0.516   1.084 -0.2020 -0.2336 -0.4682
 4882SOL    HW126105   2.392   0.438   1.122  1.2653 -1.9069 -2.3212
 4882SOL    HW226106   2.380   0.529   1.004  1.2113  1.1290 -1.1752
 4883SOL     OW26107   3.492   4.152   5.312 -0.8362 -0.0754  0.0788
 4883SOL    HW126108   3.483   4.246   5.297 -4.6704 -0.6162 -0.8880
 4883SOL    HW226109   3.584   4.142   5.339 -0.2362 -0.9970 -2.2595
 4884SOL     OW26110   2.217   0.899   9.946  0.1317 -0.0977 -0.5002
 4884SOL    HW126111   2.196   0.818   9.900  1.0390 -0.2111 -0.7203
 4884SOL    HW226112   2.279   0.942   9.887  1.9085 -0.0118  1.3971
 4885SOL     OW26113   4.337   0.424   6.688  0.2719  0.2693  0.1940
 4885SOL    HW126114   4.378   0.348   6.729 -0.3206  0.0265  0.3273
 4885SOL    HW226115   4.256   0.428   6.738  0.3871  1.0390  0.3252
 4886SOL     OW26116   3.463   2.438  12.481 -0.0680  0.3031 -0.1315
 4886SOL    HW126117   3.407   2.516  12.476 -0.0976  0.2157 -1.1430
 4886SOL    HW226118   3.405   2.369  12.451 -0.5932 -0.2127  2.1036
 4887SOL     OW26119   1.301   1.737   4.617  0.4182  0.0524 -0.0984
 4887SOL    HW126120   1.366   1.805   4.600 -0.8877  1.5846  1.1212
 4887SOL    HW226121   1.301   1.691   4.533  0.0277 -0.9317  0.4394
 4888SOL     OW26122   3.375   1.729   7.476  0.1598  0.4795  0.1756
 4888SOL    HW126123   3.414   1.816   7.486 -0.9390  1.1416 -1.3207
 4888SOL    HW226124   3.413   1.685   7.553  1.0192 -0.1446 -0.6021
 4889SOL     OW26125   0.616   3.019  10.602  0.1567  0.0449 -0.3679
 4889SOL    HW126126   0.582   3.004  10.690 -0.2726  0.1979 -0.5114
 4889SOL    HW226127   0.711   3.021  10.617  0.5330  0.8989 -3.0022
 4890SOL     OW26128   3.688   1.930  13.272 -0.0059 -0.4019  0.7168
 4890SOL    HW126129   3.692   1.891  13.185 -0.5012 -1.9199  1.3789
 4890SOL    HW226130   3.595   1.913  13.288 -0.4877  2.7275  1.2921
 4891SOL     OW26131   3.586   3.381   3.688  0.1545  0.1946 -0.5921
 4891SOL    HW126132   3.649   3.451   3.674  0.6174 -0.0770  0.1530
 4891SOL    HW226133   3.584   3.337   3.604  2.4860  0.1080 -0.5840
 4892SOL     OW26134   4.562   3.510  10.764  0.3714 -0.5382  0.1741
 4892SOL    HW126135   4.606   3.484  10.845  0.6695  1.8432  0.7900
 4892SOL    HW226136   4.521   3.429  10.736  0.9191 -0.8228  0.1989
 4893SOL     OW26137   3.570   0.830  16.307  0.3746 -0.3842 -0.5808
 4893SOL    HW126138   3.605   0.750  16.266 -0.0593 -1.5407  1.2974
 4893SOL    HW226139   3.489   0.850  16.260  0.4926 -4.6041 -2.6008
 4894SOL     OW26140   3.564   0.479  12.897  0.1958  0.4399  0.3734
 4894SOL    HW126141   3.564   0.428  12.815  1.0902  0.8333  0.1321
 4894SOL    HW226142   3.624   0.551  12.878  0.2489  0.4097  0.4254
 4895SOL     OW26143   0.979   4.050   7.914  0.5245  0.1915 -0.0362
 4895SOL    HW126144   1.027   4.124   7.952  0.3827  0.1413  0.2390
 4895SOL    HW226145   0.938   4.011   7.991  0.9380  0.4822  0.3279
 4896SOL     OW26146   4.545   0.433   1.712  0.2010  0.7934  0.3717
 4896SOL    HW126147   4.461   0.392   1.691  0.3005  1.3143 -1.0404
 4896SOL    HW226148   4.603   0.357   1.714 -2.0386 -0.8591  2.6995
 4897SOL     OW26149   1.799   2.430   8.664  0.2661  0.5951 -0.0986
 4897SOL    HW126150   1.769   2.422   8.755 -0.7915 -0.6584 -0.5513
 4897SOL    HW226151   1.753   2.510   8.637  1.0118  1.1055  0.1601
 4898SOL     OW26152   3.632   2.381  15.921 -0.4164 -0.6534  0.4724
 4898SOL    HW126153   3.601   2.340  16.002 -1.6021 -1.5316 -0.4241
 4898SOL    HW226154   3.626   2.314  15.853  1.6323  0.2881 -0.6044
 4899SOL     OW26155   1.653   4.169  14.973  0.0850  0.5678 -0.1245
 4899SOL    HW126156   1.647   4.256  14.934  0.8524  0.3643 -0.7094
 4899SOL    HW226157   1.748   4.156  14.970 -0.3827 -3.2026  1.3350
 4900SOL     OW26158   2.904   3.705   5.950  0.2119 -0.4305  0.1021
 4900SOL    HW126159   2.990   3.721   5.990  0.3999  1.2572 -0.9594
 4900SOL    HW226160   2.911   3.614   5.921 -0.9540 -0.7330  0.7826
 4901SOL     OW26161   3.442   1.448   4.228 -0.1921  0.1327 -0.2571
 4901SOL    HW126162   3.528   1.453   4.186  1.1454  0.4930  2.5567
 4901SOL    HW226163   3.452   1.507   4.303  0.1420  1.9238 -1.6898
 4902SOL     OW26164   1.117   1.059   8.571 -0.3368  0.2753  0.0678
 4902SOL    HW126165   1.121   0.964   8.583  3.0367  0.4365  0.2616
 4902SOL    HW226166   1.107   1.094   8.660 -2.3595 -0.1148 -0.0030
 4903SOL     OW26167   4.049   1.691   4.546 -0.0793  0.3690  0.1155
 4903SOL    HW126168   4.093   1.764   4.503 -0.7119  2.2294  2.6592
 4903SOL    HW226169   3.971   1.734   4.581  0.0029  0.0753  0.6523
 4904SOL     OW26170   1.849   3.395   8.922 -0.6263 -0.2051  0.2272
 4904SOL    HW126171   1.780   3.337   8.953 -1.5287  1.1983  0.8467
 4904SOL    HW226172   1.802   3.447   8.856  1.0406 -1.6652 -2.1128
 4905SOL     OW26173   1.726   0.650   6.143  0.5255 -0.3448  0.4973
 4905SOL    HW126174   1.740   0.579   6.206  3.7301 -0.6628 -0.5983
 4905SOL    HW226175   1.816   0.683   6.145 -0.0715  1.1308  3.2698
 4906SOL     OW26176   2.867   3.653   4.379  0.5579 -0.1465  0.1748
 4906SOL    HW126177   2.872   3.558   4.374 -1.1401 -0.2698  0.9711
 4906SOL    HW226178   2.791   3.678   4.432  1.0215  0.9940  0.2951
 4907SOL     OW26179   2.912   1.019   6.802 -0.8736  0.1120 -0.2593
 4907SOL    HW126180   2.975   1.055   6.740 -2.3315  3.6402  0.3164
 4907SOL    HW226181   2.881   1.105   6.831  1.1567  1.1807 -1.2329
 4908SOL     OW26182   3.569   1.329   2.708 -0.3152  0.3505  0.3630
 4908SOL    HW126183   3.534   1.417   2.702  1.0449  0.4303 -6.3214
 4908SOL    HW226184   3.652   1.342   2.753 -0.8281 -2.5395  2.1384
 4909SOL     OW26185   2.416   0.155   2.750 -0.4481 -0.0612  0.5114
 4909SOL    HW126186   2.379   0.077   2.709 -1.8219  1.1489 -0.5601
 4909SOL    HW226187   2.477   0.185   2.683  0.1283  0.8362  1.4427
 4910SOL     OW26188   0.569   2.589   8.678  0.0625  0.1186  0.2389
 4910SOL    HW126189   0.514   2.617   8.751  2.0043 -0.8199  2.0815
 4910SOL    HW226190   0.648   2.634   8.707 -0.0085  0.1662  0.3586
 4911SOL     OW26191   4.064   0.888   8.782  0.1666  0.2351  0.1646
 4911SOL    HW126192   4.028   0.811   8.826 -1.2448 -0.0947 -1.5808
 4911SOL    HW226193   4.088   0.844   8.701  0.3975  0.3655  0.1624
 4912SOL     OW26194   3.352   3.117   8.888  0.2765  0.3045  0.2822
 4912SOL    HW126195   3.423   3.097   8.828 -0.0832 -0.2688  0.0456
 4912SOL    HW226196   3.395   3.172   8.954 -0.3201  1.0941  0.0115
 4913SOL     OW26197   0.067   3.272  14.863  0.1705  0.0912 -0.2877
 4913SOL    HW126198   0.069   3.346  14.924 -1.1718  0.0239 -0.1622
 4913SOL    HW226199   0.054   3.198  14.923  3.0127 -0.3562 -0.2275
 4914SOL     OW26200   0.083   3.592   0.227 -0.1281 -0.3417 -0.3346
 4914SOL    HW126201   4.719   3.618   0.189 -0.9102 -0.7151  1.1308
 4914SOL    HW226202   0.105   3.666   0.284 -1.8795  2.2734 -3.0791
 4915SOL     OW26203   3.879   2.564   5.110  0.3496 -0.1462  0.0683
 4915SOL    HW126204   3.964   2.588   5.149  0.2787 -0.1385  0.2185
 4915SOL    HW226205   3.828   2.520   5.178  0.1679 -1.3521 -0.8592
 4916SOL     OW26206   0.951   0.531   2.232 -0.4858 -0.0975 -0.4551
 4916SOL    HW126207   0.941   0.616   2.189 -0.3956  0.2073  0.1334
 4916SOL    HW226208   1.043   0.514   2.211 -0.7305 -2.2316  0.2822
 4917SOL     OW26209   2.091   4.313   2.682  0.1006 -0.7946 -0.0475
 4917SOL    HW126210   2.147   4.240   2.710 -0.6892 -1.6573 -0.6930
 4917SOL    HW226211   2.020   4.314   2.746  0.7258 -1.1777  0.6658
 4918SOL     OW26212   1.642   2.347   8.214 -0.6548  0.3608 -0.1108
 4918SOL    HW126213   1.662   2.318   8.303 -1.0350 -2.1007 -0.8200
 4918SOL    HW226214   1.725   2.371   8.175 -0.0728 -1.4369  0.0246
 4919SOL     OW26215   4.130   1.003   1.796 -0.0537 -0.1709 -0.3882
 4919SOL    HW126216   4.181   0.967   1.724  2.0360  2.3963 -0.1986
 4919SOL    HW226217   4.043   0.966   1.780  0.3891 -1.6822  0.7590
 4920SOL     OW26218   1.548   3.496   7.874  0.5098  0.2386 -1.0210
 4920SOL    HW126219   1.465   3.479   7.831 -0.5649  1.7785  0.4835
 4920SOL    HW226220   1.568   3.412   7.918 -0.2434  1.7020  2.1231
 4921SOL     OW26221   1.031   0.713   7.525  0.2844 -0.1471 -0.1014
 4921SOL    HW126222   1.000   0.690   7.437 -3.9216 -1.0085  1.6400
 4921SOL    HW226223   1.029   0.809   7.521  1.2552 -0.1511 -0.6685
 4922SOL     OW26224   4.610   1.252   7.105 -0.1482 -0.2646  1.0668
 4922SOL    HW126225   4.687   1.293   7.145  0.7113 -0.0010 -0.8644
 4922SOL    HW226226   4.629   1.282   7.016  1.7981  1.4590  2.0820
 4923SOL     OW26227   3.258   1.755   9.696  0.3759 -0.1258  0.3800
 4923SOL    HW126228   3.187   1.771   9.634  2.8537  1.9243 -1.9225
 4923SOL    HW226229   3.296   1.842   9.680 -0.3201  0.7651  3.5029
 4924SOL     OW26230   1.197   1.989  11.104  0.2234 -0.1726  0.3188
 4924SOL    HW126231   1.175   2.051  11.174 -0.6221  2.4587 -2.2798
 4924SOL    HW226232   1.207   1.908  11.154  1.9439 -0.3676 -0.3137
 4925SOL     OW26233   2.847   1.278   6.920  0.2929 -0.2653  0.4886
 4925SOL    HW126234   2.772   1.326   6.886 -1.4489 -3.3521 -0.0534
 4925SOL    HW226235   2.865   1.328   6.999 -2.3160  0.3772  0.6693
 4926SOL     OW26236   4.239   1.724   3.127  0.4258  0.1031 -0.2530
 4926SOL    HW126237   4.153   1.734   3.167  0.7997  1.7688  0.1189
 4926SOL    HW226238   4.212   1.661   3.060  1.6319 -1.6502  0.9150
 4927SOL     OW26239   1.718   3.733   7.306  0.1072  0.5197  0.1011
 4927SOL    HW126240   1.732   3.713   7.399 -2.4910 -1.0214  0.1559
 4927SOL    HW226241   1.643   3.679   7.280 -0.1138  0.6253  0.5127
 4928SOL     OW26242   1.711   0.495  11.525  0.5828  0.0313  0.2661
 4928SOL    HW126243   1.666   0.425  11.572  1.9081  0.3500  2.0331
 4928SOL    HW226244   1.741   0.549  11.599 -0.7016  1.0463  0.0537
 4929SOL     OW26245   0.294   2.105   7.736 -0.3343 -0.9190 -0.1677
 4929SOL    HW126246   0.279   2.199   7.729 -0.4958 -0.9705 -0.5122
 4929SOL    HW226247   0.207   2.075   7.761 -0.3915 -0.2340  0.4572
 4930SOL     OW26248   1.207   1.230  11.141 -0.3149  0.0537  0.2415
 4930SOL    HW126249   1.221   1.315  11.184  0.8289 -0.2840  0.5228
 4930SOL    HW226250   1.112   1.220  11.146 -0.3062 -0.3482 -0.5820
 4931SOL     OW26251   2.340   4.180   2.790 -0.2502 -0.3292  0.1857
 4931SOL    HW126252   2.377   4.210   2.707 -0.4715  1.8827  0.8984
 4931SOL    HW226253   2.407   4.123   2.827 -2.2111 -1.4875  1.9667
 4932SOL     OW26254   3.800   4.226   6.539 -0.0168 -0.6444  0.4332
 4932SOL    HW126255   3.761   4.254   6.456  0.8837 -0.3821  0.1018
 4932SOL    HW226256   3.732   4.260   6.597  0.0881 -0.1064  0.2431
 4933SOL     OW26257   1.875   3.116  11.098  0.3006 -0.5927 -0.3791
 4933SOL    HW126258   1.793   3.070  11.119 -0.3839  1.0867  0.5866
 4933SOL    HW226259   1.852   3.122  11.005 -0.4804 -1.0054 -0.2097
 4934SOL     OW26260   3.803   4.630   7.086  0.0592 -0.5768  0.3149
 4934SOL    HW126261   3.878   4.613   7.143 -0.4282  1.4245  1.5516
 4934SOL    HW226262   3.828   4.574   7.013 -2.8428 -2.1990  0.5672
 4935SOL     OW26263   2.769   0.585   7.575 -0.0718 -0.1912  0.0072
 4935SOL    HW126264   2.734   0.548   7.494 -0.9891  0.2565  0.1995
 4935SOL    HW226265   2.713   0.549   7.643  0.3345  0.2688  0.5765
 4936SOL     OW26266   3.820   2.431   4.457  0.0945  0.0110 -0.3521
 4936SOL    HW126267   3.725   2.431   4.457  0.0922 -0.1250  0.2075
 4936SOL    HW226268   3.836   2.524   4.477  1.7789 -0.1139 -1.0741
 4937SOL     OW26269   1.434   3.079  12.725 -0.1233 -0.0578 -0.1096
 4937SOL    HW126270   1.458   3.093  12.817 -0.2844  0.6201 -0.1702
 4937SOL    HW226271   1.362   3.141  12.718 -0.1586  0.1087  1.7089
 4938SOL     OW26272   2.385   2.322   4.674  0.1185 -0.1506 -0.2026
 4938SOL    HW126273   2.375   2.230   4.651 -2.0047  0.1841 -0.6372
 4938SOL    HW226274   2.297   2.353   4.652 -0.0986 -2.2395 -2.2776
 4939SOL     OW26275   2.250   4.008   6.430  0.5418  0.0958 -0.5768
 4939SOL    HW126276   2.279   3.976   6.515 -0.2923 -0.9284 -0.6875
 4939SOL    HW226277   2.155   4.023   6.432  0.5968  0.5913 -1.3980
 4940SOL     OW26278   3.706   4.717   4.793 -0.3599  0.4591  0.4106
 4940SOL    HW126279   3.716   4.625   4.771  0.8217  0.9982 -1.3273
 4940SOL    HW226280   3.687   0.040   4.710 -1.9473 -1.1009 -0.0137
 4941SOL     OW26281   3.876   3.263   1.132 -0.3148  0.5449  0.1738
 4941SOL    HW126282   3.797   3.210   1.139  0.5180 -0.8215 -0.7390
 4941SOL    HW226283   3.944   3.209   1.172 -1.0672  0.3948  1.2432
 4942SOL     OW26284   3.008   2.198   3.870 -0.3805  0.1189 -0.1155
 4942SOL    HW126285   3.001   2.210   3.776 -1.0114 -1.1064 -0.2223
 4942SOL    HW226286   3.061   2.273   3.897 -0.2608  0.5560 -1.5979
 4943SOL     OW26287   4.398   2.111   9.334 -0.1321  0.4532  0.4613
 4943SOL    HW126288   4.350   2.032   9.309  1.0743 -0.2686  0.4087
 4943SOL    HW226289   4.487   2.086   9.309 -0.8071 -1.1756 -0.2877
 4944SOL     OW26290   3.253   3.821   3.009 -0.0228  0.1542 -0.2045
 4944SOL    HW126291   3.320   3.756   2.988  0.1248  0.0823  0.4873
 4944SOL    HW226292   3.290   3.899   2.969  0.9308 -0.4163 -0.4391
 4945SOL     OW26293   0.847   1.679  14.933  0.3982  0.6804  0.8950
 4945SOL    HW126294   0.876   1.732  14.859 -0.0072 -0.1667  0.1252
 4945SOL    HW226295   0.766   1.722  14.960 -0.2277  0.6519 -0.8708
 4946SOL     OW26296   3.118   1.559  15.998  0.3746 -0.3145  0.1954
 4946SOL    HW126297   3.058   1.601  15.937  2.1839 -0.5583 -1.7503
 4946SOL    HW226298   3.118   1.624  16.068  0.4971  0.4134 -0.4857
 4947SOL     OW26299   3.955   2.471  11.262 -0.0551  0.0546  0.9096
 4947SOL    HW126300   3.868   2.439  11.238  0.5265 -0.9398  0.0668
 4947SOL    HW226301   4.004   2.453  11.181  2.3271 -1.4887  2.6765
 4948SOL     OW26302   3.811   4.581  13.742 -0.0891 -0.7643 -0.7077
 4948SOL    HW126303   3.760   4.630  13.678 -1.0017 -1.7098 -0.7011
 4948SOL    HW226304   3.755   4.507  13.765  3.5202 -3.5448 -0.8717
 4949SOL     OW26305   1.691   4.221   4.682  0.2523 -0.5025  0.1371
 4949SOL    HW126306   1.644   4.146   4.719 -1.8052  0.6186 -0.1664
 4949SOL    HW226307   1.666   4.200   4.592  0.0198 -1.2234  0.3654
 4950SOL     OW26308   3.725   0.364  10.596  0.0271  0.3958 -0.3327
 4950SOL    HW126309   3.756   0.386  10.508  1.3001 -1.2564 -0.2840
 4950SOL    HW226310   3.758   0.430  10.656  1.4035  0.5678 -1.2682
 4951SOL     OW26311   2.015   1.787   8.435  0.8637  0.1429  0.2318
 4951SOL    HW126312   1.931   1.772   8.393  0.9146 -0.4648  0.3506
 4951SOL    HW226313   2.068   1.814   8.359 -3.0926  0.2705 -2.4917
 4952SOL     OW26314   0.832   4.508   5.820  0.1826  0.3523 -0.2820
 4952SOL    HW126315   0.918   4.496   5.779 -0.6237  2.5901 -2.5294
 4952SOL    HW226316   0.810   4.596   5.791 -2.3494 -0.1592  0.1207
 4953SOL     OW26317   3.419   2.025   6.017  0.0159 -0.3605  0.5894
 4953SOL    HW126318   3.422   2.114   6.053  1.2663 -0.2028  0.0975
 4953SOL    HW226319   3.378   1.970   6.084  0.1966 -2.1324 -0.7670
 4954SOL     OW26320   0.646   0.668  13.167 -0.1448  0.2268 -0.3995
 4954SOL    HW126321   0.553   0.650  13.150 -0.5640  2.1960 -0.2305
 4954SOL    HW226322   0.657   0.728  13.093  1.1162  0.3558 -0.1032
 4955SOL     OW26323   2.942   0.075  13.274 -0.4958 -0.0528 -0.6061
 4955SOL    HW126324   2.980   0.153  13.313  1.1899 -0.9236 -0.4775
 4955SOL    HW226325   2.935   0.113  13.187 -2.0901 -2.7595 -1.6795
 4956SOL     OW26326   3.009   3.150  11.712 -0.1152 -0.5564  0.2226
 4956SOL    HW126327   3.062   3.071  11.698  0.7208  0.0674 -0.1943
 4956SOL    HW226328   3.077   3.216  11.698 -2.5482  1.4248 -2.2718
 4957SOL     OW26329   1.857   3.584   4.358  0.3213 -0.0324 -0.3231
 4957SOL    HW126330   1.769   3.560   4.388 -0.0306  2.3848  0.5859
 4957SOL    HW226331   1.837   3.670   4.320  0.1860  0.9164  1.8554
 4958SOL     OW26332   3.753   3.661   2.349 -0.7448  0.3441 -0.6614
 4958SOL    HW126333   3.846   3.642   2.335 -0.4542 -0.1934  1.9905
 4958SOL    HW226334   3.728   3.682   2.259 -0.5225  0.3131 -0.7296
 4959SOL     OW26335   0.923   4.260   2.546 -0.0256  0.1551 -0.0719
 4959SOL    HW126336   1.009   4.230   2.517  0.6838  2.0562  0.0733
 4959SOL    HW226337   0.897   4.213   2.625 -0.2468  0.9386  0.3202
 4960SOL     OW26338   3.248   4.504  16.309  0.0374 -0.0561  0.6653
 4960SOL    HW126339   3.240   4.449  16.387 -0.4377 -3.0900 -1.5289
 4960SOL    HW226340   3.161   4.489  16.272 -0.7599  0.3250  2.3758
 4961SOL     OW26341   4.025   3.581   8.625  0.0513 -0.4118  0.2841
 4961SOL    HW126342   4.028   3.503   8.570  1.3278  0.7654 -1.3336
 4961SOL    HW226343   4.111   3.619   8.608 -0.4993  0.0678 -1.4692
 4962SOL     OW26344   2.902   1.139   2.114 -0.1039  0.3043  0.2189
 4962SOL    HW126345   2.860   1.053   2.105  0.4067  0.1498 -0.7404
 4962SOL    HW226346   2.842   1.176   2.178  0.5101  1.0494  0.3615
 4963SOL     OW26347   2.582   4.472  15.128 -0.3407  0.3028 -0.6265
 4963SOL    HW126348   2.554   4.448  15.040  0.5284  0.4995 -0.9576
 4963SOL    HW226349   2.501   4.468  15.178 -1.0140 -2.0344 -1.9117
 4964SOL     OW26350   1.174   3.826   1.878 -0.4798  0.0878  0.4649
 4964SOL    HW126351   1.082   3.853   1.873 -0.0096  1.7893  0.7799
 4964SOL    HW226352   1.167   3.731   1.879 -0.5140  0.0928  0.9113
 4965SOL     OW26353   0.807   2.295   0.808  0.1704 -0.5785 -0.3007
 4965SOL    HW126354   0.724   2.300   0.760  0.5993  1.8927 -0.8009
 4965SOL    HW226355   0.801   2.381   0.849 -0.8107 -1.2476  0.9478
 4966SOL     OW26356   3.788   3.875   8.784 -0.2426  0.0112 -0.4194
 4966SOL    HW126357   3.832   3.849   8.703  0.5494 -0.4383  0.1624
 4966SOL    HW226358   3.820   3.964   8.796 -1.0555  0.4065 -1.1563
 4967SOL     OW26359   2.324   3.592   9.134 -0.3725  0.2356 -0.4376
 4967SOL    HW126360   2.323   3.560   9.224 -0.6605  0.2693 -0.4293
 4967SOL    HW226361   2.231   3.586   9.114 -0.7908 -1.3284  1.9692
 4968SOL     OW26362   3.585   2.647   9.170  0.2690  0.7069  0.0902
 4968SOL    HW126363   3.612   2.606   9.252 -2.3969 -2.0071 -0.3803
 4968SOL    HW226364   3.652   2.598   9.122 -0.4677 -0.6957  0.4890
 4969SOL     OW26365   3.046   4.271   1.651  0.2207 -0.0963 -0.4740
 4969SOL    HW126366   3.068   4.349   1.600  0.4924  0.4061  0.4209
 4969SOL    HW226367   3.053   4.298   1.742  1.0604 -1.1628 -0.2228
 4970SOL     OW26368   0.256   1.581   5.225 -0.3897  0.4606 -0.4508
 4970SOL    HW126369   0.210   1.557   5.146 -1.7101  0.2782  0.3735
 4970SOL    HW226370   0.341   1.542   5.204 -1.6707 -1.5443 -1.8234
 4971SOL     OW26371   0.987   1.460  14.318 -0.3704 -0.1562  0.0756
 4971SOL    HW126372   0.990   1.523  14.246 -2.9200 -3.1112 -2.6410
 4971SOL    HW226373   1.033   1.388  14.275 -0.4148  0.8176 -1.5917
 4972SOL     OW26374   0.807   4.458   6.101  0.7517 -0.0606  0.2972
 4972SOL    HW126375   0.798   4.480   6.009 -0.0798 -0.6910  0.2287
 4972SOL    HW226376   0.789   4.364   6.098  0.6691 -0.0960  1.8743
 4973SOL     OW26377   4.581   3.764   5.144 -0.3659  0.6048  0.0624
 4973SOL    HW126378   4.555   3.804   5.228 -4.0111 -1.1380 -0.2482
 4973SOL    HW226379   4.535   3.827   5.089 -2.2020  0.3245  1.2778
 4974SOL     OW26380   3.264   1.872   7.771 -0.6431  0.1671  0.1105
 4974SOL    HW126381   3.328   1.802   7.762 -0.1840  0.7048 -0.7295
 4974SOL    HW226382   3.317   1.943   7.809 -0.2138 -1.7401  3.0947
 4975SOL     OW26383   0.636   3.958   8.769  0.0767  0.0660 -0.2739
 4975SOL    HW126384   0.698   4.004   8.825  1.4771  0.2380 -1.9803
 4975SOL    HW226385   0.555   3.993   8.806  1.3005  2.0872  0.4320
 4976SOL     OW26386   2.597   0.876   7.244  0.2160 -0.3556 -0.2618
 4976SOL    HW126387   2.536   0.841   7.178 -1.2857  0.1412  0.8520
 4976SOL    HW226388   2.610   0.964   7.208  0.9985 -1.0932 -1.7973
 4977SOL     OW26389   4.190   0.465  10.469  0.5712  0.4338 -0.0188
 4977SOL    HW126390   4.195   0.456  10.564 -2.3193  0.9258  0.1665
 4977SOL    HW226391   4.125   0.534  10.461  0.9250  0.7524 -0.1895
 4978SOL     OW26392   2.737   3.787   5.629  0.5548  0.1792  0.2833
 4978SOL    HW126393   2.739   3.851   5.699 -1.1219  1.3194 -0.7103
 4978SOL    HW226394   2.654   3.802   5.583 -0.3953  0.0815  1.9905
 4979SOL     OW26395   3.656   4.302   3.581 -0.5653  0.0335 -0.0346
 4979SOL    HW126396   3.700   4.333   3.660 -0.3832  1.7311 -0.8093
 4979SOL    HW226397   3.622   4.384   3.545  2.0747  0.7263 -0.9440
 4980SOL     OW26398   1.151   4.200  17.661 -0.2785  0.1533  0.1418
 4980SOL    HW126399   1.161   4.289   0.013 -0.5130  0.4695 -0.6279
 4980SOL    HW226400   1.114   4.156   0.056 -2.4597  1.2418 -0.2703
 4981SOL     OW26401   1.491   0.353   8.502 -0.0761 -0.3563 -0.3005
 4981SOL    HW126402   1.489   0.305   8.585 -2.0530  0.9447  0.3959
 4981SOL    HW226403   1.438   0.428   8.528  1.1370  0.5465 -0.4018
 4982SOL     OW26404   0.574   4.478   8.133 -0.0312 -0.3217 -0.5955
 4982SOL    HW126405   0.631   4.519   8.197 -0.9285 -2.6129  1.6838
 4982SOL    HW226406   0.606   4.388   8.126  1.3658  0.0958  0.4738
 4983SOL     OW26407   2.982   0.398   5.474 -0.2274 -0.3830 -0.3793
 4983SOL    HW126408   3.067   0.358   5.456 -0.1215 -0.0821 -0.5469
 4983SOL    HW226409   2.937   0.324   5.514  0.4472  1.4717  3.7448
 4984SOL     OW26410   4.121   2.323  16.740  0.2202 -0.0100 -0.3337
 4984SOL    HW126411   4.131   2.272  16.821  0.4675 -1.1489 -1.0876
 4984SOL    HW226412   4.092   2.408  16.775  0.6767  0.2532 -0.6009
 4985SOL     OW26413   1.065   0.691   6.120  0.1010 -0.2243 -0.1706
 4985SOL    HW126414   0.970   0.699   6.115  0.2514  1.7652  0.1277
 4985SOL    HW226415   1.077   0.604   6.083  0.3352 -0.3063  0.0932
 4986SOL     OW26416   1.527   0.988   6.251  0.1300  0.5073  0.4519
 4986SOL    HW126417   1.581   0.961   6.176  0.1744 -0.5261  0.8500
 4986SOL    HW226418   1.537   1.083   6.242 -3.5848  0.8710  0.4386
 4987SOL     OW26419   2.840   2.174   5.688 -0.0546 -0.1439  0.1161
 4987SOL    HW126420   2.830   2.235   5.615 -3.9015 -1.0542 -0.1238
 4987SOL    HW226421   2.877   2.096   5.647 -3.4252 -1.0715 -1.1872
 4988SOL     OW26422   1.746   3.628   5.195  0.3644 -0.4348  0.4229
 4988SOL    HW126423   1.740   3.667   5.282  0.0983 -0.6923  0.5239
 4988SOL    HW226424   1.774   3.537   5.208 -1.6622 -0.7448  2.6252
 4989SOL     OW26425   1.624   1.148  10.905 -0.1576 -0.2197  0.4966
 4989SOL    HW126426   1.659   1.236  10.897 -0.4760 -0.0589  0.9182
 4989SOL    HW226427   1.617   1.151  11.000  1.0160  1.7238  0.5102
 4990SOL     OW26428   2.487   0.749   6.782 -0.2602 -0.4031  0.2244
 4990SOL    HW126429   2.469   0.735   6.875 -2.8051 -1.5031 -0.4487
 4990SOL    HW226430   2.568   0.799   6.795 -0.9718  0.6277  0.7474
 4991SOL     OW26431   1.030   1.784  16.407  0.2864  0.2502  0.1131
 4991SOL    HW126432   0.994   1.718  16.348 -0.7489  0.6309  0.3166
 4991SOL    HW226433   0.989   1.747  16.485 -1.6470  2.6190  0.2013
 4992SOL     OW26434   2.025   1.251   3.804  0.1327 -0.1750 -0.0661
 4992SOL    HW126435   1.985   1.209   3.880 -0.2657 -1.7130 -1.1377
 4992SOL    HW226436   2.113   1.263   3.838  0.9236 -2.0378 -1.5220
 4993SOL     OW26437   2.056   4.356  15.073  0.6240 -0.3598 -0.2752
 4993SOL    HW126438   2.124   4.294  15.100 -0.6251 -0.3366  2.8439
 4993SOL    HW226439   2.003   4.291  15.027  1.3295 -1.1464  0.0223
 4994SOL     OW26440   0.254   2.587   8.431 -0.1178  0.6146 -0.1424
 4994SOL    HW126441   0.236   2.495   8.415 -0.6521  0.7608 -0.3945
 4994SOL    HW226442   0.212   2.605   8.516 -0.1248 -0.8818  0.1718
 4995SOL     OW26443   3.374   1.046   7.925 -0.5738  0.2716 -0.1196
 4995SOL    HW126444   3.427   0.968   7.941 -2.6862 -1.1709 -0.1525
 4995SOL    HW226445   3.445   1.101   7.890  1.2031 -2.9873 -1.6444
 4996SOL     OW26446   3.592   2.914   0.394  0.0857 -0.1793  0.2728
 4996SOL    HW126447   3.599   2.873   0.308 -0.4873  1.3401 -0.4997
 4996SOL    HW226448   3.577   2.842   0.455 -1.1950  0.9510  1.3107
 4997SOL     OW26449   2.067   2.886   7.391  0.0720 -0.4506 -0.0255
 4997SOL    HW126450   2.042   2.881   7.483 -1.8572 -1.2789 -0.6021
 4997SOL    HW226451   2.063   2.981   7.377 -0.0172 -0.6710 -1.4893
 4998SOL     OW26452   1.858   4.562   0.780 -0.0798  0.3442 -0.2721
 4998SOL    HW126453   1.860   4.650   0.741  3.7470  0.8201  1.0180
 4998SOL    HW226454   1.920   4.568   0.852 -0.6848 -0.3794  0.3105
 4999SOL     OW26455   1.267   3.076   7.473 -0.4344 -0.0891 -0.2210
 4999SOL    HW126456   1.189   3.062   7.527 -0.3236  0.2489  0.0237
 4999SOL    HW226457   1.333   3.025   7.519  2.2155  1.4738 -2.2827
 5000SOL     OW26458   1.697   2.531   5.237  0.1541 -0.5539  0.4118
 5000SOL    HW126459   1.614   2.519   5.285 -0.5025  0.5476 -0.4547
 5000SOL    HW226460   1.749   2.560   5.312  0.5519 -3.4393  1.2484
 5001SOL     OW26461   4.022   3.625   2.322 -0.1491 -0.2989 -0.3582
 5001SOL    HW126462   4.080   3.630   2.398 -2.3999  2.9043  1.1201
 5001SOL    HW226463   4.083   3.590   2.257  0.0125 -1.6093  0.5074
 5002SOL     OW26464   1.439   3.386  10.108  0.1162  0.2098 -0.6206
 5002SOL    HW126465   1.346   3.402  10.128  0.1139  0.9844 -1.2598
 5002SOL    HW226466   1.474   3.409  10.195  0.2410 -0.6226 -0.4590
 5003SOL     OW26467   3.101   1.372   6.375  0.1308 -0.1927  0.2701
 5003SOL    HW126468   3.051   1.298   6.342  0.8669 -0.8904  0.7422
 5003SOL    HW226469   3.027   1.434   6.375  0.9259  0.7490 -1.3508
 5004SOL     OW26470   0.203   3.930  16.330 -0.4158  0.3402 -0.6341
 5004SOL    HW126471   0.295   3.934  16.358 -1.0259 -4.9349  2.1327
 5004SOL    HW226472   0.168   3.948  16.418  1.3525  1.9356 -0.2702
 5005SOL     OW26473   1.359   1.105   0.715 -0.2858 -0.0301 -0.5334
 5005SOL    HW126474   1.419   1.124   0.788  0.2932  1.8536 -1.4986
 5005SOL    HW226475   1.287   1.155   0.754 -0.5891 -0.0499 -1.0741
 5006SOL     OW26476   1.726   4.689   6.250  0.4766  0.3679  0.3495
 5006SOL    HW126477   1.735   4.646   6.165  0.5279  3.7141 -1.3719
 5006SOL    HW226478   1.637   0.003   6.238  1.1565  1.4934 -1.5574
 5007SOL     OW26479   1.415   2.872   3.224 -0.4917 -0.1031 -0.5892
 5007SOL    HW126480   1.486   2.932   3.245 -1.0478  0.7388 -1.1588
 5007SOL    HW226481   1.374   2.867   3.311  1.6743  0.7298  0.4718
 5008SOL     OW26482   3.944   1.051   4.443  0.7733 -0.2126  0.2566
 5008SOL    HW126483   4.007   0.979   4.441  1.0576 -0.0538  2.7316
 5008SOL    HW226484   3.867   1.007   4.404 -0.3754  2.7720 -0.8047
 5009SOL     OW26485   3.189   3.534   1.999 -0.1001  0.0741  0.1171
 5009SOL    HW126486   3.112   3.566   2.046  0.7361  1.0890  0.7963
 5009SOL    HW226487   3.161   3.547   1.909  2.2354  1.2378 -0.4337
 5010SOL     OW26488   1.770   1.679   5.535 -0.2217 -0.4022  0.3455
 5010SOL    HW126489   1.754   1.714   5.447 -2.5633 -0.9806  0.5423
 5010SOL    HW226490   1.701   1.614   5.542 -0.8519  0.3149  0.7922
 5011SOL     OW26491   4.398   3.849   1.756  0.1439  0.3600  0.2772
 5011SOL    HW126492   4.308   3.825   1.737  0.0479 -1.0006  2.3797
 5011SOL    HW226493   4.441   3.764   1.754 -0.0454  0.2754 -0.1640
 5012SOL     OW26494   1.001   2.500   1.410 -0.1795 -0.6842 -0.2580
 5012SOL    HW126495   1.007   2.513   1.315 -1.7551 -0.2229 -0.3044
 5012SOL    HW226496   1.041   2.415   1.427 -0.0430 -0.9455 -1.9417
 5013SOL     OW26497   1.166   3.619   2.842 -0.3384 -0.0907 -0.5123
 5013SOL    HW126498   1.196   3.699   2.886 -2.4585 -0.0673  0.8986
 5013SOL    HW226499   1.153   3.563   2.919  2.4909 -0.9833 -0.7229
 5014SOL     OW26500   3.403   3.028   7.858  0.5004 -0.6099  0.0338
 5014SOL    HW126501   3.422   3.111   7.902 -0.9952  0.0949 -0.6281
 5014SOL    HW226502   3.437   3.043   7.769 -0.8441  0.7475 -0.2637
 5015SOL     OW26503   2.370   3.705   3.115 -0.4837 -0.1710  0.6486
 5015SOL    HW126504   2.446   3.673   3.165 -2.1200 -1.4693  2.3133
 5015SOL    HW226505   2.350   3.775   3.177 -1.8696  1.1119 -1.2806
 5016SOL     OW26506   3.090   3.211  17.512  0.1135 -0.5094  0.1219
 5016SOL    HW126507   3.089   3.252  17.598  0.4288  1.3065 -0.7494
 5016SOL    HW226508   3.185   3.206  17.502  0.4930  0.7659  3.3732
 5017SOL     OW26509   4.048   1.095  15.960 -0.4387 -0.0986  0.4734
 5017SOL    HW126510   4.057   1.084  16.055 -0.9881 -2.0888  0.2778
 5017SOL    HW226511   3.976   1.158  15.950  0.2271  0.7001  0.6872
 5018SOL     OW26512   1.047   3.013   8.474 -0.3192  0.2366 -0.1497
 5018SOL    HW126513   1.041   3.075   8.547  1.9690  0.0930  0.1383
 5018SOL    HW226514   1.142   3.010   8.470 -0.4006  1.2391 -3.4571
 5019SOL     OW26515   1.746   0.150   7.305  0.0058 -0.5693  0.1924
 5019SOL    HW126516   1.651   0.149   7.301  0.0037  2.0721 -0.0964
 5019SOL    HW226517   1.761   0.235   7.263 -0.8274 -0.5697 -0.1018
 5020SOL     OW26518   2.578   2.867   9.103 -0.1594 -0.5489 -0.0089
 5020SOL    HW126519   2.652   2.906   9.056  0.6251 -0.6533  1.1474
 5020SOL    HW226520   2.550   2.811   9.031  1.3556 -0.3644 -0.7427
 5021SOL     OW26521   4.536   3.560   7.459 -0.1631  0.0434  0.5675
 5021SOL    HW126522   4.521   3.528   7.370  0.2085 -0.4680  0.6889
 5021SOL    HW226523   4.609   3.620   7.441 -0.4885 -1.0931 -4.5530
 5022SOL     OW26524   0.827   4.503   2.547 -0.8382  0.7099 -0.2807
 5022SOL    HW126525   0.778   4.474   2.470 -0.3159 -1.4423  0.1753
 5022SOL    HW226526   0.876   4.421   2.558  0.5152  1.6415  0.5938
 5023SOL     OW26527   3.702   0.906   3.607  0.1610  0.1490 -0.2804
 5023SOL    HW126528   3.771   0.963   3.640  1.1327 -0.8433 -0.6176
 5023SOL    HW226529   3.702   0.931   3.515 -0.0654  0.2861 -0.2433
 5024SOL     OW26530   1.574   0.887   7.992  0.1142  0.7039  0.3567
 5024SOL    HW126531   1.634   0.903   7.919 -1.4064 -1.2710 -1.3022
 5024SOL    HW226532   1.638   0.888   8.064 -0.1136 -1.1519  0.5936
 5025SOL     OW26533   1.003   4.175  12.844 -0.0412  0.2888  0.0090
 5025SOL    HW126534   0.969   4.197  12.931 -0.9945 -0.2290 -0.2289
 5025SOL    HW226535   1.081   4.230  12.832  0.0175  0.5077  1.3965
 5026SOL     OW26536   0.710   1.023   5.219 -0.8959 -0.7927 -0.0177
 5026SOL    HW126537   0.645   0.959   5.248  0.4718 -0.6360  3.4115
 5026SOL    HW226538   0.755   1.035   5.303 -0.6490 -1.9305  0.0112
 5027SOL     OW26539   2.702   4.712  15.072 -0.2218 -0.7064  0.1650
 5027SOL    HW126540   2.700   4.618  15.090  2.7835 -0.5337  1.4324
 5027SOL    HW226541   2.612   0.024  15.082  0.5303  0.6643  2.7977
 5028SOL     OW26542   0.016   4.390  15.281  0.1159  0.3172  0.0738
 5028SOL    HW126543   0.047   4.329  15.347  1.3063  2.7509  1.7691
 5028SOL    HW226544   4.642   4.368  15.274  0.8305 -2.7981  0.4243
 5029SOL     OW26545   1.347   1.779   8.466  0.4329 -0.1820  0.0652
 5029SOL    HW126546   1.391   1.760   8.549  1.1119 -0.0036 -0.2485
 5029SOL    HW226547   1.257   1.768   8.495 -0.0470 -0.7585 -1.6178
 5030SOL     OW26548   3.302   0.366   7.027 -0.6574 -0.0518  0.6108
 5030SOL    HW126549   3.230   0.400   6.974  0.3869  1.6176  0.2894
 5030SOL    HW226550   3.275   0.410   7.108 -3.6952  1.6062 -1.2828
 5031SOL     OW26551   4.625   3.251  10.151  0.5336  0.1687  0.4029
 5031SOL    HW126552   4.641   3.215  10.063  0.4446  1.0945  0.0072
 5031SOL    HW226553   4.602   3.175  10.203  1.5289 -0.6843 -0.3992
 5032SOL     OW26554   3.692   0.420   5.087  0.1637  0.3690  0.7871
 5032SOL    HW126555   3.737   0.504   5.076 -0.4299  0.6778  0.6815
 5032SOL    HW226556   3.666   0.400   4.997 -0.4898 -0.6787  1.2189
 5033SOL     OW26557   2.072   1.532  12.192 -0.6360 -0.2754 -0.0089
 5033SOL    HW126558   2.165   1.518  12.178 -0.4985  0.8359 -0.2690
 5033SOL    HW226559   2.051   1.485  12.111  0.6408 -0.2918 -0.3231
 5034SOL     OW26560   3.867   1.685   4.164  0.0734 -0.0206  0.1305
 5034SOL    HW126561   3.929   1.617   4.192  1.3996  0.8832 -0.6036
 5034SOL    HW226562   3.805   1.683   4.237  1.4195  2.6077  1.3161
 5035SOL     OW26563   0.763   3.058   5.834 -0.1278  0.3513  0.6266
 5035SOL    HW126564   0.821   3.132   5.856  0.5790  0.5748 -1.9981
 5035SOL    HW226565   0.778   3.045   5.741  0.7635  2.1159  0.5254
 5036SOL     OW26566   0.566   4.099   5.453  0.3819  0.2549  0.9880
 5036SOL    HW126567   0.534   4.098   5.544 -2.1127 -2.0425  0.0730
 5036SOL    HW226568   0.658   4.120   5.468  0.6566  0.2135 -0.6464
 5037SOL     OW26569   3.308   3.348   7.224 -0.0737 -0.2264 -0.2408
 5037SOL    HW126570   3.300   3.356   7.129 -0.3950 -0.8054 -0.2605
 5037SOL    HW226571   3.375   3.280   7.229 -0.6261 -0.6194  1.6731
 5038SOL     OW26572   0.643   2.578   4.384 -0.0423 -0.4203 -0.2739
 5038SOL    HW126573   0.631   2.517   4.311  2.4906 -0.5849 -0.5599
 5038SOL    HW226574   0.684   2.645   4.329  0.1350  0.7544  1.3064
 5039SOL     OW26575   4.565   2.261  13.422  0.1429 -0.6047  0.7339
 5039SOL    HW126576   4.592   2.353  13.414  2.8263 -1.2657  2.2671
 5039SOL    HW226577   4.491   2.247  13.362  3.2404 -1.9878 -2.7260
 5040SOL     OW26578   0.785   4.410   2.055 -0.0452  0.6647  0.5064
 5040SOL    HW126579   0.715   4.463   2.015  0.2141  0.5495 -0.0966
 5040SOL    HW226580   0.755   4.326   2.021 -1.0988  1.2474 -0.0130
 5041SOL     OW26581   2.710   2.896  15.886 -0.2415  0.5711  0.0164
 5041SOL    HW126582   2.657   2.910  15.807 -0.1939 -1.6956 -0.4164
 5041SOL    HW226583   2.738   2.806  15.866  1.1468  0.9470  0.2798
 5042SOL     OW26584   4.219   4.412  10.400  0.3841 -0.1676  0.3277
 5042SOL    HW126585   4.203   4.368  10.317  0.9043  3.1554 -1.4944
 5042SOL    HW226586   4.133   4.401  10.439  0.5053  0.8147  0.8614
 5043SOL     OW26587   2.269   3.631  10.293  0.4611  0.1154  0.0741
 5043SOL    HW126588   2.288   3.547  10.334 -1.6239 -0.4283 -0.0890
 5043SOL    HW226589   2.287   3.692  10.365 -0.9177  1.3731 -0.6441
 5044SOL     OW26590   2.392   1.458   0.092  0.1831 -0.0666  0.5007
 5044SOL    HW126591   2.380   1.456  17.678 -1.3542 -1.1749  0.7193
 5044SOL    HW226592   2.444   1.378   0.100  0.3380 -0.1202 -1.1020
 5045SOL     OW26593   0.895   3.364   2.934  0.3889  0.1082  0.2583
 5045SOL    HW126594   0.868   3.390   2.846  0.5959  0.3619  0.2686
 5045SOL    HW226595   0.958   3.299   2.902  0.5169  0.9175 -1.1743
 5046SOL     OW26596   2.506   2.516  10.456  0.6754  0.5876  0.2815
 5046SOL    HW126597   2.530   2.531  10.547  1.0287  0.5278  0.1968
 5046SOL    HW226598   2.430   2.575  10.447  0.5394  0.0847 -1.7901
 5047SOL     OW26599   0.563   4.002   8.084 -0.1177 -0.2343 -0.1738
 5047SOL    HW126600   0.611   4.053   8.019 -0.8552 -0.6743 -1.0575
 5047SOL    HW226601   0.614   4.018   8.164  0.3446  1.0995 -0.7311
 5048SOL     OW26602   2.453   4.569   6.347  0.0765  0.3300  0.7777
 5048SOL    HW126603   2.485   4.535   6.431 -0.1393 -2.8798 -0.4590
 5048SOL    HW226604   2.396   4.496   6.326  1.8557 -0.8243  0.0038
 5049SOL     OW26605   1.281   3.977   2.105  0.1911  0.3139 -0.0347
 5049SOL    HW126606   1.213   3.953   2.168 -1.1724  0.5489 -1.3961
 5049SOL    HW226607   1.234   3.962   2.023 -2.4270  4.3932  0.7323
 5050SOL     OW26608   2.686   3.204   2.414 -0.4112  0.2598 -0.2805
 5050SOL    HW126609   2.739   3.125   2.409  0.7978  0.7561  4.7694
 5050SOL    HW226610   2.735   3.258   2.352  1.0034  1.4583  1.8983
 5051SOL     OW26611   0.424   0.018  15.473  0.3533  0.2918  0.4878
 5051SOL    HW126612   0.505   0.041  15.518  0.7584  1.2199 -0.6926
 5051SOL    HW226613   0.449   4.647  15.454  1.2183  0.6355 -0.0082
 5052SOL     OW26614   0.523   2.615  12.046  0.3458 -0.2126 -0.5191
 5052SOL    HW126615   0.451   2.671  12.019  1.7546  1.4264 -0.8969
 5052SOL    HW226616   0.492   2.614  12.137  0.6621  2.3189 -0.3884
 5053SOL     OW26617   0.911   1.097   3.540  0.7689  0.1755 -0.0185
 5053SOL    HW126618   0.826   1.054   3.546  0.2106  1.2317 -0.3280
 5053SOL    HW226619   0.961   1.024   3.504 -1.8179 -0.8182 -1.6071
 5054SOL     OW26620   1.962   4.193   7.895  0.2519 -0.5188 -0.0059
 5054SOL    HW126621   1.901   4.129   7.929  0.0881  0.3474  1.3321
 5054SOL    HW226622   1.900   4.252   7.852  1.3397  0.6810  0.0470
 5055SOL     OW26623   2.242   1.240   2.779  0.2894  0.0357  0.5079
 5055SOL    HW126624   2.285   1.158   2.755 -0.8188 -0.7240  1.1186
 5055SOL    HW226625   2.185   1.272   2.710 -2.1193 -4.3811  0.4762
 5056SOL     OW26626   3.524   1.644   3.956  0.0494  0.1838  0.0589
 5056SOL    HW126627   3.467   1.712   3.992 -0.1668 -0.3687  0.7498
 5056SOL    HW226628   3.608   1.681   3.981  1.3841 -0.6933 -3.1321
 5057SOL     OW26629   3.892   0.853   3.312  0.2729 -0.3063  0.2410
 5057SOL    HW126630   3.985   0.834   3.326  0.1368 -1.4129 -0.4092
 5057SOL    HW226631   3.906   0.898   3.228 -0.7155  0.5605  0.5380
 5058SOL     OW26632   4.265   3.487   8.836 -0.3205  0.0855  0.1314
 5058SOL    HW126633   4.300   3.551   8.898  0.6352 -0.8290  0.5351
 5058SOL    HW226634   4.174   3.513   8.820  0.7161  1.7923 -2.9402
 5059SOL     OW26635   4.364   1.073   6.355 -0.0055 -0.1617  0.3981
 5059SOL    HW126636   4.392   1.164   6.354 -0.3351 -0.0621  0.3748
 5059SOL    HW226637   4.349   1.073   6.260 -0.3998 -2.5527  0.4383
 5060SOL     OW26638   3.152   2.265   3.035  0.3837 -0.4760 -0.7047
 5060SOL    HW126639   3.179   2.224   2.953  0.3794 -1.5644 -0.1664
 5060SOL    HW226640   3.083   2.321   3.000  1.4228  0.3302 -1.4508
 5061SOL     OW26641   2.563   0.622   8.905  0.4420 -0.1249  0.5326
 5061SOL    HW126642   2.622   0.551   8.880 -0.8264 -1.0109  0.0582
 5061SOL    HW226643   2.505   0.563   8.953  1.0882 -0.0729  1.3753
 5062SOL     OW26644   1.478   0.587   1.747 -0.1597 -0.2580 -0.2889
 5062SOL    HW126645   1.441   0.674   1.760  2.2804  0.7902 -0.3649
 5062SOL    HW226646   1.433   0.546   1.673 -0.9993 -0.2951  0.2470
 5063SOL     OW26647   0.730   1.037   1.965  0.1691  0.0900  0.8731
 5063SOL    HW126648   0.678   0.957   1.976 -0.9048  0.6349 -0.2572
 5063SOL    HW226649   0.807   1.020   1.910  0.0864  0.8386  0.5299
 5064SOL     OW26650   4.383   2.722   1.541 -0.1035  0.3538  0.0257
 5064SOL    HW126651   4.405   2.644   1.593 -1.1833 -0.2785 -0.4822
 5064SOL    HW226652   4.411   2.787   1.605 -0.9646  0.8997 -0.1631
 5065SOL     OW26653   3.402   4.691   7.564 -0.1074 -0.6523 -0.4241
 5065SOL    HW126654   3.340   0.022   7.615 -0.9674 -1.6724 -0.4629
 5065SOL    HW226655   3.344   4.617   7.545 -2.1271  0.5941  0.9320
 5066SOL     OW26656   4.258   2.104   7.598 -0.7691 -0.0914  0.2086
 5066SOL    HW126657   4.260   2.082   7.505 -1.2837 -0.0840  0.1923
 5066SOL    HW226658   4.276   2.198   7.592  1.9737 -0.4681  2.3551
 5067SOL     OW26659   2.432   2.800   8.864 -0.0786 -0.0569  0.5121
 5067SOL    HW126660   2.422   2.889   8.830 -1.8253 -0.0480  1.0937
 5067SOL    HW226661   2.350   2.759   8.837  0.5984  0.7761 -2.8944
 5068SOL     OW26662   4.351   1.950   3.780  0.4636 -0.2078 -0.2534
 5068SOL    HW126663   4.338   1.855   3.785 -2.8818  0.4056  2.3463
 5068SOL    HW226664   4.317   1.978   3.696 -0.3492  0.4814  0.3177
 5069SOL     OW26665   4.192   2.071   6.769 -0.2888 -0.1049 -0.5636
 5069SOL    HW126666   4.226   2.085   6.680  0.0891  2.3788 -0.0359
 5069SOL    HW226667   4.185   1.977   6.782 -0.6618  0.2509  1.8034
 5070SOL     OW26668   2.600   1.098   5.754  0.0522 -0.2726 -0.4158
 5070SOL    HW126669   2.506   1.085   5.770  0.4030 -0.1713  1.6862
 5070SOL    HW226670   2.643   1.054   5.826 -2.1366  0.1528  1.1628
 5071SOL     OW26671   0.324   0.765  14.193  0.1042 -0.2778 -0.0538
 5071SOL    HW126672   0.329   0.859  14.212  0.9309  0.2812 -3.1171
 5071SOL    HW226673   0.367   0.757  14.108 -0.5418  1.6494 -0.5704
 5072SOL     OW26674   3.906   0.423  11.761 -0.5036 -0.5960 -0.5217
 5072SOL    HW126675   3.827   0.391  11.718  0.2395 -2.2636 -0.6691
 5072SOL    HW226676   3.974   0.405  11.697 -0.0727  1.5131 -0.6516
 5073SOL     OW26677   2.082   0.822  13.285 -0.1562 -0.1265  0.4049
 5073SOL    HW126678   2.053   0.730  13.279  1.0326 -0.3410 -2.1467
 5073SOL    HW226679   2.100   0.819  13.379 -3.5811 -0.2079  1.0754
 5074SOL     OW26680   0.381   3.493   8.980  0.3693 -0.1132 -0.6083
 5074SOL    HW126681   0.401   3.435   9.053 -0.5340  1.2115  0.7000
 5074SOL    HW226682   0.331   3.435   8.922 -1.0201  3.0870 -2.6481
 5075SOL     OW26683   2.511   2.845   4.418  0.7280  0.5397 -0.0082
 5075SOL    HW126684   2.482   2.754   4.429 -0.8599  0.9409 -0.9166
 5075SOL    HW226685   2.499   2.856   4.324 -1.3643 -0.6750  0.1180
 5076SOL     OW26686   4.404   4.265  13.846 -0.7571 -0.0215  0.1094
 5076SOL    HW126687   4.363   4.345  13.811 -0.2766 -0.4028 -1.3382
 5076SOL    HW226688   4.337   4.201  13.824 -0.9158 -0.6073  2.3206
 5077SOL     OW26689   4.277   2.737   8.340  0.3669  0.0961 -0.3743
 5077SOL    HW126690   4.303   2.718   8.250  2.4680  1.0094  0.0545
 5077SOL    HW226691   4.256   2.651   8.378  2.2470  0.6458  1.9210
 5078SOL     OW26692   0.536   1.108   2.803 -0.2225  0.1295  0.1040
 5078SOL    HW126693   0.615   1.080   2.757 -0.1204  0.3623  0.1381
 5078SOL    HW226694   0.494   1.167   2.740 -3.4102 -2.0480  0.1536
 5079SOL     OW26695   0.124   2.144  14.249 -0.4342  0.5486  0.2314
 5079SOL    HW126696   0.117   2.187  14.334 -2.2102 -0.1066  0.4015
 5079SOL    HW226697   0.215   2.152  14.220 -0.4703  0.5188  0.1109
 5080SOL     OW26698   1.246   0.659   9.170 -0.0591  0.0042 -0.1516
 5080SOL    HW126699   1.216   0.617   9.251  1.2157 -0.9171 -0.1638
 5080SOL    HW226700   1.167   0.711   9.151 -1.8544 -2.5196  0.4206
 5081SOL     OW26701   0.144   1.641   3.293 -0.0577 -0.0390 -0.0643
 5081SOL    HW126702   0.164   1.698   3.368  0.5508 -0.9665  0.4720
 5081SOL    HW226703   0.049   1.636   3.307 -0.2492  2.5342 -0.3497
 5082SOL     OW26704   3.562   0.677   6.208 -0.0987 -0.0807 -0.2579
 5082SOL    HW126705   3.634   0.647   6.264  0.4111  1.7645  0.0877
 5082SOL    HW226706   3.564   0.614   6.135  0.2986 -0.5760  0.1762
 5083SOL     OW26707   2.093   1.313   3.235 -0.1328  0.1305  0.6037
 5083SOL    HW126708   2.159   1.281   3.173  0.3145  1.5212  0.3586
 5083SOL    HW226709   2.030   1.242   3.222 -1.4842  1.4042  0.1776
 5084SOL     OW26710   0.550   0.553   2.182  0.6155  0.1446 -0.1443
 5084SOL    HW126711   0.457   0.533   2.196  0.2020  0.3829 -2.6224
 5084SOL    HW226712   0.588   0.494   2.248 -0.4850 -0.5426 -0.1342
 5085SOL     OW26713   1.428   3.336  13.478 -0.3480  0.2164  0.0636
 5085SOL    HW126714   1.353   3.369  13.527  0.8652  1.4326  1.1421
 5085SOL    HW226715   1.453   3.262  13.534  0.6480  2.5576  2.7468
 5086SOL     OW26716   2.511   3.884   3.685 -0.5966 -0.0029  0.0313
 5086SOL    HW126717   2.561   3.948   3.736 -1.4496 -0.8001  1.8748
 5086SOL    HW226718   2.520   3.808   3.742 -0.7910  0.0775  0.1682
 5087SOL     OW26719   3.745   2.653   4.158  0.2221  0.2971 -0.2853
 5087SOL    HW126720   3.744   2.748   4.166 -1.5850  0.3796 -1.5640
 5087SOL    HW226721   3.692   2.638   4.080 -0.9994 -1.4842  0.8616
 5088SOL     OW26722   1.263   1.543  11.091 -0.3711  0.0034 -0.4383
 5088SOL    HW126723   1.173   1.523  11.067 -0.8752  0.3054  1.1993
 5088SOL    HW226724   1.262   1.634  11.123 -2.0682  0.2766 -1.2848
 5089SOL     OW26725   0.575   1.157   4.247  0.0298  0.0810  0.9358
 5089SOL    HW126726   0.505   1.211   4.209 -0.2672 -1.0327 -0.1251
 5089SOL    HW226727   0.623   1.137   4.166  0.5912  1.9223  0.8026
 5090SOL     OW26728   3.413   3.013  10.397  0.3260  0.3112  0.7236
 5090SOL    HW126729   3.448   3.102  10.402 -0.5195  0.7182 -0.4204
 5090SOL    HW226730   3.354   3.025  10.322 -1.2150  2.3747  2.2714
 5091SOL     OW26731   4.658   2.805   1.039 -0.1886  0.5141 -0.3566
 5091SOL    HW126732   4.669   2.896   1.011 -0.1771  0.3137 -0.9983
 5091SOL    HW226733   4.569   2.786   1.010 -0.2142 -0.9931  0.7107
 5092SOL     OW26734   3.345   2.525   2.742  0.3370  0.5793 -0.4869
 5092SOL    HW126735   3.366   2.536   2.649 -0.7219  2.0210 -0.5494
 5092SOL    HW226736   3.264   2.477   2.721 -0.4527  0.8917  1.8995
 5093SOL     OW26737   0.759   0.196   6.690 -0.1464  0.9683 -0.0886
 5093SOL    HW126738   0.831   0.197   6.754  0.7600  0.9544 -1.1102
 5093SOL    HW226739   0.751   0.290   6.674 -2.3478  1.1823  2.2374
 5094SOL     OW26740   2.525   3.866   3.409  0.3136  0.2911 -0.5703
 5094SOL    HW126741   2.543   3.889   3.500 -1.0123 -2.4699  0.3840
 5094SOL    HW226742   2.554   3.775   3.400 -1.3637 -0.3099  0.1238
 5095SOL     OW26743   1.527   0.418   7.080 -0.3014  0.3431 -0.0327
 5095SOL    HW126744   1.481   0.399   6.998  0.4097 -1.7259  0.0654
 5095SOL    HW226745   1.603   0.456   7.035 -0.8865  0.2826 -1.0668
 5096SOL     OW26746   1.757   1.993   4.427  0.4656 -0.3930 -0.4669
 5096SOL    HW126747   1.787   2.054   4.495 -1.0331 -0.3043  0.1173
 5096SOL    HW226748   1.837   1.944   4.408 -0.0645 -0.5707 -2.2222
 5097SOL     OW26749   2.661   2.920   0.830  0.7118  0.6952  0.2096
 5097SOL    HW126750   2.618   3.004   0.820  0.1036  0.3147 -0.3527
 5097SOL    HW226751   2.603   2.864   0.778  0.6083 -0.9117  2.0181
 5098SOL     OW26752   0.152   2.759  15.760 -0.0488 -0.6460  0.0160
 5098SOL    HW126753   0.240   2.776  15.729 -0.1746 -3.1042 -1.7010
 5098SOL    HW226754   0.160   2.714  15.844  0.7066 -1.0189 -0.2512
 5099SOL     OW26755   1.701   2.948  16.257 -0.5335 -0.2457 -0.7290
 5099SOL    HW126756   1.779   2.894  16.265 -0.2060  0.2335 -0.7090
 5099SOL    HW226757   1.672   2.933  16.166 -1.5592  0.6609 -0.5557
 5100SOL     OW26758   0.823   3.087   9.210 -0.4216  0.1997 -0.6892
 5100SOL    HW126759   0.744   3.117   9.254  0.7157  0.2601  1.3252
 5100SOL    HW226760   0.869   3.053   9.287 -0.7943 -0.1513 -0.6181
 5101SOL     OW26761   2.748   1.851   7.725  0.4512 -0.6672  0.0451
 5101SOL    HW126762   2.728   1.757   7.723 -0.6663 -0.4944  2.8157
 5101SOL    HW226763   2.828   1.853   7.777  0.7219  0.5559 -0.4050
 5102SOL     OW26764   0.336   3.168   3.204 -0.4166 -0.0653  0.1419
 5102SOL    HW126765   0.260   3.142   3.257 -0.7014  1.3480  0.4349
 5102SOL    HW226766   0.295   3.254   3.193 -1.3855 -0.0885  3.3855
 5103SOL     OW26767   2.149   2.830   8.825 -0.0292 -0.3092  0.1382
 5103SOL    HW126768   2.158   2.735   8.820  2.9136 -0.0112 -0.1658
 5103SOL    HW226769   2.065   2.831   8.780  1.2025  4.4842 -2.0719
 5104SOL     OW26770   1.263   0.985   2.599  0.1851 -0.2508  0.0296
 5104SOL    HW126771   1.268   0.951   2.688  2.2323  0.4659  0.1928
 5104SOL    HW226772   1.288   0.909   2.546  2.0976  0.9166 -0.7527
 5105SOL     OW26773   4.172   0.263  12.514  0.0544  0.5877  0.4701
 5105SOL    HW126774   4.168   0.334  12.449 -0.2812  0.5431  0.4393
 5105SOL    HW226775   4.229   0.197  12.475  3.2688  2.4440  2.0344
 5106SOL     OW26776   0.205   3.921   8.810 -0.3761  0.2012  0.2382
 5106SOL    HW126777   0.236   3.831   8.798  2.0518  1.3846 -2.3265
 5106SOL    HW226778   0.123   3.913   8.762 -1.1772  0.1083  1.6282
 5107SOL     OW26779   2.787   2.710   1.986 -0.1825 -0.2444 -0.0082
 5107SOL    HW126780   2.788   2.804   2.001  0.5743 -0.1748 -0.5038
 5107SOL    HW226781   2.700   2.712   1.944  0.0106  2.4299 -0.2824
 5108SOL     OW26782   2.164   2.882   7.075 -0.5544  0.3212 -0.3179
 5108SOL    HW126783   2.150   2.797   7.032  0.8471 -0.1879  0.2366
 5108SOL    HW226784   2.119   2.943   7.017  0.2054 -0.0913 -1.3409
 5109SOL     OW26785   3.618   0.844   6.585 -0.3641  0.0139 -0.1167
 5109SOL    HW126786   3.622   0.751   6.562  2.5381  0.0280  0.2751
 5109SOL    HW226787   3.630   0.846   6.680 -0.7655 -0.0909 -0.0620
 5110SOL     OW26788   4.338   1.162  13.897  0.1512 -0.4319 -0.1180
 5110SOL    HW126789   4.427   1.136  13.922 -0.6254 -3.8791 -0.9764
 5110SOL    HW226790   4.285   1.159  13.977 -0.3251  0.1525 -0.4121
 5111SOL     OW26791   0.370   3.504   4.332 -0.2305 -0.0564  0.5317
 5111SOL    HW126792   0.431   3.438   4.363 -1.6524 -1.0517  1.2412
 5111SOL    HW226793   0.291   3.470   4.375  0.2911 -0.6032  1.0638
 5112SOL     OW26794   4.029   1.056   1.447 -0.2351 -0.1739 -0.5021
 5112SOL    HW126795   4.055   0.984   1.506  0.8481  0.0783 -0.6750
 5112SOL    HW226796   3.965   1.020   1.386 -1.7136 -0.1438  1.0045
 5113SOL     OW26797   4.712   2.301  11.522  0.4014 -0.2679  0.4128
 5113SOL    HW126798   4.706   2.337  11.433 -1.6263 -1.7081 -0.0378
 5113SOL    HW226799   4.710   2.380  11.576  2.0058 -0.0126  0.0865
 5114SOL     OW26800   0.196   0.997   0.619  0.3057  0.1281 -0.1857
 5114SOL    HW126801   0.193   0.917   0.567 -0.0588 -0.5822  0.9510
 5114SOL    HW226802   0.108   1.034   0.611  0.6508  0.5564 -2.1207
 5115SOL     OW26803   1.286   1.446  13.696  0.0542  0.4977  0.1711
 5115SOL    HW126804   1.309   1.409  13.781 -1.1592 -0.8053 -0.0532
 5115SOL    HW226805   1.281   1.369  13.639  0.5029 -1.2666  2.5290
 5116SOL     OW26806   2.224   1.734  13.280  0.1895  0.4920  0.0227
 5116SOL    HW126807   2.294   1.797  13.292  2.1896 -1.2906 -2.1489
 5116SOL    HW226808   2.280   1.662  13.252  0.2886  1.0609 -1.2254
 5117SOL     OW26809   0.336   4.525  10.504 -0.5445  0.0341  0.3345
 5117SOL    HW126810   0.378   4.601  10.463  1.4948 -0.7723  0.9046
 5117SOL    HW226811   0.305   4.483  10.424 -1.5896  0.0076  0.7547
 5118SOL     OW26812   4.672   3.454  10.363 -0.0328 -0.7931  0.2367
 5118SOL    HW126813   4.585   3.486  10.385  0.4846  0.6936  0.0909
 5118SOL    HW226814   4.661   3.392  10.291 -1.2420 -0.1915 -0.0855
 5119SOL     OW26815   3.034   2.154  12.256 -0.1338  0.5798  0.6109
 5119SOL    HW126816   2.970   2.206  12.305 -0.5439  1.4780 -0.8599
 5119SOL    HW226817   3.073   2.109  12.331 -0.5709  0.1347  0.5743
 5120SOL     OW26818   1.804   3.362   5.277  0.4184  0.0465  0.7914
 5120SOL    HW126819   1.730   3.339   5.333 -0.9071  3.1104  0.2969
 5120SOL    HW226820   1.833   3.278   5.243  0.2676  0.3060  0.0222
 5121SOL     OW26821   1.625   3.499   8.305  0.2277 -0.1142  0.3543
 5121SOL    HW126822   1.692   3.523   8.368 -0.1650  0.5438  0.5251
 5121SOL    HW226823   1.606   3.407   8.324 -1.4378  0.0482 -0.4876
 5122SOL     OW26824   2.120   0.634   7.167  0.3624  0.1257  0.2883
 5122SOL    HW126825   2.190   0.595   7.114 -2.3978 -0.4753 -2.9375
 5122SOL    HW226826   2.122   0.601   7.257  1.7455 -1.2384 -0.2464
 5123SOL     OW26827   2.941   1.276   8.594 -0.3120 -0.3116  0.4439
 5123SOL    HW126828   2.874   1.325   8.547  0.0320  1.4780  1.7786
 5123SOL    HW226829   2.925   1.182   8.583  2.5874 -0.7079 -0.3356
 5124SOL     OW26830   2.472   0.882   4.390  0.2496 -0.1957  0.1654
 5124SOL    HW126831   2.478   0.978   4.392  1.4253 -0.2171 -2.2240
 5124SOL    HW226832   2.558   0.864   4.353  0.6560  0.8801  0.5859
 5125SOL     OW26833   0.355   1.476  10.446 -0.0396 -0.7025  0.4421
 5125SOL    HW126834   0.304   1.496  10.524  0.0806 -1.8795  0.8229
 5125SOL    HW226835   0.406   1.401  10.477 -0.0972 -1.2387 -0.7656
 5126SOL     OW26836   0.467   3.627   2.884  0.0345 -0.3362  0.2589
 5126SOL    HW126837   0.529   3.650   2.953 -0.1171  1.6924 -0.2845
 5126SOL    HW226838   0.476   3.532   2.880  1.0597 -0.1675 -1.6005
 5127SOL     OW26839   1.393   3.240   3.198 -0.0404 -0.3438 -0.0087
 5127SOL    HW126840   1.355   3.159   3.164  0.3914 -0.4720 -0.1832
 5127SOL    HW226841   1.414   3.291   3.120 -0.7932 -1.8382 -1.1945
 5128SOL     OW26842   2.456   3.384   8.109  0.3019  0.2937  0.8374
 5128SOL    HW126843   2.490   3.295   8.122 -0.4962 -0.5593 -2.6540
 5128SOL    HW226844   2.519   3.441   8.152  0.7746 -0.4300  1.1091
 5129SOL     OW26845   2.219   2.069   8.508 -0.0168 -0.0134  0.4291
 5129SOL    HW126846   2.282   2.102   8.443 -3.1667  1.7903 -1.7220
 5129SOL    HW226847   2.229   2.137   8.575  3.5461 -2.2984  2.1974
 5130SOL     OW26848   4.403   0.353   7.892 -0.3839  0.3261 -0.4301
 5130SOL    HW126849   4.354   0.358   7.810  2.7355  1.6642 -2.1956
 5130SOL    HW226850   4.355   0.279   7.929  2.6866 -0.6569  1.5070
 5131SOL     OW26851   0.396   0.688   6.864  0.4297  0.3662  0.0725
 5131SOL    HW126852   0.338   0.762   6.849  0.1391  0.0185 -0.4941
 5131SOL    HW226853   0.361   0.660   6.949  2.3104 -0.1355  0.6962
 5132SOL     OW26854   4.128   0.540  17.061  0.6644  0.0014 -0.1145
 5132SOL    HW126855   4.182   0.462  17.047  2.0797  1.2565 -1.6898
 5132SOL    HW226856   4.173   0.577  17.137 -0.6086  0.0526  0.6127
 5133SOL     OW26857   0.504   0.332   9.092 -0.0271  0.1008  0.3091
 5133SOL    HW126858   0.453   0.412   9.106 -1.0261 -0.2828 -1.0896
 5133SOL    HW226859   0.455   0.266   9.142 -0.0034 -1.1105 -1.2648
 5134SOL     OW26860   2.060   3.753   6.192 -0.4134  0.4433 -0.0215
 5134SOL    HW126861   2.038   3.686   6.127 -0.8525 -0.1787  0.7641
 5134SOL    HW226862   2.013   3.714   6.266  0.4700  1.2232  0.9556
 5135SOL     OW26863   4.149   0.856  14.024  0.1587  0.6444 -0.1117
 5135SOL    HW126864   4.218   0.906  14.067  2.1097 -3.4157  1.3486
 5135SOL    HW226865   4.101   0.818  14.097  1.2054  0.4561  0.4617
 5136SOL     OW26866   1.717   3.874   2.791 -0.2779  0.2014 -0.2153
 5136SOL    HW126867   1.808   3.883   2.765 -0.4766  0.1825 -0.9289
 5136SOL    HW226868   1.676   3.840   2.710 -0.1878  1.3778 -0.7484
 5137SOL     OW26869   2.388   4.233   4.941  1.1146  0.2942  0.2608
 5137SOL    HW126870   2.360   4.189   4.861  0.8969 -0.8139  0.9393
 5137SOL    HW226871   2.441   4.160   4.975 -0.2658 -0.8967 -0.1355
 5138SOL     OW26872   3.292   3.744   1.261  0.3643 -0.2688 -0.0832
 5138SOL    HW126873   3.310   3.749   1.167  1.4297  0.5288  0.1669
 5138SOL    HW226874   3.343   3.663   1.265 -0.6676 -0.8236  1.8146
 5139SOL     OW26875   3.426   1.034   7.516  0.8314 -0.0429  0.0190
 5139SOL    HW126876   3.362   0.964   7.499 -1.2911  1.9055 -0.0480
 5139SOL    HW226877   3.371   1.104   7.552  0.8627 -0.8603  1.6670
 5140SOL     OW26878   4.523   3.224   4.364  0.0371 -0.0452 -0.5278
 5140SOL    HW126879   4.596   3.264   4.316  0.3422  0.9959  0.8153
 5140SOL    HW226880   4.522   3.285   4.438 -1.0136  0.4417 -0.9409
 5141SOL     OW26881   2.903   4.076   4.292 -0.7038 -0.0229  0.2839
 5141SOL    HW126882   2.952   3.994   4.280  0.5455  0.7127  0.3288
 5141SOL    HW226883   2.948   4.102   4.372  0.2678  0.2935 -0.3568
 5142SOL     OW26884   0.213   3.231  10.055 -0.1034 -0.5668  0.6602
 5142SOL    HW126885   0.231   3.140  10.033 -0.1445 -0.4053 -0.0405
 5142SOL    HW226886   0.156   3.213  10.129 -1.6578 -1.5429 -0.7803
 5143SOL     OW26887   2.139   3.971   8.393  0.0354  0.2058  0.8266
 5143SOL    HW126888   2.110   4.060   8.374 -2.0440 -0.6047  0.2019
 5143SOL    HW226889   2.060   3.943   8.440 -0.4972  0.1947 -0.0778
 5144SOL     OW26890   4.502   0.540   2.305 -0.2708 -0.2378  0.4601
 5144SOL    HW126891   4.571   0.521   2.369  0.8354  0.9209 -0.3813
 5144SOL    HW226892   4.444   0.593   2.360  1.4193  0.9743  1.0772
 5145SOL     OW26893   1.489   1.416   6.430  0.0026  0.1843 -0.1990
 5145SOL    HW126894   1.484   1.376   6.517 -0.3696  1.1749  0.2354
 5145SOL    HW226895   1.452   1.503   6.447  4.0646  1.4445  2.0608
 5146SOL     OW26896   0.930   1.678   0.172  0.1731  0.4327  0.0670
 5146SOL    HW126897   0.912   1.593   0.132  2.1499  0.7729 -1.5255
 5146SOL    HW226898   1.021   1.695   0.147  0.0311 -1.2048 -1.5063
 5147SOL     OW26899   0.820   4.663   7.908 -0.2467 -0.1124  0.0319
 5147SOL    HW126900   0.735   4.703   7.928  0.3334  0.9832  0.3139
 5147SOL    HW226901   0.871   4.695   7.983 -0.9559  0.8205  0.1118
 5148SOL     OW26902   1.821   4.685  17.447 -0.4000  0.0137 -0.1835
 5148SOL    HW126903   1.734   4.654  17.472  0.7011 -2.8513  0.0187
 5148SOL    HW226904   1.874   4.606  17.458  0.4564  0.1268 -3.5103
 5149SOL     OW26905   3.556   3.109   6.694 -0.3868  0.7372 -0.1755
 5149SOL    HW126906   3.564   3.019   6.664  0.5406 -0.3246  3.1830
 5149SOL    HW226907   3.614   3.152   6.631 -1.5228  1.0278 -1.0123
 5150SOL     OW26908   2.579   3.441  13.659 -0.2309  0.1835 -0.8223
 5150SOL    HW126909   2.556   3.523  13.701  0.4628 -0.5202  0.9086
 5150SOL    HW226910   2.545   3.464  13.572  1.0360 -0.4723 -1.4828
 5151SOL     OW26911   2.852   4.617   4.196  0.2070  0.4935 -0.0875
 5151SOL    HW126912   2.862   4.532   4.153 -0.1446  0.0836  0.6496
 5151SOL    HW226913   2.893   4.591   4.279 -0.9039 -1.4539 -0.1407
 5152SOL     OW26914   0.898   0.161  15.277 -0.3225  0.0729  0.3226
 5152SOL    HW126915   0.847   0.243  15.278 -0.2100  0.1398  0.5389
 5152SOL    HW226916   0.836   0.095  15.307 -0.1207  0.6743  2.0899
 5153SOL     OW26917   2.902   4.229   8.119 -0.1582  0.2985  0.1139
 5153SOL    HW126918   2.961   4.240   8.193  1.0145 -1.8841 -0.4972
 5153SOL    HW226919   2.863   4.143   8.138  0.0602  0.1538 -0.0934
 5154SOL     OW26920   4.682   3.358   8.317  0.1209  0.0241  0.0673
 5154SOL    HW126921   4.594   3.339   8.284  0.6026 -0.6686 -0.8392
 5154SOL    HW226922   4.655   3.393   8.402  0.8503  0.4412  0.1344
 5155SOL     OW26923   1.672   0.987   9.224  0.2144 -0.0182  1.1597
 5155SOL    HW126924   1.718   0.950   9.150 -0.1527  2.2589 -0.1980
 5155SOL    HW226925   1.603   0.921   9.233  0.2007 -0.4013 -1.8582
 5156SOL     OW26926   3.950   1.876   4.982 -0.2199  0.5472 -0.1833
 5156SOL    HW126927   3.970   1.802   5.040 -2.1765 -0.3076 -0.6022
 5156SOL    HW226928   3.959   1.943   5.050 -1.8041 -2.6251  3.1910
 5157SOL     OW26929   3.165   4.131  12.610 -0.0358 -0.4807  0.4527
 5157SOL    HW126930   3.153   4.043  12.646 -2.9223 -1.3361 -2.6295
 5157SOL    HW226931   3.251   4.126  12.569 -0.3145 -2.6482  0.1586
 5158SOL     OW26932   4.069   0.555   5.468  0.2108  0.3213 -0.5361
 5158SOL    HW126933   4.013   0.516   5.534  1.0863  0.0751  0.0641
 5158SOL    HW226934   4.144   0.585   5.519  1.2148 -0.7663 -1.3719
 5159SOL     OW26935   3.671   0.560   1.269  0.0465 -0.0947  0.3860
 5159SOL    HW126936   3.593   0.580   1.218 -0.8797 -2.0993  1.0133
 5159SOL    HW226937   3.659   0.468   1.291 -2.0673 -0.0266 -0.5002
 5160SOL     OW26938   3.092   0.563   5.786 -0.5501 -0.1944  0.3780
 5160SOL    HW126939   3.099   0.642   5.733 -2.4121 -0.9834 -1.0844
 5160SOL    HW226940   3.162   0.581   5.848  1.1955 -0.6419 -1.4462
 5161SOL     OW26941   0.168   4.124  16.105 -0.1160  0.2498  0.5268
 5161SOL    HW126942   0.248   4.091  16.063  1.2767  2.0775  1.7206
 5161SOL    HW226943   0.146   4.053  16.165  2.1226 -0.4731  0.4918
 5162SOL     OW26944   4.026   4.277   3.500 -0.1530 -0.3578  0.1443
 5162SOL    HW126945   4.033   4.372   3.490 -1.6175 -0.1324  1.2530
 5162SOL    HW226946   3.942   4.265   3.456  1.2873 -1.2805 -2.3775
 5163SOL     OW26947   2.972   2.392   8.959  0.0213  0.2223  0.0253
 5163SOL    HW126948   2.885   2.372   8.993  0.4498 -2.0608 -0.2525
 5163SOL    HW226949   2.949   2.443   8.881 -0.1663  2.3744  1.4859
 5164SOL     OW26950   0.368   4.557  10.120 -0.4152  0.0717 -0.4972
 5164SOL    HW126951   0.350   4.652  10.123  3.5306  0.8067 -1.1188
 5164SOL    HW226952   0.435   4.548  10.054  2.2581  1.1223  2.0693
 5165SOL     OW26953   1.389   2.041  10.128 -0.1610 -0.3085  0.1918
 5165SOL    HW126954   1.462   1.987  10.097 -0.6184  1.2955 -3.6056
 5165SOL    HW226955   1.319   1.975  10.127  0.3323 -0.8498  1.0468
 5166SOL     OW26956   3.802   1.940   8.542 -0.3451 -0.7786  0.1451
 5166SOL    HW126957   3.816   1.881   8.616  2.0006 -1.5854 -0.9550
 5166SOL    HW226958   3.889   1.972   8.518 -0.8839  0.1811 -0.5541
 5167SOL     OW26959   4.476   1.082   1.229 -1.0494 -0.4591 -0.0144
 5167SOL    HW126960   4.487   1.023   1.303 -1.5996  2.8907  2.7274
 5167SOL    HW226961   4.384   1.103   1.243  0.0641  2.6917  2.6062
 5168SOL     OW26962   2.259   1.542   5.335  0.1110 -0.1731  0.5127
 5168SOL    HW126963   2.253   1.634   5.361  1.2436 -0.1794  0.7796
 5168SOL    HW226964   2.264   1.485   5.412  2.6678  1.3926  1.4842
 5169SOL     OW26965   2.133   3.713   9.433 -0.0886 -0.6226  0.1124
 5169SOL    HW126966   2.108   3.711   9.525 -2.0719  1.6952 -0.4025
 5169SOL    HW226967   2.197   3.641   9.429  0.1532 -0.3417 -1.1361
 5170SOL     OW26968   3.598   2.268  12.016  0.1711  0.7776 -0.3154
 5170SOL    HW126969   3.652   2.321  11.958  1.4078 -0.3831 -0.2380
 5170SOL    HW226970   3.664   2.252  12.083  0.1758  1.0740 -0.2521
 5171SOL     OW26971   4.289   1.591  15.829  0.3584  0.0466  0.6842
 5171SOL    HW126972   4.211   1.629  15.870  0.8680  1.7582  0.0739
 5171SOL    HW226973   4.272   1.497  15.838  1.0894 -0.2904 -1.6797
 5172SOL     OW26974   1.300   2.984   8.434 -0.3435  0.2451  0.2125
 5172SOL    HW126975   1.340   2.914   8.383 -0.2014  0.2076  0.3747
 5172SOL    HW226976   1.382   2.998   8.482 -1.4825  1.9610  1.6459
 5173SOL     OW26977   0.827   1.785   2.950  0.3313 -0.2008 -0.5809
 5173SOL    HW126978   0.833   1.796   2.855  1.6253  2.2605 -0.2311
 5173SOL    HW226979   0.917   1.806   2.977  0.1816  2.9395 -2.5691
 5174SOL     OW26980   3.415   3.471   4.547  0.4742 -0.3316 -0.0008
 5174SOL    HW126981   3.347   3.535   4.570  0.6960  0.3838 -1.3129
 5174SOL    HW226982   3.362   3.391   4.551 -1.2704  0.8270  0.3007
 5175SOL     OW26983   0.288   0.355   9.940  0.3303  0.7544 -0.4139
 5175SOL    HW126984   0.357   0.406   9.980 -0.1852  0.3648  0.9537
 5175SOL    HW226985   0.324   0.325   9.856  0.5045 -0.9233  0.2507
 5176SOL     OW26986   1.638   4.162   3.947 -0.5180 -0.4939  0.2516
 5176SOL    HW126987   1.675   4.162   3.859  0.1696 -0.9937  0.5412
 5176SOL    HW226988   1.565   4.218   3.922  0.5926 -0.4075 -2.7615
 5177SOL     OW26989   2.471   4.160  13.571 -0.5328 -0.2820  0.2403
 5177SOL    HW126990   2.463   4.106  13.493 -0.8478 -1.3509  1.0185
 5177SOL    HW226991   2.425   4.241  13.548  1.3100  0.4671 -0.8564
 5178SOL     OW26992   1.169   3.940   8.181 -0.6616  0.2470 -0.2598
 5178SOL    HW126993   1.109   3.959   8.253  1.2211 -2.0356  1.8608
 5178SOL    HW226994   1.121   3.878   8.125 -0.8226 -0.5880  0.8038
 5179SOL     OW26995   2.729   3.778   1.598  0.2828  0.4702 -0.3012
 5179SOL    HW126996   2.761   3.806   1.512 -0.3377 -2.2758 -1.4423
 5179SOL    HW226997   2.800   3.728   1.639 -0.5626  0.0707  0.6658
 5180SOL     OW26998   1.984   0.455  14.534  0.1873 -0.2361 -0.0100
 5180SOL    HW126999   1.923   0.401  14.485  0.7488  0.8183 -1.8666
 5180SOL    HW227000   1.985   0.419  14.623  1.4290  0.2224  0.1676
 5181SOL     OW27001   0.757   0.770   4.867  0.1270 -0.1744  0.0087
 5181SOL    HW127002   0.782   0.742   4.956 -2.2344  0.5251  0.8831
 5181SOL    HW227003   0.704   0.846   4.891 -3.3351 -1.6631 -2.8852
 5182SOL     OW27004   2.848   4.654  10.856  0.3842 -0.3920 -0.4317
 5182SOL    HW127005   2.820   4.591  10.923 -0.1363  1.2662  0.9142
 5182SOL    HW227006   2.908   4.712  10.902 -0.6200  1.0383 -0.9521
 5183SOL     OW27007   3.813   1.370   2.829 -0.5769  0.1012 -0.6219
 5183SOL    HW127008   3.807   1.466   2.835  0.1093  0.1062 -0.0208
 5183SOL    HW227009   3.905   1.352   2.814 -0.2941  0.0997  1.1720
 5184SOL     OW27010   0.390   4.420   3.763 -0.5610 -0.1061  0.5073
 5184SOL    HW127011   0.416   4.328   3.754  0.9582 -0.0471  3.8974
 5184SOL    HW227012   0.369   4.419   3.857 -2.2158 -0.4234  0.1222
 5185SOL     OW27013   3.909   1.421   7.143  0.3327 -0.4652  0.4795
 5185SOL    HW127014   3.826   1.448   7.181 -0.0094 -0.5850 -0.1856
 5185SOL    HW227015   3.945   1.508   7.122 -0.0767 -0.9104 -2.1539
 5186SOL     OW27016   0.077   0.381   3.497  0.1571 -0.2403 -0.2229
 5186SOL    HW127017   0.110   0.422   3.576 -0.3309  0.4881 -0.3904
 5186SOL    HW227018   0.078   0.458   3.440  0.8608 -0.6331 -0.7371
 5187SOL     OW27019   1.918   3.534  15.981  0.8620 -0.0425  0.0022
 5187SOL    HW127020   1.961   3.602  16.032 -0.8610  1.3977 -0.4589
 5187SOL    HW227021   1.957   3.450  16.007  2.6939  0.0409 -2.4976
 5188SOL     OW27022   1.917   0.851   4.009 -0.8094  0.6704 -0.1862
 5188SOL    HW127023   1.929   0.756   4.001  0.1221  0.8673 -1.1804
 5188SOL    HW227024   1.846   0.861   4.073  1.2548 -2.8169  2.6307
 5189SOL     OW27025   1.545   0.041  16.721  0.3963  0.6310  0.4408
 5189SOL    HW127026   1.522   4.698  16.791 -0.0777 -1.4634 -1.5828
 5189SOL    HW227027   1.520   4.705  16.647  1.3838  1.2324 -0.3401
 5190SOL     OW27028   1.568   0.428   0.213 -0.8995  0.0840  0.2346
 5190SOL    HW127029   1.527   0.363   0.156 -0.4477  0.8934 -1.0162
 5190SOL    HW227030   1.502   0.497   0.220 -2.6719 -1.7486  1.2411
 5191SOL     OW27031   3.348   0.672   8.406 -0.0450  0.2075 -0.6210
 5191SOL    HW127032   3.331   0.681   8.312 -1.1654  0.6707 -0.3704
 5191SOL    HW227033   3.350   0.762   8.439 -0.6513  0.5099 -1.3889
 5192SOL     OW27034   0.064   4.304   4.178 -0.5152  0.4350 -0.3223
 5192SOL    HW127035   4.712   4.312   4.240 -0.7208 -1.6902 -0.2835
 5192SOL    HW227036   0.130   4.359   4.221 -1.9417  1.3922  0.6263
 5193SOL     OW27037   0.925   4.643   5.452  0.1295 -0.1413  0.7490
 5193SOL    HW127038   0.987   4.696   5.402 -1.1195  0.5754 -0.0647
 5193SOL    HW227039   0.976   4.600   5.521 -0.1099  0.2599  1.1727
 5194SOL     OW27040   0.908   3.140   4.441 -0.1792 -0.2469 -0.2795
 5194SOL    HW127041   0.861   3.110   4.518  2.3057 -1.7179  0.6570
 5194SOL    HW227042   0.929   3.056   4.399 -0.8403 -1.9890  2.8373
 5195SOL     OW27043   2.184   4.181  14.495  0.3356  0.8133  0.2880
 5195SOL    HW127044   2.224   4.265  14.473  0.9818  1.1019  2.6204
 5195SOL    HW227045   2.251   4.113  14.493 -0.3754  0.1108  0.1428
 5196SOL     OW27046   3.584   2.514   4.364  0.3487  0.0006 -0.1194
 5196SOL    HW127047   3.511   2.575   4.353  2.2627  2.3092 -0.0771
 5196SOL    HW227048   3.658   2.562   4.328  0.3544 -0.2329 -0.4220
 5197SOL     OW27049   1.681   3.755  11.506 -0.0452  0.1445  0.3140
 5197SOL    HW127050   1.709   3.711  11.426 -1.8387 -0.2179 -0.1168
 5197SOL    HW227051   1.600   3.709  11.525  0.2798 -0.6470 -0.2238
 5198SOL     OW27052   4.607   1.746   3.315  0.3159 -0.0881 -0.3451
 5198SOL    HW127053   4.549   1.715   3.384  0.9348  1.6484  0.9317
 5198SOL    HW227054   4.547   1.803   3.267 -0.4547 -2.1385 -1.8221
 5199SOL     OW27055   3.518   2.454  15.294 -0.1116 -0.3251 -0.1235
 5199SOL    HW127056   3.439   2.504  15.276  1.3869  1.7457 -1.0286
 5199SOL    HW227057   3.582   2.525  15.304  1.2179 -1.1061 -3.2420
 5200SOL     OW27058   0.320   1.846   1.230  0.2045  0.1196  0.6176
 5200SOL    HW127059   0.310   1.751   1.229 -1.7876  0.3569 -0.2356
 5200SOL    HW227060   0.313   1.863   1.324  0.5217 -3.2935  1.2826
 5201SOL     OW27061   1.707   0.232  16.026  0.5958  0.1625  0.0988
 5201SOL    HW127062   1.723   0.323  16.051 -2.7019  0.1742  2.1558
 5201SOL    HW227063   1.612   0.239  16.014  0.9763  2.4261 -1.6222
 5202SOL     OW27064   3.679   3.642   3.073 -0.2594  0.0092  0.4112
 5202SOL    HW127065   3.752   3.698   3.045 -0.1341 -0.3520  0.0135
 5202SOL    HW227066   3.616   3.656   3.003  1.9348  0.6011 -1.4650
 5203SOL     OW27067   3.570   3.127  10.884 -0.2577 -0.7671 -0.1106
 5203SOL    HW127068   3.649   3.079  10.857  1.2559  0.5899  1.9180
 5203SOL    HW227069   3.582   3.205  10.831 -1.2483 -0.3064  0.3586
 5204SOL     OW27070   2.266   3.713   1.791  0.1046  0.3006  0.3849
 5204SOL    HW127071   2.288   3.632   1.837 -1.7645 -0.6854 -0.4465
 5204SOL    HW227072   2.352   3.753   1.801 -0.2040  1.4371 -1.4872
 5205SOL     OW27073   2.498   2.814  12.928  0.2782 -0.3225  0.0106
 5205SOL    HW127074   2.486   2.899  12.886  0.0741 -0.0425  0.6354
 5205SOL    HW227075   2.410   2.803  12.964  0.7524  2.5874  2.1070
 5206SOL     OW27076   1.769   2.960   5.040  0.4784  0.1385 -0.1087
 5206SOL    HW127077   1.695   2.916   5.083  0.3017 -0.5489 -1.1185
 5206SOL    HW227078   1.808   2.880   5.006 -1.8308 -1.7209  1.5837
 5207SOL     OW27079   0.128   1.443   7.481 -0.3003  0.1067  0.4054
 5207SOL    HW127080   0.179   1.362   7.483  1.1905  1.0797  1.9090
 5207SOL    HW227081   0.040   1.422   7.513 -0.2544  0.7440  0.9475
 5208SOL     OW27082   2.223   0.931   0.828 -0.2701  0.1213 -0.0959
 5208SOL    HW127083   2.296   0.872   0.842 -0.2344 -0.1365 -1.3832
 5208SOL    HW227084   2.200   0.943   0.920  0.5241  0.9731 -0.0002
 5209SOL     OW27085   4.472   0.837   2.476 -0.1065 -0.2541 -0.1536
 5209SOL    HW127086   4.491   0.900   2.546 -1.3818  0.0558 -0.0887
 5209SOL    HW227087   4.539   0.772   2.498  0.5281  0.2239 -0.6762
 5210SOL     OW27088   0.217   1.663   8.939  0.4680 -0.1471  0.0215
 5210SOL    HW127089   0.170   1.690   9.018  0.7979  0.9241 -0.1451
 5210SOL    HW227090   0.152   1.624   8.881 -0.5823 -1.8206  2.3398
 5211SOL     OW27091   2.261   4.523   5.034  0.3883  0.1115 -0.5055
 5211SOL    HW127092   2.241   4.454   5.097 -1.2686  1.9592  0.9961
 5211SOL    HW227093   2.348   4.549   5.064  0.5439 -2.5907  1.3190
 5212SOL     OW27094   2.974   1.409   7.509 -0.3438  1.0002  0.6300
 5212SOL    HW127095   2.944   1.343   7.446  1.0573  2.3684 -1.4682
 5212SOL    HW227096   2.889   1.426   7.551 -1.5372 -0.7154 -1.0605
 5213SOL     OW27097   3.372   0.277   7.846  0.2214  0.4761  0.1434
 5213SOL    HW127098   3.336   0.200   7.889  0.0240  0.0662 -0.7697
 5213SOL    HW227099   3.336   0.258   7.760 -0.1173  0.9460  0.1776
 5214SOL     OW27100   2.626   0.109   6.689 -0.1910  0.0921  0.4737
 5214SOL    HW127101   2.676   0.185   6.659  1.7160 -1.0385  0.7506
 5214SOL    HW227102   2.547   0.130   6.640 -1.1197  1.8948  2.7536
 5215SOL     OW27103   3.777   1.780   7.165 -0.2259  0.6480  0.6900
 5215SOL    HW127104   3.750   1.736   7.246  0.6871 -0.9112  0.1388
 5215SOL    HW227105   3.693   1.780   7.120 -1.0940 -1.7289  2.2959
 5216SOL     OW27106   1.869   4.138   3.483 -0.1942  0.3359 -0.0715
 5216SOL    HW127107   1.802   4.141   3.414  1.5408  0.4197 -1.7550
 5216SOL    HW227108   1.892   4.045   3.474  2.7630  0.9862  0.8849
 5217SOL     OW27109   1.918   3.355  12.061 -0.2377 -0.5126  0.1039
 5217SOL    HW127110   1.930   3.446  12.034 -0.2746 -0.8313 -0.9927
 5217SOL    HW227111   1.864   3.362  12.140  0.7196  0.4460  0.6675
 5218SOL     OW27112   3.781   2.617   8.034  0.1156  0.1122 -0.0307
 5218SOL    HW127113   3.821   2.576   7.958  1.0981 -0.3179  0.7245
 5218SOL    HW227114   3.725   2.687   8.000 -0.4700  0.8719  2.4604
 5219SOL     OW27115   2.035   2.851   1.079  0.1382  0.5909 -0.6831
 5219SOL    HW127116   2.029   2.930   1.025  0.9111  0.0872 -1.4912
 5219SOL    HW227117   2.019   2.888   1.166  2.0765 -0.1864  0.0057
 5220SOL     OW27118   0.581   4.060   3.257 -0.3712 -0.3524  0.0231
 5220SOL    HW127119   0.526   3.983   3.270 -1.0749 -0.1220 -1.6362
 5220SOL    HW227120   0.654   4.038   3.315  0.9037  1.3948 -0.9104
 5221SOL     OW27121   4.408   4.559   3.746 -0.7878  0.0002 -0.0148
 5221SOL    HW127122   4.469   4.590   3.678 -0.8756 -2.0557 -1.0157
 5221SOL    HW227123   4.425   4.466   3.736 -0.6603 -0.0494  0.7013
 5222SOL     OW27124   1.364   1.113  15.640  0.5773 -0.2609  0.5679
 5222SOL    HW127125   1.445   1.084  15.683 -0.5711 -1.3062  2.0245
 5222SOL    HW227126   1.368   1.205  15.668  2.6012 -0.7338  1.8750
 5223SOL     OW27127   4.625   4.683  12.641 -0.3865  0.0309 -0.4714
 5223SOL    HW127128   4.683   4.688  12.565  0.7838 -0.0427  0.4200
 5223SOL    HW227129   4.657   0.036  12.694 -1.1114  0.5737 -0.7693
 5224SOL     OW27130   1.515   1.067  12.557  0.3312  0.4815  0.1206
 5224SOL    HW127131   1.454   1.021  12.499 -1.4548 -0.4555  2.7888
 5224SOL    HW227132   1.463   1.078  12.636  0.5247  1.8491  0.0599
 5225SOL     OW27133   3.685   1.788   5.140 -0.2538 -0.5265 -0.2303
 5225SOL    HW127134   3.745   1.732   5.090 -0.2572 -0.8986  0.1833
 5225SOL    HW227135   3.606   1.770   5.089 -0.7713 -0.7169  0.6358
 5226SOL     OW27136   3.961   3.492   2.999  0.3317  0.8975 -0.0540
 5226SOL    HW127137   3.943   3.584   2.981  0.6030  1.1543  1.0077
 5226SOL    HW227138   4.046   3.488   3.043  0.8314  1.0751 -0.9959
 5227SOL     OW27139   2.240   0.537  16.240 -0.4338 -0.3306  1.0973
 5227SOL    HW127140   2.161   0.503  16.198  0.4059 -0.5766 -0.2827
 5227SOL    HW227141   2.223   0.530  16.334  0.3096 -1.5419  1.1330
 5228SOL     OW27142   1.749   0.277   0.347  0.4382  0.3129  0.9964
 5228SOL    HW127143   1.680   0.326   0.301  1.5199 -1.1003 -2.1410
 5228SOL    HW227144   1.824   0.317   0.303  1.4200 -1.2314  1.2946
 5229SOL     OW27145   0.406   4.221   9.085  0.6275 -0.6454 -0.2581
 5229SOL    HW127146   0.445   4.141   9.120 -0.7731 -1.3393 -0.2805
 5229SOL    HW227147   0.371   4.261   9.165 -0.9864 -1.2875 -0.6421
 5230SOL     OW27148   4.266   3.018   4.231 -0.0265  0.4788 -0.3278
 5230SOL    HW127149   4.296   2.959   4.163  0.7707  0.1520  0.3028
 5230SOL    HW227150   4.174   2.991   4.235  0.3515 -0.9090 -1.1423
 5231SOL     OW27151   4.383   2.016   6.251 -0.0883  0.1446  0.1026
 5231SOL    HW127152   4.447   1.945   6.261  0.5834  0.5995 -0.9631
 5231SOL    HW227153   4.374   2.004   6.156  1.2495 -2.3101  0.2692
 5232SOL     OW27154   3.019   1.289   9.155 -0.0224 -0.5737  0.5580
 5232SOL    HW127155   3.017   1.258   9.065 -1.1020  0.1874  0.3111
 5232SOL    HW227156   3.062   1.372   9.136 -0.6109 -0.4890 -0.4108
 5233SOL     OW27157   1.895   2.592   4.635 -0.3442 -0.3315 -0.2688
 5233SOL    HW127158   1.897   2.660   4.567 -1.5615  2.6883  2.7539
 5233SOL    HW227159   1.806   2.560   4.624 -0.8957  0.3852  2.1081
 5234SOL     OW27160   3.994   3.376   2.505 -0.3991 -0.2472 -0.1086
 5234SOL    HW127161   3.947   3.380   2.422 -0.2762 -1.1964 -0.2213
 5234SOL    HW227162   3.923   3.391   2.568 -0.2015  3.6794 -0.8356
 5235SOL     OW27163   1.063   3.184   2.840  0.1927  0.3568 -0.2316
 5235SOL    HW127164   1.113   3.218   2.766  0.4261 -0.1204 -0.2976
 5235SOL    HW227165   1.037   3.097   2.808 -0.5518  0.1354  0.9584
 5236SOL     OW27166   3.814   4.269   5.229 -0.9009 -0.7921  0.7220
 5236SOL    HW127167   3.766   4.283   5.310  0.5231  2.5459  0.9741
 5236SOL    HW227168   3.897   4.297   5.266  0.0427 -2.2602 -0.2848
 5237SOL     OW27169   1.018   4.660   8.602 -0.4360 -0.3512  0.3392
 5237SOL    HW127170   0.957   0.013   8.615 -1.5343 -0.9243 -1.6450
 5237SOL    HW227171   1.091   4.700   8.554 -2.7259 -0.7839 -3.5770
 5238SOL     OW27172   3.572   0.260   3.744 -0.3020 -0.1023  0.2254
 5238SOL    HW127173   3.576   0.355   3.749 -0.4445 -0.2054  2.2398
 5238SOL    HW227174   3.520   0.252   3.664  0.7651  0.0128 -0.4885
 5239SOL     OW27175   0.911   2.783   7.007 -0.0310  0.3476  0.2478
 5239SOL    HW127176   0.886   2.701   6.964 -0.2782  0.4148  0.2653
 5239SOL    HW227177   0.832   2.801   7.057  2.9188  0.6024  4.8113
 5240SOL     OW27178   0.946   2.205   0.469  1.2303 -0.2082 -0.5234
 5240SOL    HW127179   0.934   2.229   0.377  1.8892 -0.2051 -0.6031
 5240SOL    HW227180   0.857   2.181   0.495  0.6895 -0.3619 -2.5309
 5241SOL     OW27181   1.676   4.379   2.162  0.5086 -0.1609 -0.3267
 5241SOL    HW127182   1.592   4.414   2.192  0.0736 -1.4829  0.0074
 5241SOL    HW227183   1.640   4.292   2.149  0.3865 -0.1905  0.2200
 5242SOL     OW27184   4.567   3.074   6.470 -0.4386  0.8488 -0.0894
 5242SOL    HW127185   4.643   3.096   6.524 -2.8180  1.9300  2.8229
 5242SOL    HW227186   4.602   3.061   6.382 -0.7294 -3.1232  0.3939
 5243SOL     OW27187   4.527   0.035  16.468 -0.2815  0.0707 -0.7247
 5243SOL    HW127188   4.560   0.125  16.473 -3.4616  1.2044  0.2089
 5243SOL    HW227189   4.519   0.028  16.563 -1.5972  1.2417 -0.7356
 5244SOL     OW27190   2.383   0.440   8.682  0.2481 -0.7021 -0.2721
 5244SOL    HW127191   2.458   0.411   8.733  0.8573  2.1092  0.4489
 5244SOL    HW227192   2.331   0.493   8.742  1.9407  2.0605 -1.2383
 5245SOL     OW27193   1.595   2.842   2.258 -0.1971  0.1310 -0.5186
 5245SOL    HW127194   1.529   2.909   2.238  0.4720  0.8623 -0.3219
 5245SOL    HW227195   1.670   2.878   2.209 -0.4319  0.0460 -0.9395
 5246SOL     OW27196   1.931   2.988  17.113 -0.0654 -0.2925 -0.4077
 5246SOL    HW127197   2.012   3.022  17.076 -0.0770  0.9309  0.6613
 5246SOL    HW227198   1.924   2.904  17.070  0.3828  0.8162 -2.6433
 5247SOL     OW27199   4.012   4.165   4.433  0.5245 -0.5020 -0.4332
 5247SOL    HW127200   4.074   4.181   4.505 -1.0881  0.1713  0.8077
 5247SOL    HW227201   3.974   4.250   4.415 -1.7078 -1.0387  1.6197
 5248SOL     OW27202   2.221   1.833  15.167  0.0309 -0.0170 -0.1197
 5248SOL    HW127203   2.307   1.792  15.173  0.0659  0.0825  0.0607
 5248SOL    HW227204   2.164   1.757  15.174  0.7709 -0.4515  1.0518
 5249SOL     OW27205   4.162   3.344  11.006  0.1075 -0.0515  0.1644
 5249SOL    HW127206   4.151   3.285  11.080 -0.6578  1.1068  0.9792
 5249SOL    HW227207   4.100   3.413  11.031 -0.1371  0.3450 -1.5369
 5250SOL     OW27208   1.441   3.823   0.313  0.4616  0.2038 -0.2162
 5250SOL    HW127209   1.517   3.881   0.317 -0.2211  1.1548 -0.9602
 5250SOL    HW227210   1.385   3.873   0.372 -1.4435  0.1912 -2.0172
 5251SOL     OW27211   1.881   1.139   2.734  0.0093  0.0417  0.0180
 5251SOL    HW127212   1.843   1.188   2.807  0.7804  0.1537  0.3438
 5251SOL    HW227213   1.953   1.199   2.714  0.4175 -1.1395 -2.0493
 5252SOL     OW27214   1.958   0.480   3.581  0.6901 -0.0668  0.5848
 5252SOL    HW127215   1.970   0.568   3.619  1.9722  0.5336 -1.2394
 5252SOL    HW227216   1.940   0.499   3.489 -0.8013  0.6860  1.0302
 5253SOL     OW27217   3.959   4.359   3.116 -0.3549 -0.4951 -0.1362
 5253SOL    HW127218   3.923   4.342   3.203  0.2124  3.3413  0.8573
 5253SOL    HW227219   3.899   4.304   3.066  0.9947 -1.8086 -0.2838
 5254SOL     OW27220   0.518   1.019   6.265  0.1890  0.0592  1.3277
 5254SOL    HW127221   0.428   1.024   6.231  1.0886 -1.5596 -1.2872
 5254SOL    HW227222   0.515   1.085   6.334 -2.0141  0.2227  1.0852
 5255SOL     OW27223   1.186   0.148  11.372 -0.0050  0.2539  0.2362
 5255SOL    HW127224   1.159   0.106  11.291  0.4329 -0.5969  0.5282
 5255SOL    HW227225   1.277   0.156  11.345 -0.0847  0.6508  0.0857
 5256SOL     OW27226   0.363   2.577   5.301 -0.4097 -0.3696 -0.2736
 5256SOL    HW127227   0.286   2.626   5.273 -0.3782  0.1267  0.4939
 5256SOL    HW227228   0.331   2.546   5.386 -0.5642 -1.9293 -0.8973
 5257SOL     OW27229   2.250   3.240  10.864 -0.2245 -0.9958  0.0710
 5257SOL    HW127230   2.231   3.332  10.883 -0.6910 -1.1017  0.1132
 5257SOL    HW227231   2.234   3.200  10.950  2.0176 -0.4038  0.7691
 5258SOL     OW27232   0.107   3.819   3.020 -0.1934  0.0743  0.1650
 5258SOL    HW127233   0.012   3.815   3.016 -0.2232  1.7184 -0.9468
 5258SOL    HW227234   0.125   3.837   3.112 -2.3755 -0.3540  0.6631
 5259SOL     OW27235   0.506   2.629   0.550  0.8675 -0.2957 -0.6631
 5259SOL    HW127236   0.438   2.691   0.576 -0.6131 -2.0123 -0.4186
 5259SOL    HW227237   0.496   2.627   0.455 -2.8477 -0.8479 -0.2656
 5260SOL     OW27238   3.752   4.309   2.910 -0.1140  0.1969 -0.1251
 5260SOL    HW127239   3.684   4.313   2.977  1.0180  2.2431  0.8974
 5260SOL    HW227240   3.705   4.351   2.838  0.0671 -0.6283 -0.7260
 5261SOL     OW27241   3.425   0.482   3.064  0.6682  0.5579  0.1696
 5261SOL    HW127242   3.356   0.549   3.065 -0.0471 -0.1612 -0.7296
 5261SOL    HW227243   3.483   0.505   2.991  0.9616  0.0311  0.2378
 5262SOL     OW27244   2.772   2.595   5.779  0.5995  0.1770  0.5858
 5262SOL    HW127245   2.794   2.632   5.693  2.2648  2.1459  1.8579
 5262SOL    HW227246   2.678   2.588   5.763  0.5275 -0.2803  1.2420
 5263SOL     OW27247   0.412   3.496   4.679 -0.0658  0.0899 -0.3307
 5263SOL    HW127248   0.484   3.542   4.635  0.6414 -0.9254 -0.2279
 5263SOL    HW227249   0.352   3.475   4.608  0.3422  0.7391 -0.8740
 5264SOL     OW27250   1.589   1.896  11.619  0.3105  0.1758  0.3029
 5264SOL    HW127251   1.580   1.976  11.671 -0.8054 -0.1018  0.5485
 5264SOL    HW227252   1.679   1.877  11.644  0.6686  1.4189 -0.0670
 5265SOL     OW27253   0.086   3.256   2.006 -0.2182 -0.5723  0.3993
 5265SOL    HW127254   0.142   3.311   1.953 -1.6501  1.0285  0.5314
 5265SOL    HW227255   0.131   3.262   2.090 -0.2960  1.0665  0.3195
 5266SOL     OW27256   1.725   3.454   3.136  0.4370 -0.7510 -0.1615
 5266SOL    HW127257   1.746   3.542   3.103  0.3103 -0.5016  0.4123
 5266SOL    HW227258   1.724   3.477   3.229  1.9500 -1.9807  0.1709
 5267SOL     OW27259   1.677   0.791  17.171  0.1771  0.5431 -0.4881
 5267SOL    HW127260   1.588   0.812  17.141  1.4391  2.5832 -2.8215
 5267SOL    HW227261   1.657   0.711  17.218  0.3511  0.0010 -1.3269
 5268SOL     OW27262   2.144   4.569   2.290  0.1217 -0.0584 -0.1771
 5268SOL    HW127263   2.053   4.597   2.300  0.6313  1.3750  0.3630
 5268SOL    HW227264   2.133   4.505   2.220  2.0815 -0.5143 -0.0688
 5269SOL     OW27265   2.092   2.278   5.650 -1.1696 -0.4606 -0.0833
 5269SOL    HW127266   2.017   2.302   5.596 -2.2537 -0.4685  1.4273
 5269SOL    HW227267   2.155   2.337   5.607 -0.4118 -1.4116 -0.2806
 5270SOL     OW27268   3.686   4.434  15.661  0.1596 -0.2832 -0.1499
 5270SOL    HW127269   3.742   4.458  15.735  1.2846 -1.0447 -0.7531
 5270SOL    HW227270   3.663   4.347  15.692 -2.4812 -0.0349 -1.3661
 5271SOL     OW27271   3.784   4.184  12.845 -0.4552 -0.2976  0.1415
 5271SOL    HW127272   3.703   4.231  12.868 -0.8578 -1.4778  1.1283
 5271SOL    HW227273   3.840   4.231  12.906  0.4029  0.6819 -1.3886
 5272SOL     OW27274   2.247   4.482   3.358 -0.7295 -0.0092  0.3262
 5272SOL    HW127275   2.179   4.426   3.321 -0.8914  0.0073  0.5986
 5272SOL    HW227276   2.296   4.488   3.277 -1.8907  1.4484 -0.2661
 5273SOL     OW27277   3.671   2.127  13.466 -0.2697 -0.4613 -0.1250
 5273SOL    HW127278   3.707   2.084  13.388  1.3429 -2.0488  1.4774
 5273SOL    HW227279   3.674   2.221  13.453  1.9030 -0.6018 -0.5719
 5274SOL     OW27280   3.194   0.990   6.201 -0.0655 -0.1812  0.0138
 5274SOL    HW127281   3.207   0.933   6.126  0.4426 -0.8527  0.6150
 5274SOL    HW227282   3.251   1.062   6.175 -1.4983  0.4209 -1.4769
 5275SOL     OW27283   1.986   1.115   7.875  0.3447 -0.0181  0.1824
 5275SOL    HW127284   2.071   1.108   7.831  1.3796  0.6708  2.0780
 5275SOL    HW227285   1.939   1.174   7.816 -2.0100 -0.0811  2.0009
 5276SOL     OW27286   1.488   0.187   1.052  1.1080  0.2563 -0.3328
 5276SOL    HW127287   1.512   0.278   1.035  0.2510  0.1270 -2.3147
 5276SOL    HW227288   1.392   0.184   1.048  1.0658  0.8186  0.3124
 5277SOL     OW27289   0.706   3.431  16.978  0.4047  0.2196  0.1613
 5277SOL    HW127290   0.651   3.394  17.047 -0.1149 -0.1594 -0.4511
 5277SOL    HW227291   0.639   3.436  16.909  0.8661 -2.1523 -0.4637
 5278SOL     OW27292   2.697   0.456   4.171  0.3061 -0.4267  0.0475
 5278SOL    HW127293   2.777   0.409   4.194  0.4349  0.6814  1.8252
 5278SOL    HW227294   2.680   0.432   4.080  1.6699 -2.8015  0.4371
 5279SOL     OW27295   4.376   3.282   3.912 -0.2778 -0.3168  0.5183
 5279SOL    HW127296   4.434   3.217   3.950 -0.2336  1.1581  2.9542
 5279SOL    HW227297   4.395   3.372   3.940  0.7726  0.5613 -3.0067
 5280SOL     OW27298   4.533   3.281   2.075  0.1944  0.0216  0.7705
 5280SOL    HW127299   4.612   3.270   2.021 -2.5890 -1.0583 -3.1161
 5280SOL    HW227300   4.480   3.212   2.033 -3.7073  3.7713 -0.4487
 5281SOL     OW27301   2.161   3.995  11.134 -0.8463  0.6773  0.1427
 5281SOL    HW127302   2.120   4.004  11.220 -1.9956  1.8791 -0.5251
 5281SOL    HW227303   2.087   3.975  11.076 -0.7001  0.8941 -0.1161
 5282SOL     OW27304   0.108   4.557  11.110  0.8994 -0.3686 -0.4453
 5282SOL    HW127305   0.060   4.481  11.144  1.1753  0.2213  1.2843
 5282SOL    HW227306   0.151   4.525  11.031 -2.1485 -0.3056 -2.0951
 5283SOL     OW27307   0.230   3.241   2.792 -0.0971 -0.1091  0.5389
 5283SOL    HW127308   0.191   3.318   2.751 -1.7037  0.1488  2.5788
 5283SOL    HW227309   0.224   3.173   2.725  3.0786  2.5789 -2.4801
 5284SOL     OW27310   4.240   1.260  15.588  0.4210 -0.3334 -0.1084
 5284SOL    HW127311   4.253   1.351  15.559  1.2183 -0.0536  1.1336
 5284SOL    HW227312   4.218   1.216  15.506 -0.3589 -1.7657  0.8797
 5285SOL     OW27313   0.746   2.700  12.495  0.2270  0.3312 -0.2201
 5285SOL    HW127314   0.706   2.787  12.497  0.8513  0.6089  0.3498
 5285SOL    HW227315   0.825   2.716  12.548 -0.2493 -1.7929  1.1380
 5286SOL     OW27316   4.578   1.451   3.182  0.5184 -0.4137 -0.4380
 5286SOL    HW127317   4.553   1.444   3.274 -1.6708  0.2259 -0.9996
 5286SOL    HW227318   4.555   1.364   3.147 -0.7243 -0.0634 -0.4918
 5287SOL     OW27319   2.972   4.286  12.681  0.0471 -0.1089  0.0409
 5287SOL    HW127320   2.906   4.239  12.731  0.8450 -3.2249 -1.8443
 5287SOL    HW227321   3.040   4.223  12.657  0.3324 -0.3115  1.3795
 5288SOL     OW27322   0.678   0.329   4.184  0.0759  0.2854 -0.8430
 5288SOL    HW127323   0.676   0.236   4.161 -1.6422 -0.0138  0.4498
 5288SOL    HW227324   0.761   0.339   4.229 -0.3055  2.2807 -0.5722
 5289SOL     OW27325   0.123   1.368   5.365 -0.0529 -0.4133 -0.9001
 5289SOL    HW127326   0.158   1.456   5.354  0.2654 -0.2999  0.9395
 5289SOL    HW227327   0.195   1.306   5.359 -0.1125 -0.7042  1.3093
 5290SOL     OW27328   3.526   1.670  14.855 -0.1436 -0.1393  0.4728
 5290SOL    HW127329   3.585   1.742  14.832 -0.1385 -0.7371 -1.3078
 5290SOL    HW227330   3.553   1.601  14.795  0.9041 -0.5915  1.4573
 5291SOL     OW27331   1.678   0.786   2.857  0.3439  0.2650 -0.3140
 5291SOL    HW127332   1.757   0.745   2.822  0.9909  1.2729 -0.0383
 5291SOL    HW227333   1.628   0.705   2.859 -0.8713  1.0526  1.2765
 5292SOL     OW27334   1.713   3.839   5.751 -0.1811 -0.7087  0.0274
 5292SOL    HW127335   1.798   3.838   5.708 -0.9711  2.3101 -1.5595
 5292SOL    HW227336   1.666   3.787   5.686 -0.7300 -1.5172  1.0600
 5293SOL     OW27337   2.741   3.339   5.006  0.0824 -0.2336  0.0829
 5293SOL    HW127338   2.755   3.266   4.945  1.9765 -0.1596  0.4145
 5293SOL    HW227339   2.714   3.401   4.939  0.7861 -0.5773 -0.5150
 5294SOL     OW27340   4.188   1.875   8.727  0.5176  0.2346 -0.2056
 5294SOL    HW127341   4.274   1.905   8.756  0.9477 -0.8080 -0.3894
 5294SOL    HW227342   4.189   1.781   8.744 -1.5136  0.1784 -0.3720
 5295SOL     OW27343   2.721   3.690   2.070  0.1794 -0.2065 -0.0458
 5295SOL    HW127344   2.807   3.708   2.032  0.5706  0.3721  1.1154
 5295SOL    HW227345   2.687   3.779   2.083  0.1662 -0.1965 -0.1549
 5296SOL     OW27346   1.310   0.736   8.824  0.2078  0.1417 -0.0615
 5296SOL    HW127347   1.238   0.760   8.765 -2.0295  1.1217  3.0863
 5296SOL    HW227348   1.322   0.808   8.886 -0.7748  0.4146 -0.1897
 5297SOL     OW27349   2.582   0.775   5.165  0.5553 -0.5995 -0.5230
 5297SOL    HW127350   2.535   0.852   5.135 -1.1728 -0.9822  1.1736
 5297SOL    HW227351   2.591   0.723   5.085 -0.8110 -0.9381 -0.4597
 5298SOL     OW27352   0.745   2.014   8.675  0.0850 -0.7721  0.2498
 5298SOL    HW127353   0.678   2.026   8.608  2.5153 -0.9662 -2.2196
 5298SOL    HW227354   0.705   2.056   8.751 -0.1667  0.1420 -0.3943
 5299SOL     OW27355   2.458   4.223   2.542 -0.6510  0.2662 -0.0820
 5299SOL    HW127356   2.427   4.231   2.452  0.0948  0.0223 -0.3595
 5299SOL    HW227357   2.552   4.208   2.533 -0.6405 -0.6443  1.5940
 5300SOL     OW27358   1.741   3.733   6.911 -0.7100 -0.1460  0.4102
 5300SOL    HW127359   1.802   3.792   6.867 -1.1159 -0.6619 -0.8354
 5300SOL    HW227360   1.794   3.680   6.971 -1.8158 -1.2967  0.3647
 5301SOL     OW27361   2.346   0.566   4.300  0.0018  0.0059  0.4669
 5301SOL    HW127362   2.422   0.537   4.350 -0.0944  0.3574  0.8142
 5301SOL    HW227363   2.301   0.619   4.366 -1.8059 -0.7184 -0.2099
 5302SOL     OW27364   2.141   1.626  12.496  0.8184 -0.3609  0.4859
 5302SOL    HW127365   2.229   1.648  12.524  1.1580 -0.8190 -0.2065
 5302SOL    HW227366   2.142   1.670  12.411  0.1452 -1.2313  0.0285
 5303SOL     OW27367   2.259   4.010   3.902  0.0017 -0.1374 -0.2624
 5303SOL    HW127368   2.247   3.923   3.863 -1.0276 -0.3008  0.4148
 5303SOL    HW227369   2.213   4.069   3.842  0.6153  1.3888  0.7816
 5304SOL     OW27370   2.179   4.065   1.916 -0.4250 -0.2125  0.2245
 5304SOL    HW127371   2.206   4.143   1.866  2.3599 -0.0500  1.9677
 5304SOL    HW227372   2.086   4.077   1.936 -0.7258 -1.5784 -0.3877
 5305SOL     OW27373   2.770   0.127   7.456 -0.7209 -0.0181  0.8572
 5305SOL    HW127374   2.853   0.093   7.423 -0.8631  0.7861 -0.3737
 5305SOL    HW227375   2.721   0.139   7.374 -0.0231  1.6346  0.6759
 5306SOL     OW27376   1.568   2.218  11.418 -0.8145 -0.6702  0.2951
 5306SOL    HW127377   1.521   2.265  11.349 -0.5671  1.6976  1.7428
 5306SOL    HW227378   1.656   2.256  11.418 -1.7592  1.4887 -2.6230
 5307SOL     OW27379   2.840   0.512   2.390  0.0636  0.5190 -0.2626
 5307SOL    HW127380   2.778   0.577   2.355  0.1770  0.6694 -0.1848
 5307SOL    HW227381   2.814   0.430   2.348  0.7720 -0.1943  0.7030
 5308SOL     OW27382   1.926   1.077   8.864 -0.6779 -0.3935  0.1554
 5308SOL    HW127383   1.892   1.020   8.933  1.8782 -1.4769  0.5421
 5308SOL    HW227384   1.971   1.016   8.806  0.4723  0.1648  0.4652
 5309SOL     OW27385   2.675   2.491  10.223  0.4957 -0.4965 -0.2271
 5309SOL    HW127386   2.664   2.483  10.318  2.8033 -2.0621 -0.1095
 5309SOL    HW227387   2.748   2.552  10.210 -1.2715  1.8680  0.8155
 5310SOL     OW27388   1.413   0.230   3.749  0.0372  0.0610 -0.2460
 5310SOL    HW127389   1.411   0.258   3.841 -0.4512  1.5159 -0.7148
 5310SOL    HW227390   1.486   0.286   3.723  0.9129 -0.8672  0.1558
 5311SOL     OW27391   2.760   2.938   2.341 -0.3155 -0.2015 -0.6629
 5311SOL    HW127392   2.824   2.983   2.286  0.7887 -1.3350 -0.3146
 5311SOL    HW227393   2.682   2.941   2.287 -0.4713  0.7356 -0.3859
 5312SOL     OW27394   3.657   0.807   1.422 -0.3682  0.0100  0.2999
 5312SOL    HW127395   3.648   0.745   1.349 -0.8748 -0.5266  0.8132
 5312SOL    HW227396   3.567   0.811   1.454 -1.0576 -1.1638 -1.4805
 5313SOL     OW27397   1.647   1.817   3.476 -0.0400 -0.4879  0.5498
 5313SOL    HW127398   1.656   1.756   3.403  1.2877 -0.9782  1.1213
 5313SOL    HW227399   1.742   1.830   3.482 -0.4776  3.1720 -0.4358
 5314SOL     OW27400   4.026   0.488   8.410  0.4733  0.2395  0.1704
 5314SOL    HW127401   3.965   0.543   8.360 -1.3552 -0.3652  1.6904
 5314SOL    HW227402   4.066   0.567   8.447 -0.2266  0.6299  0.1003
 5315SOL     OW27403   4.366   0.804   9.141  0.3229 -0.8093  0.6670
 5315SOL    HW127404   4.340   0.716   9.167 -0.7019 -0.0315  2.3236
 5315SOL    HW227405   4.283   0.849   9.158  0.7776  0.0614  0.5865
 5316SOL     OW27406   0.775   4.043   6.653  0.2203 -0.5474 -0.3632
 5316SOL    HW127407   0.727   4.116   6.614 -0.8739  0.2298  2.4237
 5316SOL    HW227408   0.799   4.075   6.741  1.4975 -2.3381 -0.0680
 5317SOL     OW27409   4.359   4.089   4.074 -0.5035 -0.2304  0.6148
 5317SOL    HW127410   4.269   4.078   4.104 -0.4153 -1.9986  0.2588
 5317SOL    HW227411   4.407   4.096   4.157  0.3827 -0.3207  0.1042
 5318SOL     OW27412   2.372   1.758   8.860  0.1011 -0.4117  0.3443
 5318SOL    HW127413   2.354   1.671   8.896 -0.1184 -1.4203 -2.1928
 5318SOL    HW227414   2.289   1.783   8.818  1.6898  0.0689 -2.4947
 5319SOL     OW27415   0.974   2.955   3.602  0.5115  0.2634 -0.1989
 5319SOL    HW127416   0.932   2.984   3.521  2.3189  0.9405 -0.9019
 5319SOL    HW227417   1.036   3.024   3.626  0.2915  0.4129 -0.0605
 5320SOL     OW27418   3.153   1.275  16.943  0.0109 -0.0485  0.1636
 5320SOL    HW127419   3.099   1.321  17.007  0.4379 -0.5002  0.8549
 5320SOL    HW227420   3.221   1.341  16.929 -1.5102  1.7369  1.2504
 5321SOL     OW27421   4.650   0.254   7.774 -0.1678 -0.3694  0.4975
 5321SOL    HW127422   4.561   0.254   7.809 -0.5193 -0.8377 -0.4092
 5321SOL    HW227423   4.700   0.209   7.842  0.0756 -1.1949 -0.2407
 5322SOL     OW27424   0.609   2.224  11.700  0.5059 -0.1366  0.4776
 5322SOL    HW127425   0.586   2.309  11.664 -0.8657 -1.3219 -1.3966
 5322SOL    HW227426   0.650   2.185  11.623 -2.5286 -1.4020 -0.4720
 5323SOL     OW27427   3.751   1.589   5.942 -0.1708 -0.3643 -0.0744
 5323SOL    HW127428   3.749   1.684   5.933 -1.6182 -0.4187 -0.2919
 5323SOL    HW227429   3.658   1.573   5.928 -0.4026  0.7557  0.1656
 5324SOL     OW27430   1.915   3.483   9.497  0.3226  0.0449 -0.4487
 5324SOL    HW127431   1.966   3.549   9.450 -1.0784  2.8046  1.9383
 5324SOL    HW227432   1.877   3.440   9.420 -1.3817 -0.7300  0.8039
 5325SOL     OW27433   1.846   1.709   5.808 -0.3910  0.3922 -0.2515
 5325SOL    HW127434   1.771   1.678   5.858 -0.7090 -1.2836 -1.7512
 5325SOL    HW227435   1.821   1.693   5.717 -0.4442 -0.3538 -0.1058
 5326SOL     OW27436   0.255   4.452   4.273  0.5568 -0.1477 -0.0023
 5326SOL    HW127437   0.210   4.529   4.307 -1.8078 -1.2938 -0.5594
 5326SOL    HW227438   0.345   4.457   4.305  0.5957 -1.5498  0.1170
 5327SOL     OW27439   2.321   1.441  15.305  0.0913 -0.5032 -1.0690
 5327SOL    HW127440   2.274   1.365  15.270 -0.0893 -1.5339  1.4125
 5327SOL    HW227441   2.406   1.401  15.319  0.1442 -0.2439 -0.6516
 5328SOL     OW27442   1.949   0.695   2.730  0.6130 -0.7035  0.2598
 5328SOL    HW127443   2.020   0.683   2.793 -0.4005  0.2830  1.5891
 5328SOL    HW227444   1.971   0.777   2.686 -1.5529 -1.4380 -2.1734
 5329SOL     OW27445   1.004   2.570   4.193  0.6479 -0.2807  0.7904
 5329SOL    HW127446   0.979   2.477   4.194  0.3798 -0.2079  0.9593
 5329SOL    HW227447   0.927   2.606   4.148 -0.6218  0.8851  3.8959
 5330SOL     OW27448   0.834   2.109   6.151  0.5171 -0.5686 -0.3682
 5330SOL    HW127449   0.753   2.061   6.164  0.1528  0.1442 -0.0004
 5330SOL    HW227450   0.799   2.154   6.074 -0.1760  0.4936  0.5637
 5331SOL     OW27451   2.555   0.345  15.222 -0.2724 -0.4751 -0.2476
 5331SOL    HW127452   2.496   0.319  15.152  0.7607 -2.9995 -0.2128
 5331SOL    HW227453   2.527   0.277  15.284  1.2524 -1.6122 -0.7853
 5332SOL     OW27454   1.648   4.667   7.848  0.3846  0.0194 -0.4194
 5332SOL    HW127455   1.630   0.001   7.771  2.2426  0.6232 -0.4189
 5332SOL    HW227456   1.582   4.700   7.909  0.6923  0.9008 -0.5577
 5333SOL     OW27457   3.920   2.318   3.142 -0.0674 -0.2606  0.4664
 5333SOL    HW127458   4.008   2.346   3.167  0.3121 -0.3396 -0.7974
 5333SOL    HW227459   3.865   2.371   3.200 -0.9538 -0.4143 -0.2268
 5334SOL     OW27460   0.545   2.986   1.500 -0.5514 -0.0502 -0.0320
 5334SOL    HW127461   0.476   3.050   1.520 -3.0065 -1.6067 -3.6693
 5334SOL    HW227462   0.550   2.999   1.405 -1.4184 -2.1644 -0.3703
 5335SOL     OW27463   3.842   0.106   4.492  0.4968 -0.5650  0.9899
 5335SOL    HW127464   3.760   0.093   4.539  0.4450 -2.2665  0.4139
 5335SOL    HW227465   3.823   0.193   4.456  0.6000 -1.2622 -0.7261
 5336SOL     OW27466   0.002   4.512   5.695 -0.0393 -0.3880 -0.3531
 5336SOL    HW127467   4.683   4.594   5.724  2.1424  0.3518  0.4773
 5336SOL    HW227468   4.704   4.456   5.771 -0.9632 -0.7220 -0.8119
 5337SOL     OW27469   2.695   1.015  10.551  0.8049  0.0713  0.0565
 5337SOL    HW127470   2.693   0.997  10.645  2.0551  1.7079  0.3803
 5337SOL    HW227471   2.770   0.961  10.525  1.0881  0.1282  0.7671
 5338SOL     OW27472   0.904   4.144  12.590  0.4597  0.4985 -0.3507
 5338SOL    HW127473   0.930   4.134  12.681  0.6795 -0.6553 -0.5320
 5338SOL    HW227474   0.810   4.157  12.600  0.7036 -0.4812  3.3389
 5339SOL     OW27475   4.346   1.087   5.548 -0.0102  0.1399 -0.3581
 5339SOL    HW127476   4.322   1.018   5.610 -0.3819  0.1014 -0.5465
 5339SOL    HW227477   4.395   1.042   5.479 -1.6445  0.1071 -1.5003
 5340SOL     OW27478   3.100   1.165   4.336  0.4439  0.3859  0.1062
 5340SOL    HW127479   3.084   1.256   4.362  0.5050  0.9218 -1.6962
 5340SOL    HW227480   3.077   1.120   4.417 -0.7086 -0.6479 -0.7940
 5341SOL     OW27481   4.630   2.334   3.617 -0.1197  0.0963  0.3492
 5341SOL    HW127482   4.580   2.315   3.538 -1.6912  0.4022  1.2596
 5341SOL    HW227483   4.651   2.426   3.600 -0.4046 -0.3812 -2.4614
 5342SOL     OW27484   3.893   3.972  14.406  0.1590 -0.2895 -0.1511
 5342SOL    HW127485   3.849   3.918  14.340  0.3223  0.9150 -1.2672
 5342SOL    HW227486   3.981   3.934  14.410  1.1817  2.1708  0.7094
 5343SOL     OW27487   4.433   4.122  16.296 -0.2192  0.0333 -0.2840
 5343SOL    HW127488   4.466   4.043  16.340 -0.5329  0.7323  1.2062
 5343SOL    HW227489   4.440   4.092  16.205  0.3077 -0.0243 -0.2234
 5344SOL     OW27490   1.173   3.587   9.876  0.6755  0.3529  0.3839
 5344SOL    HW127491   1.081   3.609   9.861 -0.0757 -0.6727  3.5343
 5344SOL    HW227492   1.220   3.650   9.821  0.1101 -0.0416 -0.5708
 5345SOL     OW27493   2.973   2.414   6.948  0.0154  0.2499  0.6418
 5345SOL    HW127494   2.906   2.456   6.893  0.9686  1.0857  0.1158
 5345SOL    HW227495   3.040   2.482   6.951  0.3917 -0.0757 -0.3385
 5346SOL     OW27496   0.742   1.511  12.004 -0.0342  0.1712  0.4154
 5346SOL    HW127497   0.668   1.451  11.994 -2.2476  3.0636 -0.6650
 5346SOL    HW227498   0.711   1.569  12.075 -0.9458 -0.2425  0.3546
 5347SOL     OW27499   0.695   0.131   9.583  0.2452 -0.3494  0.5717
 5347SOL    HW127500   0.781   0.166   9.607  0.4967 -0.5800 -0.0028
 5347SOL    HW227501   0.643   0.212   9.587  0.1554 -0.3496 -0.5535
 5348SOL     OW27502   3.847   0.675   8.270 -0.7113  0.1056 -0.4100
 5348SOL    HW127503   3.797   0.749   8.305  1.1343  0.9132  0.5096
 5348SOL    HW227504   3.879   0.704   8.185  2.5807  2.9714  1.8120
 5349SOL     OW27505   3.261   2.402   2.088  0.1863 -0.0063  0.1401
 5349SOL    HW127506   3.309   2.391   2.170 -0.0410 -0.1194  0.2595
 5349SOL    HW227507   3.211   2.479   2.113 -1.7791 -1.1042 -0.4231
 5350SOL     OW27508   4.011   2.251   5.925 -0.2911  0.2113 -0.4359
 5350SOL    HW127509   3.981   2.178   5.871  0.7274  0.4030 -1.2519
 5350SOL    HW227510   4.038   2.202   6.003  2.6510  1.1989 -0.8368
 5351SOL     OW27511   1.778   0.292   4.464  0.8194  0.1466 -0.2983
 5351SOL    HW127512   1.830   0.302   4.385  0.1996 -2.0647 -0.9715
 5351SOL    HW227513   1.809   0.364   4.519  1.1201  0.3503 -0.7415
 5352SOL     OW27514   0.222   2.274   7.206 -0.0302 -0.2765 -0.4424
 5352SOL    HW127515   0.309   2.235   7.194  0.1930  0.3584 -0.9082
 5352SOL    HW227516   0.165   2.198   7.217 -0.7380  0.1408 -1.2166
 5353SOL     OW27517   3.125   1.293   5.212  0.0760  1.0315 -0.2981
 5353SOL    HW127518   3.179   1.215   5.224  0.3895  0.9886 -2.0617
 5353SOL    HW227519   3.049   1.275   5.268  0.6036 -1.3364 -0.3642
 5354SOL     OW27520   1.270   3.413   5.711 -0.1691 -0.1074  0.2551
 5354SOL    HW127521   1.249   3.333   5.662  0.6231 -0.0192 -0.2332
 5354SOL    HW227522   1.288   3.478   5.643 -1.1247  0.2223  0.3218
 5355SOL     OW27523   2.642   2.611  13.375 -0.1059  0.2547  0.3046
 5355SOL    HW127524   2.622   2.704  13.382  2.5418  0.7377  1.3007
 5355SOL    HW227525   2.733   2.609  13.403  0.1608 -0.8183 -0.6403
 5356SOL     OW27526   3.583   1.479   3.127  0.1235  0.1773  0.4482
 5356SOL    HW127527   3.521   1.431   3.073  2.0730 -2.9816  0.9942
 5356SOL    HW227528   3.594   1.435   3.211  0.7159  1.2551  0.9381
 5357SOL     OW27529   3.625   3.126   4.136 -0.0214 -0.5113 -0.5547
 5357SOL    HW127530   3.633   3.046   4.084  1.3292  0.1388 -1.3401
 5357SOL    HW227531   3.606   3.184   4.062 -1.7066  0.2279  0.4422
 5358SOL     OW27532   4.493   4.029   9.310  0.3194  0.5505  0.0864
 5358SOL    HW127533   4.480   4.064   9.399  0.2945  1.0336 -0.1097
 5358SOL    HW227534   4.584   4.003   9.324 -0.0996 -0.5753  0.7168
 5359SOL     OW27535   0.411   0.740   8.778 -0.7306 -0.4824 -0.4363
 5359SOL    HW127536   0.378   0.664   8.826 -0.7620  1.3690  2.5023
 5359SOL    HW227537   0.345   0.744   8.709 -2.0421 -1.3989  0.7506
 5360SOL     OW27538   0.475   1.195  10.483  0.3397  0.0845  0.2693
 5360SOL    HW127539   0.480   1.106  10.515  0.4204  0.2687  0.7706
 5360SOL    HW227540   0.561   1.236  10.496 -0.9573  3.1761 -0.6944
 5361SOL     OW27541   2.981   3.212   0.254 -0.1750 -0.4553 -0.1172
 5361SOL    HW127542   3.039   3.156   0.204 -0.2973 -0.2597 -0.4767
 5361SOL    HW227543   2.964   3.281   0.190 -0.0852  0.7804  1.1891
 5362SOL     OW27544   1.495   2.767   6.709  0.1205 -0.3041  0.2066
 5362SOL    HW127545   1.415   2.775   6.761 -0.2586 -2.3849 -0.0569
 5362SOL    HW227546   1.488   2.848   6.658 -0.7511 -1.1584 -1.0334
 5363SOL     OW27547   1.596   0.577  17.346 -0.0968  0.2491 -0.1715
 5363SOL    HW127548   1.531   0.575  17.416 -0.4512 -0.1377 -0.5185
 5363SOL    HW227549   1.674   0.604  17.395  1.2023 -0.9188 -1.5706
 5364SOL     OW27550   4.658   2.322   6.147 -0.7546 -0.5506 -0.0849
 5364SOL    HW127551   4.673   2.263   6.220 -1.2163 -0.5697 -0.0024
 5364SOL    HW227552   4.696   2.265   6.081  0.8241 -2.2811  2.3369
 5365SOL     OW27553   3.452   4.574   2.994  0.0356 -0.4269 -0.4438
 5365SOL    HW127554   3.404   4.584   2.912 -0.2981 -0.0869 -0.2086
 5365SOL    HW227555   3.534   4.615   2.966 -1.6576  2.7759 -0.7454
 5366SOL     OW27556   0.288   3.198   2.197 -0.1467  0.0787 -0.3928
 5366SOL    HW127557   0.326   3.161   2.277 -2.6779 -1.3533  0.1160
 5366SOL    HW227558   0.340   3.153   2.131  0.9880 -0.5657  0.9184
 5367SOL     OW27559   1.834   3.180   6.768 -0.7209 -0.0311  0.3063
 5367SOL    HW127560   1.744   3.208   6.789 -0.8752 -0.6109  0.4056
 5367SOL    HW227561   1.882   3.260   6.786  2.3214 -1.5509 -1.1497
 5368SOL     OW27562   3.657   2.234   5.430 -0.1966 -0.7246 -0.0710
 5368SOL    HW127563   3.576   2.195   5.463  0.0346 -0.3714  0.9032
 5368SOL    HW227564   3.668   2.179   5.352 -2.9582 -1.4587  0.0853
 5369SOL     OW27565   1.700   0.915   4.170  0.0549 -0.0249 -0.0364
 5369SOL    HW127566   1.712   0.958   4.255  3.8357  0.6277 -0.9083
 5369SOL    HW227567   1.606   0.894   4.168  0.0080  0.0717  1.5244
 5370SOL     OW27568   0.563   4.546   1.952  0.3183 -0.0916 -0.1566
 5370SOL    HW127569   0.513   4.475   1.912  0.2634  0.1221 -0.4662
 5370SOL    HW227570   0.501   4.575   2.019 -0.3788 -1.3518 -0.2466
 5371SOL     OW27571   2.386   2.032  12.888  0.3073 -0.3614 -0.8006
 5371SOL    HW127572   2.471   2.072  12.905  0.1815  0.1447 -1.3376
 5371SOL    HW227573   2.320   2.090  12.927  1.2460 -1.7480  2.8103
 5372SOL     OW27574   3.816   2.762  12.450  0.1726  0.0188  0.5264
 5372SOL    HW127575   3.749   2.830  12.444 -0.1951 -0.4780 -0.8384
 5372SOL    HW227576   3.782   2.689  12.399 -0.9311  1.5068 -0.8519
 5373SOL     OW27577   0.214   0.186   1.194  0.1014  0.4325  0.6851
 5373SOL    HW127578   0.286   0.151   1.247  0.8430  1.3561  0.2855
 5373SOL    HW227579   0.195   0.257   1.255 -0.4303  1.4260 -0.6371
 5374SOL     OW27580   1.473   0.797   9.210 -0.4235 -0.1449  0.1112
 5374SOL    HW127581   1.538   0.730   9.190 -1.2249 -0.8390 -0.1747
 5374SOL    HW227582   1.393   0.745   9.205 -1.2849  1.1969 -0.2720
 5375SOL     OW27583   2.607   1.675   7.957  0.2160 -0.6974  0.0608
 5375SOL    HW127584   2.583   1.623   8.034  2.2372 -2.0294 -0.2339
 5375SOL    HW227585   2.695   1.710   7.971 -0.4165  1.4859 -1.4255
 5376SOL     OW27586   0.855   2.673   7.690  0.1742 -0.2303 -0.4497
 5376SOL    HW127587   0.931   2.714   7.649  1.9870 -0.6654  2.4822
 5376SOL    HW227588   0.899   2.605   7.739 -0.7726 -2.5909 -2.8765
 5377SOL     OW27589   0.392   0.003  16.517  0.3120  0.1575  0.6755
 5377SOL    HW127590   0.415   0.004  16.610 -1.1179 -0.1764  1.0448
 5377SOL    HW227591   0.315   4.667  16.529 -0.7156  1.2965 -0.6352
 5378SOL     OW27592   1.142   2.696   2.790 -0.4049  0.0467  0.2329
 5378SOL    HW127593   1.223   2.708   2.740  0.0514  2.1536  1.4515
 5378SOL    HW227594   1.176   2.728   2.874  1.0768  1.1505 -0.7779
 5379SOL     OW27595   0.846   1.850   8.117  0.3838  0.4749  0.4875
 5379SOL    HW127596   0.763   1.897   8.126 -0.9050 -1.8382  0.8446
 5379SOL    HW227597   0.868   1.830   8.208 -0.0294 -1.0926  0.2502
 5380SOL     OW27598   2.865   0.173   5.563  0.4655 -0.5580  0.4711
 5380SOL    HW127599   2.784   0.176   5.614 -0.3258  0.3512 -0.8298
 5380SOL    HW227600   2.877   0.079   5.555 -1.0072 -0.7541  0.6018
 5381SOL     OW27601   0.984   1.268   3.739 -0.4696  0.4453 -0.5416
 5381SOL    HW127602   0.948   1.202   3.798  0.4494  1.1275  0.7848
 5381SOL    HW227603   0.962   1.224   3.657  1.7788  0.3307 -1.0852
 5382SOL     OW27604   3.825   2.444   2.288  0.4397  0.0470 -0.3742
 5382SOL    HW127605   3.861   2.382   2.351 -0.3962 -0.1479 -0.0913
 5382SOL    HW227606   3.842   2.404   2.202  2.1054 -0.2987  0.1176
 5383SOL     OW27607   0.561   3.346   4.446 -0.3919  0.0036 -0.1598
 5383SOL    HW127608   0.649   3.345   4.407 -1.4469 -2.5332 -2.4541
 5383SOL    HW227609   0.580   3.360   4.539  2.1791 -0.0794 -0.6692
 5384SOL     OW27610   3.847   1.057   7.986  0.1936  0.1821 -0.1920
 5384SOL    HW127611   3.796   0.979   8.010 -0.7788  0.8302 -0.1710
 5384SOL    HW227612   3.790   1.097   7.921 -0.2321 -0.9737 -0.5354
 5385SOL     OW27613   2.768   0.913   5.897 -0.5071  0.5683 -0.1819
 5385SOL    HW127614   2.760   0.823   5.865  0.2773 -0.1121  1.5244
 5385SOL    HW227615   2.857   0.920   5.934 -0.3486  0.0300 -0.4619
 5386SOL     OW27616   1.952   3.504   2.492  0.0162  0.4686  0.0220
 5386SOL    HW127617   2.022   3.530   2.433  0.1633 -0.7159 -0.3103
 5386SOL    HW227618   1.995   3.428   2.531  0.0274  0.3748 -0.1742
 5387SOL     OW27619   2.057   0.226  15.939  0.7315 -0.1057  0.1843
 5387SOL    HW127620   2.151   0.211  15.941  0.3437 -2.6444  0.6267
 5387SOL    HW227621   2.051   0.258  15.849 -0.9904  1.0690  0.7114
 5388SOL     OW27622   2.947   3.887   5.023  0.3954 -0.1599  0.2059
 5388SOL    HW127623   2.995   3.966   4.997  2.5947 -2.2536 -2.1175
 5388SOL    HW227624   2.860   3.906   4.987 -0.2715 -1.6653  1.0150
 5389SOL     OW27625   3.616   3.250  16.725  0.1502  0.9326  0.5895
 5389SOL    HW127626   3.614   3.346  16.722  1.8306  0.9425  0.1051
 5389SOL    HW227627   3.606   3.236  16.630  0.8586  0.7583  0.5419
 5390SOL     OW27628   1.529   1.755   8.169 -0.3246 -0.1126  0.3220
 5390SOL    HW127629   1.463   1.743   8.101  0.7729  2.1052 -1.1506
 5390SOL    HW227630   1.606   1.765   8.113  0.7899  0.1415  1.8866
 5391SOL     OW27631   1.720   0.652   7.443 -0.0251 -0.4532  0.3825
 5391SOL    HW127632   1.655   0.592   7.409  0.0173 -0.6083  0.5737
 5391SOL    HW227633   1.751   0.690   7.361 -0.8580  0.3539  0.4331
 5392SOL     OW27634   0.287   4.587   6.065 -0.7466  0.1390  0.2093
 5392SOL    HW127635   0.291   4.493   6.083  0.6082  0.1165 -0.2266
 5392SOL    HW227636   0.376   4.599   6.032 -0.2005 -0.2425  1.5798
 5393SOL     OW27637   0.075   3.345   9.070  0.2623  0.0774 -0.5004
 5393SOL    HW127638   0.058   3.402   8.995  0.6546  0.3635 -0.3723
 5393SOL    HW227639   0.049   3.392   9.149  1.1993 -1.1541  0.5444
 5394SOL     OW27640   1.953   4.658   6.516 -0.4618 -0.1433  0.4986
 5394SOL    HW127641   1.922   4.572   6.487  0.9567 -0.1682 -0.9152
 5394SOL    HW227642   2.025   4.627   6.572  0.4158  1.7610  0.3985
 5395SOL     OW27643   3.703   4.339   4.604  0.4413  0.5955 -0.7208
 5395SOL    HW127644   3.684   4.264   4.661  0.1082  0.8166 -0.5424
 5395SOL    HW227645   3.621   4.330   4.556  0.8780 -1.8026 -1.0276
 5396SOL     OW27646   2.229   3.057  15.725  0.4703  0.2552 -0.4832
 5396SOL    HW127647   2.260   3.140  15.760  0.3926  0.4327 -0.8317
 5396SOL    HW227648   2.312   3.011  15.707  1.8133  1.2952  3.0297
 5397SOL     OW27649   0.358   1.571  15.864  0.5514 -0.2564  0.1986
 5397SOL    HW127650   0.343   1.627  15.940 -0.4331  0.2686 -0.3859
 5397SOL    HW227651   0.451   1.554  15.877  0.6326  0.3995  0.4254
 5398SOL     OW27652   0.388   3.475   1.082  0.0708  0.0763  0.3971
 5398SOL    HW127653   0.482   3.474   1.066 -0.0858 -0.0068 -0.4948
 5398SOL    HW227654   0.364   3.383   1.074  1.2568 -0.3099  1.2312
 5399SOL     OW27655   1.718   4.502   3.177  0.6885  0.4172  0.4579
 5399SOL    HW127656   1.645   4.562   3.188  0.1339 -0.1802  0.0901
 5399SOL    HW227657   1.675   4.444   3.114  1.0996  0.5555  0.0412
 5400SOL     OW27658   4.370   0.019  17.450 -0.5180  0.3033  0.0722
 5400SOL    HW127659   4.434   0.059  17.510  1.7070 -0.5841 -1.7239
 5400SOL    HW227660   4.382   4.647  17.474 -1.6365  0.7189  2.2561
 5401SOL     OW27661   1.734   4.362  16.658  0.3455  0.3525 -0.0704
 5401SOL    HW127662   1.776   4.279  16.637 -0.2473 -0.2202  0.9753
 5401SOL    HW227663   1.646   4.331  16.637 -0.8194  3.3182  0.3435
 5402SOL     OW27664   0.896   4.235   5.522 -0.2640  0.3615  0.3632
 5402SOL    HW127665   0.861   4.232   5.433  0.1996 -1.2363  0.2454
 5402SOL    HW227666   0.831   4.282   5.574 -0.9899 -1.8153  1.4260
 5403SOL     OW27667   0.484   1.274   4.736  0.5464  0.3134 -0.2634
 5403SOL    HW127668   0.468   1.201   4.796 -0.7547  0.5323 -0.3339
 5403SOL    HW227669   0.502   1.229   4.653 -3.8138  0.4304 -1.2497
 5404SOL     OW27670   1.729   1.251   7.850  0.2760 -0.1087  0.2044
 5404SOL    HW127671   1.739   1.161   7.880  0.7445  0.0725  0.5949
 5404SOL    HW227672   1.652   1.282   7.897  1.4224  1.7514  0.8685
 5405SOL     OW27673   3.459   1.229  11.386  0.9910 -0.3035 -0.6018
 5405SOL    HW127674   3.422   1.315  11.404 -1.5815 -1.2600 -1.2842
 5405SOL    HW227675   3.418   1.204  11.304  2.1453 -0.7157 -1.0531
 5406SOL     OW27676   0.939   0.066   1.035 -0.2126 -0.1116  0.2254
 5406SOL    HW127677   0.991   0.063   0.956  0.6195  2.3480  0.6928
 5406SOL    HW227678   0.912   4.694   1.041 -2.3804  0.5596  1.0874
 5407SOL     OW27679   0.055   0.079   5.168  0.6134 -0.0072  0.1156
 5407SOL    HW127680   0.140   0.037   5.160 -0.0271 -1.3800  0.5248
 5407SOL    HW227681   0.006   4.719   5.146  0.1834  0.1354  0.5390
 5408SOL     OW27682   4.008   3.615   1.697 -0.4183 -0.1252  0.5812
 5408SOL    HW127683   3.913   3.629   1.704 -0.3374  2.1962 -2.9725
 5408SOL    HW227684   4.007   3.561   1.618  2.1193  0.6503  0.0328
 5409SOL     OW27685   0.255   4.018   6.549 -0.2553  0.1753 -0.2090
 5409SOL    HW127686   0.161   4.000   6.553 -0.3206  0.6878  0.5245
 5409SOL    HW227687   0.275   4.042   6.639 -1.2811  0.2746 -0.0016
 5410SOL     OW27688   0.753   1.566   8.221 -0.1758  0.0267  0.6434
 5410SOL    HW127689   0.843   1.592   8.239 -0.0685  0.2214 -0.1726
 5410SOL    HW227690   0.712   1.650   8.200  0.8809  0.8482  1.8288
 5411SOL     OW27691   3.019   4.389  10.177 -0.3349  0.0886 -0.0535
 5411SOL    HW127692   2.987   4.319  10.234  0.2563  1.2500  1.7165
 5411SOL    HW227693   3.097   4.350  10.137 -0.6783 -2.5330  1.7798
 5412SOL     OW27694   4.647   1.517  10.731  0.2807 -0.0383  0.1408
 5412SOL    HW127695   4.590   1.551  10.800 -0.3202 -2.1050  0.6447
 5412SOL    HW227696   4.635   1.584  10.663  2.4319 -1.3658 -1.5280
 5413SOL     OW27697   1.597   3.939   3.122 -0.7618  0.2981 -0.0763
 5413SOL    HW127698   1.617   3.953   3.215  0.2417  1.0963 -0.4103
 5413SOL    HW227699   1.508   3.903   3.124 -0.8344  0.4903  0.1837
 5414SOL     OW27700   2.910   1.486  12.215  0.2783  0.5149 -0.4088
 5414SOL    HW127701   2.969   1.555  12.183  0.0331  0.1697 -1.6002
 5414SOL    HW227702   2.932   1.472  12.307 -0.2001 -0.4529 -0.4459
 5415SOL     OW27703   1.979   2.332   5.381 -0.5540  0.4811 -0.4198
 5415SOL    HW127704   1.892   2.299   5.362 -0.1987  0.2371 -1.6628
 5415SOL    HW227705   2.026   2.282   5.314  0.3772  0.9516 -0.1143
 5416SOL     OW27706   0.272   3.989   4.498 -0.4230 -0.2476  0.0748
 5416SOL    HW127707   0.226   3.966   4.417  2.3847 -0.8495 -1.3748
 5416SOL    HW227708   0.313   3.902   4.505  0.9209  0.5098  1.6597
 5417SOL     OW27709   4.026   2.379  10.987 -0.4439  0.1957  0.3825
 5417SOL    HW127710   3.990   2.294  10.962  0.6575 -0.0222 -0.4814
 5417SOL    HW227711   4.002   2.440  10.918  0.6491 -1.2975 -1.3369
 5418SOL     OW27712   1.946   3.336  17.156  0.0437 -0.2268 -0.3172
 5418SOL    HW127713   1.937   3.247  17.191  1.2155  0.1302  0.9047
 5418SOL    HW227714   1.863   3.380  17.168  0.1823 -0.0194 -0.1162
 5419SOL     OW27715   3.209   3.593  12.436 -0.4271  0.5452  0.1566
 5419SOL    HW127716   3.127   3.640  12.421  0.9119  3.3103  1.6245
 5419SOL    HW227717   3.203   3.578  12.530  4.6189 -0.6424  0.2602
 5420SOL     OW27718   0.368   4.470  11.829  0.3710  0.0610 -0.3291
 5420SOL    HW127719   0.447   4.449  11.779  0.7349 -0.0805  0.2973
 5420SOL    HW227720   0.390   4.562  11.839 -0.1248  0.2261 -0.7887
 5421SOL     OW27721   4.173   1.496   8.497  0.4639  0.6009  0.0732
 5421SOL    HW127722   4.155   1.436   8.424  0.1917  2.1421 -1.1385
 5421SOL    HW227723   4.265   1.473   8.514 -0.1639 -1.7618  0.2646
 5422SOL     OW27724   1.216   2.270  10.106  0.1089  0.1666 -0.0570
 5422SOL    HW127725   1.245   2.179  10.117  0.1520  0.4444  2.0887
 5422SOL    HW227726   1.296   2.310  10.138  0.0028 -2.0516  2.9391
 5423SOL     OW27727   0.019   3.456   3.343  0.4850 -0.4616  0.0795
 5423SOL    HW127728   4.676   3.411   3.286 -0.7222 -0.1126  1.1488
 5423SOL    HW227729   0.090   3.471   3.281 -0.4629 -0.7982 -1.0832
 5424SOL     OW27730   3.472   3.852   9.345  0.2153  0.5056 -0.1648
 5424SOL    HW127731   3.461   3.944   9.369 -2.0921 -0.2100  1.5431
 5424SOL    HW227732   3.427   3.852   9.260 -1.4443  1.8176  0.7118
 5425SOL     OW27733   3.946   4.382   0.033  0.0770  0.6138  0.3837
 5425SOL    HW127734   3.931   4.474   0.014  0.0686  0.6395  0.5158
 5425SOL    HW227735   4.027   4.358  17.669 -0.8722 -2.3159  0.2032
 5426SOL     OW27736   4.204   3.993   6.981  0.0977 -0.0027 -0.4544
 5426SOL    HW127737   4.155   3.932   6.926  0.7290 -0.9329  0.0258
 5426SOL    HW227738   4.286   4.008   6.933 -0.5312 -2.1774 -2.2071
 5427SOL     OW27739   4.689   3.079  16.158 -0.1626  0.6147 -0.0900
 5427SOL    HW127740   0.042   3.123  16.115 -2.3056  1.5632 -2.7466
 5427SOL    HW227741   4.674   3.014  16.090  1.0349 -0.3298  0.5520
 5428SOL     OW27742   0.378   0.919   7.208 -0.3641  0.0790  0.4893
 5428SOL    HW127743   0.450   0.961   7.160 -1.5855  2.1341  0.4418
 5428SOL    HW227744   0.391   0.946   7.299  0.9675  2.7348 -0.4697
 5429SOL     OW27745   2.096   4.707   4.436  0.7279  0.2858  0.4667
 5429SOL    HW127746   2.126   0.027   4.518 -1.4697  1.9675  0.4517
 5429SOL    HW227747   2.137   0.038   4.366  2.0478 -0.2638  0.8374
 5430SOL     OW27748   4.670   0.501   6.382 -0.0783 -0.1930 -0.2217
 5430SOL    HW127749   4.617   0.510   6.461  1.1023  0.6050  0.4900
 5430SOL    HW227750   4.633   0.568   6.324  0.7150  0.6200  0.1991
 5431SOL     OW27751   0.244   1.089   7.749 -0.2768 -0.2339  0.5224
 5431SOL    HW127752   0.260   1.094   7.844 -1.0659  0.4288  0.6231
 5431SOL    HW227753   0.332   1.109   7.716  0.0985 -2.3885  0.2448
 5432SOL     OW27754   1.278   2.491  10.412 -0.0388  0.0069  0.7389
 5432SOL    HW127755   1.195   2.532  10.436  0.7049  1.3565  0.9968
 5432SOL    HW227756   1.253   2.453  10.328 -3.0961 -3.8751  3.3885
 5433SOL     OW27757   0.834   3.226   1.213 -0.1584  0.0136 -0.3269
 5433SOL    HW127758   0.847   3.134   1.189 -1.1391  0.5751 -2.9799
 5433SOL    HW227759   0.922   3.236   1.251 -0.0629  0.0120 -0.5514
 5434SOL     OW27760   3.693   4.600   0.602 -0.1980 -0.5186 -0.3534
 5434SOL    HW127761   3.673   4.623   0.512 -1.6803 -0.9181 -0.1149
 5434SOL    HW227762   3.676   4.682   0.648  0.5018  0.8067 -2.4692
 5435SOL     OW27763   2.106   4.152   0.034 -0.0244  0.3647  0.8847
 5435SOL    HW127764   2.140   4.242   0.036  0.2991  0.2768 -0.9801
 5435SOL    HW227765   2.185   4.109   0.069  0.3063  2.0991  2.3324
 5436SOL     OW27766   0.433   0.955  10.977 -0.1696  0.1859 -0.4189
 5436SOL    HW127767   0.465   0.882  10.926  0.8199  0.7237 -0.5565
 5436SOL    HW227768   0.455   1.025  10.915  0.4893  0.5445  0.2178
 5437SOL     OW27769   4.389   2.739   4.390  0.3269  0.2583  0.1467
 5437SOL    HW127770   4.389   2.814   4.450  0.2183  0.4744 -0.1199
 5437SOL    HW227771   4.330   2.672   4.425 -2.0286  2.0416 -0.3575
 5438SOL     OW27772   1.891   2.457   8.185 -0.2506 -1.0056 -0.3727
 5438SOL    HW127773   1.952   2.385   8.205  2.8660  1.7016 -0.1472
 5438SOL    HW227774   1.933   2.490   8.106 -1.4867 -1.6210 -1.2792
 5439SOL     OW27775   4.485   2.379  15.446  0.1410  0.3271  0.1002
 5439SOL    HW127776   4.472   2.312  15.513  1.5336  2.0726  2.1073
 5439SOL    HW227777   4.430   2.451  15.477 -0.4942 -0.1423  0.0628
 5440SOL     OW27778   3.565   1.576  12.963 -0.1259  0.4576  0.2382
 5440SOL    HW127779   3.553   1.571  13.058  0.4896 -2.2260  0.1588
 5440SOL    HW227780   3.631   1.509  12.947  0.3069  1.0196 -0.2980
 5441SOL     OW27781   4.420   4.440   5.662 -0.1349 -0.4182  0.2100
 5441SOL    HW127782   4.339   4.474   5.622  0.3742  1.5508  0.8434
 5441SOL    HW227783   4.400   4.348   5.646 -2.1791  0.0182  0.2056
 5442SOL     OW27784   2.130   2.625   6.996  0.4337  0.4012 -0.1147
 5442SOL    HW127785   2.067   2.600   6.928  0.8926 -1.4487  0.1324
 5442SOL    HW227786   2.089   2.585   7.073 -0.3724  1.6696  0.1179
 5443SOL     OW27787   1.052   0.084   6.067 -0.2812 -0.7700 -0.4493
 5443SOL    HW127788   1.033   0.178   6.075  0.9199 -0.6884  1.4457
 5443SOL    HW227789   1.073   0.076   6.160  2.3602  3.2498 -0.6907
 5444SOL     OW27790   3.267   4.050   4.407  0.2409 -0.6638 -0.2384
 5444SOL    HW127791   3.186   4.089   4.438 -0.0937  0.4546 -2.5698
 5444SOL    HW227792   3.263   4.080   4.317  0.4625  2.1901  0.7195
 5445SOL     OW27793   2.224   3.450   6.327 -0.3533 -0.1896 -0.2850
 5445SOL    HW127794   2.194   3.426   6.239 -1.5262 -0.1603  0.1104
 5445SOL    HW227795   2.146   3.442   6.380 -1.1600 -1.2705 -1.6227
 5446SOL     OW27796   3.489   3.029   9.326  0.2465  0.1614  0.0321
 5446SOL    HW127797   3.462   2.959   9.267  0.4909  2.2046 -2.5136
 5446SOL    HW227798   3.476   3.097   9.260 -0.5739 -0.2589 -0.2354
 5447SOL     OW27799   3.428   4.301   5.898  0.2469 -0.2001 -0.3855
 5447SOL    HW127800   3.379   4.380   5.874  1.5159  0.4029 -1.0205
 5447SOL    HW227801   3.441   4.325   5.990 -1.6886 -3.0328  0.6087
 5448SOL     OW27802   2.397   2.090   2.183  0.4523  0.1542  0.5164
 5448SOL    HW127803   2.435   2.174   2.210  0.9570 -0.1749  0.8264
 5448SOL    HW227804   2.434   2.084   2.095 -0.9668  1.3365 -0.1594
 5449SOL     OW27805   0.021   2.035   5.300 -0.1421 -0.1482  0.0091
 5449SOL    HW127806   0.114   2.017   5.302 -0.3831 -1.3162  0.5461
 5449SOL    HW227807   4.708   1.947   5.283  0.6219 -0.4924  0.3376
 5450SOL     OW27808   3.864   0.413  16.048 -0.7247  0.6780 -0.2469
 5450SOL    HW127809   3.814   0.357  15.987  3.0710 -3.4175  0.4148
 5450SOL    HW227810   3.932   0.354  16.081 -0.6673  0.2132 -1.1995
 5451SOL     OW27811   3.100   2.610   7.764 -0.3379  0.1974  0.6557
 5451SOL    HW127812   3.008   2.610   7.790 -0.8457  1.1870 -1.1787
 5451SOL    HW227813   3.147   2.545   7.817  3.4124 -1.0497 -4.2354
 5452SOL     OW27814   1.728   1.930  15.877  0.5157  0.2045  0.4091
 5452SOL    HW127815   1.808   1.961  15.836 -0.9118  0.9051 -1.8719
 5452SOL    HW227816   1.750   1.853  15.930  2.3065 -0.6713 -1.6110
 5453SOL     OW27817   1.104   3.886   2.308  0.6007  0.4253 -0.1974
 5453SOL    HW127818   1.085   3.793   2.319  2.9609  0.1818  1.9905
 5453SOL    HW227819   1.039   3.914   2.372  1.8417  0.1657  1.2080
 5454SOL     OW27820   3.562   3.850  17.468 -0.1022 -0.0989  0.0957
 5454SOL    HW127821   3.552   3.944  17.453 -1.5713 -0.1919  0.5092
 5454SOL    HW227822   3.658   3.852  17.473 -0.0900  3.0716 -1.2870
 5455SOL     OW27823   1.324   2.315   6.179 -0.3198  0.0643 -0.1676
 5455SOL    HW127824   1.325   2.355   6.266 -0.0009 -0.1448 -0.0778
 5455SOL    HW227825   1.324   2.387   6.116  0.4334  2.1597  2.1871
 5456SOL     OW27826   1.511   0.748   7.071  0.2098 -0.1250 -0.6621
 5456SOL    HW127827   1.565   0.679   7.109  1.9526  1.3008 -0.5745
 5456SOL    HW227828   1.452   0.769   7.144  1.1593  2.4432 -0.6508
 5457SOL     OW27829   3.164   3.821   7.675 -0.6592  0.3859 -0.0253
 5457SOL    HW127830   3.178   3.819   7.770 -0.8550 -1.4478 -0.0380
 5457SOL    HW227831   3.189   3.736   7.639 -2.5499 -1.1831  2.4011
 5458SOL     OW27832   3.918   2.442  12.717 -0.5460 -0.6428 -0.0410
 5458SOL    HW127833   3.849   2.392  12.672 -1.7519  0.0425  1.0492
 5458SOL    HW227834   3.863   2.479  12.786  0.9462  2.4608 -0.5567
 5459SOL     OW27835   4.498   3.558   1.042 -0.1571  0.0303 -0.0236
 5459SOL    HW127836   4.593   3.563   1.035 -0.3342  1.7917 -1.0159
 5459SOL    HW227837   4.484   3.472   1.002  2.1302 -2.0933  3.7274
 5460SOL     OW27838   4.588   2.305   8.069 -0.1604 -0.1291 -0.2762
 5460SOL    HW127839   4.544   2.322   8.152  0.3819  2.0331 -0.4339
 5460SOL    HW227840   4.650   2.377   8.073 -1.6380  1.2421 -2.0867
 5461SOL     OW27841   2.205   1.825   2.723 -0.5422 -0.2626  0.0583
 5461SOL    HW127842   2.277   1.766   2.702  0.2789  0.5140  0.6839
 5461SOL    HW227843   2.213   1.838   2.818 -1.1091  1.7287 -0.1697
 5462SOL     OW27844   3.599   0.416   3.276 -0.1160 -0.0251  0.2134
 5462SOL    HW127845   3.611   0.497   3.326  1.8846  0.3981 -0.9469
 5462SOL    HW227846   3.557   0.454   3.198 -0.2306  0.6705  0.6119
 5463SOL     OW27847   3.913   3.771  10.891  0.5484 -0.0161 -0.0117
 5463SOL    HW127848   3.923   3.828  10.815  1.7863 -1.8265 -1.2117
 5463SOL    HW227849   3.977   3.821  10.940  0.9780 -0.6788  0.1112
 5464SOL     OW27850   1.572   0.659   5.735 -0.0475  0.1130  0.8708
 5464SOL    HW127851   1.634   0.731   5.723  0.3649 -0.6819 -1.6894
 5464SOL    HW227852   1.628   0.606   5.679  0.5512 -1.8491  3.3225
 5465SOL     OW27853   2.937   3.601   2.914  0.5379  0.1572  0.1010
 5465SOL    HW127854   2.890   3.528   2.874  0.8734  0.5782 -1.0440
 5465SOL    HW227855   3.014   3.553   2.944  0.8048  0.1788 -0.5571
 5466SOL     OW27856   0.733   1.029   0.890  0.3433 -0.2464  0.0643
 5466SOL    HW127857   0.658   0.971   0.888 -0.0836  0.2768  0.8668
 5466SOL    HW227858   0.692   1.115   0.884  0.6298 -0.1073  0.0543
 5467SOL     OW27859   2.768   3.827   2.654  0.5935  0.2378 -0.1110
 5467SOL    HW127860   2.812   3.795   2.575 -1.7140  1.4824 -1.9068
 5467SOL    HW227861   2.719   3.748   2.677 -1.0739  1.5484  0.8317
 5468SOL     OW27862   1.486   0.827   7.593 -0.7785 -0.0993 -0.2441
 5468SOL    HW127863   1.543   0.898   7.622  0.4533 -0.7651 -0.9858
 5468SOL    HW227864   1.537   0.746   7.600  0.6638  0.5719 -2.8802
 5469SOL     OW27865   4.191   4.296   5.134  0.1694 -0.1120 -0.6758
 5469SOL    HW127866   4.149   4.314   5.218 -1.2446 -0.6295 -1.2563
 5469SOL    HW227867   4.132   4.227   5.103 -1.8454  1.4370 -0.3132
 5470SOL     OW27868   1.433   1.478   4.699 -0.2341 -0.2315  0.1380
 5470SOL    HW127869   1.369   1.542   4.729  0.0279  2.2305 -4.4844
 5470SOL    HW227870   1.503   1.504   4.758 -0.3882 -0.8821  0.6041
 5471SOL     OW27871   3.437   3.136   0.442 -0.1307 -0.1639  0.5002
 5471SOL    HW127872   3.514   3.178   0.481  0.9669 -0.0115 -1.8622
 5471SOL    HW227873   3.485   3.054   0.428  2.5529  1.3854  0.4512
 5472SOL     OW27874   4.114   2.235  11.559  0.1667  0.5717 -0.0593
 5472SOL    HW127875   4.060   2.314  11.555 -1.4786 -0.5886 -0.9665
 5472SOL    HW227876   4.195   2.272  11.524 -0.2026  1.2158 -0.2372
 5473SOL     OW27877   4.057   3.100   9.171 -0.5013 -0.4190 -0.3990
 5473SOL    HW127878   3.962   3.095   9.166 -0.4925  0.6155 -1.7526
 5473SOL    HW227879   4.082   3.008   9.175  2.8069  0.4920 -0.2158
 5474SOL     OW27880   1.427   2.044  12.868 -0.0944 -0.3199 -0.0851
 5474SOL    HW127881   1.369   2.074  12.797 -1.5043  2.2686  2.1728
 5474SOL    HW227882   1.502   2.102  12.854  0.2127 -0.7058 -0.0434
 5475SOL     OW27883   2.423   3.054   4.852 -0.3531 -0.3468  0.4624
 5475SOL    HW127884   2.378   3.060   4.768 -2.0742 -1.2905  1.3090
 5475SOL    HW227885   2.371   3.112   4.908 -0.8250 -2.2418  1.9935
 5476SOL     OW27886   2.854   3.400   7.194  0.7603  0.4190  0.1331
 5476SOL    HW127887   2.793   3.471   7.179 -0.3990 -0.4589  0.7200
 5476SOL    HW227888   2.935   3.445   7.169 -1.2890  3.1368 -1.6069
 5477SOL     OW27889   2.041   4.516   5.433 -0.4023  0.1951 -0.2332
 5477SOL    HW127890   1.967   4.499   5.492 -0.6864 -0.1100 -0.6816
 5477SOL    HW227891   2.115   4.492   5.488  1.4335  1.1916 -2.2733
 5478SOL     OW27892   3.951   0.742   6.628 -0.2480 -0.2405  0.0475
 5478SOL    HW127893   3.909   0.807   6.684  0.0103 -0.1339  0.1158
 5478SOL    HW227894   4.005   0.802   6.576  1.9197  0.0614  2.6665
 5479SOL     OW27895   1.216   3.889  16.310 -0.0321  0.3342  0.4293
 5479SOL    HW127896   1.276   3.879  16.237  0.2675 -0.3347  0.7640
 5479SOL    HW227897   1.266   3.845  16.379  0.0165 -0.5924 -0.2010
 5480SOL     OW27898   3.630   0.986   0.459 -0.0261  0.0306 -0.1724
 5480SOL    HW127899   3.659   0.895   0.464  0.8573  0.2772 -0.7548
 5480SOL    HW227900   3.704   1.022   0.410 -0.5117  0.4931 -0.5750
 5481SOL     OW27901   2.751   2.872  13.204  0.2733 -0.1898  0.4826
 5481SOL    HW127902   2.804   2.793  13.191  1.0131  0.4782 -0.6481
 5481SOL    HW227903   2.797   2.905  13.281  1.4642  1.5357 -0.9353
 5482SOL     OW27904   3.172   0.985  16.266  0.3386 -0.3622  0.4690
 5482SOL    HW127905   3.162   0.907  16.321  1.9340 -1.5319 -0.9238
 5482SOL    HW227906   3.266   1.004  16.266 -0.4046  3.2292  1.3048
 5483SOL     OW27907   4.644   1.007   4.109  0.0110 -0.1860 -0.0241
 5483SOL    HW127908   4.600   0.947   4.049 -1.7314  0.0537  1.0114
 5483SOL    HW227909   0.012   1.004   4.070 -0.0746  1.6309 -0.3568
 5484SOL     OW27910   3.380   1.500  15.967 -0.4504 -0.1096  0.0302
 5484SOL    HW127911   3.284   1.493  15.974 -0.3255 -2.1285 -0.2146
 5484SOL    HW227912   3.390   1.534  15.878 -0.3883 -0.1691  0.0147
 5485SOL     OW27913   4.342   3.630   5.395  0.1084  0.1293 -0.8906
 5485SOL    HW127914   4.398   3.706   5.383 -0.6301  0.9682  0.9988
 5485SOL    HW227915   4.259   3.656   5.355 -1.4202 -1.6781  1.0916
 5486SOL     OW27916   1.501   2.643   7.623  0.5210 -0.1787  0.1420
 5486SOL    HW127917   1.586   2.637   7.667  0.5546  0.8782  0.2303
 5486SOL    HW227918   1.478   2.735   7.633 -2.7405 -0.9199 -0.4060
 5487SOL     OW27919   1.332   1.629   6.450  0.2297 -0.5904  0.1343
 5487SOL    HW127920   1.349   1.721   6.467 -0.8589 -0.5470  0.9620
 5487SOL    HW227921   1.240   1.634   6.424  0.6102  1.1307 -0.8935
 5488SOL     OW27922   0.614   2.257   6.986  0.4349  0.3019  0.1935
 5488SOL    HW127923   0.675   2.201   6.939 -1.1299 -1.2143 -0.0305
 5488SOL    HW227924   0.673   2.321   7.026 -0.7546  1.4458  0.1441
 5489SOL     OW27925   0.419   0.854  12.492  0.0667  0.1299 -0.2858
 5489SOL    HW127926   0.462   0.789  12.549 -0.3399  1.1495  1.2035
 5489SOL    HW227927   0.353   0.881  12.556  0.2594 -1.1419  0.4419
 5490SOL     OW27928   4.600   2.112   4.477  0.3183  0.3444  0.4905
 5490SOL    HW127929   4.614   2.117   4.572  0.1436  2.3550  0.4165
 5490SOL    HW227930   4.533   2.045   4.468 -0.5293  1.4561 -1.5131
 5491SOL     OW27931   1.143   2.336   3.571 -0.0460  0.1407 -0.6845
 5491SOL    HW127932   1.060   2.309   3.610  0.8940 -0.6905  0.7174
 5491SOL    HW227933   1.203   2.264   3.590 -1.1670 -0.2256  1.4961
 5492SOL     OW27934   2.477   4.271  16.307 -0.4034 -0.6405  0.1825
 5492SOL    HW127935   2.401   4.242  16.356 -0.0117  1.7661  2.2109
 5492SOL    HW227936   2.489   4.209  16.235 -0.7582  0.6731 -1.0043
 5493SOL     OW27937   4.471   2.671   1.225 -0.2135  0.3493  0.4159
 5493SOL    HW127938   4.489   2.632   1.311 -0.7576  1.3684  0.9800
 5493SOL    HW227939   4.554   2.712   1.199  0.3834 -0.7118  0.6265
 5494SOL     OW27940   0.135   2.113  11.674  0.5097  0.1206 -0.2186
 5494SOL    HW127941   0.108   2.072  11.592  2.6639 -0.6707 -0.5286
 5494SOL    HW227942   0.124   2.205  11.650  2.5570  0.4700  0.2005
 5495SOL     OW27943   4.665   3.320   6.742  0.0027 -0.2094 -0.4820
 5495SOL    HW127944   4.716   3.301   6.663  3.3573  1.0311  1.3853
 5495SOL    HW227945   0.012   3.338   6.808 -1.5063 -0.2541  1.0351
 5496SOL     OW27946   0.595   4.422   9.249 -0.7955  0.2245 -0.0815
 5496SOL    HW127947   0.590   4.499   9.192  0.8263  0.4008  0.0308
 5496SOL    HW227948   0.512   4.423   9.296 -0.0777  1.7981  1.1407
 5497SOL     OW27949   2.787   4.485  11.054  0.1286 -0.1387 -0.0571
 5497SOL    HW127950   2.819   4.521  11.137 -0.5459  0.0892  0.1016
 5497SOL    HW227951   2.741   4.414  11.098  1.1966 -1.2321 -0.6900
 5498SOL     OW27952   1.720   4.237   7.112 -0.6880 -0.2250  0.3872
 5498SOL    HW127953   1.653   4.169   7.105 -0.9467  0.1039 -0.3089
 5498SOL    HW227954   1.696   4.299   7.044  0.4193  0.9705  1.0917
 5499SOL     OW27955   3.941   4.608   8.193 -0.3346  0.6977 -0.4073
 5499SOL    HW127956   4.010   4.563   8.143 -0.8725 -0.5614 -0.0165
 5499SOL    HW227957   3.869   4.571   8.142  1.6448 -3.2460 -0.3456
 5500SOL     OW27958   2.734   2.956   3.468 -0.1176 -0.6312  0.3135
 5500SOL    HW127959   2.720   3.049   3.449 -0.0382 -0.4712  1.0376
 5500SOL    HW227960   2.740   2.925   3.378  2.6597 -1.5895  0.8413
 5501SOL     OW27961   3.467   0.474  10.459 -0.2212 -0.5063 -0.0595
 5501SOL    HW127962   3.399   0.518  10.407 -0.1116  1.6325  1.6193
 5501SOL    HW227963   3.447   0.380  10.455  1.3608 -0.8760  0.8473
 5502SOL     OW27964   4.275   1.694   3.871 -0.3413 -0.0190 -0.1453
 5502SOL    HW127965   4.235   1.642   3.801  2.9795 -0.2141 -1.8995
 5502SOL    HW227966   4.197   1.717   3.921 -0.9208 -1.7869 -0.2375
 5503SOL     OW27967   3.782   3.117   2.839 -0.0632 -0.1225 -0.5625
 5503SOL    HW127968   3.775   3.199   2.887  1.0821  0.7733 -1.9006
 5503SOL    HW227969   3.856   3.125   2.778 -1.3795  0.9993 -2.0064
 5504SOL     OW27970   4.585   3.830   7.780 -0.6189  0.6590  0.0068
 5504SOL    HW127971   4.495   3.818   7.812 -0.3783 -0.3091  0.3083
 5504SOL    HW227972   4.627   3.872   7.854  0.6891 -0.7141  0.0298
 5505SOL     OW27973   2.351   4.492   2.597  0.1318  0.4727  0.5993
 5505SOL    HW127974   2.394   4.408   2.613  0.3213  0.2042 -1.3274
 5505SOL    HW227975   2.393   4.522   2.516 -0.5621  0.5788  0.2785
 5506SOL     OW27976   1.879   4.546   7.921  0.2235 -0.2290 -0.2838
 5506SOL    HW127977   1.844   4.498   7.996  2.9692 -1.8267 -0.0314
 5506SOL    HW227978   1.809   4.606   7.894 -0.1158 -0.0448  1.0001
 5507SOL     OW27979   2.868   2.605   5.205 -0.0430  0.3069  0.1656
 5507SOL    HW127980   2.837   2.673   5.265 -0.5475  0.1965  0.0358
 5507SOL    HW227981   2.796   2.542   5.213  1.2146 -1.2306 -0.5722
 5508SOL     OW27982   2.410   3.492   5.727 -0.0546 -0.5272 -0.6362
 5508SOL    HW127983   2.459   3.515   5.648  1.0818  0.3674  0.3299
 5508SOL    HW227984   2.320   3.496   5.697 -1.0160 -2.2484  1.9806
 5509SOL     OW27985   3.241   2.431   7.957  0.3339  0.6658 -0.4127
 5509SOL    HW127986   3.302   2.493   7.919  1.2952 -1.1469 -1.8282
 5509SOL    HW227987   3.219   2.464   8.044  2.4510 -0.1911  0.4455
 5510SOL     OW27988   0.396   2.634   3.337 -0.0283 -0.0350 -0.2715
 5510SOL    HW127989   0.473   2.595   3.379 -0.7516 -1.5198 -0.3202
 5510SOL    HW227990   0.428   2.719   3.309  0.0316  0.6163  1.7328
 5511SOL     OW27991   2.027   1.618   6.163  0.0869 -0.0216 -0.3579
 5511SOL    HW127992   1.965   1.657   6.102  0.5440  0.2534 -0.6489
 5511SOL    HW227993   2.049   1.530   6.132  0.5172 -0.8414  2.2784
 5512SOL     OW27994   2.385   2.736   8.039 -0.5022 -0.0617 -1.0213
 5512SOL    HW127995   2.434   2.726   7.958  1.8815 -0.8759  0.4939
 5512SOL    HW227996   2.404   2.826   8.067  3.2084 -0.9958 -0.5580
 5513SOL     OW27997   3.542   2.132   8.081 -0.0833 -1.0055  0.4969
 5513SOL    HW127998   3.546   2.220   8.042 -1.3758 -0.7905  0.8508
 5513SOL    HW227999   3.536   2.158   8.173 -0.1795  0.5137  0.0743
 5514SOL     OW28000   3.971   4.017   3.313 -0.1362 -0.9045  0.0609
 5514SOL    HW128001   4.043   3.980   3.364  1.6544  1.1541 -0.9937
 5514SOL    HW228002   4.019   4.018   3.230  0.4369 -1.2166  0.3894
 5515SOL     OW28003   2.812   1.778  14.723  0.1192  0.2136 -0.5175
 5515SOL    HW128004   2.822   1.780  14.819 -0.8998 -1.1812 -0.3764
 5515SOL    HW228005   2.720   1.799  14.711 -0.3257 -1.5889 -0.2781
 5516SOL     OW28006   1.379   3.541   4.125 -0.0679  0.4400  0.6724
 5516SOL    HW128007   1.451   3.561   4.065 -0.1037  0.5378  0.6630
 5516SOL    HW228008   1.371   3.620   4.178  0.1652 -0.7892  2.5321
 5517SOL     OW28009   1.342   3.844  10.543  0.3077  0.1348 -0.6325
 5517SOL    HW128010   1.405   3.879  10.605 -0.7431 -0.6058  0.8541
 5517SOL    HW228011   1.264   3.893  10.567  0.4435  0.5755 -1.0838
 5518SOL     OW28012   2.523   4.051   9.137 -0.0968 -0.1597 -0.2362
 5518SOL    HW128013   2.574   3.972   9.116 -0.9383 -0.6263 -0.5525
 5518SOL    HW228014   2.520   4.033   9.231 -0.6754 -0.4148 -0.2996
 5519SOL     OW28015   0.380   2.282  11.252  0.5515 -0.0804  0.1493
 5519SOL    HW128016   0.471   2.252  11.258  0.5207 -0.5848 -1.9393
 5519SOL    HW228017   0.349   2.296  11.342  1.9215  2.7609  0.1788
 5520SOL     OW28018   0.945   0.377   3.676  0.0090 -0.0426  0.3845
 5520SOL    HW128019   0.946   0.322   3.598  0.0038 -0.4063  0.6408
 5520SOL    HW228020   0.909   0.464   3.656  0.0731  0.1693  1.1814
 5521SOL     OW28021   4.253   4.156   7.921  0.5699 -0.3606 -0.0439
 5521SOL    HW128022   4.241   4.147   8.016 -2.8620  2.0269 -0.2639
 5521SOL    HW228023   4.186   4.090   7.901  0.1661  0.1406 -0.3443
 5522SOL     OW28024   1.730   4.355   9.289 -0.2441  0.4216 -0.5464
 5522SOL    HW128025   1.803   4.319   9.238  2.4555  4.2473  0.6090
 5522SOL    HW228026   1.661   4.289   9.287  1.2855 -1.1675 -0.9651
 5523SOL     OW28027   1.535   1.247  15.336  0.4962 -0.5983  0.0218
 5523SOL    HW128028   1.469   1.313  15.313 -0.2872 -2.0505 -1.9379
 5523SOL    HW228029   1.559   1.279  15.423  1.7650 -0.5202 -0.3539
 5524SOL     OW28030   0.242   0.744  11.767  0.0755 -0.3603  0.7716
 5524SOL    HW128031   0.285   0.682  11.707 -2.3792 -2.0717  0.7618
 5524SOL    HW228032   0.168   0.688  11.792 -0.3580 -0.7188 -1.2800
 5525SOL     OW28033   1.141   3.635   4.423  0.0688 -0.0225 -0.3212
 5525SOL    HW128034   1.113   3.557   4.471 -0.1088 -0.6690 -1.4679
 5525SOL    HW228035   1.126   3.599   4.335  1.2780 -0.3379 -0.3958
 5526SOL     OW28036   3.071   1.647   7.414  0.2953 -0.1313 -0.3681
 5526SOL    HW128037   3.161   1.647   7.447  0.1884  1.3575 -0.0733
 5526SOL    HW228038   3.030   1.570   7.454  0.1452 -0.8289 -1.8760
 5527SOL     OW28039   1.956   1.409   8.519  0.6767 -0.0620 -0.5345
 5527SOL    HW128040   1.882   1.443   8.469 -0.3293 -0.2191  0.8694
 5527SOL    HW228041   1.913   1.365   8.592  1.9226 -0.4029 -0.0043
 5528SOL     OW28042   3.360   3.330   4.861  0.0223  0.2267  0.4621
 5528SOL    HW128043   3.417   3.292   4.795 -1.0362 -0.8130  0.1549
 5528SOL    HW228044   3.412   3.408   4.883  1.1210 -0.3779 -0.0198
 5529SOL     OW28045   3.707   0.289  11.616  0.1888  0.2051 -0.2576
 5529SOL    HW128046   3.752   0.271  11.534  0.2845  1.0149 -0.3839
 5529SOL    HW228047   3.651   0.364  11.596  1.1423  1.1446  0.5764
 5530SOL     OW28048   1.564   0.201   2.578 -0.2405 -0.5238  0.3794
 5530SOL    HW128049   1.557   0.227   2.670 -2.3482  0.7583 -0.1488
 5530SOL    HW228050   1.632   0.133   2.578  0.0947 -0.1915  1.0789
 5531SOL     OW28051   1.269   3.868  10.199 -0.8350  0.0708 -0.5614
 5531SOL    HW128052   1.234   3.863  10.110  1.7194 -0.2339 -1.5628
 5531SOL    HW228053   1.306   3.956  10.190  0.1019 -0.2885 -0.1950
 5532SOL     OW28054   4.293   1.372   1.554  0.2006  0.6833 -0.8066
 5532SOL    HW128055   4.386   1.351   1.546 -0.3744 -1.9636 -0.6686
 5532SOL    HW228056   4.272   1.325   1.635  1.7476 -0.1236 -0.8660
 5533SOL     OW28057   3.187   2.786   8.320 -0.0925  0.0844 -0.1212
 5533SOL    HW128058   3.186   2.857   8.256 -0.6813  1.5382  1.4931
 5533SOL    HW228059   3.277   2.782   8.352  0.6678 -2.9557 -2.7247
 5534SOL     OW28060   0.463   2.820   2.140 -0.2004 -0.0670  0.5234
 5534SOL    HW128061   0.372   2.843   2.161  0.7884  2.3104  2.2356
 5534SOL    HW228062   0.480   2.759   2.212  2.0645 -1.7791 -1.4863
 5535SOL     OW28063   1.380   2.026   7.224 -0.3333 -0.5022  0.4070
 5535SOL    HW128064   1.404   2.076   7.145 -1.2342 -1.1191 -0.2574
 5535SOL    HW228065   1.460   2.040   7.274  0.6686  1.9463 -1.8203
 5536SOL     OW28066   3.433   4.385   4.216  0.3059  0.8660 -0.2628
 5536SOL    HW128067   3.428   4.291   4.201  1.5769  0.4251  1.9052
 5536SOL    HW228068   3.344   4.417   4.202 -0.1138 -0.0244  0.3593
 5537SOL     OW28069   1.741   3.179  16.421 -0.7037  0.1082  0.4165
 5537SOL    HW128070   1.693   3.245  16.370 -1.1547 -0.7966 -0.3268
 5537SOL    HW228071   1.722   3.107  16.361  0.9905  0.4229 -0.5071
 5538SOL     OW28072   3.657   3.664   3.784  0.1452  0.4770 -0.2994
 5538SOL    HW128073   3.697   3.582   3.811  0.5426  0.4197 -1.0876
 5538SOL    HW228074   3.678   3.730   3.850 -1.0654 -1.0911  1.6506
 5539SOL     OW28075   3.363   3.059   2.851  0.4608 -0.5422 -0.5414
 5539SOL    HW128076   3.399   3.001   2.918  0.1664 -0.7890 -0.5977
 5539SOL    HW228077   3.338   3.000   2.780  2.4838 -1.6997 -0.3085
 5540SOL     OW28078   2.744   3.148   7.140  0.2970  0.4445  0.0128
 5540SOL    HW128079   2.764   3.236   7.170 -2.0744  1.5246 -1.5727
 5540SOL    HW228080   2.809   3.094   7.185  1.9030  1.5223 -1.0409
 5541SOL     OW28081   1.775   2.222   3.771 -0.0791 -0.3037 -0.0632
 5541SOL    HW128082   1.769   2.127   3.766 -0.9744 -0.3131  1.3748
 5541SOL    HW228083   1.720   2.236   3.848  0.1677 -1.8678  0.3892
 5542SOL     OW28084   3.391   1.027   3.518 -0.4622  0.4022  0.0560
 5542SOL    HW128085   3.317   0.972   3.544 -0.3940  0.8382  1.1817
 5542SOL    HW228086   3.375   1.047   3.426 -1.3083 -1.8953 -0.3023
 5543SOL     OW28087   4.259   0.115   3.380  0.1152  0.2810  0.1439
 5543SOL    HW128088   4.251   0.027   3.345  0.8156  0.6363 -0.8962
 5543SOL    HW228089   4.170   0.151   3.368 -0.9356 -2.5145 -0.4149
 5544SOL     OW28090   4.538   3.622   8.038  0.2965 -0.3954 -0.3981
 5544SOL    HW128091   4.633   3.628   8.046  0.3588 -3.3733  0.9672
 5544SOL    HW228092   4.523   3.586   7.951  0.9131 -2.4022  0.3334
 5545SOL     OW28093   2.970   1.683   3.903  0.4679 -0.3036  0.3789
 5545SOL    HW128094   3.063   1.663   3.899  0.7410  1.1572 -0.7675
 5545SOL    HW228095   2.966   1.769   3.861  0.5566 -0.7701 -0.5817
 5546SOL     OW28096   0.871   2.528   6.326  0.0377 -0.0617  0.1555
 5546SOL    HW128097   0.900   2.491   6.243 -1.0963 -1.5534  0.4223
 5546SOL    HW228098   0.875   2.622   6.311  0.8372 -0.1437 -0.1527
 5547SOL     OW28099   1.177   0.316  11.670 -0.1098 -0.6881 -0.5022
 5547SOL    HW128100   1.259   0.273  11.695  1.1959  1.3709 -1.2117
 5547SOL    HW228101   1.154   0.260  11.596 -0.6715 -0.4124 -0.5376
 5548SOL     OW28102   2.716   1.138  16.735  0.6372  0.0514  0.6979
 5548SOL    HW128103   2.665   1.220  16.732 -2.7756 -2.0933  0.5459
 5548SOL    HW228104   2.800   1.171  16.704  0.1185  0.2695 -0.4865
 5549SOL     OW28105   0.393   3.961  16.767 -0.1682 -0.3970  0.7761
 5549SOL    HW128106   0.444   3.997  16.840  0.3608 -2.1888  1.2950
 5549SOL    HW228107   0.436   4.003  16.693 -2.1025 -1.2877 -0.8674
 5550SOL     OW28108   0.696   0.531   7.677 -0.1456 -0.3409  0.4177
 5550SOL    HW128109   0.658   0.616   7.656  1.3027  0.0007 -0.8794
 5550SOL    HW228110   0.769   0.525   7.615 -0.7333 -1.2921 -0.1641
 5551SOL     OW28111   1.056   3.148   7.933 -0.4180 -0.5280  0.2369
 5551SOL    HW128112   0.976   3.111   7.969 -1.2555  0.2126 -0.8781
 5551SOL    HW228113   1.128   3.101   7.975 -0.6502 -0.0083  1.2347
 5552SOL     OW28114   3.175   1.374   3.082  0.3206 -0.2601 -0.0127
 5552SOL    HW128115   3.200   1.375   3.174  0.3219  0.3199 -0.0179
 5552SOL    HW228116   3.252   1.334   3.042  1.2045 -0.9098  2.3341
 5553SOL     OW28117   3.122   4.563   9.504 -0.5465  0.0350 -0.3474
 5553SOL    HW128118   3.029   4.545   9.487 -0.8492 -1.5009  2.8739
 5553SOL    HW228119   3.121   4.653   9.538  1.9064 -0.2715  0.5080
 5554SOL     OW28120   0.634   3.468   4.144 -0.5114 -0.1749 -0.1319
 5554SOL    HW128121   0.672   3.459   4.056  1.6241  0.8609  0.6986
 5554SOL    HW228122   0.706   3.420   4.184 -1.3810 -0.2198  1.3612
 5555SOL     OW28123   2.330   1.945   7.710 -0.8673 -0.1695  0.3996
 5555SOL    HW128124   2.317   1.856   7.742  0.4920 -0.1171  1.0988
 5555SOL    HW228125   2.392   1.977   7.776 -0.3688  0.2742 -0.2883
 5556SOL     OW28126   4.225   2.716   6.527 -1.0708  0.0568 -0.5003
 5556SOL    HW128127   4.240   2.689   6.436 -0.6877 -0.7753 -0.1859
 5556SOL    HW228128   4.281   2.793   6.538  0.9660 -1.0982 -2.7708
 5557SOL     OW28129   3.251   0.176   7.622 -0.2610 -0.1412  0.4903
 5557SOL    HW128130   3.208   0.248   7.575  1.4317  0.4474 -0.1553
 5557SOL    HW228131   3.173   0.138   7.663 -1.1348 -0.5572 -1.5516
 5558SOL     OW28132   0.205   3.490   8.349  0.0341  0.3252 -0.0465
 5558SOL    HW128133   0.123   3.454   8.316 -0.1670  0.5308  0.2159
 5558SOL    HW228134   0.202   3.576   8.306 -1.8720 -0.2851 -1.0920
 5559SOL     OW28135   1.322   3.069  15.958 -0.2259 -0.4260 -0.2292
 5559SOL    HW128136   1.236   3.028  15.967 -0.3261 -0.6726 -2.3948
 5559SOL    HW228137   1.368   3.002  15.908  2.4247  3.0998 -2.5029
 5560SOL     OW28138   2.736   1.262   5.975 -0.0203  0.5410 -0.9734
 5560SOL    HW128139   2.794   1.268   5.899 -0.3152  0.5742 -1.1981
 5560SOL    HW228140   2.650   1.269   5.933  0.0589  2.8696 -0.7437
 5561SOL     OW28141   0.397   2.330   6.872  0.4938 -0.3233 -0.2421
 5561SOL    HW128142   0.480   2.296   6.906  0.5068 -0.1227 -0.0649
 5561SOL    HW228143   0.398   2.408   6.929 -0.6719  0.3599 -1.1548
 5562SOL     OW28144   2.006   3.721   0.988 -0.0835 -0.6772  0.0939
 5562SOL    HW128145   1.951   3.669   1.046  2.6490 -1.4622  2.0177
 5562SOL    HW228146   1.959   3.801   1.013  1.3054  0.0639  0.3531
 5563SOL     OW28147   1.068   0.726   6.945 -0.3845 -0.0928 -0.2266
 5563SOL    HW128148   1.061   0.653   7.007  2.3001  0.0489  0.2777
 5563SOL    HW228149   1.117   0.689   6.872  0.6164  1.8639 -0.5400
 5564SOL     OW28150   1.053   0.324   8.377  0.1006 -0.4673 -0.1897
 5564SOL    HW128151   0.962   0.338   8.401  0.4520 -0.3101  1.0153
 5564SOL    HW228152   1.095   0.378   8.443 -0.6292  1.3889 -1.2449
 5565SOL     OW28153   0.494   3.002   7.039  0.2367  0.3342  0.2645
 5565SOL    HW128154   0.518   2.915   7.008 -0.6388 -0.4377  1.7139
 5565SOL    HW228155   0.451   2.972   7.120  0.8005  3.8601  1.9066
 5566SOL     OW28156   1.250   4.265  12.773  0.3187 -0.4368  0.1542
 5566SOL    HW128157   1.317   4.201  12.746 -0.8203 -2.3606  1.8748
 5566SOL    HW228158   1.233   4.306  12.688 -2.0095 -0.3800  0.6568
 5567SOL     OW28159   3.746   2.272   1.078 -0.3652  0.6933  0.8189
 5567SOL    HW128160   3.719   2.352   1.033  1.4986 -0.1766 -1.8112
 5567SOL    HW228161   3.675   2.273   1.142 -1.2965 -0.5727 -0.1978
 5568SOL     OW28162   1.593   3.292   3.897  0.0686  0.4041  0.1984
 5568SOL    HW128163   1.688   3.289   3.903 -0.0441  0.1315  1.8594
 5568SOL    HW228164   1.569   3.383   3.910 -1.3012 -0.0014  0.5251
 5569SOL     OW28165   2.115   2.417  12.066  0.0820  0.2261  0.1348
 5569SOL    HW128166   2.078   2.351  12.007  2.7360 -1.8177  0.7614
 5569SOL    HW228167   2.178   2.372  12.122  1.3058  1.2342 -0.4180
 5570SOL     OW28168   1.199   0.826   8.185 -0.5360  0.0367  0.0555
 5570SOL    HW128169   1.269   0.811   8.121 -0.0915  0.3451  0.4722
 5570SOL    HW228170   1.213   0.747   8.238  0.0392 -0.1511 -0.3778
 5571SOL     OW28171   0.235   3.993   3.521  0.0133  0.2073 -0.3805
 5571SOL    HW128172   0.207   4.002   3.612 -0.5838 -2.3255 -0.3226
 5571SOL    HW228173   0.255   4.083   3.495 -0.8822  0.6781  0.5390
 5572SOL     OW28174   0.268   2.957  14.907  0.2182 -0.3423  0.0504
 5572SOL    HW128175   0.296   2.888  14.847 -0.1631 -0.9632  0.5894
 5572SOL    HW228176   0.324   3.022  14.863  1.5597 -1.0493  0.7385
 5573SOL     OW28177   2.552   1.993   7.402 -0.2308 -0.6094  0.0839
 5573SOL    HW128178   2.539   1.973   7.309  3.5254  0.2124 -0.6161
 5573SOL    HW228179   2.636   2.037   7.391 -0.7996  0.2303 -0.9384
 5574SOL     OW28180   1.456   4.370   5.230 -0.8588  0.1302 -0.0723
 5574SOL    HW128181   1.540   4.335   5.200 -1.0565  0.6200 -1.2133
 5574SOL    HW228182   1.425   4.287   5.265  2.2910 -0.3831  1.5064
 5575SOL     OW28183   0.310   2.662   2.594 -0.0293  0.1135  0.6032
 5575SOL    HW128184   0.362   2.724   2.644  2.6398  0.1873 -2.2535
 5575SOL    HW228185   0.224   2.704   2.593 -0.0988 -0.0444 -1.4876
 5576SOL     OW28186   2.963   2.330   7.750  0.6064  0.1322  0.6919
 5576SOL    HW128187   2.912   2.387   7.693  0.5720 -1.2833 -0.6923
 5576SOL    HW228188   2.996   2.268   7.685  1.8825  1.6988 -0.1303
 5577SOL     OW28189   0.188   0.279   6.848  0.3709  0.5846 -0.1680
 5577SOL    HW128190   0.096   0.256   6.864  1.1625 -2.2649  0.3343
 5577SOL    HW228191   0.231   0.277   6.934  1.0547 -0.1789 -0.5246
 5578SOL     OW28192   2.028   1.318  17.355  0.1930 -0.1146 -0.1529
 5578SOL    HW128193   1.980   1.285  17.279  1.4733 -1.6582 -0.2950
 5578SOL    HW228194   2.111   1.271  17.353  1.3570  1.9481 -0.3772
 5579SOL     OW28195   2.081   3.840   3.278  0.6468 -0.0447 -0.3620
 5579SOL    HW128196   2.042   3.883   3.202  1.9338  1.5858 -0.1149
 5579SOL    HW228197   2.172   3.868   3.279 -0.9070  4.9696  1.2283
 5580SOL     OW28198   3.849   2.467   3.382  0.0822  0.1729  0.2280
 5580SOL    HW128199   3.944   2.464   3.392 -0.1106  2.6123  2.7786
 5580SOL    HW228200   3.817   2.515   3.458  0.6972  1.7768 -0.5336
 5581SOL     OW28201   0.021   2.731  11.915  0.8325 -0.4186 -0.5365
 5581SOL    HW128202   4.662   2.677  11.922  0.6960 -0.1262  0.1817
 5581SOL    HW228203   4.716   2.812  11.960 -0.3647 -1.7073  1.1587
 5582SOL     OW28204   3.671   3.825   7.138  0.3095 -0.0964 -0.4118
 5582SOL    HW128205   3.757   3.859   7.163  1.6254 -2.2484 -2.0266
 5582SOL    HW228206   3.643   3.784   7.221 -1.4522  2.0482  0.0590
 5583SOL     OW28207   1.514   0.303  16.861 -0.2207  0.3623 -0.1962
 5583SOL    HW128208   1.476   0.256  16.787  2.8389  0.2401 -1.6720
 5583SOL    HW228209   1.474   0.388  16.847  2.3554  1.3579 -1.4857
 5584SOL     OW28210   4.668   1.970   2.388  0.6362  0.1495  0.6310
 5584SOL    HW128211   0.034   1.941   2.420  0.5582 -2.1814 -1.2085
 5584SOL    HW228212   4.618   1.892   2.414 -0.0636 -0.2950 -2.0397
 5585SOL     OW28213   0.819   0.340   6.349  0.3451  0.2219 -0.7249
 5585SOL    HW128214   0.880   0.339   6.275  0.3577  0.0826 -0.7113
 5585SOL    HW228215   0.877   0.368   6.420  1.5033 -0.9952 -1.2054
 5586SOL     OW28216   0.799   3.003   5.258 -0.0071 -0.0948 -0.2691
 5586SOL    HW128217   0.715   3.040   5.231 -0.6817 -1.4464 -0.0262
 5586SOL    HW228218   0.866   3.070   5.243 -1.0239  1.6881  3.3298
 5587SOL     OW28219   2.978   0.175   3.589  0.8954  0.1605  0.0302
 5587SOL    HW128220   3.072   0.167   3.573  0.8474 -2.0585  0.8757
 5587SOL    HW228221   2.970   0.098   3.645  0.8005 -0.2787 -0.5980
 5588SOL     OW28222   3.113   3.448   0.493 -0.5775  0.5977 -0.1567
 5588SOL    HW128223   3.191   3.463   0.440 -0.4450 -2.4054 -0.8399
 5588SOL    HW228224   3.146   3.482   0.575 -1.3725  1.5953 -0.2618
 5589SOL     OW28225   2.393   0.561   5.238  0.4653  0.8248  0.3132
 5589SOL    HW128226   2.477   0.596   5.208  1.0618 -1.4544 -0.5981
 5589SOL    HW228227   2.333   0.636   5.238 -1.7208 -0.9163  0.1881
 5590SOL     OW28228   0.471   0.923   1.039  0.0760  0.9232 -0.2965
 5590SOL    HW128229   0.378   0.924   1.062  0.6637  1.6409  2.0736
 5590SOL    HW228230   0.464   0.897   0.947 -0.9676  0.8588 -0.1959
 5591SOL     OW28231   0.049   2.445   4.899  0.2212  0.2663  0.0589
 5591SOL    HW128232   0.078   2.535   4.912 -1.0832  0.5259  1.1872
 5591SOL    HW228233   0.092   2.407   4.975 -1.2169 -1.7608 -0.1197
 5592SOL     OW28234   3.731   0.049   3.831  0.3496 -0.2455  0.3492
 5592SOL    HW128235   3.669   0.100   3.778  0.5138 -0.5966 -0.1687
 5592SOL    HW228236   3.808   0.100   3.809  0.1157 -0.1884 -0.3220
 5593SOL     OW28237   2.960   0.317   8.917 -0.0923 -0.3698  0.5101
 5593SOL    HW128238   2.939   0.274   9.000  0.2573  0.4388  1.0172
 5593SOL    HW228239   2.966   0.249   8.850  3.7730 -1.3015  1.7702
 5594SOL     OW28240   4.052   0.242   1.570  0.2713 -0.1636  0.3033
 5594SOL    HW128241   4.115   0.170   1.570  1.2461  0.6989 -2.3513
 5594SOL    HW228242   3.969   0.205   1.599  0.6042 -0.9429  0.2464
 5595SOL     OW28243   2.151   3.828   2.013  0.5839 -0.3189  0.2610
 5595SOL    HW128244   2.163   3.917   1.979 -0.9419 -0.4981 -0.7378
 5595SOL    HW228245   2.189   3.775   1.943 -1.7728 -1.5465 -0.0922
 5596SOL     OW28246   1.437   3.650  12.445  0.7322 -0.1429  0.0558
 5596SOL    HW128247   1.484   3.586  12.499  2.9247  0.0126 -1.7160
 5596SOL    HW228248   1.467   3.627  12.357 -1.1459 -2.8012  0.1058
 5597SOL     OW28249   4.318   2.979   5.512 -0.3753  0.1511 -0.1326
 5597SOL    HW128250   4.229   2.970   5.479 -0.2342  1.6042 -0.9033
 5597SOL    HW228251   4.326   2.914   5.582 -1.8905 -0.1325 -0.2132
 5598SOL     OW28252   4.708   1.456  14.673 -0.0281  0.8219  0.9560
 5598SOL    HW128253   4.657   1.402  14.735  0.4895 -1.2337 -0.4091
 5598SOL    HW228254   0.072   1.413  14.690 -0.0421  1.3236  2.3042
 5599SOL     OW28255   3.010   1.017   4.560  0.7506 -0.0904  0.2334
 5599SOL    HW128256   3.082   0.960   4.585  2.8963  1.7341 -1.7959
 5599SOL    HW228257   2.997   1.084   4.628  1.1538  0.4311 -0.2091
 5600SOL     OW28258   4.155   3.511   6.148 -0.3939  0.4144  0.3534
 5600SOL    HW128259   4.176   3.469   6.232  0.3748  0.7693  0.3366
 5600SOL    HW228260   4.236   3.559   6.134  0.8358 -1.7044  0.1940
 5601SOL     OW28261   4.657   0.607   1.532  0.2137 -0.2030 -0.3864
 5601SOL    HW128262   4.601   0.544   1.576 -1.9784  0.1381 -2.6707
 5601SOL    HW228263   4.713   0.631   1.605  0.1865  0.8419 -0.7046
 5602SOL     OW28264   2.192   1.905   4.697 -0.2478 -0.1751  0.2713
 5602SOL    HW128265   2.234   1.847   4.761  1.5957  0.0894 -0.6894
 5602SOL    HW228266   2.271   1.945   4.659 -0.3017  0.7281  1.1223
 5603SOL     OW28267   0.698   4.622  11.806 -0.3361  1.0167  0.1347
 5603SOL    HW128268   0.648   4.544  11.786  0.5992  0.1540  1.1400
 5603SOL    HW228269   0.784   4.585  11.787 -0.1950  1.9675 -1.1165
 5604SOL     OW28270   2.419   1.455   7.142 -0.0329 -0.3538 -0.3530
 5604SOL    HW128271   2.444   1.537   7.099 -0.2904 -0.2624 -0.3243
 5604SOL    HW228272   2.424   1.400   7.064 -0.3951 -2.5630  1.1765
 5605SOL     OW28273   1.183   1.091   6.131  0.2799 -0.4639  0.0321
 5605SOL    HW128274   1.263   1.122   6.172  1.3030  0.4311 -2.6040
 5605SOL    HW228275   1.210   1.002   6.109  1.0433  0.3957 -2.6267
 5606SOL     OW28276   0.771   3.830   6.500  0.6487 -0.6939  0.2534
 5606SOL    HW128277   0.861   3.807   6.520  1.4635  3.6104  1.5040
 5606SOL    HW228278   0.769   3.908   6.555  0.2379  0.5644 -1.5420
 5607SOL     OW28279   4.373   4.333   8.820 -0.0778 -0.1580 -0.4721
 5607SOL    HW128280   4.347   4.269   8.886 -0.3562 -1.3609 -1.7486
 5607SOL    HW228281   4.340   4.418   8.848  0.9761 -0.6809  2.3102
 5608SOL     OW28282   3.675   0.014   8.056 -0.0275 -0.1978  0.0770
 5608SOL    HW128283   3.753   0.069   8.044 -0.2674  0.2070  0.4024
 5608SOL    HW228284   3.659   0.058   8.139  0.2470  0.5114 -0.2390
 5609SOL     OW28285   4.701   3.237   2.907  0.1320  0.1683  0.0408
 5609SOL    HW128286   0.077   3.234   2.909  0.0920 -0.5449  1.2213
 5609SOL    HW228287   4.687   3.258   2.815  0.0234 -1.4872 -0.3261
 5610SOL     OW28288   1.333   3.992  13.446  0.2008 -0.1491  0.3655
 5610SOL    HW128289   1.348   4.086  13.456 -0.2161 -0.1896  1.3523
 5610SOL    HW228290   1.389   3.954  13.514  1.5016  0.8103 -0.1671
 5611SOL     OW28291   0.282   4.055   9.294 -0.9817  0.1756  0.4809
 5611SOL    HW128292   0.369   4.024   9.317 -0.7397  0.8000  0.3897
 5611SOL    HW228293   0.271   4.015   9.208  0.7744  0.7656 -0.0036
 5612SOL     OW28294   1.750   1.755   8.353  0.8444  0.5522 -0.2512
 5612SOL    HW128295   1.660   1.772   8.327 -0.8531 -1.5682  4.3153
 5612SOL    HW228296   1.748   1.659   8.349  1.2665  0.5018  0.8291
 5613SOL     OW28297   1.040   0.496  13.562  0.3452  0.1706 -0.2184
 5613SOL    HW128298   1.029   0.477  13.655 -0.1943  0.1985 -0.2762
 5613SOL    HW228299   1.061   0.588  13.577  2.0764  0.0447 -1.8101
 5614SOL     OW28300   1.415   0.802  17.086  0.3797  0.1953  0.5410
 5614SOL    HW128301   1.402   0.891  17.052  0.2456  0.7337  1.9655
 5614SOL    HW228302   1.361   0.813  17.165 -1.6526 -2.8220 -0.4457
 5615SOL     OW28303   0.858   1.171   1.126 -0.3337  0.1242 -0.2352
 5615SOL    HW128304   0.841   1.148   1.035  1.0239 -2.2152  0.1134
 5615SOL    HW228305   0.771   1.151   1.161  0.1881 -0.6067  0.6475
 5616SOL     OW28306   4.284   0.804   6.130 -0.1698  0.1899  0.0130
 5616SOL    HW128307   4.333   0.886   6.127 -0.6576  0.4784 -0.0854
 5616SOL    HW228308   4.203   0.843   6.095 -0.4854 -0.5181 -0.0547
 5617SOL     OW28309   3.891   0.884   4.881 -0.2213 -0.4359  0.5817
 5617SOL    HW128310   3.952   0.862   4.951  1.4069 -2.1084 -1.3750
 5617SOL    HW228311   3.934   0.947   4.822  0.8314 -1.5049  0.1940
 5618SOL     OW28312   0.287   2.327   9.102  0.2408 -0.4274  0.3899
 5618SOL    HW128313   0.258   2.316   9.193  1.2444 -0.8445  0.6688
 5618SOL    HW228314   0.210   2.317   9.046  1.7473 -2.4678 -1.3253
 5619SOL     OW28315   4.059   4.362  15.632 -0.3240  0.6498  0.0058
 5619SOL    HW128316   3.996   4.397  15.695 -0.0193  0.7851  0.2339
 5619SOL    HW228317   4.011   4.289  15.593  3.3303 -0.7313 -1.8604
 5620SOL     OW28318   0.876   3.886   6.065 -0.3977 -0.1871 -0.0863
 5620SOL    HW128319   0.939   3.934   6.118 -1.4811  1.3482 -0.1793
 5620SOL    HW228320   0.793   3.904   6.109  1.9752  5.0526  2.1630
 5621SOL     OW28321   1.558   0.028  12.292  0.3993 -0.2401  0.2010
 5621SOL    HW128322   1.479   0.000  12.339 -0.0482  0.2159 -0.2774
 5621SOL    HW228323   1.573   4.675  12.232  3.3300  1.4244 -1.0816
 5622SOL     OW28324   4.314   4.645   6.669 -0.1104  0.0940 -0.3948
 5622SOL    HW128325   4.388   4.597   6.706 -1.0101  0.0666  1.3520
 5622SOL    HW228326   4.286   4.583   6.602  1.1752  0.0803 -0.9193
 5623SOL     OW28327   3.723   3.616   4.483 -0.3668  0.3234 -0.3740
 5623SOL    HW128328   3.813   3.632   4.456  0.3099 -1.9634  0.4921
 5623SOL    HW228329   3.702   3.706   4.506 -1.1480 -0.5655  2.5313
 5624SOL     OW28330   3.627   3.337   4.364  0.1784  0.4801 -0.0875
 5624SOL    HW128331   3.645   3.299   4.278 -3.1916  3.0592 -1.9202
 5624SOL    HW228332   3.573   3.412   4.340 -1.6019 -0.1593  1.8910
 5625SOL     OW28333   2.943   2.638   0.350 -0.0993 -0.0144 -0.2019
 5625SOL    HW128334   2.929   2.682   0.433 -0.7191  1.1948 -0.9485
 5625SOL    HW228335   3.029   2.599   0.366  0.0093 -0.4375 -1.7632
 5626SOL     OW28336   2.302   0.812   5.254  0.1917  0.1381 -0.6184
 5626SOL    HW128337   2.254   0.867   5.193 -0.6192  0.4365  0.2884
 5626SOL    HW228338   2.378   0.869   5.270 -0.2550  0.2514  1.1176
 5627SOL     OW28339   1.903   1.497   3.710 -0.9560 -0.3856 -0.0484
 5627SOL    HW128340   1.915   1.545   3.628 -1.4117  0.3822  0.3296
 5627SOL    HW228341   1.968   1.428   3.698 -0.6771  0.0301 -0.8849
 5628SOL     OW28342   3.330   4.393   6.774  0.7185 -0.1180 -0.0613
 5628SOL    HW128343   3.361   4.315   6.728  2.6757 -0.1978  1.4098
 5628SOL    HW228344   3.267   4.356   6.836  1.7794  3.6102  3.1413
 5629SOL     OW28345   1.544   1.231   9.178  0.3162 -0.0198  0.0919
 5629SOL    HW128346   1.587   1.147   9.169  0.1172  0.0844 -1.8926
 5629SOL    HW228347   1.469   1.202   9.230 -0.0233  0.0061 -0.3783
 5630SOL     OW28348   3.919   3.068  17.676  0.1788 -0.0415  0.3012
 5630SOL    HW128349   3.924   2.988  17.624  0.5544 -0.3676  0.8432
 5630SOL    HW228350   3.874   3.124  17.612 -2.0630 -1.5560  0.5703
 5631SOL     OW28351   0.848   3.405   8.426  0.1818  0.5968  0.2611
 5631SOL    HW128352   0.821   3.313   8.430 -2.3390  1.3347  0.6192
 5631SOL    HW228353   0.899   3.415   8.346 -0.7281 -0.1398 -0.4237
 5632SOL     OW28354   4.014   2.553   6.126  0.3492  0.2192 -0.0214
 5632SOL    HW128355   3.976   2.526   6.042  1.0819 -0.0720 -0.2599
 5632SOL    HW228356   4.026   2.647   6.119 -2.7277  0.5271 -1.0595
 5633SOL     OW28357   3.887   3.681   6.700 -0.6468 -1.2689 -0.6209
 5633SOL    HW128358   3.839   3.728   6.632  0.5497 -0.1195 -0.6766
 5633SOL    HW228359   3.826   3.607   6.706 -0.4245 -1.3484  0.6494
 5634SOL     OW28360   4.217   2.300   2.761  0.2868 -0.7061 -0.6017
 5634SOL    HW128361   4.269   2.221   2.775 -0.7542 -1.0621  1.1475
 5634SOL    HW228362   4.280   2.351   2.710 -0.7979  1.6892  0.4645
 5635SOL     OW28363   1.420   1.804   5.401 -0.0679  0.0785 -0.0408
 5635SOL    HW128364   1.342   1.779   5.450 -1.0017 -0.6120 -1.8765
 5635SOL    HW228365   1.445   1.885   5.446  0.0175 -0.2656  0.5317
 5636SOL     OW28366   3.982   0.498   3.903 -0.0118  0.0607 -0.4363
 5636SOL    HW128367   3.895   0.536   3.904 -0.1522 -0.2452 -0.8261
 5636SOL    HW228368   4.026   0.519   3.820  1.9956  0.6073  0.7502
 5637SOL     OW28369   3.956   0.006   5.765 -0.0237 -0.2018  0.5365
 5637SOL    HW128370   4.022   0.043   5.823  1.2977 -0.8940 -0.5363
 5637SOL    HW228371   3.913   4.670   5.829 -0.6901 -2.5388 -1.9319
 5638SOL     OW28372   0.421   2.575  12.334 -0.2719 -0.2169 -0.2410
 5638SOL    HW128373   0.330   2.585  12.362 -1.6365  0.3714 -4.8734
 5638SOL    HW228374   0.461   2.635  12.398 -0.7152  0.3373 -0.4779
 5639SOL     OW28375   0.537   2.512   5.631 -0.5323  0.4961  0.3066
 5639SOL    HW128376   0.445   2.532   5.609 -0.2241  0.1719 -1.3044
 5639SOL    HW228377   0.589   2.534   5.554 -1.0788 -1.5238 -0.6442
 5640SOL     OW28378   4.689   0.108  12.863  0.4537  0.3464 -0.3407
 5640SOL    HW128379   4.686   0.105  12.958  0.5178  0.1545 -0.3464
 5640SOL    HW228380   0.023   0.187  12.855  1.4501 -0.2498  0.6065
 5641SOL     OW28381   1.684   3.876  11.749 -0.0596 -0.4025  0.2439
 5641SOL    HW128382   1.714   3.790  11.778  2.4182 -0.1640 -1.6093
 5641SOL    HW228383   1.686   3.861  11.654 -0.6537  0.7937  0.0327
 5642SOL     OW28384   1.802   0.792   6.496 -0.7562  0.2221 -0.0858
 5642SOL    HW128385   1.894   0.781   6.521 -1.3513 -0.7431  1.6821
 5642SOL    HW228386   1.789   0.882   6.465  1.1282 -0.2028 -2.0954
 5643SOL     OW28387   0.979   3.410  17.001 -0.0570  0.2659 -0.0330
 5643SOL    HW128388   0.987   3.465  16.923  2.2222 -0.1527 -0.0971
 5643SOL    HW228389   0.885   3.391  17.000  0.1849 -1.0292  1.9881
 5644SOL     OW28390   2.816   0.009   2.425 -0.4862  0.1396  0.1831
 5644SOL    HW128391   2.863   4.701   2.346 -1.6724 -1.2874 -0.0209
 5644SOL    HW228392   2.880   4.690   2.485 -1.6390 -1.8485  0.1456
 5645SOL     OW28393   4.364   2.495  15.235  0.2388  1.1499 -0.5651
 5645SOL    HW128394   4.304   2.429  15.200  1.4516 -0.2164 -0.0390
 5645SOL    HW228395   4.418   2.449  15.299  0.4690  0.6283 -1.1367
 5646SOL     OW28396   1.578   3.420   9.871 -0.1122 -0.0226 -0.2484
 5646SOL    HW128397   1.511   3.425   9.938  2.0130  2.2028  1.6924
 5646SOL    HW228398   1.613   3.331   9.884 -0.1352  0.1878  1.1798
 5647SOL     OW28399   1.003   0.427  16.905 -0.2284 -0.1309 -0.2270
 5647SOL    HW128400   0.946   0.359  16.939 -0.4706 -0.8076 -1.9777
 5647SOL    HW228401   1.063   0.439  16.978  0.9505  1.5907 -1.4674
 5648SOL     OW28402   1.245   2.020   4.053 -0.1362  0.0443 -0.1486
 5648SOL    HW128403   1.222   1.953   3.988  0.3287 -0.2968  0.0370
 5648SOL    HW228404   1.170   2.080   4.047 -0.3827 -0.0602  2.0832
 5649SOL     OW28405   1.063   3.176   9.130  0.1468 -0.3872  0.7563
 5649SOL    HW128406   1.101   3.106   9.076  1.5069  1.3200 -0.5260
 5649SOL    HW228407   0.987   3.140   9.175 -1.5295  1.1959 -0.8028
 5650SOL     OW28408   0.542   2.881   5.708  0.2215 -0.7813 -0.3236
 5650SOL    HW128409   0.590   2.925   5.638  3.1661 -4.0450 -0.3413
 5650SOL    HW228410   0.591   2.902   5.788  1.3456  0.3765 -1.3331
 5651SOL     OW28411   3.531   0.550   5.405 -0.0027 -0.2481  0.2585
 5651SOL    HW128412   3.492   0.596   5.331 -1.1805 -2.5238 -0.5205
 5651SOL    HW228413   3.455   0.566   5.460 -0.8601  1.8264 -1.5380
 5652SOL     OW28414   4.187   3.788   7.151 -0.1017  0.3951  0.0077
 5652SOL    HW128415   4.217   3.854   7.088 -0.2673 -0.7136 -1.2529
 5652SOL    HW228416   4.221   3.813   7.237 -1.4211 -0.1578  0.6860
 5653SOL     OW28417   0.299   4.709   2.356  0.2629  0.4126  0.2418
 5653SOL    HW128418   0.298   4.694   2.451 -1.0096 -0.2347  0.1279
 5653SOL    HW228419   0.343   0.075   2.357  0.6985  0.1698  3.1155
 5654SOL     OW28420   3.061   1.658   5.071 -0.1714 -0.4647 -0.0388
 5654SOL    HW128421   2.993   1.591   5.067 -0.9846  0.4190 -0.9791
 5654SOL    HW228422   3.139   1.614   5.105  0.6597 -0.7491 -2.3024
 5655SOL     OW28423   1.502   3.051  12.171 -0.9643 -0.1982  0.0996
 5655SOL    HW128424   1.518   3.043  12.265 -1.3302 -2.2159 -0.0150
 5655SOL    HW228425   1.499   2.960  12.143 -0.0961 -0.3298  0.4380
 5656SOL     OW28426   2.234   2.180  10.141  0.1430  0.9860  0.0780
 5656SOL    HW128427   2.308   2.223  10.098  0.9389  0.0202  0.5128
 5656SOL    HW228428   2.184   2.156  10.063 -0.5923 -1.1391  1.2119
 5657SOL     OW28429   1.829   4.155   2.463 -0.2430  0.1270  0.3369
 5657SOL    HW128430   1.844   4.081   2.522  1.3152  0.9778  1.0125
 5657SOL    HW228431   1.863   4.111   2.385  0.4024  1.1819  0.0173
 5658SOL     OW28432   4.554   1.495   4.375  0.6530  0.5376 -0.2026
 5658SOL    HW128433   4.593   1.566   4.324  0.0789  0.1849 -1.1206
 5658SOL    HW228434   4.602   1.513   4.457  1.5436  0.7407 -0.7693
 5659SOL     OW28435   3.431   3.617   0.889  0.1302 -0.5633 -0.4253
 5659SOL    HW128436   3.511   3.566   0.904 -0.8466 -1.7086  0.8416
 5659SOL    HW228437   3.453   3.673   0.815 -2.0595  0.3494 -0.3885
 5660SOL     OW28438   1.837   0.905   4.752  0.2705 -0.8873 -0.0545
 5660SOL    HW128439   1.933   0.907   4.756  0.2127  2.3817 -0.2678
 5660SOL    HW228440   1.802   0.840   4.814 -3.1294  0.7125 -0.2887
 5661SOL     OW28441   0.027   3.674   1.905  0.6568  0.1916  0.1427
 5661SOL    HW128442   4.660   3.633   1.898  0.6995 -0.2395  2.0436
 5661SOL    HW228443   0.009   3.768   1.906  1.8098  0.4236 -0.5625
 5662SOL     OW28444   1.474   0.121  11.974  0.1888  0.6075  0.0431
 5662SOL    HW128445   1.522   0.044  11.943 -0.3216  1.1935 -2.2490
 5662SOL    HW228446   1.439   0.143  11.888 -0.2190  0.1120  0.0776
 5663SOL     OW28447   2.571   1.131   3.092  0.4235  0.5827  0.1781
 5663SOL    HW128448   2.556   1.045   3.053 -1.8850  1.2052 -0.3200
 5663SOL    HW228449   2.664   1.120   3.110  0.4827  0.2867 -0.3340
 5664SOL     OW28450   1.371   4.034   3.851 -0.2719  0.4892 -0.6454
 5664SOL    HW128451   1.397   4.057   3.761  0.8137 -1.1500 -0.7377
 5664SOL    HW228452   1.294   3.979   3.836  0.9418 -1.3027 -0.2101
 5665SOL     OW28453   1.413   1.450   3.345 -0.7362  0.6077 -0.5581
 5665SOL    HW128454   1.479   1.392   3.307 -1.3826 -0.5272  0.0505
 5665SOL    HW228455   1.443   1.454   3.436 -1.2046 -2.3593 -0.2502
 5666SOL     OW28456   3.737   3.788   2.740 -0.5329  0.3361 -0.5127
 5666SOL    HW128457   3.698   3.765   2.656  1.0395 -0.6445 -0.9699
 5666SOL    HW228458   3.694   3.874   2.744  0.4385  0.7626  0.9099
 5667SOL     OW28459   3.232   0.889   7.748  0.5141 -0.0521  0.3776
 5667SOL    HW128460   3.147   0.933   7.736  0.0340 -1.1143 -0.0486
 5667SOL    HW228461   3.270   0.960   7.801 -1.6924  1.3643  0.0978
 5668SOL     OW28462   4.696   2.670   7.423 -0.0224 -0.4226  0.6126
 5668SOL    HW128463   4.718   2.706   7.509 -1.2598 -0.5833  0.9934
 5668SOL    HW228464   4.605   2.645   7.440 -0.4888 -0.3680 -1.8226
 5669SOL     OW28465   1.847   1.492  15.553 -0.5481 -0.2979 -0.4276
 5669SOL    HW128466   1.939   1.485  15.581 -0.0407 -0.6727 -2.2068
 5669SOL    HW228467   1.834   1.586  15.567  0.1575 -0.1955 -0.4387
 5670SOL     OW28468   0.960   1.676   2.166  0.6697 -0.2665  0.0797
 5670SOL    HW128469   0.884   1.653   2.112  0.2554 -0.6016  0.8073
 5670SOL    HW228470   1.010   1.594   2.163 -1.8014 -1.7762  0.6920
 5671SOL     OW28471   4.304   2.439  17.276  0.1018 -0.2174 -0.2977
 5671SOL    HW128472   4.276   2.435  17.185 -0.4025  0.2970 -0.1676
 5671SOL    HW228473   4.353   2.522  17.277 -1.5547  0.7733 -2.3527
 5672SOL     OW28474   1.426   4.015  12.297  0.1626  0.1629  0.4629
 5672SOL    HW128475   1.376   3.933  12.297  1.2031 -0.4638 -1.2387
 5672SOL    HW228476   1.512   3.974  12.294 -0.1122 -0.1614 -2.7678
 5673SOL     OW28477   0.497   2.908   7.539  0.3606 -0.3244 -0.0703
 5673SOL    HW128478   0.516   2.885   7.630 -0.0825 -0.2415  0.0476
 5673SOL    HW228479   0.407   2.937   7.558 -0.5437 -3.2083  0.0982
 5674SOL     OW28480   4.322   2.242  10.653  0.2307 -0.7110 -0.2361
 5674SOL    HW128481   4.294   2.331  10.675 -1.1502 -1.3770  0.7632
 5674SOL    HW228482   4.340   2.204  10.739  0.1281 -2.1037 -0.8370
 5675SOL     OW28483   3.291   1.995   2.292  0.6967 -0.3116  0.2668
 5675SOL    HW128484   3.326   2.045   2.219  0.2723 -0.1113  0.2009
 5675SOL    HW228485   3.235   2.056   2.340 -0.5731 -1.8347  0.7044
 5676SOL     OW28486   1.953   2.019  17.549  0.4718  0.6634 -0.2092
 5676SOL    HW128487   1.887   2.085  17.572  0.6794  0.8544 -0.1592
 5676SOL    HW228488   2.030   2.062  17.586  0.9088  2.4331 -3.2057
 5677SOL     OW28489   3.584   1.725   8.130  0.1293 -0.4447  0.2037
 5677SOL    HW128490   3.575   1.768   8.215 -0.2085 -0.1303  0.0115
 5677SOL    HW228491   3.654   1.662   8.147  0.4849  0.2201  1.2038
 5678SOL     OW28492   2.565   2.882   8.289 -0.0170 -0.4287 -0.0345
 5678SOL    HW128493   2.557   2.814   8.356  0.3886 -0.1941  0.2483
 5678SOL    HW228494   2.613   2.830   8.225  2.5344  0.4889  1.1316
 5679SOL     OW28495   2.999   1.671   1.479  0.1988 -0.1099 -0.0603
 5679SOL    HW128496   3.070   1.721   1.518 -0.5696  2.5414 -2.0898
 5679SOL    HW228497   2.995   1.586   1.523  1.3009 -0.1150  0.0279
 5680SOL     OW28498   2.288   0.812   7.798 -0.2730 -0.1616  0.2079
 5680SOL    HW128499   2.287   0.808   7.894 -0.0072  0.2066  0.2248
 5680SOL    HW228500   2.379   0.804   7.772 -0.0944 -1.4547  1.2645
 5681SOL     OW28501   1.391   2.793   8.293 -0.5150 -0.0351 -0.0505
 5681SOL    HW128502   1.317   2.733   8.286 -0.0773 -0.4938 -0.7163
 5681SOL    HW228503   1.451   2.762   8.226  1.2300  0.1191  1.4636
 5682SOL     OW28504   4.197   2.992   7.230  0.4396  0.6750  0.2734
 5682SOL    HW128505   4.250   3.042   7.292 -0.5602  3.1259 -0.8599
 5682SOL    HW228506   4.219   3.033   7.147  1.4943  0.0588  0.2390
 5683SOL     OW28507   4.007   4.146  10.819  0.0719 -0.3611 -0.5078
 5683SOL    HW128508   4.078   4.177  10.763 -0.7344 -2.0107 -2.4532
 5683SOL    HW228509   3.960   4.081  10.766  0.2265  1.4503 -2.8762
 5684SOL     OW28510   2.974   4.260   3.498 -1.0003  0.4123 -0.7817
 5684SOL    HW128511   2.888   4.220   3.510 -0.1691 -0.5198  2.1408
 5684SOL    HW228512   3.009   4.184   3.451  0.6246  0.9496 -0.4463
 5685SOL     OW28513   3.198   3.979   5.067 -0.0483 -0.0508  0.2532
 5685SOL    HW128514   3.147   3.899   5.079  0.4206 -0.9423 -3.6028
 5685SOL    HW228515   3.278   3.947   5.108 -0.4085 -0.6064  0.5225
 5686SOL     OW28516   1.038   0.541   0.716 -1.2342  0.0245  0.4771
 5686SOL    HW128517   1.029   0.449   0.740  0.5288 -0.5870 -1.1534
 5686SOL    HW228518   1.071   0.588   0.793  0.1464 -3.9179  2.2881
 5687SOL     OW28519   4.482   4.133   8.613 -0.2762  0.1311 -0.0817
 5687SOL    HW128520   4.465   4.180   8.694 -1.4272 -1.9461  0.8994
 5687SOL    HW228521   4.548   4.069   8.639  0.4557  0.0987 -1.9912
 5688SOL     OW28522   2.579   1.101   0.492  0.2756  0.2946 -0.2756
 5688SOL    HW128523   2.543   1.017   0.464  0.0017  0.0847  0.7074
 5688SOL    HW228524   2.500   1.135   0.535  0.8140  1.7539 -0.4492
 5689SOL     OW28525   3.820   3.138   3.303  0.5012 -0.0983 -0.3549
 5689SOL    HW128526   3.856   3.185   3.378  2.0813  0.4047 -1.4307
 5689SOL    HW228527   3.902   3.097   3.276 -0.9777 -2.4561 -1.3016
 5690SOL     OW28528   1.415   1.234   7.667 -0.1545 -0.0366 -0.5313
 5690SOL    HW128529   1.368   1.228   7.750 -0.9958 -0.0664 -1.0007
 5690SOL    HW228530   1.339   1.219   7.609 -0.1211 -0.8219 -0.3776
 5691SOL     OW28531   1.746   0.639   0.238 -0.3064 -0.3054  0.2082
 5691SOL    HW128532   1.798   0.617   0.161 -1.0289  0.1980 -0.4233
 5691SOL    HW228533   1.671   0.583   0.220 -2.9911  2.4690  2.7101
 5692SOL     OW28534   1.790   2.417  11.990 -0.0316  0.0296 -0.5950
 5692SOL    HW128535   1.723   2.359  12.025 -1.0650  1.6141  0.0247
 5692SOL    HW228536   1.855   2.349  11.968  1.7144  2.2176 -2.1872
 5693SOL     OW28537   4.227   4.485   6.468 -0.0927 -0.1118 -0.0917
 5693SOL    HW128538   4.309   4.445   6.443 -1.1560 -1.1238 -1.9328
 5693SOL    HW228539   4.166   4.412   6.454 -0.6199  0.1272  0.9228
 5694SOL     OW28540   4.011   3.760   5.750 -0.2946 -0.3592 -0.3615
 5694SOL    HW128541   4.097   3.720   5.733 -0.5273 -1.3994  0.8646
 5694SOL    HW228542   4.010   3.744   5.845  1.7198  2.0715  0.0796
 5695SOL     OW28543   3.678   4.623   4.048  0.2267 -0.5121  0.6449
 5695SOL    HW128544   3.701   4.701   3.997  0.0389 -0.9453 -0.0927
 5695SOL    HW228545   3.758   4.570   4.042  0.2629 -0.2341 -1.2488
 5696SOL     OW28546   3.115   1.928   4.111 -0.3207  0.3022  0.1583
 5696SOL    HW128547   3.091   1.851   4.162 -0.9657 -0.0274 -0.6489
 5696SOL    HW228548   3.051   1.999   4.122 -0.0993  0.4781  0.3222
 5697SOL     OW28549   3.764   1.297  14.593 -0.5278  0.1386 -0.4041
 5697SOL    HW128550   3.756   1.220  14.649 -1.4182 -0.1151 -0.8781
 5697SOL    HW228551   3.756   1.373  14.652  2.2483 -0.2397  0.4470
 5698SOL     OW28552   3.455   2.489  17.342 -0.2017 -0.0928 -0.0835
 5698SOL    HW128553   3.468   2.399  17.368  0.7301 -0.1195 -0.6397
 5698SOL    HW228554   3.400   2.472  17.265 -1.2329  1.6873  0.2390
 5699SOL     OW28555   1.294   1.064  12.689 -0.1446 -0.1626  0.2575
 5699SOL    HW128556   1.243   0.994  12.731  3.3166 -3.0757 -0.3816
 5699SOL    HW228557   1.238   1.089  12.616  1.1254  1.4744 -0.1465
 5700SOL     OW28558   0.754   3.118  12.639 -0.6282 -0.1164 -0.6105
 5700SOL    HW128559   0.846   3.105  12.663 -0.7061  0.0050 -0.2491
 5700SOL    HW228560   0.702   3.057  12.691 -0.5802  0.2931 -0.0809
 5701SOL     OW28561   0.394   1.568   3.627  0.1170  0.0632 -0.4829
 5701SOL    HW128562   0.417   1.491   3.575 -0.0987 -1.2698  1.3745
 5701SOL    HW228563   0.480   1.607   3.644 -1.3588  2.6704  0.8014
 5702SOL     OW28564   0.705   2.699   8.156  0.3093 -0.0874  0.5240
 5702SOL    HW128565   0.647   2.635   8.197 -0.7463 -0.6326 -1.8407
 5702SOL    HW228566   0.791   2.657   8.154 -0.4231 -1.5686 -0.0375
 5703SOL     OW28567   1.257   0.119   5.842  0.1646  0.2449  0.0926
 5703SOL    HW128568   1.259   0.210   5.811 -2.4757  0.5677  0.9043
 5703SOL    HW228569   1.162   0.107   5.840  0.3024 -0.9611  0.5579
 5704SOL     OW28570   2.314   2.027   6.272 -0.6174  0.1180  0.3785
 5704SOL    HW128571   2.294   2.048   6.181  0.6912  1.9135  0.4984
 5704SOL    HW228572   2.225   2.010   6.303 -0.7404 -0.8290 -0.5134
 5705SOL     OW28573   4.411   0.719  14.269 -0.1889  0.4808  0.6957
 5705SOL    HW128574   4.386   0.633  14.236  0.1767  0.0963  1.4395
 5705SOL    HW228575   4.490   0.702  14.321  0.5676  1.1896 -0.2043
 5706SOL     OW28576   2.389   2.495   2.629  0.0720 -0.6271 -1.1954
 5706SOL    HW128577   2.433   2.449   2.557  1.1741 -1.7275  0.1918
 5706SOL    HW228578   2.298   2.485   2.600 -0.6638  0.8571  0.6462
 5707SOL     OW28579   1.360   0.522  16.848 -0.4201 -0.2022 -0.0636
 5707SOL    HW128580   1.319   0.458  16.790 -1.7968 -0.5111  1.2447
 5707SOL    HW228581   1.311   0.528  16.930  0.8229  0.9026  0.5978
 5708SOL     OW28582   3.511   2.308  13.225  0.1118 -0.4332 -0.0347
 5708SOL    HW128583   3.592   2.320  13.177  0.4877  0.0833  0.7186
 5708SOL    HW228584   3.531   2.371  13.294 -3.1183 -0.6514  1.1319
 5709SOL     OW28585   3.826   4.250   3.308  0.4856  0.1493  0.5776
 5709SOL    HW128586   3.759   4.252   3.376 -0.4997  3.2619 -0.4935
 5709SOL    HW228587   3.849   4.157   3.304  2.2597  0.6591 -1.2942
 5710SOL     OW28588   4.275   1.728   5.173  0.3440 -0.0299  0.1041
 5710SOL    HW128589   4.323   1.700   5.095 -1.4565  0.3793 -1.1324
 5710SOL    HW228590   4.192   1.723   5.126  0.1241  0.1234  0.4768
 5711SOL     OW28591   2.638   3.535   4.029 -0.2672 -0.2152  0.0670
 5711SOL    HW128592   2.622   3.445   4.001  2.1048 -0.2113 -1.2837
 5711SOL    HW228593   2.630   3.583   3.946 -0.3324 -1.0116 -0.3841
 5712SOL     OW28594   2.371   4.299   9.095 -0.0123 -0.3246  0.3075
 5712SOL    HW128595   2.427   4.221   9.094 -2.2780 -1.9722  1.7418
 5712SOL    HW228596   2.300   4.280   9.033 -0.8987  1.5609  0.7472
 5713SOL     OW28597   1.961   3.960   3.902 -0.4605 -0.3438 -0.1073
 5713SOL    HW128598   1.942   4.031   3.841  1.8227 -0.9218 -1.4912
 5713SOL    HW228599   1.982   4.004   3.985 -0.9311  0.7494 -0.5733
 5714SOL     OW28600   4.395   1.675   4.678  0.3348  0.1761 -0.8011
 5714SOL    HW128601   4.421   1.613   4.747  1.4123  3.5190  1.7880
 5714SOL    HW228602   4.328   1.624   4.633 -0.3885  0.8352 -0.4694
 5715SOL     OW28603   3.155   0.506   8.883  0.3198  0.2933  0.9746
 5715SOL    HW128604   3.092   0.450   8.927 -1.2639  0.8995 -0.5665
 5715SOL    HW228605   3.159   0.462   8.799  1.2401 -0.1969  1.2664
 5716SOL     OW28606   2.207   0.197  10.395 -0.2888  0.6570  0.5266
 5716SOL    HW128607   2.152   0.262  10.440  0.2584  2.0203 -0.7794
 5716SOL    HW228608   2.223   0.244  10.313 -0.0372 -1.0946 -0.4217
 5717SOL     OW28609   3.496   4.153   2.535  0.5342 -0.2119 -0.2302
 5717SOL    HW128610   3.566   4.197   2.487 -1.8451  1.5641 -2.1023
 5717SOL    HW228611   3.443   4.136   2.456  0.0465  3.3897 -0.6790
 5718SOL     OW28612   4.431   4.338   6.387  0.2698 -0.0085 -0.2913
 5718SOL    HW128613   4.483   4.369   6.312 -0.2730  1.1986 -0.1667
 5718SOL    HW228614   4.471   4.252   6.401  3.2918  1.2188 -1.2226
 5719SOL     OW28615   0.312   3.141   1.460 -0.0256  0.1283 -0.2858
 5719SOL    HW128616   0.281   3.220   1.505 -0.0108 -0.4517  0.7267
 5719SOL    HW228617   0.312   3.161   1.366 -1.2783 -1.3755 -0.6026
 5720SOL     OW28618   4.487   2.545   8.637 -0.4652  0.0553 -0.2517
 5720SOL    HW128619   4.511   2.498   8.717 -2.3152 -1.7981 -0.7806
 5720SOL    HW228620   4.528   2.631   8.641 -0.0114 -0.2039  0.6285
 5721SOL     OW28621   0.392   2.792   2.822  0.1842 -0.2191  0.1160
 5721SOL    HW128622   0.353   2.730   2.884 -0.7683 -1.5649 -1.8206
 5721SOL    HW228623   0.377   2.877   2.861  0.4433  0.6025 -1.5469
 5722SOL     OW28624   1.201   3.909   1.326 -0.1349 -0.0825  0.1587
 5722SOL    HW128625   1.268   3.880   1.265  0.6625  2.1539 -0.0479
 5722SOL    HW228626   1.243   3.895   1.411  1.3122 -1.0723 -0.7275
 5723SOL     OW28627   3.078   1.135   7.910 -0.2535  0.1202  0.0191
 5723SOL    HW128628   3.104   1.207   7.853 -3.7208  0.9138 -0.5902
 5723SOL    HW228629   3.166   1.132   7.948  0.2754  0.0232 -1.2294
 5724SOL     OW28630   0.040   2.689   3.912 -0.0959 -0.1118  0.0208
 5724SOL    HW128631   0.001   2.621   3.967  0.9183 -1.5075 -0.9923
 5724SOL    HW228632   0.069   2.758   3.972  1.7289 -1.0664  0.2179
 5725SOL     OW28633   2.161   4.662  10.450 -0.3364 -0.3484  0.2468
 5725SOL    HW128634   2.097   4.646  10.381  0.0732 -4.5527  0.8353
 5725SOL    HW228635   2.186   0.034  10.436  1.3125 -1.2502 -2.6417
 5726SOL     OW28636   2.564   1.356  16.778  0.2201 -0.0918  0.6224
 5726SOL    HW128637   2.538   1.397  16.861 -1.7852 -1.5698  0.7220
 5726SOL    HW228638   2.648   1.398  16.759  0.4416 -0.5188  0.6517
 5727SOL     OW28639   4.242   0.958  11.081 -0.5743 -0.1851 -0.5324
 5727SOL    HW128640   4.178   0.898  11.119  0.0466 -0.3414  0.2757
 5727SOL    HW228641   4.190   0.985  11.006  0.3919  0.8341 -0.8258
 5728SOL     OW28642   0.840   3.349   4.298  0.0622 -0.1184  0.6793
 5728SOL    HW128643   0.912   3.406   4.268  0.5229 -0.1217  1.7730
 5728SOL    HW228644   0.892   3.272   4.321  0.7825  0.3594  0.6452
 5729SOL     OW28645   3.697   2.769   9.860  0.4020  0.0516  0.4987
 5729SOL    HW128646   3.755   2.811   9.796  0.7094 -0.5187  0.3978
 5729SOL    HW228647   3.759   2.747   9.930 -0.0579 -1.8439  0.3051
 5730SOL     OW28648   1.378   3.792   2.383  0.0360 -0.5434 -0.1613
 5730SOL    HW128649   1.367   3.700   2.358 -1.0996 -0.9949  1.9813
 5730SOL    HW228650   1.296   3.838   2.361  0.0387  0.2804  1.5962
 5731SOL     OW28651   3.603   1.279   5.152 -0.1134 -0.6756  0.3838
 5731SOL    HW128652   3.667   1.350   5.147 -0.7260 -0.3454 -2.8598
 5731SOL    HW228653   3.659   1.202   5.143  2.2602  0.8820  1.7014
 5732SOL     OW28654   2.163   4.610   6.668  0.3132 -0.0567 -0.2755
 5732SOL    HW128655   2.229   4.541   6.667 -3.7953 -3.9937  0.8523
 5732SOL    HW228656   2.209   4.694   6.661 -1.1765  0.7941  0.0643
 5733SOL     OW28657   2.659   0.687  15.134 -0.1217  0.5047  0.0869
 5733SOL    HW128658   2.584   0.746  15.126 -0.6240 -0.0127  0.9590
 5733SOL    HW228659   2.609   0.606  15.139  1.9741 -0.8722 -1.1299
 5734SOL     OW28660   2.278   0.566   3.808 -0.2280 -0.1896  0.3247
 5734SOL    HW128661   2.237   0.635   3.756 -0.7337 -0.7772 -0.0537
 5734SOL    HW228662   2.286   0.506   3.734  1.0251  3.0365 -2.1381
 5735SOL     OW28663   0.987   2.912   4.310 -0.4240  0.1187 -0.3237
 5735SOL    HW128664   1.064   2.963   4.335 -1.4204  1.0863  0.7406
 5735SOL    HW228665   1.026   2.855   4.244  1.5018  0.6741  0.3380
 5736SOL     OW28666   4.657   0.067   4.864  0.0844  0.6442 -0.4154
 5736SOL    HW128667   4.677   0.138   4.804 -2.2278  0.4453 -1.4129
 5736SOL    HW228668   0.023   0.051   4.904 -0.4234 -0.3793  0.2761
 5737SOL     OW28669   2.270   4.713   0.409  0.3434  0.4305 -0.2194
 5737SOL    HW128670   2.201   4.704   0.344 -1.1077 -0.7412  1.4947
 5737SOL    HW228671   2.255   4.623   0.438  1.7929  0.2152 -0.1385
 5738SOL     OW28672   0.472   4.329   1.820 -0.5226  0.4673 -0.2898
 5738SOL    HW128673   0.419   4.259   1.782  1.9355 -1.0089 -0.9502
 5738SOL    HW228674   0.460   4.383   1.742  0.4852  1.2379  0.0867
 5739SOL     OW28675   1.967   3.024   6.135 -0.5814 -0.4967  0.2436
 5739SOL    HW128676   1.948   3.070   6.216  1.8299  0.6888  0.1291
 5739SOL    HW228677   2.014   3.090   6.084 -0.2687 -1.0583 -0.2030
 5740SOL     OW28678   3.322   3.071  10.961 -0.0734 -0.6045 -0.4341
 5740SOL    HW128679   3.415   3.083  10.942  0.0053  1.7153  1.3620
 5740SOL    HW228680   3.291   3.104  10.877 -0.3772 -0.3442 -0.2213
 5741SOL     OW28681   0.872   3.879   2.915  0.4388  0.7626 -0.0957
 5741SOL    HW128682   0.893   3.829   2.836  1.0423 -0.0599  0.5803
 5741SOL    HW228683   0.788   3.843   2.944  1.4392 -1.5351 -0.0366
 5742SOL     OW28684   1.720   0.461   9.789  0.3431 -0.3411 -0.3515
 5742SOL    HW128685   1.781   0.461   9.862  0.4168 -2.0950 -0.4007
 5742SOL    HW228686   1.660   0.534   9.802  1.0139  0.4641 -1.7407
 5743SOL     OW28687   2.824   2.936   8.990  0.1343  0.2612  0.3644
 5743SOL    HW128688   2.794   2.970   8.905  1.5898 -0.1773 -0.3338
 5743SOL    HW228689   2.907   2.899   8.959  1.0514  0.4589  2.6147
 5744SOL     OW28690   1.215   1.381   2.804 -0.2368  0.3007  0.3315
 5744SOL    HW128691   1.302   1.341   2.795 -0.8249 -1.1408  0.9729
 5744SOL    HW228692   1.220   1.387   2.900 -1.0977 -2.7952  0.5659
 5745SOL     OW28693   2.904   1.392  17.205  0.1060 -0.5702 -0.4031
 5745SOL    HW128694   2.921   1.388  17.299  0.8367  2.0644 -0.4264
 5745SOL    HW228695   2.852   1.316  17.177  0.9454 -1.2380 -0.1493
 5746SOL     OW28696   1.507   0.031   3.254 -0.3297  0.1113  0.1389
 5746SOL    HW128697   1.576   0.093   3.280  1.9529 -2.4520  0.2074
 5746SOL    HW228698   1.522   0.035   3.159 -0.2844  1.2453  0.1853
 5747SOL     OW28699   0.648   3.411   1.103 -0.6214  0.6496  0.5852
 5747SOL    HW128700   0.688   3.333   1.142  1.0614  0.8686 -0.7202
 5747SOL    HW228701   0.697   3.478   1.151 -2.6738  0.5443  2.8070
 5748SOL     OW28702   0.254   1.701   4.472  0.5397  0.1028 -0.0515
 5748SOL    HW128703   0.209   1.695   4.556  1.9180  0.4762  0.7255
 5748SOL    HW228704   0.301   1.785   4.479 -1.2561  1.0268  0.7241
 5749SOL     OW28705   0.950   2.749   5.573  0.5442 -0.6556 -0.1531
 5749SOL    HW128706   0.937   2.724   5.664 -2.6974  0.4281 -0.3204
 5749SOL    HW228707   0.878   2.807   5.549  2.2357  1.0148 -1.1615
 5750SOL     OW28708   4.072   3.928   7.739  0.3808  0.0938 -0.2144
 5750SOL    HW128709   4.088   3.923   7.645 -2.0913 -1.4546 -0.5627
 5750SOL    HW228710   3.994   3.984   7.741  1.1519  1.1199  1.6745
 5751SOL     OW28711   2.353   4.504   3.122  0.4114  0.2029  0.2667
 5751SOL    HW128712   2.279   4.525   3.065  1.1549  1.7670 -0.1277
 5751SOL    HW228713   2.425   4.485   3.061 -1.8930 -1.2655 -1.9693
 5752SOL     OW28714   2.169   1.119   4.141 -0.1371  0.3024 -0.0823
 5752SOL    HW128715   2.178   1.125   4.236  1.9667 -1.0079 -0.2048
 5752SOL    HW228716   2.258   1.089   4.124 -0.5156 -1.7947  1.7682
 5753SOL     OW28717   3.248   3.233   5.163 -0.2402 -0.5700  0.1749
 5753SOL    HW128718   3.337   3.259   5.183 -0.3315  0.6300 -0.9947
 5753SOL    HW228719   3.210   3.315   5.194  0.3178 -1.4488  3.1945
 5754SOL     OW28720   3.844   3.805   8.186  0.5663  0.3434 -0.4565
 5754SOL    HW128721   3.859   3.881   8.242  0.6520 -0.1323  0.1678
 5754SOL    HW228722   3.786   3.840   8.119 -0.6893 -3.0955 -1.1440
 5755SOL     OW28723   4.270   2.514   1.830  0.4144  0.6427 -0.3818
 5755SOL    HW128724   4.183   2.473   1.834  1.6218 -1.8094  0.1072
 5755SOL    HW228725   4.246   2.607   1.822  0.1742  0.5954 -0.2191
 5756SOL     OW28726   3.719   2.978   6.338 -0.0064 -0.1164  0.2249
 5756SOL    HW128727   3.737   2.995   6.245  0.4673  1.7478  0.6440
 5756SOL    HW228728   3.777   2.906   6.361  0.6961 -0.1751 -1.7286
 5757SOL     OW28729   4.432   1.436  16.727 -0.2299  0.1361 -0.0186
 5757SOL    HW128730   4.465   1.488  16.801 -1.3292  1.9389 -0.7874
 5757SOL    HW228731   4.518   1.433  16.684 -0.6043 -1.1877 -0.6681
 5758SOL     OW28732   0.427   3.833   3.235  0.1412  0.2325  0.2079
 5758SOL    HW128733   0.334   3.829   3.254 -0.3228  2.0744 -1.6595
 5758SOL    HW228734   0.437   3.738   3.225  1.8042  0.3683  0.5826
 5759SOL     OW28735   0.922   1.533   0.809  0.0886 -0.0389  0.3178
 5759SOL    HW128736   1.015   1.535   0.787  0.6075 -0.5196  2.4128
 5759SOL    HW228737   0.925   1.558   0.902 -0.6919 -1.4092  0.7220
 5760SOL     OW28738   4.099   0.062  12.740  0.4442  0.6659  0.0527
 5760SOL    HW128739   4.191   0.042  12.725  0.7287  0.0332  2.6148
 5760SOL    HW228740   4.097   0.064  12.836 -2.2693  0.7124 -0.0081
 5761SOL     OW28741   2.946   0.713   6.786  0.3867  0.1618  0.7510
 5761SOL    HW128742   2.960   0.805   6.768 -0.1320  0.2920  1.0048
 5761SOL    HW228743   2.933   0.684   6.696 -0.9621  1.0060  0.6807
 5762SOL     OW28744   2.662   2.432   5.346  0.2149 -0.2713  0.0400
 5762SOL    HW128745   2.626   2.374   5.413  1.9064 -1.4838 -0.1011
 5762SOL    HW228746   2.603   2.507   5.345 -0.5949 -0.9317 -1.7404
 5763SOL     OW28747   3.993   0.427  12.358 -0.4435  0.1908 -0.0554
 5763SOL    HW128748   3.997   0.521  12.339  1.4378  0.1296 -0.0232
 5763SOL    HW228749   3.901   0.411  12.376 -0.2980  0.1174  0.5908
 5764SOL     OW28750   2.508   1.199   9.484  0.7346 -0.0446 -0.6655
 5764SOL    HW128751   2.554   1.213   9.401  1.5273 -1.5771 -0.4678
 5764SOL    HW228752   2.467   1.116   9.460 -0.8902  0.5706 -0.0737
 5765SOL     OW28753   0.596   3.317  17.204 -0.1298 -0.5530 -0.0329
 5765SOL    HW128754   0.550   3.374  17.266 -0.5778 -1.7550  0.7406
 5765SOL    HW228755   0.669   3.285  17.258 -1.1465 -0.9702  1.1041
 5766SOL     OW28756   3.759   3.220   6.916  0.5505  0.0172 -1.0135
 5766SOL    HW128757   3.725   3.248   6.831 -2.6444  1.2344  0.6595
 5766SOL    HW228758   3.820   3.289   6.943 -0.6490 -0.2160  2.2657
 5767SOL     OW28759   2.983   3.020   7.661 -0.2441  0.5567  0.4396
 5767SOL    HW128760   2.969   3.028   7.756  1.5001  0.5188  0.6953
 5767SOL    HW228761   2.901   3.052   7.622 -0.1504 -0.5267 -0.6381
 5768SOL     OW28762   2.229   0.560  10.046 -0.1719 -0.4781 -0.6302
 5768SOL    HW128763   2.204   0.584   9.957 -1.6802  1.1534  0.2283
 5768SOL    HW228764   2.323   0.577  10.039 -0.2219  0.4552  0.9397
 5769SOL     OW28765   2.699   4.165   3.556  0.0923  0.3279  0.3644
 5769SOL    HW128766   2.628   4.220   3.523  0.6039  0.0874 -1.1226
 5769SOL    HW228767   2.658   4.145   3.640 -1.9124 -0.8057 -0.8876
 5770SOL     OW28768   0.776   3.248   1.521 -0.3481  0.4472  0.2647
 5770SOL    HW128769   0.785   3.239   1.427 -0.6664  1.7775  0.1106
 5770SOL    HW228770   0.795   3.158   1.547  0.1516  0.3044 -0.6170
 5771SOL     OW28771   1.426   4.486  16.210  0.5599  0.8280 -0.2986
 5771SOL    HW128772   1.516   4.456  16.197  0.5009 -0.5695  2.5332
 5771SOL    HW228773   1.413   4.446  16.296 -0.0453  0.8958 -0.3583
 5772SOL     OW28774   2.070   4.380   8.058 -1.0332 -0.0469 -0.6230
 5772SOL    HW128775   1.999   4.438   8.030  0.5293  1.3228 -1.7536
 5772SOL    HW228776   2.074   4.322   7.982 -0.6261 -0.3014 -0.4069
 5773SOL     OW28777   0.897   3.344   0.698 -0.5506  0.0654 -0.1875
 5773SOL    HW128778   0.920   3.435   0.681  0.0687 -0.4892 -2.2251
 5773SOL    HW228779   0.843   3.329   0.621 -1.0902  0.5795  0.0839
 5774SOL     OW28780   0.881   3.072   4.717  0.1347  0.1350 -0.1824
 5774SOL    HW128781   0.910   3.152   4.760  1.9994 -0.2430 -0.6921
 5774SOL    HW228782   0.789   3.095   4.715 -0.0815 -0.7342 -0.1797
 5775SOL     OW28783   1.510   0.575   8.310 -0.3142 -0.4445 -0.0748
 5775SOL    HW128784   1.513   0.670   8.322  0.5769 -0.5021  0.2011
 5775SOL    HW228785   1.537   0.541   8.396 -1.3946  2.0556  1.2470
 5776SOL     OW28786   1.100   0.804   4.187  0.1590  0.4192  0.2592
 5776SOL    HW128787   1.131   0.778   4.273 -0.4757  1.4528  0.8007
 5776SOL    HW228788   1.069   0.716   4.166  0.5729  1.0098 -2.9178
 5777SOL     OW28789   0.795   0.644   6.221 -0.2260 -0.1803 -0.1737
 5777SOL    HW128790   0.805   0.670   6.312 -0.7564 -0.3986 -0.0561
 5777SOL    HW228791   0.726   0.706   6.195 -0.4115  0.1347  1.0856
 5778SOL     OW28792   3.661   2.223   4.740 -0.0265  0.2417 -0.6109
 5778SOL    HW128793   3.707   2.306   4.755  0.1719  0.0489 -0.1533
 5778SOL    HW228794   3.677   2.199   4.649 -1.3123  0.9885 -1.0299
 5779SOL     OW28795   0.122   4.589   8.473 -0.4620 -0.0230 -0.5553
 5779SOL    HW128796   0.131   4.522   8.541  1.2439  0.2203 -0.5606
 5779SOL    HW228797   0.062   4.552   8.408 -1.4798  1.6530 -0.5725
 5780SOL     OW28798   3.365   3.851   2.368 -0.1427 -0.0757  0.3679
 5780SOL    HW128799   3.331   3.806   2.291 -1.7935  1.4209  0.2217
 5780SOL    HW228800   3.329   3.938   2.351  0.4470  0.0900 -0.0589
 5781SOL     OW28801   2.691   0.688   5.418 -0.1549  0.1665 -0.3599
 5781SOL    HW128802   2.665   0.716   5.330 -1.0057 -1.8485 -0.7391
 5781SOL    HW228803   2.686   0.774   5.460 -0.2278 -0.3009  0.5798
 5782SOL     OW28804   4.042   0.275   3.318  0.9756  0.0488  0.1195
 5782SOL    HW128805   4.039   0.232   3.232 -0.8783 -1.4209  0.9251
 5782SOL    HW228806   4.110   0.342   3.309  1.8450 -0.7047  1.0805
 5783SOL     OW28807   2.275   2.888   0.395 -0.9882 -0.2057  0.5448
 5783SOL    HW128808   2.192   2.844   0.380  0.5444 -2.4567 -1.1820
 5783SOL    HW228809   2.249   2.955   0.459 -0.9351  1.1721 -0.8712
 5784SOL     OW28810   4.086   3.267   3.948 -0.2154  0.1591  0.1191
 5784SOL    HW128811   4.168   3.312   3.966  0.0049 -0.5116  0.8035
 5784SOL    HW228812   4.110   3.176   3.929  0.5220  0.8476 -2.2121
 5785SOL     OW28813   2.980   4.299   5.134  0.6435 -0.1688  0.5208
 5785SOL    HW128814   3.074   4.302   5.118  0.9137 -0.4615  2.0387
 5785SOL    HW228815   2.958   4.213   5.170  0.9635 -0.6178 -0.3677
 5786SOL     OW28816   1.700   2.270   7.843  0.2742 -0.2541 -0.2436
 5786SOL    HW128817   1.666   2.229   7.923 -0.7220 -0.1676 -0.6240
 5786SOL    HW228818   1.789   2.289   7.872 -0.7170  1.8309  1.3971
 5787SOL     OW28819   2.442   3.546   2.305  0.0371 -0.7982  0.2282
 5787SOL    HW128820   2.440   3.482   2.234 -1.1794 -1.5045  0.9078
 5787SOL    HW228821   2.523   3.583   2.269 -0.9650 -0.6631 -1.8913
 5788SOL     OW28822   4.167   2.662   3.542 -0.2032  0.0671 -0.4884
 5788SOL    HW128823   4.170   2.704   3.456 -3.1172 -0.3273 -0.7718
 5788SOL    HW228824   4.119   2.714   3.606 -0.0541  0.1093 -0.4109
 5789SOL     OW28825   3.693   3.117   8.477  0.2507  0.4991 -0.1904
 5789SOL    HW128826   3.645   3.123   8.395  0.2929 -0.4063 -0.2750
 5789SOL    HW228827   3.767   3.060   8.455 -0.9647 -1.3266  0.4801
 5790SOL     OW28828   3.662   1.284   4.515 -0.4594 -0.4249 -0.1306
 5790SOL    HW128829   3.736   1.283   4.454 -1.1722 -0.4112 -0.9923
 5790SOL    HW228830   3.696   1.336   4.588 -0.4770 -1.2997  0.5018
 5791SOL     OW28831   0.789   2.536   5.291 -0.0685  0.5161  0.5105
 5791SOL    HW128832   0.723   2.470   5.267  2.3284 -1.4182 -0.8147
 5791SOL    HW228833   0.739   2.617   5.284 -1.7504 -0.6881 -1.4607
 5792SOL     OW28834   4.616   3.024  13.259  0.5254  0.9664  0.0380
 5792SOL    HW128835   4.619   3.020  13.354  0.3053 -3.0492 -0.1257
 5792SOL    HW228836   4.587   3.113  13.238  0.7818  0.8796 -0.6880
 5793SOL     OW28837   2.600   1.720   7.475  0.3677  0.0347 -0.2040
 5793SOL    HW128838   2.590   1.813   7.452 -1.3496  0.0049  0.4513
 5793SOL    HW228839   2.648   1.725   7.558 -0.2080 -4.1930  0.3856
 5794SOL     OW28840   2.080   0.707   4.797 -0.3942  0.0128 -0.3998
 5794SOL    HW128841   2.049   0.628   4.842 -0.4747 -0.1030 -0.6633
 5794SOL    HW228842   2.128   0.682   4.719  1.4162 -1.2793  1.1318
 5795SOL     OW28843   2.313   0.496   8.986  0.0191  0.3159 -0.0582
 5795SOL    HW128844   2.242   0.560   8.980  0.4192  0.6724 -1.0221
 5795SOL    HW228845   2.305   0.463   9.075  1.0144 -0.3801 -0.2325
 5796SOL     OW28846   4.038   2.823   6.150 -0.0194  0.0426 -0.3839
 5796SOL    HW128847   3.998   2.900   6.110 -2.1534 -0.6722  0.3390
 5796SOL    HW228848   4.129   2.841   6.128  0.2274  0.8931  1.3651
 5797SOL     OW28849   2.212   0.324  10.170 -0.5277  0.0157  0.2696
 5797SOL    HW128850   2.217   0.417  10.149 -0.1542  0.1278  0.8477
 5797SOL    HW228851   2.167   0.289  10.094 -0.5695  2.0174 -0.6090
 5798SOL     OW28852   4.660   2.981   3.900 -0.8041 -0.3406  0.2715
 5798SOL    HW128853   4.718   2.935   3.961  1.2552  1.3316 -0.4313
 5798SOL    HW228854   4.612   3.035   3.962  1.3348  1.1033  0.6551
 5799SOL     OW28855   1.069   0.933   4.493 -0.2452  0.7469 -0.4849
 5799SOL    HW128856   1.078   0.948   4.587 -0.0126  1.9497 -0.7096
 5799SOL    HW228857   0.978   0.959   4.483 -1.3812 -2.0189  2.6942
 5800SOL     OW28858   0.203   1.661   5.972 -0.1066 -0.2696 -0.1391
 5800SOL    HW128859   0.237   1.750   5.983  0.4634 -0.6198  0.9360
 5800SOL    HW228860   0.224   1.625   6.058 -0.9800  1.2783  0.7313
 5801SOL     OW28861   4.078   3.511   8.009  0.4007 -0.2231  0.2935
 5801SOL    HW128862   4.138   3.485   7.939 -1.3216 -3.8211  0.1451
 5801SOL    HW228863   4.142   3.554   8.065  1.7374  0.0024 -1.4076
 5802SOL     OW28864   3.097   2.430  12.424 -0.0093  0.2809  0.6078
 5802SOL    HW128865   3.097   2.335  12.426 -1.1023  0.2757  0.2853
 5802SOL    HW228866   3.018   2.450  12.474 -1.0548 -0.3607 -0.7851
 5803SOL     OW28867   3.033   0.152   1.764  0.2532  0.0735 -0.3550
 5803SOL    HW128868   3.108   0.164   1.706  1.2297  1.1769  1.1361
 5803SOL    HW228869   3.086   0.120   1.838 -2.8090  0.7416  2.1235
 5804SOL     OW28870   0.633   2.424   8.246  0.1829  0.4903  0.0513
 5804SOL    HW128871   0.684   2.435   8.327 -0.6147  1.1498  0.4617
 5804SOL    HW228872   0.687   2.362   8.197 -2.0052  1.1931 -3.2053
 5805SOL     OW28873   3.204   1.876  13.658  0.8570  0.0641  0.1651
 5805SOL    HW128874   3.189   1.791  13.618  1.3751 -0.3327  0.7992
 5805SOL    HW228875   3.151   1.929  13.599  0.8546 -1.8547 -1.5803
 5806SOL     OW28876   2.646   4.300   4.521 -0.0477 -0.1565 -0.0091
 5806SOL    HW128877   2.674   4.335   4.606  1.3602  1.3834 -1.1120
 5806SOL    HW228878   2.631   4.383   4.475  3.3613  1.3591  1.6495
 5807SOL     OW28879   4.401   2.428   2.600 -0.0089 -0.8045 -0.0561
 5807SOL    HW128880   4.470   2.495   2.600  1.9126 -2.7946 -0.9320
 5807SOL    HW228881   4.322   2.481   2.594  1.7615  1.7690 -0.5087
 5808SOL     OW28882   3.148   2.081   2.582 -0.2651  0.4664  0.3759
 5808SOL    HW128883   3.228   2.032   2.597  0.4331  1.2255 -0.8957
 5808SOL    HW228884   3.086   2.035   2.638 -0.5745  1.6748  1.0352
 5809SOL     OW28885   1.625   2.190   7.327  0.0628  0.1446 -0.0789
 5809SOL    HW128886   1.658   2.194   7.416 -0.7964  2.6646  0.1297
 5809SOL    HW228887   1.569   2.268   7.336 -1.1549 -0.5297 -1.7387
 5810SOL     OW28888   3.354   3.407   8.746  0.3324 -0.2044  0.3071
 5810SOL    HW128889   3.388   3.318   8.757  0.5324 -0.1086  0.4508
 5810SOL    HW228890   3.342   3.431   8.838 -0.4735  1.9289 -0.3593
 5811SOL     OW28891   1.530   2.641  13.571 -0.6277 -0.0590 -0.2885
 5811SOL    HW128892   1.564   2.622  13.659 -0.7403 -0.6569 -0.3698
 5811SOL    HW228893   1.474   2.565  13.556  0.2497 -0.6372 -0.6868
 5812SOL     OW28894   2.144   0.894  11.503  0.1277 -0.0584 -0.1253
 5812SOL    HW128895   2.228   0.878  11.545 -0.4802 -2.7175  0.0574
 5812SOL    HW228896   2.098   0.822  11.545 -0.3864  1.0545  1.2283
 5813SOL     OW28897   2.765   3.375   7.789 -0.8253  0.6358  0.4121
 5813SOL    HW128898   2.712   3.453   7.776 -0.6507  0.7093  0.1313
 5813SOL    HW228899   2.789   3.346   7.701 -0.7343  0.6413  0.4346
 5814SOL     OW28900   4.437   1.918   3.130 -0.3822 -0.5405  0.4257
 5814SOL    HW128901   4.381   1.841   3.123  0.6401 -1.1537 -1.0343
 5814SOL    HW228902   4.463   1.944   3.042  3.1336 -0.7374  1.4180
 5815SOL     OW28903   0.906   2.585   2.069  0.1161  0.4226 -0.4472
 5815SOL    HW128904   0.849   2.599   2.145 -0.1807 -1.5669 -0.3073
 5815SOL    HW228905   0.894   2.491   2.054 -2.3896  0.7016 -0.1757
 5816SOL     OW28906   2.371   4.253   8.748  0.0893 -0.8745  0.7978
 5816SOL    HW128907   2.402   4.195   8.679  1.5354  1.4739 -0.5029
 5816SOL    HW228908   2.335   4.196   8.817  1.4486 -1.7895  0.7494
 5817SOL     OW28909   1.252   4.436   7.366  0.2777 -0.0336 -0.4382
 5817SOL    HW128910   1.214   4.359   7.324  0.6924 -0.9464  0.8607
 5817SOL    HW228911   1.298   4.470   7.289 -0.1323 -0.8050 -1.0287
 5818SOL     OW28912   4.004   3.147   2.692 -0.0502  0.2325  0.3976
 5818SOL    HW128913   4.023   3.204   2.617 -0.7891 -0.0637 -0.0165
 5818SOL    HW228914   4.081   3.089   2.693 -0.9757 -0.9809  0.8818
 5819SOL     OW28915   2.224   3.435   5.287 -0.6728 -0.6823  0.3260
 5819SOL    HW128916   2.299   3.388   5.250 -0.5004 -2.1602  2.4955
 5819SOL    HW228917   2.185   3.479   5.211  3.2175  0.7286 -0.8333
 5820SOL     OW28918   2.298   2.774  16.576 -0.4595 -0.8147 -0.5389
 5820SOL    HW128919   2.262   2.740  16.658 -0.6575  1.2435  0.2278
 5820SOL    HW228920   2.357   2.701  16.555 -2.4381 -2.4164 -0.5184
 5821SOL     OW28921   3.655   1.715   4.335 -0.6850  0.3769 -0.4580
 5821SOL    HW128922   3.634   1.651   4.403  1.8729  0.9503  0.8727
 5821SOL    HW228923   3.581   1.775   4.343  0.2645  1.2346  1.8038
 5822SOL     OW28924   3.559   0.698   5.765 -0.1502 -0.1037 -0.5762
 5822SOL    HW128925   3.536   0.780   5.810 -2.1539 -0.2459 -1.3350
 5822SOL    HW228926   3.622   0.734   5.703  0.9129 -0.0946  0.5035
 5823SOL     OW28927   0.085   0.323   3.087 -0.0975  0.2360 -0.3261
 5823SOL    HW128928   0.016   0.287   3.144  0.6295  3.5889  2.6335
 5823SOL    HW228929   0.149   0.258   3.115 -2.1552 -2.2870 -1.3543
 5824SOL     OW28930   3.440   2.858   9.114 -0.3167  0.2977  0.1093
 5824SOL    HW128931   3.497   2.783   9.127 -0.3167  0.1703 -0.6090
 5824SOL    HW228932   3.481   2.876   9.029 -1.3358 -2.9171 -1.0504
 5825SOL     OW28933   2.126   2.542  14.970 -0.7172 -0.2037 -0.0718
 5825SOL    HW128934   2.075   2.598  14.910 -0.2541  1.0996  0.7453
 5825SOL    HW228935   2.213   2.539  14.930 -0.8918  0.0100 -0.4773
 5826SOL     OW28936   1.961   1.255   5.492 -0.4768  0.2983 -0.8189
 5826SOL    HW128937   1.888   1.314   5.475  0.4562  1.5802 -0.4136
 5826SOL    HW228938   2.001   1.287   5.573  1.0415 -0.2879 -1.3257
 5827SOL     OW28939   3.619   1.247   8.726 -0.4212 -0.3078 -0.2399
 5827SOL    HW128940   3.699   1.295   8.747 -1.0880  1.0036 -0.6768
 5827SOL    HW228941   3.559   1.315   8.695 -0.2184 -1.2764 -2.7106
 5828SOL     OW28942   3.099   4.482   7.888  0.1059 -0.1601 -0.0102
 5828SOL    HW128943   3.067   4.392   7.878 -1.5821  0.5827 -1.2213
 5828SOL    HW228944   3.031   4.508   7.951 -1.3089 -5.2744  0.6068
 5829SOL     OW28945   2.918   2.490   1.886 -0.2240  0.0694  0.6228
 5829SOL    HW128946   2.850   2.453   1.830  1.4583 -0.5600 -1.0155
 5829SOL    HW228947   2.871   2.571   1.905 -1.7864 -0.2139 -2.0273
 5830SOL     OW28948   1.014   0.343   6.138  0.3130 -0.4243 -0.4135
 5830SOL    HW128949   1.039   0.399   6.064 -1.3465 -0.4027 -0.9580
 5830SOL    HW228950   1.091   0.360   6.192 -1.0201 -1.0383  1.6827
 5831SOL     OW28951   3.488   4.412   6.138  0.1105  0.8659  0.4226
 5831SOL    HW128952   3.462   4.440   6.226 -0.2276 -1.5291  1.0797
 5831SOL    HW228953   3.457   4.490   6.093 -1.6095 -0.8715 -1.3599
 5832SOL     OW28954   4.056   3.254  16.613  0.7224 -0.2052 -0.3104
 5832SOL    HW128955   4.034   3.339  16.575  0.2258  0.3485  1.1748
 5832SOL    HW228956   4.088   3.210  16.535 -0.3234  0.8591 -1.3252
 5833SOL     OW28957   4.134   3.162   6.342  0.2588  0.0978 -0.0760
 5833SOL    HW128958   4.077   3.127   6.274  0.4771 -2.1404  0.9012
 5833SOL    HW228959   4.120   3.096   6.410 -1.9428  0.2307 -0.4181
 5834SOL     OW28960   1.296   4.027   5.554  0.2044  0.4657  0.1267
 5834SOL    HW128961   1.386   3.996   5.546 -0.3303 -0.3758 -2.4699
 5834SOL    HW228962   1.243   3.949   5.535  0.8685 -0.4134  1.8948
 5835SOL     OW28963   3.098   3.075   5.425  0.3055 -0.1716 -0.0807
 5835SOL    HW128964   3.005   3.056   5.435  0.0344  1.1931  0.0372
 5835SOL    HW228965   3.118   3.013   5.355  0.7997 -0.2981  0.1733
 5836SOL     OW28966   3.236   1.264  16.187  0.0763  0.0288  0.3922
 5836SOL    HW128967   3.319   1.292  16.226  0.6665  0.7948 -1.4120
 5836SOL    HW228968   3.252   1.280  16.094  2.7828 -0.9710  0.6530
 5837SOL     OW28969   3.294   0.302  12.328 -0.5646  0.3756 -0.3824
 5837SOL    HW128970   3.311   0.319  12.421 -1.4328  1.5732 -0.4518
 5837SOL    HW228971   3.367   0.249  12.296 -0.1464  2.4181 -2.7953
 5838SOL     OW28972   0.801   1.899   0.252 -0.1962  0.6349  0.2215
 5838SOL    HW128973   0.790   1.865   0.341  0.6853 -0.5640 -0.1358
 5838SOL    HW228974   0.840   1.821   0.212 -0.7963  0.8991 -0.8537
 5839SOL     OW28975   3.634   2.346   4.065  0.2317  0.1603  0.3050
 5839SOL    HW128976   3.698   2.403   4.107 -2.0450  3.1257 -0.2896
 5839SOL    HW228977   3.685   2.296   4.000 -0.8603 -0.7635  0.1713
 5840SOL     OW28978   1.619   1.548   3.082  0.0589 -0.5204 -0.6397
 5840SOL    HW128979   1.617   1.469   3.135 -2.4053  0.6664  1.0611
 5840SOL    HW228980   1.651   1.507   3.002  2.5614  0.8642 -0.3537
 5841SOL     OW28981   3.748   4.325   0.209  0.4729 -0.0433 -0.3255
 5841SOL    HW128982   3.689   4.392   0.174  2.1887  1.3937 -0.4443
 5841SOL    HW228983   3.816   4.320   0.142  0.2862  3.2870 -0.7492
 5842SOL     OW28984   2.406   0.901  14.031 -0.1553 -0.0172 -0.2862
 5842SOL    HW128985   2.420   0.958  13.956 -0.4368  0.2831 -0.1124
 5842SOL    HW228986   2.387   0.963  14.102 -1.9116  1.8590 -2.4154
 5843SOL     OW28987   0.865   1.421   4.208  0.6569  0.2263  0.0171
 5843SOL    HW128988   0.786   1.455   4.250  0.4707 -0.0229 -0.1324
 5843SOL    HW228989   0.888   1.491   4.148  1.6427 -0.5520 -0.5062
 5844SOL     OW28990   3.251   1.782   6.482  0.0374  0.1501  0.2876
 5844SOL    HW128991   3.214   1.699   6.513  0.9652  0.0065  1.0002
 5844SOL    HW228992   3.329   1.800   6.534  1.2810  1.2425 -1.9578
 5845SOL     OW28993   3.440   1.308  13.363  0.2103 -0.1223  0.2294
 5845SOL    HW128994   3.466   1.220  13.391 -0.4200 -0.1444  0.7421
 5845SOL    HW228995   3.366   1.283  13.307 -0.7662  1.1694  0.9468
 5846SOL     OW28996   3.824   0.192  16.428  1.0277 -0.3677  0.3136
 5846SOL    HW128997   3.863   0.219  16.345  0.6011 -0.8921 -0.0576
 5846SOL    HW228998   3.899   0.215  16.483 -1.1923 -1.1444  3.6884
 5847SOL     OW28999   3.187   3.478   5.760  0.2409 -0.8410  0.4573
 5847SOL    HW129000   3.220   3.562   5.730 -1.7289 -0.2537 -0.0480
 5847SOL    HW229001   3.235   3.419   5.702 -0.0055  1.1306 -1.7498
 5848SOL     OW29002   1.309   2.102   6.039 -0.0654 -0.0343 -0.4446
 5848SOL    HW129003   1.385   2.050   6.065 -0.4083  0.0938  0.8020
 5848SOL    HW229004   1.317   2.178   6.097 -0.1552 -0.9533  0.7630
 5849SOL     OW29005   1.869   3.093   8.724 -0.1477  0.4351  0.6989
 5849SOL    HW129006   1.896   3.003   8.704 -0.9660  0.5873 -1.0586
 5849SOL    HW229007   1.886   3.136   8.640 -2.0977 -1.0599 -0.4587
 5850SOL     OW29008   4.024   4.598  11.352  0.2500  0.1599 -0.0834
 5850SOL    HW129009   3.954   4.645  11.305  0.4253 -0.3605 -0.8642
 5850SOL    HW229010   3.976   4.533  11.403  2.8506 -0.3073  1.7601
 5851SOL     OW29011   2.442   0.996  15.809 -0.6171 -0.3715 -0.4183
 5851SOL    HW129012   2.537   1.002  15.794 -0.1294 -2.4561  1.7921
 5851SOL    HW229013   2.419   0.927  15.746  1.1028 -0.4912 -0.9126
 5852SOL     OW29014   0.518   2.097   8.553 -0.4889  0.0254 -0.2446
 5852SOL    HW129015   0.451   2.087   8.620  0.7205  0.8769  1.1041
 5852SOL    HW229016   0.536   2.191   8.561 -2.4568  0.4201 -0.4025
 5853SOL     OW29017   1.776   1.976   7.017 -0.5041  0.7660 -0.3329
 5853SOL    HW129018   1.840   1.915   6.981  0.7496  1.4633  0.7475
 5853SOL    HW229019   1.827   2.052   7.043 -2.4158  2.0590 -0.3930
 5854SOL     OW29020   3.329   4.255   4.759 -0.0185  0.1926 -0.4591
 5854SOL    HW129021   3.389   4.209   4.700 -0.6070  1.1941 -1.8370
 5854SOL    HW229022   3.305   4.334   4.711 -0.4508  0.9864  1.0721
 5855SOL     OW29023   1.391   1.214   5.791 -0.4931  0.6795  0.3379
 5855SOL    HW129024   1.383   1.287   5.853 -2.3674 -0.3795  1.3512
 5855SOL    HW229025   1.347   1.255   5.717 -0.3941 -2.5272 -1.4841
 5856SOL     OW29026   3.438   3.614   2.692 -0.3559  0.0455  0.2414
 5856SOL    HW129027   3.485   3.682   2.643 -0.1933  0.0119  0.3515
 5856SOL    HW229028   3.347   3.643   2.687  0.4083  2.4473  0.2951
 5857SOL     OW29029   0.662   0.132   2.833 -0.1709  0.3172 -0.1600
 5857SOL    HW129030   0.692   0.085   2.756  1.2381  1.0022 -0.0402
 5857SOL    HW229031   0.696   0.071   2.898  0.7301 -0.2314 -1.1503
 5858SOL     OW29032   3.795   3.317   7.375  0.1356  0.6443  0.1006
 5858SOL    HW129033   3.754   3.349   7.455  1.6375  0.9422  0.7422
 5858SOL    HW229034   3.772   3.391   7.318 -0.5457  2.6495  3.0100
 5859SOL     OW29035   3.635   3.254  14.690  0.0879  1.0038  0.2032
 5859SOL    HW129036   3.566   3.281  14.751  0.7205 -0.7812  1.7355
 5859SOL    HW229037   3.638   3.330  14.632 -0.6763 -0.4488 -1.7064
 5860SOL     OW29038   2.516   2.166   6.691  0.7263  0.5728  0.0824
 5860SOL    HW129039   2.425   2.164   6.660  0.5365  1.2020  0.6014
 5860SOL    HW229040   2.559   2.211   6.618  0.3381 -0.6008 -0.8803
 5861SOL     OW29041   1.151   0.230   9.307  0.1146  0.1521  0.0325
 5861SOL    HW129042   1.130   0.308   9.359 -1.7386 -0.5507  0.3635
 5861SOL    HW229043   1.137   0.156   9.366  0.7546 -0.0988 -0.1394
 5862SOL     OW29044   1.995   0.058   3.347 -0.0089  0.8648  0.1576
 5862SOL    HW129045   2.046   0.037   3.269 -1.3706 -0.9067 -0.2419
 5862SOL    HW229046   1.953   0.139   3.317 -1.2826 -0.1966 -0.9197
 5863SOL     OW29047   1.959   1.164  10.051  0.2405 -0.7241 -0.6002
 5863SOL    HW129048   1.965   1.258  10.037  0.4456 -0.3939  1.8317
 5863SOL    HW229049   1.991   1.127   9.968  1.6335  0.6936 -0.6859
 5864SOL     OW29050   3.193   2.077   0.533 -0.4951  0.5240  0.2479
 5864SOL    HW129051   3.141   2.146   0.491 -0.5472  0.1867 -0.2408
 5864SOL    HW229052   3.260   2.138   0.563 -0.7105  0.7139  0.3444
 5865SOL     OW29053   1.002   0.232  15.033  0.3465  0.4263 -0.0910
 5865SOL    HW129054   1.044   0.316  15.051  1.2798 -0.4392  1.9015
 5865SOL    HW229055   0.967   0.205  15.118  1.7244 -0.5109  0.1784
 5866SOL     OW29056   3.777   2.711   4.460 -0.1519  0.1481 -0.0731
 5866SOL    HW129057   3.790   2.803   4.438  0.9377 -0.1541 -0.7071
 5866SOL    HW229058   3.703   2.716   4.520  1.9522  0.2781  2.5065
 5867SOL     OW29059   2.465   0.976   3.341  0.6279 -0.2107 -1.0260
 5867SOL    HW129060   2.549   0.944   3.375  0.2554 -0.3629 -0.2387
 5867SOL    HW229061   2.490   1.010   3.255  0.8670  1.5526 -0.2561
 5868SOL     OW29062   1.743   0.088   6.546 -0.2335 -0.2577  0.1533
 5868SOL    HW129063   1.819   0.030   6.547 -1.7144 -2.1762  0.9327
 5868SOL    HW229064   1.686   0.041   6.484 -1.3934  1.4582 -0.0933
 5869SOL     OW29065   4.677   1.353  16.614 -0.3399 -0.3139  0.1721
 5869SOL    HW129066   0.008   1.283  16.656 -0.2805  0.1737  0.9031
 5869SOL    HW229067   0.015   1.428  16.624  0.0623 -0.1344 -3.4218
 5870SOL     OW29068   0.211   0.038   4.898 -0.5758  0.0139 -0.5288
 5870SOL    HW129069   0.244   0.086   4.822  2.8210 -0.2785  0.8111
 5870SOL    HW229070   0.276   0.025   4.966 -1.0245 -0.8926 -0.2749
 5871SOL     OW29071   2.780   0.727   2.924 -0.4506  0.0670 -0.2128
 5871SOL    HW129072   2.834   0.648   2.928  0.9157  0.9457 -1.4204
 5871SOL    HW229073   2.799   0.761   3.012  4.1655 -1.0291 -0.7767
 5872SOL     OW29074   0.591   1.628   2.702 -0.0889 -0.0365 -0.1291
 5872SOL    HW129075   0.665   1.581   2.740  0.7818  0.7177 -0.9184
 5872SOL    HW229076   0.629   1.674   2.627 -0.7649 -0.5200 -0.7718
 5873SOL     OW29077   1.430   4.070  14.062  0.3483  0.4978 -0.3071
 5873SOL    HW129078   1.415   4.043  13.971  1.4392 -1.4039  0.0765
 5873SOL    HW229079   1.484   4.000  14.100  0.0282  0.0073 -0.7472
 5874SOL     OW29080   0.931   3.330   4.796  0.0148  0.1228  0.1913
 5874SOL    HW129081   0.914   3.404   4.854  0.3999 -1.6215  2.5667
 5874SOL    HW229082   0.996   3.364   4.735  1.0499  0.7925  1.6576
 5875SOL     OW29083   2.186   3.460  17.042  0.6547  0.3839  0.0510
 5875SOL    HW129084   2.100   3.428  17.072  0.1841 -0.3729 -2.1360
 5875SOL    HW229085   2.242   3.439  17.117  2.2313  1.0485 -0.9544
 5876SOL     OW29086   4.269   0.226  11.921  0.1775 -0.4542 -0.5199
 5876SOL    HW129087   4.226   0.309  11.901  0.6460 -0.3734 -1.1873
 5876SOL    HW229088   4.233   0.179  11.845  1.8641 -0.1179 -1.5361
 5877SOL     OW29089   4.134   3.014   0.804  0.5072  0.2900  0.4124
 5877SOL    HW129090   4.071   3.085   0.791 -0.1540 -0.0403  1.8489
 5877SOL    HW229091   4.085   2.948   0.853 -1.8762  1.7813  0.0157
 5878SOL     OW29092   0.295   0.897   5.560 -0.1365  0.4949 -0.4295
 5878SOL    HW129093   0.251   0.956   5.621  0.6549  1.1069 -0.4431
 5878SOL    HW229094   0.216   0.856   5.526 -0.3784  0.0628  0.6727
 5879SOL     OW29095   2.028   3.319  16.715 -0.1717 -0.6594  0.2036
 5879SOL    HW129096   2.048   3.232  16.750 -0.2768 -1.5607 -1.9581
 5879SOL    HW229097   2.098   3.330  16.651 -0.6287  1.4856  0.0616
 5880SOL     OW29098   3.945   2.228  11.780  0.3072  0.6746 -0.3595
 5880SOL    HW129099   4.008   2.228  11.708  0.4016  1.0139 -0.2746
 5880SOL    HW229100   3.986   2.162  11.837 -0.4165  1.2208  0.7824
 5881SOL     OW29101   4.012   2.653  13.389  0.1270 -0.4905 -0.6330
 5881SOL    HW129102   3.921   2.656  13.360  0.3172  1.7106 -1.0018
 5881SOL    HW229103   4.048   2.620  13.307  1.3197  0.4227 -0.4759
 5882SOL     OW29104   4.384   3.528   3.330  0.1477  0.3016 -0.3433
 5882SOL    HW129105   4.409   3.526   3.422 -1.8894  2.1441  0.2309
 5882SOL    HW229106   4.450   3.475   3.285 -1.0025 -0.3598 -1.2361
 5883SOL     OW29107   3.398   0.227   8.536 -0.2140  0.3383  0.3474
 5883SOL    HW129108   3.462   0.206   8.605  0.3897 -0.5284 -0.4862
 5883SOL    HW229109   3.384   0.312   8.577 -2.4846  0.2815 -0.3433
 5884SOL     OW29110   1.485   1.265   4.859  0.4080 -0.1697  0.2209
 5884SOL    HW129111   1.425   1.329   4.821 -0.7698 -1.0685  0.5525
 5884SOL    HW229112   1.428   1.193   4.885  0.3961 -0.1131  0.3555
 5885SOL     OW29113   2.600   1.006   2.524 -0.0170 -1.2639  0.4321
 5885SOL    HW129114   2.511   1.001   2.561  0.4854 -2.3190  1.4974
 5885SOL    HW229115   2.640   1.076   2.576  2.1111 -1.7317 -0.6039
 5886SOL     OW29116   3.362   2.800  11.585  0.0629 -0.0493 -0.0773
 5886SOL    HW129117   3.416   2.805  11.506  0.5015 -1.5954  0.1250
 5886SOL    HW229118   3.401   2.721  11.622  0.7520  0.4561  0.2822
 5887SOL     OW29119   0.488   3.038   3.520 -0.7531 -0.4001 -0.0187
 5887SOL    HW129120   0.513   2.950   3.550  0.7286 -0.3604 -1.1440
 5887SOL    HW229121   0.576   3.074   3.514 -0.4048 -1.2416 -0.0049
 5888SOL     OW29122   1.413   3.507   8.906  0.3061 -0.0507 -0.5232
 5888SOL    HW129123   1.425   3.576   8.971  0.0695  0.2349 -0.7851
 5888SOL    HW229124   1.373   3.433   8.952  1.1274  0.4603  1.0103
 5889SOL     OW29125   2.304   3.193   5.375 -0.3396  0.1017 -0.4207
 5889SOL    HW129126   2.375   3.242   5.334  0.4540 -1.9019 -1.4349
 5889SOL    HW229127   2.254   3.261   5.422 -1.6159 -1.0668 -0.0930
 5890SOL     OW29128   1.998   1.182   3.527 -0.1603  0.4559  0.0787
 5890SOL    HW129129   2.087   1.146   3.521 -1.5625 -2.7056 -1.9911
 5890SOL    HW229130   1.998   1.197   3.622 -0.8380 -0.7595  0.2749
 5891SOL     OW29131   3.595   3.946   3.130  0.0515  0.6144 -0.0234
 5891SOL    HW129132   3.586   3.863   3.177  0.0106  0.9164  0.5034
 5891SOL    HW229133   3.678   3.935   3.083  1.3739  0.4463  2.3412
 5892SOL     OW29134   3.900   2.481   7.845  0.2960 -0.5954  0.1701
 5892SOL    HW129135   3.922   2.515   7.758  2.4496 -0.2018  0.8741
 5892SOL    HW229136   3.880   2.390   7.823 -0.7807 -0.6500  1.3651
 5893SOL     OW29137   2.739   2.095  10.084  0.0821  0.3129  0.3280
 5893SOL    HW129138   2.725   2.187  10.105 -0.8815  0.0692  0.7628
 5893SOL    HW229139   2.652   2.063  10.110  1.1132 -0.2782  3.0226
 5894SOL     OW29140   2.180   4.281   5.132  0.0802 -0.4320  0.2077
 5894SOL    HW129141   2.230   4.240   5.203 -0.0966  0.0954  0.6366
 5894SOL    HW229142   2.246   4.273   5.063  0.0106 -2.6894  0.4069
 5895SOL     OW29143   4.335   3.042   2.223  0.7555 -0.0100  0.2196
 5895SOL    HW129144   4.399   3.018   2.156 -0.0974 -2.8885  0.4296
 5895SOL    HW229145   4.397   3.016   2.291  1.9916  2.3714  0.0121
 5896SOL     OW29146   0.685   3.440   8.043  0.2806  0.0225  0.3330
 5896SOL    HW129147   0.690   3.352   8.005  0.7045  0.4868 -0.7019
 5896SOL    HW229148   0.591   3.455   8.036  0.6120  0.7182 -2.6434
 5897SOL     OW29149   4.301   2.426   5.093  0.0923  0.3959 -0.2805
 5897SOL    HW129150   4.312   2.519   5.111 -2.4518  0.7819 -0.6699
 5897SOL    HW229151   4.351   2.419   5.012 -0.8071  1.8795 -0.9641
 5898SOL     OW29152   2.113   3.840  11.698 -0.3934  0.5561  0.3997
 5898SOL    HW129153   2.074   3.753  11.707  0.9767 -0.1049 -0.0779
 5898SOL    HW229154   2.041   3.875  11.645  0.7524  0.4616 -1.2172
 5899SOL     OW29155   0.818   1.124   7.442 -0.6773  0.2260  0.3369
 5899SOL    HW129156   0.831   1.101   7.534 -3.1145 -1.5522  0.2428
 5899SOL    HW229157   0.869   1.055   7.398 -0.3619  0.0503  0.9750
 5900SOL     OW29158   3.344   4.563  11.143  0.2657 -0.3502 -0.4561
 5900SOL    HW129159   3.299   4.561  11.059  2.5724  1.1875 -1.7072
 5900SOL    HW229160   3.272   4.586  11.202  0.2003 -0.3715 -0.5279
 5901SOL     OW29161   4.340   3.634  12.935 -0.2119 -0.3591 -0.7576
 5901SOL    HW129162   4.287   3.708  12.906  2.5132  1.8848  0.0185
 5901SOL    HW229163   4.306   3.574  12.869 -1.9165 -1.4362  1.0886
 5902SOL     OW29164   1.445   3.095  16.456  0.1818 -0.0273 -0.1298
 5902SOL    HW129165   1.479   3.125  16.540 -2.0324 -0.4893  0.9208
 5902SOL    HW229166   1.470   3.003  16.453  0.9488  0.1604  0.5591
 5903SOL     OW29167   4.034   3.517   6.849 -0.4279 -0.1383 -0.2312
 5903SOL    HW129168   3.968   3.507   6.917 -0.4929 -1.6508 -0.5277
 5903SOL    HW229169   3.989   3.580   6.793  2.4834 -0.9112 -3.4766
 5904SOL     OW29170   2.752   4.285   3.236  0.4235 -0.2100  0.4830
 5904SOL    HW129171   2.836   4.240   3.226  0.9698  0.4766  1.8919
 5904SOL    HW229172   2.778   4.363   3.286 -1.3416 -1.4238  3.2846
 5905SOL     OW29173   2.088   3.978   4.144 -0.4740  0.0643  0.1986
 5905SOL    HW129174   2.066   4.003   4.234  3.4470 -0.1691  1.2230
 5905SOL    HW229175   2.060   3.887   4.140 -1.1177  0.1627  2.2615
 5906SOL     OW29176   3.891   0.018   8.440 -0.0603  0.0452 -0.4366
 5906SOL    HW129177   3.795   0.013   8.435 -0.0142 -0.9703 -0.3525
 5906SOL    HW229178   3.919   4.702   8.356  0.5009 -0.6867  0.0663
 5907SOL     OW29179   0.361   4.260   3.455 -0.0883 -0.4132 -0.1868
 5907SOL    HW129180   0.433   4.323   3.453  1.3904 -2.1461 -1.0923
 5907SOL    HW229181   0.310   4.310   3.390 -0.7902  0.6853  1.2025
 5908SOL     OW29182   0.664   3.465   9.664  0.1934 -0.0315  0.1218
 5908SOL    HW129183   0.702   3.384   9.629  0.8330  0.9962 -1.5740
 5908SOL    HW229184   0.575   3.458   9.629  0.5159 -1.8221 -0.3413
 5909SOL     OW29185   3.437   0.760  10.911  0.1677 -0.2683  0.0884
 5909SOL    HW129186   3.482   0.735  10.831 -0.1832 -0.7710  0.0517
 5909SOL    HW229187   3.393   0.679  10.937 -0.9508  0.7245  1.3056
 5910SOL     OW29188   4.078   1.399   2.760  0.0442  0.4586  0.3396
 5910SOL    HW129189   4.120   1.456   2.824 -0.6194  2.2109 -0.7767
 5910SOL    HW229190   4.155   1.367   2.714  0.5015 -0.1322  1.5281
 5911SOL     OW29191   1.604   3.393   2.340 -0.2421  0.1138 -0.0552
 5911SOL    HW129192   1.611   3.322   2.403 -3.3302  0.7259  0.9919
 5911SOL    HW229193   1.677   3.366   2.285 -0.0809 -1.1019  0.7590
 5912SOL     OW29194   1.906   1.711  11.947 -0.0929 -0.0487 -0.0949
 5912SOL    HW129195   1.831   1.665  11.985  2.0188 -1.4131  2.4541
 5912SOL    HW229196   1.960   1.633  11.931 -1.1188 -0.8171  0.1587
 5913SOL     OW29197   0.678   3.205   6.956 -0.2936 -0.4883 -0.5444
 5913SOL    HW129198   0.698   3.243   7.041 -0.9303  0.8932 -1.0153
 5913SOL    HW229199   0.602   3.155   6.987  0.1365 -1.2171 -0.6453
 5914SOL     OW29200   2.884   2.944  13.423 -0.2357 -0.1926  0.1530
 5914SOL    HW129201   2.885   2.911  13.513 -1.0102 -0.2635  0.1341
 5914SOL    HW229202   2.980   2.950  13.420 -0.2539  0.7162  1.3009
 5915SOL     OW29203   3.316   1.788   7.001  0.3518  0.4908 -0.8513
 5915SOL    HW129204   3.287   1.724   6.936  0.3967 -0.2239 -0.1730
 5915SOL    HW229205   3.245   1.852   6.994 -1.1189 -1.1648 -0.9906
 5916SOL     OW29206   1.907   1.760   2.535  0.0668 -0.1321 -0.2120
 5916SOL    HW129207   1.984   1.703   2.533  1.0717  1.2574 -1.0460
 5916SOL    HW229208   1.946   1.844   2.511  0.4721 -0.0422  0.7492
 5917SOL     OW29209   0.735   2.614   4.040 -0.2465  0.1241  0.1337
 5917SOL    HW129210   0.687   2.671   4.100 -1.4333  0.6671 -1.3470
 5917SOL    HW229211   0.679   2.537   4.049  0.3164 -0.3389 -0.3156
 5918SOL     OW29212   2.267   0.181   2.995 -0.1080  0.0600 -0.0576
 5918SOL    HW129213   2.215   0.261   2.986 -0.0711  0.1133  0.2007
 5918SOL    HW229214   2.305   0.178   2.907 -0.5889  1.8541 -0.3282
 5919SOL     OW29215   1.405   3.764   5.262 -0.3626  0.2454 -0.1214
 5919SOL    HW129216   1.445   3.846   5.288  1.4139 -0.4520 -0.6235
 5919SOL    HW229217   1.333   3.776   5.323  2.3973 -0.4336  3.2730
 5920SOL     OW29218   2.902   1.851   8.909 -0.1777  0.5287  0.1423
 5920SOL    HW129219   2.807   1.837   8.899 -0.2481 -0.7310  2.5631
 5920SOL    HW229220   2.912   1.874   9.001 -2.8918  0.7351  0.3977
 5921SOL     OW29221   1.784   3.744   2.172  0.4471 -0.3079 -0.3242
 5921SOL    HW129222   1.699   3.785   2.154  0.5568  0.7512  1.5319
 5921SOL    HW229223   1.776   3.732   2.266  1.5202 -1.7328 -0.4226
 5922SOL     OW29224   4.054   2.542   9.620 -0.4081 -0.0514  0.3818
 5922SOL    HW129225   4.072   2.529   9.713  1.8924 -1.9084 -0.3124
 5922SOL    HW229226   4.045   2.454   9.583  1.0819 -0.9201  2.0631
 5923SOL     OW29227   4.542   1.071   4.867 -0.1733  0.6967 -0.0577
 5923SOL    HW129228   4.585   0.991   4.896 -1.8287  0.2981  1.3292
 5923SOL    HW229229   4.465   1.036   4.822 -0.3956  1.6248 -0.4069
 5924SOL     OW29230   2.284   3.272  15.180 -0.0706  0.0986 -0.5133
 5924SOL    HW129231   2.293   3.341  15.114 -0.5202  0.9737  0.3311
 5924SOL    HW229232   2.195   3.289  15.212 -0.6337 -2.4735 -0.7167
 5925SOL     OW29233   3.848   0.412   6.077  0.5627 -0.3883  0.1351
 5925SOL    HW129234   3.877   0.336   6.129  1.3701  0.0398  0.3175
 5925SOL    HW229235   3.798   0.371   6.007  0.4487 -3.3310  1.9349
 5926SOL     OW29236   3.945   4.489   2.305 -0.1531  0.0989  0.6163
 5926SOL    HW129237   3.868   4.504   2.250  0.7619 -1.8310 -1.2053
 5926SOL    HW229238   3.924   4.539   2.384 -1.5000 -3.3245  2.4129
 5927SOL     OW29239   2.597   2.197   8.703 -0.5455  0.8990 -0.0239
 5927SOL    HW129240   2.616   2.119   8.755  1.7205  0.5340 -1.3897
 5927SOL    HW229241   2.684   2.235   8.716 -0.1150  0.7168 -2.3334
 5928SOL     OW29242   1.786   0.345  14.382  0.5039 -0.0997  0.2172
 5928SOL    HW129243   1.700   0.358  14.421  0.7774  1.3104  0.3287
 5928SOL    HW229244   1.816   0.266  14.429 -1.5155 -0.6072  0.6410
 5929SOL     OW29245   4.220   2.655   5.958 -0.2050 -0.4339 -0.0241
 5929SOL    HW129246   4.235   2.561   5.947  1.6339 -0.3101  1.5514
 5929SOL    HW229247   4.250   2.676   6.046  0.8626  0.1946 -0.5377
 5930SOL     OW29248   0.523   4.392   4.603  0.1793 -0.0156  0.1123
 5930SOL    HW129249   0.470   4.471   4.612  0.2938 -0.0695  1.3526
 5930SOL    HW229250   0.529   4.388   4.508  0.4443 -0.2128  0.1367
 5931SOL     OW29251   0.684   2.092   8.952 -0.1114  0.2297  0.0876
 5931SOL    HW129252   0.763   2.115   9.000  0.6625 -0.5361 -0.8317
 5931SOL    HW229253   0.622   2.132   9.013 -2.4158 -0.5807 -1.7018
 5932SOL     OW29254   2.047   1.377   6.411  0.7582 -0.3399 -0.4237
 5932SOL    HW129255   2.069   1.289   6.380 -0.4178 -1.7278  2.7040
 5932SOL    HW229256   2.072   1.379   6.503  1.1780 -2.5558 -0.5048
 5933SOL     OW29257   0.617   4.467   2.837 -0.1189  0.0766  0.1412
 5933SOL    HW129258   0.523   4.448   2.842 -0.0726 -0.4210 -0.8224
 5933SOL    HW229259   0.618   4.528   2.763  1.6421 -0.9185 -0.6475
 5934SOL     OW29260   2.134   1.215   1.666  0.2211  0.0803 -0.6120
 5934SOL    HW129261   2.192   1.180   1.734 -1.2870 -0.5265  0.3565
 5934SOL    HW229262   2.206   1.268   1.632  1.1491 -0.3874  0.5938
 5935SOL     OW29263   2.108   3.944  15.504  0.0722 -0.2124 -0.0456
 5935SOL    HW129264   2.060   4.021  15.535  0.7785 -0.3522  1.3723
 5935SOL    HW229265   2.172   3.942  15.574  1.1516  0.9464 -0.9953
 5936SOL     OW29266   1.629   1.250   8.457 -0.6843  0.2309  0.3069
 5936SOL    HW129267   1.701   1.189   8.474 -2.1542 -1.6767 -0.2640
 5936SOL    HW229268   1.564   1.227   8.524 -2.0730  0.9888 -0.7834
 5937SOL     OW29269   0.118   1.584   3.649 -0.4336 -0.1044 -0.5818
 5937SOL    HW129270   0.210   1.594   3.623 -0.6999  1.3126 -0.9799
 5937SOL    HW229271   0.087   1.670   3.620  0.6025  0.1734 -0.8899
 5938SOL     OW29272   1.612   1.259  10.265 -0.3129  0.7851 -0.1055
 5938SOL    HW129273   1.667   1.246  10.343 -0.3633  0.3906 -0.1397
 5938SOL    HW229274   1.529   1.292  10.300  0.5078  0.4627  2.1312
 5939SOL     OW29275   1.902   0.331  13.375 -0.4334  0.4038 -0.2308
 5939SOL    HW129276   1.817   0.349  13.417 -0.6423 -1.8059  0.2774
 5939SOL    HW229277   1.883   0.243  13.343 -0.8021  0.0849  0.8574
 5940SOL     OW29278   1.055   4.066  10.864 -0.2493 -0.1008  0.2323
 5940SOL    HW129279   1.100   4.105  10.940  0.5693 -0.5138 -0.0366
 5940SOL    HW229280   0.997   4.005  10.909 -0.3484 -1.4498 -1.7506
 5941SOL     OW29281   4.461   1.324   6.263  0.3242 -0.2724 -0.6176
 5941SOL    HW129282   4.443   1.371   6.181  0.8147  0.3951 -0.3440
 5941SOL    HW229283   4.425   1.386   6.326 -0.4970 -2.1795  0.7821
 5942SOL     OW29284   0.797   3.442  10.745 -0.5780 -0.3198  0.0329
 5942SOL    HW129285   0.753   3.498  10.809 -0.5109  2.4349 -2.3701
 5942SOL    HW229286   0.884   3.478  10.726  0.1894 -2.2432 -0.1740
 5943SOL     OW29287   0.349   2.200   3.865 -0.5032 -0.0981 -0.0879
 5943SOL    HW129288   0.310   2.247   3.791  1.2283 -1.4318 -1.8425
 5943SOL    HW229289   0.294   2.240   3.933 -0.7271  1.2119 -1.0423
 5944SOL     OW29290   3.278   4.335  13.335  0.0209 -0.2738  0.2060
 5944SOL    HW129291   3.204   4.327  13.274  0.6425  0.1131 -0.6054
 5944SOL    HW229292   3.300   4.422  13.301 -2.3572 -0.1042 -0.9055
 5945SOL     OW29293   1.732   2.672  15.240  0.5022  0.4725  0.1786
 5945SOL    HW129294   1.652   2.710  15.275  0.4589 -0.5298  1.1787
 5945SOL    HW229295   1.777   2.755  15.225 -1.2121  1.5042  0.8112
 5946SOL     OW29296   4.274   3.523   4.066  0.1888  0.1572 -0.6123
 5946SOL    HW129297   4.247   3.458   4.131  0.1818  1.9216  1.1384
 5946SOL    HW229298   4.331   3.581   4.116  0.7850 -1.4034  0.5116
 5947SOL     OW29299   2.911   0.977  16.119 -0.0849 -0.2639  0.1340
 5947SOL    HW129300   2.819   0.986  16.146 -0.2716 -0.8628 -0.3047
 5947SOL    HW229301   2.902   0.926  16.039 -0.7447  3.0915 -1.9536
 5948SOL     OW29302   2.283   3.676   4.365 -0.5389  0.1518 -0.1746
 5948SOL    HW129303   2.292   3.649   4.456 -1.3198 -0.2985 -0.2241
 5948SOL    HW229304   2.375   3.693   4.345 -0.0224 -0.0572  2.0334
 5949SOL     OW29305   3.262   1.096   3.264  0.1799 -0.3145  0.4920
 5949SOL    HW129306   3.353   1.093   3.233  0.6337 -2.5000  2.0622
 5949SOL    HW229307   3.220   1.054   3.189 -0.0237 -0.4901  0.7071
 5950SOL     OW29308   0.443   2.446   2.543 -0.0593  0.4365  0.2764
 5950SOL    HW129309   0.471   2.439   2.634 -0.8735 -1.1209  0.3906
 5950SOL    HW229310   0.383   2.521   2.548 -0.8929 -0.2241  0.1857
 5951SOL     OW29311   3.976   1.147   8.513  0.1179 -0.1107 -0.0825
 5951SOL    HW129312   4.048   1.157   8.575 -1.1314 -0.6858  1.4698
 5951SOL    HW229313   4.022   1.101   8.443 -0.3857 -2.3293  1.0528
 5952SOL     OW29314   1.707   2.243   7.579  0.1119  0.0363  0.1334
 5952SOL    HW129315   1.801   2.259   7.569  0.1996  0.0114  0.9622
 5952SOL    HW229316   1.708   2.251   7.674 -3.6657  1.5058  0.0580
 5953SOL     OW29317   0.890   2.595   4.661 -0.2061  0.0448 -0.3113
 5953SOL    HW129318   0.979   2.596   4.695 -0.4546 -0.2745  0.3482
 5953SOL    HW229319   0.872   2.502   4.676  0.6260  0.0568  0.7088
 5954SOL     OW29320   4.117   1.803   1.492 -0.1575 -0.1925  0.1229
 5954SOL    HW129321   4.059   1.738   1.531 -0.2290 -1.4048 -1.9974
 5954SOL    HW229322   4.200   1.783   1.535 -0.2663 -1.6210 -0.3430
 5955SOL     OW29323   0.326   4.454   9.286 -0.1117  0.6318 -0.2716
 5955SOL    HW129324   0.246   4.457   9.339 -1.2837 -0.5649 -1.9358
 5955SOL    HW229325   0.301   4.505   9.209  0.5261  0.9772 -0.2400
 5956SOL     OW29326   1.067   0.121   1.623 -0.9133 -0.5213  0.2398
 5956SOL    HW129327   0.994   0.183   1.627 -1.2288 -0.8946  0.2297
 5956SOL    HW229328   1.061   0.083   1.535  2.7400  0.9695 -0.6366
 5957SOL     OW29329   2.590   3.074   8.520  0.0218 -0.7418 -0.3024
 5957SOL    HW129330   2.542   3.067   8.603  1.3436 -0.8494  0.4627
 5957SOL    HW229331   2.540   3.016   8.463  1.5218  1.5340 -3.9126
 5958SOL     OW29332   2.034   2.249  11.139  0.4451  0.5316 -0.3139
 5958SOL    HW129333   2.126   2.275  11.127  0.0611  0.9011 -2.4848
 5958SOL    HW229334   2.018   2.324  11.197 -0.5352 -0.4057  0.6182
 5959SOL     OW29335   4.421   1.012   6.932  0.2050  0.5414 -0.3299
 5959SOL    HW129336   4.347   1.020   6.992  0.8157 -1.4971  0.6813
 5959SOL    HW229337   4.476   1.076   6.978  0.3208  0.6625 -0.6360
 5960SOL     OW29338   1.195   4.127   9.440 -0.2520 -0.1542 -0.1292
 5960SOL    HW129339   1.241   4.160   9.518  0.8793 -1.6787 -0.1584
 5960SOL    HW229340   1.189   4.033   9.455  1.1788 -0.2330 -0.0725
 5961SOL     OW29341   3.396   2.912   6.174 -0.4689  0.3129 -0.0026
 5961SOL    HW129342   3.321   2.874   6.128 -0.6692  1.3809 -0.5604
 5961SOL    HW229343   3.471   2.878   6.127 -2.5993 -2.7648 -1.1382
 5962SOL     OW29344   0.579   3.586   6.300 -0.3119 -0.0075 -0.5011
 5962SOL    HW129345   0.635   3.551   6.369 -0.5423 -2.4073 -1.5347
 5962SOL    HW229346   0.651   3.611   6.242 -1.3144  0.5182 -1.5084
 5963SOL     OW29347   1.218   2.913   5.781  0.1895  0.4959 -0.2466
 5963SOL    HW129348   1.158   2.982   5.811 -0.0447  1.0347 -1.9608
 5963SOL    HW229349   1.303   2.946   5.811 -0.1424  0.2580  0.9478
 5964SOL     OW29350   0.226   4.403   3.260 -0.2147  0.1335 -0.4421
 5964SOL    HW129351   0.296   4.458   3.225 -0.2930  1.9242  2.3096
 5964SOL    HW229352   0.222   4.344   3.184 -0.1068  1.4541 -1.4729
 5965SOL     OW29353   2.894   1.173   0.271  0.6031 -0.0725 -0.0321
 5965SOL    HW129354   2.878   1.254   0.222 -0.8950 -1.0711 -1.1789
 5965SOL    HW229355   2.987   1.157   0.255  0.5259 -0.0502 -0.5057
 5966SOL     OW29356   2.893   3.998   7.681 -0.1700  0.3862 -0.1100
 5966SOL    HW129357   2.957   3.928   7.679 -0.3135  0.2604 -0.3348
 5966SOL    HW229358   2.834   3.970   7.611 -0.6363  1.1105 -0.0136
 5967SOL     OW29359   3.344   4.380   8.456 -0.0795 -0.1318  0.0297
 5967SOL    HW129360   3.345   4.317   8.528  0.2531  0.5016  0.5931
 5967SOL    HW229361   3.373   4.461   8.500 -1.1483 -0.1634  0.7959
 5968SOL     OW29362   4.507   4.572  11.296 -0.3345 -0.1689 -0.3185
 5968SOL    HW129363   4.420   4.588  11.332 -0.5856  1.1263 -1.4964
 5968SOL    HW229364   4.528   4.648  11.242  0.5620 -0.6948 -0.7247
 5969SOL     OW29365   1.999   2.018   5.623  0.1288  0.1427 -0.1962
 5969SOL    HW129366   2.042   2.102   5.610  0.0568  0.1683 -0.2690
 5969SOL    HW229367   2.028   1.989   5.710 -0.6864 -0.4341 -0.1147
 5970SOL     OW29368   3.249   0.087   4.204  0.0056 -0.0530 -0.3751
 5970SOL    HW129369   3.239   0.009   4.150 -0.4615  0.4354 -0.9989
 5970SOL    HW229370   3.208   0.148   4.142  0.4812 -0.2645 -0.8973
 5971SOL     OW29371   4.649   2.517   8.434 -0.0732 -0.3393 -0.2502
 5971SOL    HW129372   4.590   2.510   8.509 -0.3011 -0.1023 -0.4055
 5971SOL    HW229373   4.708   2.442   8.438  1.2166  0.6115 -1.4742
 5972SOL     OW29374   3.187   3.387   6.825  0.0558  0.3407  0.5554
 5972SOL    HW129375   3.142   3.336   6.893  1.1311 -1.6238 -0.2292
 5972SOL    HW229376   3.152   3.350   6.744  0.0203  0.8258  0.3477
 5973SOL     OW29377   3.952   2.760   7.165  0.5298 -0.4387  0.3409
 5973SOL    HW129378   3.860   2.735   7.162  0.2867  0.4155  0.6263
 5973SOL    HW229379   3.953   2.837   7.108  0.9821  0.2038  1.2045
 5974SOL     OW29380   3.012   4.090   3.257 -0.0101  0.2792 -0.6565
 5974SOL    HW129381   3.039   4.088   3.166 -0.6334  0.1397 -0.8349
 5974SOL    HW229382   2.945   4.022   3.260  0.5898 -0.2779 -0.0469
 5975SOL     OW29383   4.521   2.433  13.996 -0.1170  0.1794  0.0052
 5975SOL    HW129384   4.557   2.348  14.024 -0.0249  0.4056  0.5772
 5975SOL    HW229385   4.536   2.421  13.902 -2.8250  1.6222 -0.6042
 5976SOL     OW29386   3.823   0.351   3.681  0.3145 -0.0279  0.0762
 5976SOL    HW129387   3.746   0.316   3.726  1.1867 -0.9592  0.8692
 5976SOL    HW229388   3.894   0.296   3.715  1.8233  1.5989 -0.4366
 5977SOL     OW29389   2.872   0.325  15.557 -0.6515  0.1867  0.5557
 5977SOL    HW129390   2.844   0.346  15.469 -1.3589 -0.3620  0.6521
 5977SOL    HW229391   2.851   0.232  15.562 -0.3482  0.0122 -1.4526
 5978SOL     OW29392   1.520   3.823   2.155 -0.0518  0.2806 -0.0316
 5978SOL    HW129393   1.470   3.784   2.227  1.5217 -1.6875 -0.0242
 5978SOL    HW229394   1.455   3.879   2.112 -0.0763  0.1601 -0.1488
 5979SOL     OW29395   4.705   0.068   9.981  0.4107 -0.3063  0.7157
 5979SOL    HW129396   0.055   0.058  10.045  1.7637 -0.9374 -0.8702
 5979SOL    HW229397   0.001   0.158   9.952 -2.5757 -0.4181 -1.2604
 5980SOL     OW29398   0.056   4.363   0.818  0.4826 -0.0152  0.0688
 5980SOL    HW129399   0.053   4.459   0.816  0.2786 -0.0728 -2.8711
 5980SOL    HW229400   0.146   4.342   0.792  0.4533 -0.9472  0.7200
 5981SOL     OW29401   4.699   1.851   6.000 -0.1502 -0.0805  0.2992
 5981SOL    HW129402   0.050   1.802   5.958  0.5695  0.2147  1.1762
 5981SOL    HW229403   4.623   1.817   5.953  1.0407 -1.3656 -0.6963
 5982SOL     OW29404   0.793   1.785   0.772  0.5664  0.0609  0.1309
 5982SOL    HW129405   0.771   1.867   0.817  1.0262  0.3007 -0.0776
 5982SOL    HW229406   0.802   1.724   0.845  0.7702  1.7523  1.5203
 5983SOL     OW29407   2.586   1.886   8.831  0.1820  0.3254 -0.1312
 5983SOL    HW129408   2.516   1.820   8.836  1.4450 -1.1246 -1.7494
 5983SOL    HW229409   2.607   1.866   8.740  1.2976 -1.3699  0.4975
 5984SOL     OW29410   2.685   2.105  12.775  0.2997  0.9707 -0.0132
 5984SOL    HW129411   2.593   2.122  12.753  0.3672 -1.1332 -1.9234
 5984SOL    HW229412   2.684   2.142  12.863  0.8188  1.8232 -0.3731
 5985SOL     OW29413   4.299   4.625   8.624  0.2632 -0.1589  0.2389
 5985SOL    HW129414   4.241   4.582   8.562  0.1464 -0.3465  0.4777
 5985SOL    HW229415   4.382   4.588   8.594 -0.2736 -1.0329 -0.1753
 5986SOL     OW29416   2.185   1.528   8.627  0.2939  0.1409  0.0308
 5986SOL    HW129417   2.103   1.491   8.595  0.1319 -0.3707  1.0112
 5986SOL    HW229418   2.156   1.613   8.659  1.5521  1.8064 -3.3272
 5987SOL     OW29419   1.020   1.982   4.829 -0.0347 -0.1360  0.0366
 5987SOL    HW129420   1.095   2.001   4.773 -0.3277  0.3207 -0.2037
 5987SOL    HW229421   0.966   2.054   4.798 -0.5457 -0.3846  0.3535
 5988SOL     OW29422   0.367   4.126  11.872 -0.1233 -0.1153 -0.4961
 5988SOL    HW129423   0.426   4.194  11.838  0.6054  0.3524  1.6713
 5988SOL    HW229424   0.409   4.052  11.830 -1.7804 -1.4905  0.2769
 5989SOL     OW29425   0.589   1.454   6.062 -0.0883  0.3896  0.3758
 5989SOL    HW129426   0.683   1.435   6.059  0.1154  1.2823  1.0769
 5989SOL    HW229427   0.587   1.520   5.992  0.0693  0.2307  0.2233
 5990SOL     OW29428   0.308   3.526   3.700  0.0974  0.5526 -0.1461
 5990SOL    HW129429   0.333   3.489   3.784  0.8084 -1.1167 -1.0798
 5990SOL    HW229430   0.278   3.457   3.640 -0.1522 -0.7553  1.4841
 5991SOL     OW29431   3.324   1.940   3.349  0.0016  0.2984  0.3118
 5991SOL    HW129432   3.363   1.943   3.436  0.0234  0.4290  0.2973
 5991SOL    HW229433   3.368   2.007   3.297  3.3451 -1.4204  0.9239
 5992SOL     OW29434   3.646   1.051   5.598  0.1543 -0.0617 -0.1158
 5992SOL    HW129435   3.598   1.101   5.533  2.8380  2.1061 -0.4623
 5992SOL    HW229436   3.644   0.963   5.563 -0.3213  0.4252 -1.2849
 5993SOL     OW29437   3.224   2.702   3.981  0.2243  0.2262 -0.8744
 5993SOL    HW129438   3.138   2.705   3.939 -0.3019  1.9587  0.3526
 5993SOL    HW229439   3.279   2.729   3.908 -0.3641  0.1508 -1.3475
 5994SOL     OW29440   1.557   2.190   5.542 -0.0656 -0.4812 -0.0047
 5994SOL    HW129441   1.567   2.228   5.629  1.5504  1.3909 -0.9984
 5994SOL    HW229442   1.478   2.138   5.551 -0.2284 -0.4542 -1.3453
 5995SOL     OW29443   3.171   2.907   9.166 -0.5644  0.1310 -0.4888
 5995SOL    HW129444   3.264   2.885   9.158 -0.3413  0.6146  0.8145
 5995SOL    HW229445   3.131   2.895   9.079  0.5756 -1.6839 -0.7539
 5996SOL     OW29446   4.487   2.127   2.273  0.0607  0.3371  0.8827
 5996SOL    HW129447   4.452   2.144   2.361 -1.1363  0.9453  0.3023
 5996SOL    HW229448   4.566   2.078   2.294 -0.4172 -1.0297 -0.5307
 5997SOL     OW29449   4.022   0.425   1.127  0.2445  0.4425  0.0845
 5997SOL    HW129450   4.006   0.412   1.221 -0.7034 -0.4572 -0.1966
 5997SOL    HW229451   4.018   0.336   1.091 -1.2034 -0.4109  2.3689
 5998SOL     OW29452   4.012   2.571   7.000 -0.2089 -0.0924 -0.2544
 5998SOL    HW129453   4.063   2.625   6.939  2.4447  0.1091  2.1049
 5998SOL    HW229454   4.007   2.634   7.073 -0.5122  2.6317 -2.6234
 5999SOL     OW29455   1.569   3.806   2.562  0.5759 -0.1139  0.3752
 5999SOL    HW129456   1.498   3.798   2.497  0.1333 -2.1067  1.1093
 5999SOL    HW229457   1.622   3.737   2.523  0.4412 -0.0157  0.0160
 6000SOL     OW29458   2.036   0.563   7.418 -0.0509 -0.5732  0.0933
 6000SOL    HW129459   2.114   0.574   7.473 -0.5125 -0.2994  0.6877
 6000SOL    HW229460   1.984   0.643   7.423 -1.7067 -1.6474 -0.0377
 6001SOL     OW29461   0.620   0.529  17.297 -0.1671 -0.0458  0.2128
 6001SOL    HW129462   0.601   0.520  17.391 -0.3668 -1.3409  0.0488
 6001SOL    HW229463   0.669   0.448  17.283  0.1038 -0.0132  0.9602
 6002SOL     OW29464   3.424   3.331  12.927  0.0407 -0.1045  0.2346
 6002SOL    HW129465   3.481   3.261  12.960  0.6487 -0.9324 -2.5582
 6002SOL    HW229466   3.340   3.294  12.899 -0.2593  0.2398  0.6761
 6003SOL     OW29467   3.485   1.032  10.952 -0.3925 -0.5331  0.0792
 6003SOL    HW129468   3.579   1.022  10.936 -0.2855  0.3879  0.1244
 6003SOL    HW229469   3.456   0.942  10.937 -2.6423 -0.0434  1.5089
 6004SOL     OW29470   0.537   1.940   6.748 -0.5597  0.0379  0.4413
 6004SOL    HW129471   0.568   1.877   6.812  2.9422  0.5827 -0.7039
 6004SOL    HW229472   0.448   1.960   6.777 -0.6651  1.8769 -1.1139
 6005SOL     OW29473   3.705   3.858   1.223  0.6665 -0.2881 -0.1905
 6005SOL    HW129474   3.670   3.795   1.161 -1.5728  0.3529  0.4407
 6005SOL    HW229475   3.633   3.920   1.234  0.2086 -0.8300 -0.1797
 6006SOL     OW29476   2.513   4.701   8.376 -0.4362 -0.2032 -0.2472
 6006SOL    HW129477   2.471   4.617   8.357  0.2660 -0.6784  0.2978
 6006SOL    HW229478   2.446   0.042   8.409  0.4013 -0.5943  2.1927
 6007SOL     OW29479   2.237   3.709   7.357 -0.3887 -0.1077 -0.1735
 6007SOL    HW129480   2.261   3.625   7.396  3.3849  1.4613  0.9255
 6007SOL    HW229481   2.160   3.730   7.409 -1.1433 -1.2897 -0.8401
 6008SOL     OW29482   3.002   1.461  12.861 -0.1329  0.3975  0.6193
 6008SOL    HW129483   2.914   1.493  12.839 -0.7417 -1.7770 -0.0925
 6008SOL    HW229484   2.993   1.466  12.957  3.8959  1.8772  0.9109
 6009SOL     OW29485   3.514   4.099   9.592 -0.5190 -0.4350  0.9283
 6009SOL    HW129486   3.601   4.072   9.560 -1.0738 -0.2852 -0.7011
 6009SOL    HW229487   3.533   4.102   9.686  0.4330 -3.7922  0.8467
 6010SOL     OW29488   3.682   3.836  13.928  0.5785 -0.4356 -0.0008
 6010SOL    HW129489   3.747   3.905  13.915  0.4252 -0.5052 -1.1012
 6010SOL    HW229490   3.617   3.882  13.982 -0.6732 -0.9365 -1.0708
 6011SOL     OW29491   2.676   0.241   5.069 -0.3501  0.1667 -0.1582
 6011SOL    HW129492   2.768   0.255   5.091  0.1048 -0.3713 -1.6961
 6011SOL    HW229493   2.627   0.286   5.138 -0.9247 -0.0277 -0.4371
 6012SOL     OW29494   4.640   1.850   9.497 -0.2834  0.1051  0.0823
 6012SOL    HW129495   4.674   1.767   9.529  1.4174  0.1363 -1.7258
 6012SOL    HW229496   4.552   1.846   9.536 -0.6895 -1.2430 -0.9856
 6013SOL     OW29497   3.194   0.775  16.416 -0.1835 -0.1854  0.1542
 6013SOL    HW129498   3.264   0.739  16.362 -0.3165  3.3504 -2.3872
 6013SOL    HW229499   3.187   0.710  16.486 -1.3673  0.2136  0.4163
 6014SOL     OW29500   2.453   2.158   3.127  0.0941  0.4617  0.0677
 6014SOL    HW129501   2.467   2.085   3.187 -0.6152 -0.2429 -0.6256
 6014SOL    HW229502   2.468   2.236   3.181 -0.7051  0.7364 -0.0995
 6015SOL     OW29503   0.065   0.861   2.705 -0.6093 -0.0548  0.0847
 6015SOL    HW129504   0.099   0.947   2.730  1.1056 -0.4807 -0.7628
 6015SOL    HW229505   4.689   0.864   2.697 -0.7603 -0.6898  1.6288
 6016SOL     OW29506   0.637   4.413  10.614 -0.0928 -0.1886 -0.3128
 6016SOL    HW129507   0.695   4.350  10.656  1.7431  0.8608 -1.2937
 6016SOL    HW229508   0.554   4.384  10.652  0.1799  2.3233  2.2245
 6017SOL     OW29509   4.427   0.154   8.574 -0.2307 -0.5102 -0.3033
 6017SOL    HW129510   4.386   0.069   8.593 -0.1422 -0.5422 -0.2537
 6017SOL    HW229511   4.520   0.140   8.590 -0.2331 -0.7514 -0.4931
 6018SOL     OW29512   1.306   1.223   2.472 -0.1587 -0.7298  0.2749
 6018SOL    HW129513   1.400   1.206   2.469 -0.2577 -1.1502 -0.4538
 6018SOL    HW229514   1.280   1.136   2.504 -0.9131 -0.5165  0.2425
 6019SOL     OW29515   0.519   1.825   6.988 -0.0606  0.5351 -0.2926
 6019SOL    HW129516   0.505   1.752   7.048  1.0606  1.6087  1.2558
 6019SOL    HW229517   0.584   1.877   7.036 -0.2586 -0.3630  0.9312
 6020SOL     OW29518   1.163   1.653  16.835 -1.0571 -0.3532  0.5063
 6020SOL    HW129519   1.090   1.663  16.773 -2.0960 -1.0697  1.6029
 6020SOL    HW229520   1.119   1.668  16.919 -1.6468  2.3911 -0.2846
 6021SOL     OW29521   4.326   1.946   7.327  0.5920 -0.5671 -0.0213
 6021SOL    HW129522   4.403   1.920   7.276 -0.3224  1.0933 -2.2571
 6021SOL    HW229523   4.284   2.006   7.265 -0.4271  0.4428  1.6560
 6022SOL     OW29524   2.621   2.309   0.910  0.5055  0.1448  0.2901
 6022SOL    HW129525   2.632   2.380   0.973 -0.6520 -0.0386  0.6993
 6022SOL    HW229526   2.704   2.263   0.918  0.0198 -0.7031  0.3702
 6023SOL     OW29527   0.806   3.587   7.323  0.0166  0.1549  0.6363
 6023SOL    HW129528   0.830   3.540   7.243  2.0209  0.2344  1.1891
 6023SOL    HW229529   0.817   3.519   7.391 -1.3230 -0.0526  0.6469
 6024SOL     OW29530   4.332   0.967   9.770 -0.0494 -0.6142 -0.2469
 6024SOL    HW129531   4.406   0.979   9.830  0.3802  0.5701 -1.0257
 6024SOL    HW229532   4.317   0.876   9.795 -0.6377  0.5661  3.7293
 6025SOL     OW29533   4.186   1.388   7.398 -0.4829 -0.3146 -0.1186
 6025SOL    HW129534   4.106   1.335   7.395 -0.5565 -0.2408  0.6005
 6025SOL    HW229535   4.150   1.474   7.376  0.0247  0.1083  0.7118
 6026SOL     OW29536   3.389   4.317  12.761 -0.6072  0.5420 -0.0530
 6026SOL    HW129537   3.401   4.308  12.666  0.6253  1.2206  0.0518
 6026SOL    HW229538   3.420   4.407  12.768 -1.8079  0.7658  2.5375
 6027SOL     OW29539   1.949   1.820   1.112 -0.1010  0.0090 -0.0787
 6027SOL    HW129540   2.043   1.806   1.099 -0.7210 -2.0352 -2.3725
 6027SOL    HW229541   1.935   1.912   1.089 -1.2652 -0.5177 -1.4634
 6028SOL     OW29542   1.691   2.465  12.678  0.2211 -0.2043  0.3580
 6028SOL    HW129543   1.627   2.537  12.672  0.0930 -0.7040 -3.9103
 6028SOL    HW229544   1.664   2.416  12.601  1.2511  1.8784 -1.3325
 6029SOL     OW29545   1.648   0.952   1.130 -0.0609  0.3591 -0.7503
 6029SOL    HW129546   1.650   0.976   1.223 -3.1691 -0.1236 -0.5719
 6029SOL    HW229547   1.726   0.896   1.133  0.7980  1.5998  0.0616
 6030SOL     OW29548   1.162   1.577   8.325  0.0763 -0.2173 -0.4870
 6030SOL    HW129549   1.200   1.662   8.305 -1.2207 -0.2119 -2.9179
 6030SOL    HW229550   1.220   1.560   8.399  1.4057 -2.9653 -2.1510
 6031SOL     OW29551   1.098   0.024  17.544 -0.3397 -0.4492 -0.2847
 6031SOL    HW129552   1.120   0.118  17.540 -1.0548 -0.2661  0.0705
 6031SOL    HW229553   1.056   0.019  17.630  1.5289  0.3818  0.6751
 6032SOL     OW29554   1.341   3.809   7.442  1.0283  0.6990  0.1283
 6032SOL    HW129555   1.263   3.760   7.468  0.3556  0.5903 -2.1156
 6032SOL    HW229556   1.306   3.895   7.463  0.1548  0.1111  1.0641
 6033SOL     OW29557   0.965   3.157   6.252  0.0759 -0.1396  0.1838
 6033SOL    HW129558   0.931   3.116   6.332  1.6334 -1.4029  0.1955
 6033SOL    HW229559   1.049   3.183   6.289 -0.1498  2.2690 -0.9558
 6034SOL     OW29560   2.079   2.479   4.797 -0.0488  0.0513  0.1178
 6034SOL    HW129561   2.140   2.487   4.724  0.8117 -1.3445  0.7016
 6034SOL    HW229562   2.004   2.520   4.753 -0.4944 -2.4777 -1.4447
 6035SOL     OW29563   3.678   4.341   5.488  0.1711 -0.3346 -0.5301
 6035SOL    HW129564   3.721   4.417   5.528 -1.0368 -0.4217  0.9445
 6035SOL    HW229565   3.649   4.320   5.577 -1.2218 -2.7037 -1.5458
 6036SOL     OW29566   2.938   1.916   0.610 -0.3959 -0.0925  0.3964
 6036SOL    HW129567   2.919   1.980   0.679  1.1936 -0.9342  1.6294
 6036SOL    HW229568   3.032   1.905   0.623 -0.2887 -0.5933 -0.8514
 6037SOL     OW29569   3.720   1.493   6.788  0.3041 -0.2030 -0.1784
 6037SOL    HW129570   3.744   1.580   6.756  0.3422 -0.1925 -0.1205
 6037SOL    HW229571   3.664   1.512   6.863  1.4311  1.8051  0.1567
 6038SOL     OW29572   0.970   3.806  16.356  0.4571 -0.3449  0.0943
 6038SOL    HW129573   1.057   3.846  16.354  0.3673 -0.1175  0.6243
 6038SOL    HW229574   0.952   3.794  16.263 -1.9611  0.7215  0.4137
 6039SOL     OW29575   2.901   1.524  13.105 -0.0453 -0.3303 -0.0907
 6039SOL    HW129576   2.927   1.589  13.170 -0.2190  0.2209 -0.5692
 6039SOL    HW229577   2.810   1.553  13.106 -0.3883 -1.4563  1.8514
 6040SOL     OW29578   0.756   3.524   3.568  0.5458 -0.6240  0.0208
 6040SOL    HW129579   0.687   3.458   3.560  1.5030 -1.5615 -0.5033
 6040SOL    HW229580   0.704   3.597   3.534  0.3003 -1.9025 -2.3227
 6041SOL     OW29581   0.364   4.115   8.734  0.0842  0.4526 -0.3400
 6041SOL    HW129582   0.337   4.026   8.758 -1.9215  1.3459  0.6754
 6041SOL    HW229583   0.293   4.166   8.772  0.3066 -0.5178  1.3749
 6042SOL     OW29584   0.330   1.071   7.997  0.0591 -0.0120 -0.3287
 6042SOL    HW129585   0.302   0.995   8.048  2.0769 -0.6459 -0.1706
 6042SOL    HW229586   0.277   1.145   8.027 -2.6115 -1.8547 -0.4266
 6043SOL     OW29587   3.955   3.209   5.587 -0.2948  0.1028  0.1688
 6043SOL    HW129588   4.050   3.207   5.587 -0.2834  0.9031 -1.8757
 6043SOL    HW229589   3.936   3.294   5.627  1.8996 -0.2681  1.9296
 6044SOL     OW29590   1.644   4.443   8.446  0.3536 -0.0591 -0.0051
 6044SOL    HW129591   1.604   4.373   8.497  1.0575 -0.5981 -0.1995
 6044SOL    HW229592   1.566   4.499   8.439  0.9880  0.7357 -0.8131
 6045SOL     OW29593   1.326   2.408  14.325  0.8379  0.3156  0.4677
 6045SOL    HW129594   1.273   2.415  14.405  1.8782  0.3653  1.1549
 6045SOL    HW229595   1.282   2.473  14.271  0.5939 -0.3855 -0.1734
 6046SOL     OW29596   4.699   2.791   7.678 -0.9831  0.1322  0.1414
 6046SOL    HW129597   4.679   2.860   7.741 -3.8877 -0.4548 -0.1487
 6046SOL    HW229598   4.615   2.748   7.692  0.6412 -3.4918 -1.2913
 6047SOL     OW29599   1.519   0.581   2.885 -0.3021  0.0406 -0.3145
 6047SOL    HW129600   1.566   0.538   2.813 -1.0796  1.8640 -1.9134
 6047SOL    HW229601   1.429   0.565   2.857 -0.7084  1.2743  0.2684
 6048SOL     OW29602   2.215   0.892   3.651 -0.2306 -0.1483 -0.0742
 6048SOL    HW129603   2.250   0.809   3.620  1.4427  0.4748  0.1544
 6048SOL    HW229604   2.120   0.884   3.642  0.1916 -2.4822 -2.3307
 6049SOL     OW29605   4.558   2.368   7.570 -0.1557  0.5881 -0.1523
 6049SOL    HW129606   4.614   2.384   7.646  1.5523 -0.4418 -1.2094
 6049SOL    HW229607   4.590   2.281   7.544 -1.2409 -0.2223  1.2070
 6050SOL     OW29608   2.298   0.523   6.991 -0.5309 -0.0425  0.7044
 6050SOL    HW129609   2.326   0.437   7.021 -0.5730 -0.8388 -1.5750
 6050SOL    HW229610   2.263   0.516   6.903  1.5205 -2.4290  0.0997
 6051SOL     OW29611   1.927   0.590  13.355 -0.3192 -0.4730 -0.0684
 6051SOL    HW129612   1.836   0.576  13.331  0.5662 -2.8443 -2.0604
 6051SOL    HW229613   1.954   0.500  13.373  0.9850  0.4180  2.4776
 6052SOL     OW29614   2.196   2.780   4.641  0.2841 -0.9912  0.3410
 6052SOL    HW129615   2.241   2.712   4.690  0.3044 -1.7492 -0.7273
 6052SOL    HW229616   2.194   2.731   4.559 -1.5592 -0.0147 -0.2014
 6053SOL     OW29617   1.113   0.786   8.610 -0.0167  0.4210 -0.0352
 6053SOL    HW129618   1.089   0.773   8.518  2.8012 -1.2350 -0.5346
 6053SOL    HW229619   1.031   0.768   8.655 -1.0399  2.2578 -1.1347
 6054SOL     OW29620   0.402   2.021   5.760 -0.2068  0.1659  0.1549
 6054SOL    HW129621   0.394   1.978   5.675 -0.1972  1.6306 -0.5829
 6054SOL    HW229622   0.450   2.096   5.725 -0.7468  0.3424 -0.2074
 6055SOL     OW29623   2.247   4.506   4.679 -0.2887 -0.2563 -0.0319
 6055SOL    HW129624   2.175   4.458   4.640  1.4415 -2.8872 -0.0069
 6055SOL    HW229625   2.310   4.506   4.607  1.1010 -1.3205  1.1673
 6056SOL     OW29626   1.461   3.891   6.687  0.2232 -0.4916  0.5680
 6056SOL    HW129627   1.552   3.919   6.700  0.3036 -0.6559  0.3514
 6056SOL    HW229628   1.419   3.953   6.747  0.2419  1.4811 -1.4425
 6057SOL     OW29629   1.552   0.503   4.097 -0.2397 -0.0950  0.1195
 6057SOL    HW129630   1.510   0.550   4.169 -0.2120  0.7905 -0.4390
 6057SOL    HW229631   1.575   0.580   4.045 -0.7774  0.4207  0.6555
 6058SOL     OW29632   4.118   0.778   1.993 -0.2074  0.3462  0.5573
 6058SOL    HW129633   4.161   0.863   1.982  2.7708 -1.0721  1.1711
 6058SOL    HW229634   4.059   0.775   1.917 -1.1959  3.1435  1.2051
 6059SOL     OW29635   2.903   3.723   0.003  0.0270  0.1054 -0.4605
 6059SOL    HW129636   2.998   3.711   0.005  0.2395  1.8953  0.3208
 6059SOL    HW229637   2.901   3.737   0.098  3.0941 -4.1773  0.2017
 6060SOL     OW29638   0.093   1.273   6.840 -0.3045  0.3231  0.2485
 6060SOL    HW129639   0.008   1.316   6.850  1.1110  2.7778  1.5901
 6060SOL    HW229640   0.077   1.180   6.857  1.3734  0.5435  3.0446
 6061SOL     OW29641   4.171   4.186   1.649 -0.1746 -0.2947 -0.1494
 6061SOL    HW129642   4.250   4.173   1.597 -0.5557 -0.2175 -0.7450
 6061SOL    HW229643   4.148   4.093   1.653  1.6859 -0.7920 -0.9896
 6062SOL     OW29644   2.847   1.615   6.102  0.1580  1.0431 -0.1051
 6062SOL    HW129645   2.775   1.660   6.059  1.4927  1.3222 -2.0201
 6062SOL    HW229646   2.808   1.531   6.126 -1.5806  2.2821  1.4328
 6063SOL     OW29647   2.768   1.099   2.356 -0.1193  0.2672  0.2843
 6063SOL    HW129648   2.845   1.076   2.408  1.1617  0.8890 -1.3188
 6063SOL    HW229649   2.697   1.077   2.416  2.0137 -2.5662  1.7954
 6064SOL     OW29650   1.962   2.280   7.508 -0.0621  0.5141  0.4727
 6064SOL    HW129651   2.052   2.271   7.538 -0.1126  1.4042  0.9018
 6064SOL    HW229652   1.950   2.195   7.465  0.9981 -0.2326  1.6629
 6065SOL     OW29653   0.026   2.626   5.438  0.1235 -0.2331 -0.3797
 6065SOL    HW129654   4.714   2.552   5.490  1.8053 -0.7535 -0.1352
 6065SOL    HW229655   0.019   2.684   5.514 -0.9550  1.0303 -1.4350
 6066SOL     OW29656   0.532   3.418   3.506 -0.2389 -0.2145 -0.1477
 6066SOL    HW129657   0.489   3.374   3.580  1.2300 -1.6278 -0.1459
 6066SOL    HW229658   0.531   3.355   3.434 -1.8991 -0.5748  0.1879
 6067SOL     OW29659   3.004   0.526   9.166 -0.0963 -0.5121  0.3009
 6067SOL    HW129660   3.039   0.606   9.207 -0.3184 -0.7519  0.9672
 6067SOL    HW229661   2.944   0.549   9.095 -0.8117 -0.3918  0.9445
 6068SOL     OW29662   3.111   4.546   1.640  0.6047  0.0412  0.1224
 6068SOL    HW129663   3.173   4.605   1.599 -0.7540  1.2183 -0.2416
 6068SOL    HW229664   3.033   4.571   1.590  0.3554 -0.2986  0.3417
 6069SOL     OW29665   0.947   2.577   8.125  0.4515 -0.0494 -0.0302
 6069SOL    HW129666   0.947   2.505   8.188 -3.0126  0.3352  0.4486
 6069SOL    HW229667   0.940   2.528   8.043  0.1321  0.9484 -0.6068
 6070SOL     OW29668   4.439   0.441   1.165  0.1420 -0.4102 -0.4678
 6070SOL    HW129669   4.387   0.459   1.243 -0.3378 -0.2329 -0.8205
 6070SOL    HW229670   4.454   0.347   1.166  0.0105 -0.4456 -1.3266
 6071SOL     OW29671   4.395   3.461  13.999 -0.2944  0.9386  0.0606
 6071SOL    HW129672   4.355   3.386  13.955  3.5066 -0.3160 -1.2487
 6071SOL    HW229673   4.386   3.435  14.091 -3.7797  1.5563 -0.1042
 6072SOL     OW29674   2.065   2.301   3.722  0.3096  0.4857 -0.5266
 6072SOL    HW129675   1.982   2.267   3.754  0.9046  1.1726  1.7414
 6072SOL    HW229676   2.047   2.303   3.628 -2.4401 -2.2293 -0.0593
 6073SOL     OW29677   3.450   4.570   0.855  0.3537  0.8737  0.2675
 6073SOL    HW129678   3.491   4.590   0.771 -1.1513 -2.9191 -1.3850
 6073SOL    HW229679   3.485   4.638   0.911  0.4533 -0.2779  1.5927
 6074SOL     OW29680   4.368   1.157   4.544  0.1463  0.3390  0.1426
 6074SOL    HW129681   4.351   1.075   4.591 -1.3589 -0.0113 -1.0338
 6074SOL    HW229682   4.304   1.130   4.478 -1.3560  0.2931  1.6297
 6075SOL     OW29683   0.689   2.423   5.840  0.4216  0.2695 -0.4599
 6075SOL    HW129684   0.715   2.495   5.897 -0.3561 -0.8346  1.2834
 6075SOL    HW229685   0.639   2.459   5.766 -2.8913 -1.0426  1.1366
 6076SOL     OW29686   3.595   4.242  10.677 -0.0531  0.6391  0.2963
 6076SOL    HW129687   3.582   4.150  10.654 -0.4582  0.9064 -0.5491
 6076SOL    HW229688   3.531   4.246  10.748  0.3662 -0.3894  0.7283
 6077SOL     OW29689   2.285   4.527   8.737 -0.0137 -0.2354  0.3684
 6077SOL    HW129690   2.332   4.447   8.760  0.0439  0.5291  2.9606
 6077SOL    HW229691   2.283   4.577   8.819  1.3314 -1.2409  1.0187
 6078SOL     OW29692   3.325   0.366   5.702  0.4075 -0.1711  0.0006
 6078SOL    HW129693   3.252   0.304   5.696  1.6377 -1.7254  0.8706
 6078SOL    HW229694   3.279   0.433   5.752  1.1270 -0.1427  0.6309
 6079SOL     OW29695   0.370   4.458  13.610 -0.0860 -0.3751 -0.1119
 6079SOL    HW129696   0.277   4.456  13.585 -0.9651  1.1002  3.1021
 6079SOL    HW229697   0.365   4.531  13.672 -1.8421  0.7543 -1.5937
 6080SOL     OW29698   1.018   2.429   7.755 -0.0590 -0.3806 -0.2434
 6080SOL    HW129699   0.989   2.395   7.840  1.2044 -2.3508 -0.6122
 6080SOL    HW229700   1.077   2.366   7.715 -0.3082 -1.1465  0.5804
 6081SOL     OW29701   4.572   1.248   8.780  0.4564  0.3118 -0.0403
 6081SOL    HW129702   4.501   1.197   8.818 -0.7997  1.7063 -0.4825
 6081SOL    HW229703   4.629   1.255   8.857 -0.9822  1.0492  0.9535
 6082SOL     OW29704   1.791   1.305   7.300  0.1130  0.0078 -0.4322
 6082SOL    HW129705   1.801   1.399   7.313 -0.3576  0.5624 -3.9779
 6082SOL    HW229706   1.884   1.282   7.300  0.5908  1.9592 -0.0951
 6083SOL     OW29707   1.382   2.146   1.174 -0.1951  0.1880 -0.0543
 6083SOL    HW129708   1.331   2.213   1.130 -1.5551 -1.0424 -0.3354
 6083SOL    HW229709   1.438   2.204   1.226 -0.2295 -0.1774  0.3944
 6084SOL     OW29710   1.335   1.582   5.661 -0.4283  0.1079  0.0022
 6084SOL    HW129711   1.352   1.674   5.640  2.3586 -0.0754  1.4486
 6084SOL    HW229712   1.256   1.587   5.714 -0.4793 -0.2205 -0.0429
 6085SOL     OW29713   3.676   4.714   5.217 -0.3883 -0.1558 -0.3088
 6085SOL    HW129714   3.628   0.017   5.297 -1.5699  0.0733 -1.0925
 6085SOL    HW229715   3.620   0.007   5.141 -3.8734  0.7156  2.3991
 6086SOL     OW29716   3.328   2.579   3.362  0.1430 -0.2588 -0.5329
 6086SOL    HW129717   3.235   2.601   3.375  0.2807 -0.5497  0.8679
 6086SOL    HW229718   3.361   2.663   3.328  1.4841  0.0475  1.5054
 6087SOL     OW29719   2.531   4.711  10.609  0.4662  0.0935 -0.1518
 6087SOL    HW129720   2.482   4.645  10.559 -1.4726 -0.3140  2.2819
 6087SOL    HW229721   2.622   4.690  10.587  0.5691 -0.4565  0.7950
 6088SOL     OW29722   1.397   1.235   6.212 -0.2696  0.2202 -0.1500
 6088SOL    HW129723   1.348   1.285   6.147 -0.5742 -1.0336 -0.8958
 6088SOL    HW229724   1.413   1.296   6.284 -0.5004 -0.0609  0.1413
 6089SOL     OW29725   1.022   3.370   6.468 -0.2179  0.8451 -0.6589
 6089SOL    HW129726   0.986   3.393   6.383  2.9376  0.4863 -2.0861
 6089SOL    HW229727   0.942   3.374   6.521  0.1071  0.9965 -0.1757
 6090SOL     OW29728   0.512   1.611   1.281 -0.1265 -0.1062  0.3803
 6090SOL    HW129729   0.430   1.563   1.268 -0.5842  1.1462 -1.4022
 6090SOL    HW229730   0.510   1.621   1.376 -1.4915 -1.7317  0.5170
 6091SOL     OW29731   4.493   1.230   9.107 -0.2393  0.1924  0.2608
 6091SOL    HW129732   4.566   1.182   9.147 -0.5873 -0.4010  0.1908
 6091SOL    HW229733   4.538   1.311   9.082 -1.5493  0.4912 -1.1328
 6092SOL     OW29734   1.438   0.663   8.599 -0.4172 -0.1631  0.2477
 6092SOL    HW129735   1.486   0.593   8.643 -2.5071 -1.3167  0.6853
 6092SOL    HW229736   1.389   0.685   8.677  0.6142 -0.6368  1.0365
 6093SOL     OW29737   2.301   1.185  11.737  0.7209  0.5079 -0.2156
 6093SOL    HW129738   2.290   1.267  11.784 -2.7612 -1.4284  2.3705
 6093SOL    HW229739   2.302   1.123  11.810 -1.1077  0.2403 -0.4180
 6094SOL     OW29740   3.148   2.878   3.477  0.2673  0.1160 -0.3670
 6094SOL    HW129741   3.172   2.968   3.500 -0.6356  0.0971  0.6574
 6094SOL    HW229742   3.199   2.866   3.397  1.7896 -0.1615  0.6449
 6095SOL     OW29743   0.301   3.809   7.779 -0.6406 -0.4551 -0.3527
 6095SOL    HW129744   0.219   3.842   7.742 -0.8795  2.3688  2.6667
 6095SOL    HW229745   0.338   3.771   7.700  0.6586 -0.1951  0.1264
 6096SOL     OW29746   2.002   4.050   9.574 -0.4477 -0.0831 -0.3888
 6096SOL    HW129747   1.944   4.008   9.510  2.0039 -1.8979 -1.4356
 6096SOL    HW229748   2.055   3.978   9.608 -0.1492 -0.3045 -1.3244
 6097SOL     OW29749   0.107   2.227   5.624  0.1453 -0.0503  0.4333
 6097SOL    HW129750   0.022   2.185   5.627  0.6585 -1.2021 -1.0460
 6097SOL    HW229751   0.160   2.157   5.586  0.2888  0.1474  0.2667
 6098SOL     OW29752   1.478   3.671  12.824 -0.0797  0.4710  0.0842
 6098SOL    HW129753   1.496   3.757  12.785  2.8237  0.0182  0.4037
 6098SOL    HW229754   1.527   3.669  12.905 -1.5980 -0.6279  0.9752
 6099SOL     OW29755   4.134   2.856   9.193 -0.0433  0.2888 -0.3194
 6099SOL    HW129756   4.155   2.787   9.130  2.4420 -1.5907  2.5427
 6099SOL    HW229757   4.090   2.811   9.265 -1.8954  1.9328 -0.4025
 6100SOL     OW29758   0.425   4.052  12.629  0.0446 -0.2031  0.1489
 6100SOL    HW129759   0.495   4.116  12.644  0.9030 -0.7582 -1.4599
 6100SOL    HW229760   0.466   4.006  12.556 -0.5322 -4.1320  2.3506
 6101SOL     OW29761   1.433   4.014   4.121  0.0896  0.2573  0.2327
 6101SOL    HW129762   1.419   4.021   4.026 -1.0061 -1.1252  0.2973
 6101SOL    HW229763   1.425   4.105   4.149  1.0975  1.5389 -3.5343
 6102SOL     OW29764   0.110   2.828   2.657 -0.2862 -0.3086  0.2158
 6102SOL    HW129765   0.130   2.849   2.748  0.5695 -2.0552  0.4323
 6102SOL    HW229766   0.042   2.890   2.632 -0.0800 -0.0752  0.2392
 6103SOL     OW29767   4.210   2.277   3.079  0.2746  0.0754 -0.1393
 6103SOL    HW129768   4.252   2.279   2.992 -0.1455 -0.1631 -0.3437
 6103SOL    HW229769   4.282   2.327   3.119 -0.4352  0.2057  0.9639
 6104SOL     OW29770   0.467   3.438   2.039  0.2608  0.2862  0.1816
 6104SOL    HW129771   0.372   3.445   2.048  0.0991 -3.8092  1.6953
 6104SOL    HW229772   0.483   3.354   2.082  1.4896  0.1717 -0.4980
 6105SOL     OW29773   1.917   1.226   2.365 -0.3564  0.0366 -0.1029
 6105SOL    HW129774   1.952   1.211   2.277  1.2723 -0.0251  0.5580
 6105SOL    HW229775   1.844   1.163   2.365  0.4086 -0.8575 -1.2153
 6106SOL     OW29776   3.560   1.645   8.777  0.4138  0.2281  0.4012
 6106SOL    HW129777   3.620   1.682   8.712 -0.0698  1.4706  0.6534
 6106SOL    HW229778   3.611   1.634   8.857  0.9024 -2.5940 -0.3096
 6107SOL     OW29779   3.793   4.502   3.739  0.1272  0.2468  0.1154
 6107SOL    HW129780   3.813   4.520   3.647  0.6582  0.7565  0.3305
 6107SOL    HW229781   3.758   4.585   3.771 -0.3615  0.0086  0.1997
 6108SOL     OW29782   1.722   3.485  13.689 -0.6213 -0.1739  0.1643
 6108SOL    HW129783   1.779   3.408  13.693  0.8125  0.8404 -0.4297
 6108SOL    HW229784   1.715   3.510  13.781 -5.1896 -1.5373  0.1537
 6109SOL     OW29785   4.209   3.575   5.757 -1.0685 -0.4767  0.4998
 6109SOL    HW129786   4.231   3.500   5.811  1.1202  0.4422  0.9108
 6109SOL    HW229787   4.290   3.625   5.771  0.0390 -1.8791 -0.8581
 6110SOL     OW29788   1.751   3.418   4.799  0.3190  0.0512  0.2908
 6110SOL    HW129789   1.718   3.341   4.845  0.1632 -0.1992 -0.2458
 6110SOL    HW229790   1.787   3.383   4.717 -0.1346  1.2460 -0.4184
 6111SOL     OW29791   4.336   4.223   2.238  0.2773 -0.1240 -0.1659
 6111SOL    HW129792   4.246   4.255   2.250  0.0749 -0.9844  0.5569
 6111SOL    HW229793   4.320   4.135   2.205  0.3064 -0.3976  0.5617
 6112SOL     OW29794   0.996   3.968  11.165 -0.0919  0.4565 -0.1378
 6112SOL    HW129795   1.015   3.917  11.244 -0.6639 -1.2148 -1.0784
 6112SOL    HW229796   0.910   3.935  11.139 -1.0637  2.7850  0.0808
 6113SOL     OW29797   2.925   2.136   4.124 -0.5703 -0.3394  0.6548
 6113SOL    HW129798   2.933   2.218   4.174 -1.9657  1.0972 -1.4649
 6113SOL    HW229799   2.964   2.153   4.038  0.8797  0.3105  1.4534
 6114SOL     OW29800   3.646   1.023   4.468 -0.1637  0.1558  0.9125
 6114SOL    HW129801   3.654   1.100   4.525 -1.7090  1.0441 -0.0783
 6114SOL    HW229802   3.596   1.062   4.397  3.3415  1.3359 -0.9047
 6115SOL     OW29803   3.348   2.671   8.921 -0.5228  0.0203 -0.5204
 6115SOL    HW129804   3.384   2.759   8.917 -1.5272  0.5275  1.6822
 6115SOL    HW229805   3.328   2.671   9.014  1.2270 -1.1116 -0.1491
 6116SOL     OW29806   3.249   2.125   9.379 -0.9110  0.1252  0.2050
 6116SOL    HW129807   3.187   2.161   9.317 -1.0354  1.6510  1.2177
 6116SOL    HW229808   3.196   2.061   9.427  0.5044 -1.3529 -0.2028
 6117SOL     OW29809   4.634   4.542  14.045  0.2797 -0.1984  0.0787
 6117SOL    HW129810   4.623   4.456  14.085  0.2995 -0.8360 -1.2984
 6117SOL    HW229811   0.004   4.527  14.015  1.3197  1.4843  2.2237
 6118SOL     OW29812   1.091   3.649   3.950  0.3066  0.3498  0.6172
 6118SOL    HW129813   1.073   3.668   3.858  2.8810  0.4022  0.1237
 6118SOL    HW229814   1.182   3.681   3.951  0.1301  0.9402 -1.9452
 6119SOL     OW29815   2.545   2.007   7.864  0.0511  0.0416  0.1109
 6119SOL    HW129816   2.606   1.963   7.806  0.2829  0.0049  0.3821
 6119SOL    HW229817   2.604   2.064   7.915 -0.1641 -2.1511  2.8280
 6120SOL     OW29818   1.644   3.198   2.531  0.0073 -0.1864 -0.0836
 6120SOL    HW129819   1.729   3.162   2.555  0.4304 -0.6997 -2.3020
 6120SOL    HW229820   1.595   3.121   2.501 -1.3725  0.9835 -0.8103
 6121SOL     OW29821   2.548   3.570   5.486  0.5173  0.7583  0.2490
 6121SOL    HW129822   2.584   3.633   5.424  0.9871  0.6965  0.4602
 6121SOL    HW229823   2.452   3.573   5.488  0.5250  0.3846  1.4074
 6122SOL     OW29824   0.370   1.336   2.234 -0.5315  0.5334  0.2879
 6122SOL    HW129825   0.395   1.255   2.190 -1.4890 -0.0209  0.7793
 6122SOL    HW229826   0.446   1.390   2.212 -0.4973  0.9019  1.3020
 6123SOL     OW29827   4.244   3.653   9.554  0.3907  0.2291  0.1382
 6123SOL    HW129828   4.321   3.629   9.502  0.1523 -0.4201  0.0793
 6123SOL    HW229829   4.249   3.592   9.628  1.2193 -0.8602 -0.8085
 6124SOL     OW29830   4.123   0.771  11.589  0.2238 -0.2394  0.0434
 6124SOL    HW129831   4.134   0.698  11.528 -0.5747 -0.0718 -0.2944
 6124SOL    HW229832   4.142   0.846  11.532 -0.5618 -0.4035 -0.4312
 6125SOL     OW29833   1.455   0.790   3.470  0.1965  0.1236 -0.1813
 6125SOL    HW129834   1.385   0.725   3.474 -1.2862  1.6327 -1.7806
 6125SOL    HW229835   1.399   0.864   3.447 -0.0648 -0.1644 -0.4566
 6126SOL     OW29836   1.243   0.534   8.132 -0.1113 -0.0414 -0.1856
 6126SOL    HW129837   1.296   0.603   8.093  1.3051 -1.4036 -0.6842
 6126SOL    HW229838   1.309   0.495   8.190  0.3459  0.5264 -0.3156
 6127SOL     OW29839   2.664   0.968   6.591 -0.0186 -0.1671  0.4219
 6127SOL    HW129840   2.648   0.962   6.685  0.3135 -0.4059  0.4642
 6127SOL    HW229841   2.602   1.038   6.571  1.3772  0.8464 -0.3616
 6128SOL     OW29842   3.627   3.783   8.404  0.0324 -0.5921 -0.4526
 6128SOL    HW129843   3.666   3.870   8.397 -1.1435  0.0172  0.4110
 6128SOL    HW229844   3.708   3.737   8.423 -0.4309 -1.8786 -1.6000
 6129SOL     OW29845   3.031   4.668   2.583  0.4622  0.3190  0.3021
 6129SOL    HW129846   3.078   0.032   2.578  0.6197  0.2461  0.5562
 6129SOL    HW229847   3.084   4.601   2.542 -1.5791 -1.3925  0.4283
 6130SOL     OW29848   3.327   4.456   6.442 -0.3476 -0.0283  0.3382
 6130SOL    HW129849   3.247   4.406   6.427 -0.6490  0.9069 -1.2333
 6130SOL    HW229850   3.303   4.545   6.414 -0.1566  0.0818  0.5199
 6131SOL     OW29851   3.752   0.681   8.571  0.0598 -0.4397 -0.1282
 6131SOL    HW129852   3.680   0.642   8.523  0.1780 -1.8251  0.8203
 6131SOL    HW229853   3.745   0.776   8.560  0.9469 -0.1455  1.7783
 6132SOL     OW29854   2.432   3.095   3.350 -0.3386 -0.4028 -0.1901
 6132SOL    HW129855   2.413   3.115   3.258 -0.1087  0.2979 -0.0894
 6132SOL    HW229856   2.412   3.002   3.350  1.3712 -0.7704  0.4037
 6133SOL     OW29857   1.928   0.301   5.092 -0.3782 -0.0724 -0.1412
 6133SOL    HW129858   1.859   0.244   5.127 -2.0656  3.0584  1.6379
 6133SOL    HW229859   2.003   0.243   5.085 -0.9894 -0.7064 -1.4059
 6134SOL     OW29860   3.477   1.075   8.870 -0.9000 -0.8586 -0.1649
 6134SOL    HW129861   3.499   1.152   8.818  1.6240 -0.1829  1.9352
 6134SOL    HW229862   3.416   1.112   8.934 -0.0306  0.4596 -0.1179
 6135SOL     OW29863   3.287   4.052  16.305 -1.0027 -0.4083  0.0730
 6135SOL    HW129864   3.380   4.039  16.284 -0.8013  0.4548  0.4595
 6135SOL    HW229865   3.305   4.125  16.363  0.7029 -2.3300  1.9732
 6136SOL     OW29866   1.665   0.474   2.697 -0.4273  0.3869 -0.1951
 6136SOL    HW129867   1.701   0.528   2.627  0.5921  1.2984  1.0212
 6136SOL    HW229868   1.706   0.390   2.678  0.3336  0.6378  0.3255
 6137SOL     OW29869   4.345   2.674   3.799 -0.3712 -0.1166 -0.0964
 6137SOL    HW129870   4.306   2.633   3.721  1.8239  1.0235 -1.8117
 6137SOL    HW229871   4.417   2.611   3.806 -0.3269  0.0811  1.0747
 6138SOL     OW29872   2.812   2.466   8.196 -0.0602  0.1418  0.6424
 6138SOL    HW129873   2.872   2.423   8.135  0.0865  3.0127 -1.2619
 6138SOL    HW229874   2.784   2.391   8.248 -0.1664 -1.6436 -1.9977
 6139SOL     OW29875   3.134   4.190  10.765  0.2632  0.8687 -0.7132
 6139SOL    HW129876   3.082   4.124  10.719  0.7316  0.8559 -1.2274
 6139SOL    HW229877   3.064   4.250  10.791 -0.1245  0.4329 -0.7461
 6140SOL     OW29878   3.933   3.846   7.032  0.3178  0.4818  0.4446
 6140SOL    HW129879   4.027   3.835   7.051  0.6907  0.6452 -1.2935
 6140SOL    HW229880   3.924   3.941   7.022  0.9591  0.6818  1.7921
 6141SOL     OW29881   3.646   0.688   9.857  0.1600  0.2596 -0.3271
 6141SOL    HW129882   3.689   0.747   9.795  0.1255  0.5255 -0.0953
 6141SOL    HW229883   3.606   0.748   9.919 -0.9081 -0.4720 -0.3000
 6142SOL     OW29884   4.715   0.938   6.909  0.3614  0.1268  0.3693
 6142SOL    HW129885   4.674   0.964   6.992  1.3002  0.7290  0.6447
 6142SOL    HW229886   4.641   0.906   6.858  2.4839  1.4001 -3.4711
 6143SOL     OW29887   0.683   3.291   5.364 -0.1059 -0.0773  0.0603
 6143SOL    HW129888   0.652   3.204   5.390  0.5959 -0.2814  0.2101
 6143SOL    HW229889   0.657   3.348   5.436 -0.1655  1.1798 -0.9490
 6144SOL     OW29890   2.849   1.608   6.787  0.1162 -0.2763  0.0113
 6144SOL    HW129891   2.825   1.633   6.876  0.3644  2.2125 -0.6188
 6144SOL    HW229892   2.940   1.582   6.801  1.1910  2.4327 -1.9974
 6145SOL     OW29893   3.444   3.883   1.696  0.6233  0.1502 -0.6082
 6145SOL    HW129894   3.443   3.788   1.697  1.3399  0.1354 -1.2657
 6145SOL    HW229895   3.358   3.903   1.731  0.2333  0.3549 -1.6835
 6146SOL     OW29896   3.801   3.463   0.523 -0.0633  0.2006  0.2055
 6146SOL    HW129897   3.830   3.459   0.432  1.4512 -0.1991  0.7010
 6146SOL    HW229898   3.881   3.455   0.575 -0.8728 -0.5072  1.3425
 6147SOL     OW29899   4.580   3.090   8.524 -0.8586 -0.2737 -0.2667
 6147SOL    HW129900   4.573   3.184   8.540  2.3238  0.3240 -2.3069
 6147SOL    HW229901   4.519   3.053   8.587 -0.1875 -0.1271  0.4654
 6148SOL     OW29902   2.425   0.264  14.993 -0.0209  0.0077  0.0796
 6148SOL    HW129903   2.402   0.338  14.937  0.1620 -0.0766 -0.1063
 6148SOL    HW229904   2.484   0.223  14.930  1.5545  2.2748  0.0671
 6149SOL     OW29905   4.062   1.273   8.054  0.3247 -0.2841  0.3072
 6149SOL    HW129906   3.982   1.223   8.071  0.2102 -0.3116 -0.3226
 6149SOL    HW229907   4.078   1.254   7.962  1.4304 -2.8258  1.0240
 6150SOL     OW29908   2.035   3.599   2.779 -0.2270 -0.2877 -0.3780
 6150SOL    HW129909   2.020   3.581   2.687 -0.2677  1.4563 -0.7136
 6150SOL    HW229910   1.949   3.591   2.820 -1.1264 -0.2923 -2.2683
 6151SOL     OW29911   4.167   0.537   0.797 -0.1400  0.6150  0.5725
 6151SOL    HW129912   4.170   0.616   0.743  0.3295 -1.2773 -2.1741
 6151SOL    HW229913   4.254   0.518   0.830  0.0992  2.0265  0.7534
 6152SOL     OW29914   2.140   2.715   8.452 -0.1138  0.0841 -0.6656
 6152SOL    HW129915   2.166   2.684   8.366 -1.0005 -0.7535 -0.6300
 6152SOL    HW229916   2.099   2.633   8.478 -2.7256  1.9270  1.0511
 6153SOL     OW29917   3.105   0.352   4.597  0.1441  0.4355  0.1896
 6153SOL    HW129918   3.183   0.299   4.606 -0.8664 -1.3243 -1.5790
 6153SOL    HW229919   3.149   0.436   4.589 -1.4276  1.3839  1.2733
 6154SOL     OW29920   3.197   1.332   4.144 -0.6912 -0.1099  0.7045
 6154SOL    HW129921   3.267   1.375   4.193 -0.4964 -2.1512  2.2104
 6154SOL    HW229922   3.166   1.261   4.201 -1.5863  0.0205  0.3829
 6155SOL     OW29923   4.318   2.017   5.411  0.0866  0.0599 -0.5201
 6155SOL    HW129924   4.322   1.943   5.350 -0.8975  0.3523 -0.9274
 6155SOL    HW229925   4.353   2.089   5.358 -0.4983  0.7181  0.0050
 6156SOL     OW29926   2.480   2.510   7.231  0.0827 -0.5141  0.3587
 6156SOL    HW129927   2.425   2.500   7.153  0.4402  1.4715 -0.1476
 6156SOL    HW229928   2.423   2.525   7.306  0.7542  0.0044  0.7583
 6157SOL     OW29929   1.345   2.080   8.096 -0.7824 -0.4367 -0.6514
 6157SOL    HW129930   1.356   2.126   8.013 -3.5590 -1.5525 -1.6306
 6157SOL    HW229931   1.250   2.076   8.109 -0.3685  1.3271  3.1410
 6158SOL     OW29932   0.146   1.345   6.130  0.7937  0.1115  0.4020
 6158SOL    HW129933   0.209   1.415   6.150  0.4124  1.1296 -1.9601
 6158SOL    HW229934   0.075   1.344   6.195  1.0262 -1.1632  0.6326
 6159SOL     OW29935   2.478   0.560  15.393  0.5899  0.2310 -0.3142
 6159SOL    HW129936   2.520   0.496  15.336 -2.9616 -1.2490 -1.2304
 6159SOL    HW229937   2.482   0.636  15.334 -0.1949  1.7135  1.5456
 6160SOL     OW29938   1.938   4.304   5.266  0.2098 -0.0148 -1.2970
 6160SOL    HW129939   1.955   4.397   5.254  1.5196 -0.1876 -0.8022
 6160SOL    HW229940   2.013   4.269   5.219  0.1590 -0.7587 -0.8365
 6161SOL     OW29941   1.832   2.352   4.203 -0.3285  0.7220 -0.0622
 6161SOL    HW129942   1.866   2.276   4.156 -1.0493  0.6196 -0.4299
 6161SOL    HW229943   1.862   2.412   4.135 -0.0124 -1.8153 -2.1925
 6162SOL     OW29944   1.842   1.616   0.150  0.5305  0.1573  0.1209
 6162SOL    HW129945   1.893   1.654   0.079 -1.2662  1.8494 -0.2483
 6162SOL    HW229946   1.823   1.692   0.206 -0.3970  0.9681 -1.2995
 6163SOL     OW29947   3.385   1.992   2.674  0.4292 -0.1375  0.1447
 6163SOL    HW129948   3.409   1.980   2.766 -2.2645 -1.1824  0.7224
 6163SOL    HW229949   3.433   2.069   2.645 -0.3285  1.0533  2.0142
 6164SOL     OW29950   0.812   2.405   3.222  0.0896 -0.0658 -0.7411
 6164SOL    HW129951   0.801   2.479   3.162  0.2930  0.0655 -0.6156
 6164SOL    HW229952   0.900   2.413   3.258 -0.0185 -1.1908 -0.2196
 6165SOL     OW29953   4.394   3.919   6.764 -0.0977  0.1278  0.1839
 6165SOL    HW129954   4.408   3.827   6.742  0.3848  0.2572 -0.0617
 6165SOL    HW229955   4.312   3.934   6.719  0.3165 -0.7960 -0.8852
 6166SOL     OW29956   0.196   0.797   2.468  0.1038 -0.1221 -0.2245
 6166SOL    HW129957   0.150   0.843   2.538  2.3577  0.7294  0.6749
 6166SOL    HW229958   0.287   0.789   2.497  0.2289  2.4982  0.0613
 6167SOL     OW29959   0.869   1.628   5.139  0.0968 -0.1051  0.2284
 6167SOL    HW129960   0.781   1.651   5.110 -0.1679  0.3276  1.3917
 6167SOL    HW229961   0.860   1.533   5.143  0.4378 -0.2346 -1.9223
 6168SOL     OW29962   2.546   1.212   6.491 -0.0127 -1.0062  0.2891
 6168SOL    HW129963   2.452   1.226   6.475  0.4399  0.1334 -1.2933
 6168SOL    HW229964   2.551   1.308   6.493 -0.4746 -0.9777  0.2751
 6169SOL     OW29965   2.405   0.845  15.583  0.1123  0.7315 -0.3483
 6169SOL    HW129966   2.453   0.894  15.517  1.7317 -0.4839 -0.0531
 6169SOL    HW229967   2.337   0.812  15.525 -0.3033 -0.6094  0.8978
 6170SOL     OW29968   4.462   1.828   7.837 -0.2952 -0.4209  0.4735
 6170SOL    HW129969   4.387   1.854   7.890 -0.4415 -0.8732  0.4887
 6170SOL    HW229970   4.532   1.884   7.868  0.3391  0.5056 -2.5604
 6171SOL     OW29971   0.652   3.772   1.569 -0.0054  0.4074  0.5115
 6171SOL    HW129972   0.686   3.843   1.516 -1.0774 -0.5329 -1.4345
 6171SOL    HW229973   0.558   3.776   1.550 -0.2070  1.4996  1.7284
 6172SOL     OW29974   1.788   4.230   6.662  0.1525 -0.0351  0.3430
 6172SOL    HW129975   1.763   4.322   6.651  4.0801  1.0409  0.1283
 6172SOL    HW229976   1.771   4.203   6.571  2.4018  3.0482 -1.0202
 6173SOL     OW29977   1.724   3.057   1.860 -0.0807  0.2547 -0.1397
 6173SOL    HW129978   1.789   2.999   1.899 -1.6885 -0.5181  1.4177
 6173SOL    HW229979   1.667   2.986   1.828  1.6323 -1.8258  1.4568
 6174SOL     OW29980   1.017   3.472   5.851  0.8977 -0.4860  0.3765
 6174SOL    HW129981   1.046   3.563   5.840  0.2642  0.0182  2.9646
 6174SOL    HW229982   1.092   3.417   5.830 -0.7041 -2.1948 -0.9090
 6175SOL     OW29983   4.515   1.622   2.949 -0.4360  0.2743 -0.5427
 6175SOL    HW129984   4.532   1.604   3.041 -1.0955  2.0027 -0.0940
 6175SOL    HW229985   4.590   1.590   2.897  0.9219  1.8535  0.4433
 6176SOL     OW29986   1.342   1.838   0.551 -0.0063  0.2064 -0.0750
 6176SOL    HW129987   1.362   1.908   0.613 -0.3696 -0.6676  1.0094
 6176SOL    HW229988   1.426   1.791   0.552 -1.3388 -2.1694 -1.6402
 6177SOL     OW29989   1.768   1.514   2.397 -0.8342  0.2571 -0.5480
 6177SOL    HW129990   1.854   1.554   2.388 -1.7306  1.1245 -5.5552
 6177SOL    HW229991   1.719   1.566   2.333 -1.6048  1.5736  1.1130
 6178SOL     OW29992   0.844   0.430   8.723 -0.1090  0.3356 -0.2649
 6178SOL    HW129993   0.770   0.423   8.784  1.1633  0.1660  1.2426
 6178SOL    HW229994   0.910   0.402   8.786  1.3377 -0.5519 -2.2005
 6179SOL     OW29995   3.055   4.609   8.392 -0.1957  0.4025 -0.7360
 6179SOL    HW129996   3.127   4.665   8.366 -0.1055  0.7778  0.3094
 6179SOL    HW229997   2.997   4.614   8.316 -2.5237  1.5759  1.0831
 6180SOL     OW29998   3.641   0.298   7.852  0.3819  0.2558  0.6241
 6180SOL    HW129999   3.547   0.294   7.867 -0.0295  3.1215 -1.1443
 6180SOL    HW230000   3.642   0.244   7.773 -0.9914  0.9195  0.1527
 6181SOL     OW30001   0.733   3.753  10.362 -0.3032  0.4521 -0.2408
 6181SOL    HW130002   0.813   3.704  10.342 -1.1169 -0.2127 -1.8934
 6181SOL    HW230003   0.718   3.707  10.444  2.1963 -0.9886 -0.5856
 6182SOL     OW30004   1.381   4.390   2.959  0.2106  0.1937 -0.0448
 6182SOL    HW130005   1.332   4.437   2.891 -0.3404  0.7478  0.7272
 6182SOL    HW230006   1.324   4.313   2.964 -1.9312  1.8070  0.7478
 6183SOL     OW30007   4.640   1.045   3.416  0.8751 -0.4247  0.5059
 6183SOL    HW130008   4.626   1.048   3.511 -0.8556 -0.6218  0.2617
 6183SOL    HW230009   4.712   1.106   3.400  1.9937 -2.0008 -0.4075
 6184SOL     OW30010   4.550   3.769   6.983  0.4647  0.0932 -0.4489
 6184SOL    HW130011   4.560   3.704   6.913 -0.3893 -1.3480  0.7579
 6184SOL    HW230012   4.488   3.828   6.941  1.4232  2.0986  0.9983
 6185SOL     OW30013   1.176   3.853  16.857  0.5350 -0.8733  0.4328
 6185SOL    HW130014   1.115   3.811  16.918 -0.3868  0.6957  0.5740
 6185SOL    HW230015   1.239   3.897  16.914 -0.7726  1.8202 -0.2405
 6186SOL     OW30016   2.243   3.268   6.976 -0.4438  0.0496 -0.7024
 6186SOL    HW130017   2.298   3.242   6.902 -0.4613  0.1480 -0.7498
 6186SOL    HW230018   2.156   3.273   6.937 -0.8109 -0.1955  0.0690
 6187SOL     OW30019   2.621   2.581  13.048  0.1522 -0.2934 -0.0985
 6187SOL    HW130020   2.599   2.665  13.009 -0.7482 -0.6563 -0.3738
 6187SOL    HW230021   2.713   2.596  13.069 -0.6443  2.3666  1.5035
 6188SOL     OW30022   0.703   2.601   6.049 -0.1737  0.0116 -0.0270
 6188SOL    HW130023   0.645   2.538   6.091 -0.0853  1.6703  2.5758
 6188SOL    HW230024   0.722   2.668   6.115  2.0459 -0.4638 -0.1606
 6189SOL     OW30025   4.596   3.265   9.481  1.0067 -0.3719  0.2035
 6189SOL    HW130026   4.622   3.327   9.412  3.0109 -2.2012 -0.7072
 6189SOL    HW230027   4.550   3.199   9.429 -0.3252  0.5198  0.2831
 6190SOL     OW30028   3.760   4.414  10.340  0.3528 -0.4177 -0.0967
 6190SOL    HW130029   3.771   4.490  10.397 -0.7815  0.7950 -1.4849
 6190SOL    HW230030   3.757   4.456  10.254 -1.5420  1.4024  0.8673
 6191SOL     OW30031   1.441   1.797   3.051  0.0702 -0.4323  0.5074
 6191SOL    HW130032   1.482   1.813   2.966 -1.1225  0.0614  0.0263
 6191SOL    HW230033   1.450   1.702   3.054 -3.0291 -0.7658 -0.5807
 6192SOL     OW30034   1.907   0.482   1.054  0.1133  0.8633  0.3277
 6192SOL    HW130035   1.866   0.474   0.968  0.9277 -1.7503  0.1696
 6192SOL    HW230036   1.906   0.390   1.082 -0.1438  0.9396  0.5641
 6193SOL     OW30037   2.978   2.948   4.977  0.5221  0.2939 -0.1574
 6193SOL    HW130038   3.005   2.887   4.909 -0.6493  0.2018 -0.5297
 6193SOL    HW230039   3.050   2.978   5.033  0.9710 -0.8545 -0.1352
 6194SOL     OW30040   3.012   0.391   2.557 -0.2116  0.6272 -0.5383
 6194SOL    HW130041   2.947   0.320   2.559  1.3367 -0.8109 -0.8171
 6194SOL    HW230042   2.958   0.459   2.516  0.1130  1.7831  0.9702
 6195SOL     OW30043   1.095   0.073   4.502 -0.3344  0.1317 -0.4172
 6195SOL    HW130044   1.018   0.044   4.453  0.7586  1.3304 -2.8328
 6195SOL    HW230045   1.147   4.713   4.510  0.8620  1.2488  2.9047
 6196SOL     OW30046   3.754   1.609   4.932 -0.1307  0.2835  0.2592
 6196SOL    HW130047   3.833   1.640   4.887 -0.0858 -0.5307 -0.2101
 6196SOL    HW230048   3.695   1.588   4.860  1.1739  2.2749 -1.3942
 6197SOL     OW30049   0.724   4.098   3.865 -0.6239  0.1077  0.4237
 6197SOL    HW130050   0.713   4.154   3.789 -0.4560  1.2301  1.2248
 6197SOL    HW230051   0.818   4.080   3.860 -0.3256  1.8970 -0.1508
 6198SOL     OW30052   1.169   3.623  11.447  0.3366  0.2687  0.0187
 6198SOL    HW130053   1.184   3.680  11.523  0.4845  1.5993 -1.0100
 6198SOL    HW230054   1.075   3.608  11.461  0.7071  1.2960  3.5039
 6199SOL     OW30055   0.911   1.475   2.735 -0.2426 -0.2445 -0.2140
 6199SOL    HW130056   0.917   1.488   2.641  0.2362  0.0054 -0.1501
 6199SOL    HW230057   0.960   1.393   2.743 -1.2676 -0.9512 -1.2664
 6200SOL     OW30058   4.279   2.424   9.802 -1.0865  0.8174  0.4380
 6200SOL    HW130059   4.350   2.370   9.768 -0.9782  1.7773 -0.8505
 6200SOL    HW230060   4.276   2.411   9.897  2.0085 -0.8786  0.2879
 6201SOL     OW30061   2.477   0.995   8.809 -0.3658  0.0170  0.2856
 6201SOL    HW130062   2.514   0.961   8.890 -1.6380 -2.9494 -0.3646
 6201SOL    HW230063   2.476   0.913   8.759 -3.6041  1.3571 -1.8023
 6202SOL     OW30064   3.010   0.938   5.274 -0.2529 -0.0555 -0.5908
 6202SOL    HW130065   3.078   0.874   5.256 -0.3040 -0.5497  0.9490
 6202SOL    HW230066   2.971   0.951   5.188  1.2666  1.2604 -1.0842
 6203SOL     OW30067   2.021   0.440   4.861  0.0502 -0.9875 -0.8150
 6203SOL    HW130068   2.113   0.417   4.856  0.6122  0.9086  0.4867
 6203SOL    HW230069   2.003   0.413   4.951 -0.4566  1.9405 -0.0321
 6204SOL     OW30070   2.623   3.661   3.785  0.4491 -0.2730 -0.1766
 6204SOL    HW130071   2.629   3.605   3.708 -2.0454  0.3987 -0.8754
 6204SOL    HW230072   2.714   3.685   3.802 -0.3137  1.0597  2.0458
 6205SOL     OW30073   0.459   1.734  17.414 -0.3397 -0.2651 -0.2022
 6205SOL    HW130074   0.507   1.665  17.460 -0.4249  0.4963  1.0379
 6205SOL    HW230075   0.485   1.808  17.469  1.5444 -1.7416  0.9296
 6206SOL     OW30076   1.005   2.501  12.703  0.2083  0.3378  0.2099
 6206SOL    HW130077   1.073   2.456  12.752 -0.1840  0.5978  0.9894
 6206SOL    HW230078   1.014   2.591  12.733 -1.2310  0.2361  0.9557
 6207SOL     OW30079   0.426   0.363   3.078 -0.1216 -0.8675  0.6490
 6207SOL    HW130080   0.505   0.380   3.130  0.4779  3.1868 -1.5732
 6207SOL    HW230081   0.377   0.314   3.143 -1.7967  2.2188  1.6997
 6208SOL     OW30082   2.368   2.801   7.306 -0.2104  0.1719  0.4040
 6208SOL    HW130083   2.328   2.764   7.385 -0.5664 -1.5191 -0.5663
 6208SOL    HW230084   2.291   2.821   7.253 -0.6307 -0.6169  0.7146
 6209SOL     OW30085   0.096   2.575   2.304 -0.1909 -0.3922  0.8030
 6209SOL    HW130086   0.159   2.530   2.248 -0.5786  0.2880 -0.1660
 6209SOL    HW230087   0.089   2.515   2.378 -0.4702 -0.8713  0.3886
 6210SOL     OW30088   0.042   3.543   4.968 -0.0083 -0.4831  0.0685
 6210SOL    HW130089   0.048   3.615   4.906  1.9979 -0.8499 -0.1633
 6210SOL    HW230090   0.083   3.474   4.917  1.9175  0.6447  0.0881
 6211SOL     OW30091   2.377   2.582   6.116  0.0071 -0.1694  0.1270
 6211SOL    HW130092   2.374   2.495   6.077 -0.0504  0.5209 -1.3982
 6211SOL    HW230093   2.311   2.574   6.185  0.1179  0.8085  0.3477
 6212SOL     OW30094   2.457   4.110   4.421 -0.5175 -0.3463  0.4164
 6212SOL    HW130095   2.376   4.153   4.394  0.5703  1.7756  0.5800
 6212SOL    HW230096   2.505   4.173   4.474 -0.4750 -1.5430  1.7782
 6213SOL     OW30097   3.208   3.249   6.326 -0.0694 -0.3483  0.8712
 6213SOL    HW130098   3.194   3.315   6.257  1.8438 -1.3537 -0.4679
 6213SOL    HW230099   3.271   3.191   6.283  0.7982  2.1533 -1.2431
 6214SOL     OW30100   2.057   1.340   2.586 -0.1558  0.0967 -0.1430
 6214SOL    HW130101   2.008   1.300   2.515 -1.3121  0.0148  0.7146
 6214SOL    HW230102   2.078   1.419   2.535  1.2098  0.9690  1.7785
 6215SOL     OW30103   2.040   2.629   9.412  0.3051 -0.2032 -0.0410
 6215SOL    HW130104   2.101   2.587   9.473 -2.0630 -1.0322  1.7657
 6215SOL    HW230105   1.959   2.578   9.425 -1.1608  2.2104  0.1668
 6216SOL     OW30106   4.381   4.150  11.488  0.5120 -0.0699 -0.3013
 6216SOL    HW130107   4.347   4.103  11.564  0.7309  0.0813 -0.1114
 6216SOL    HW230108   4.360   4.096  11.411  0.4951  0.9419 -1.0100
 6217SOL     OW30109   3.441   4.260   8.071 -0.1337  0.0914  0.5264
 6217SOL    HW130110   3.413   4.342   8.111 -0.5166  0.3238 -0.2152
 6217SOL    HW230111   3.404   4.259   7.983 -2.0026 -1.2736  1.3153
 6218SOL     OW30112   2.267   3.179   3.922  0.1388  0.0380 -0.2967
 6218SOL    HW130113   2.224   3.220   3.998 -1.6377  1.7406 -2.2260
 6218SOL    HW230114   2.216   3.225   3.856 -0.1827  0.6457  0.3692
 6219SOL     OW30115   1.143   2.042   6.561  0.8514 -0.3045 -0.1051
 6219SOL    HW130116   1.189   2.120   6.590 -0.3657  0.2818  0.2512
 6219SOL    HW230117   1.051   2.069   6.568  1.1380  1.2115 -2.2453
 6220SOL     OW30118   1.745   2.694   3.144 -0.0042  0.7290 -0.1767
 6220SOL    HW130119   1.686   2.622   3.166  3.1287 -2.3691 -1.9312
 6220SOL    HW230120   1.833   2.666   3.169 -0.7973 -2.3727 -0.8676
 6221SOL     OW30121   3.145   0.825   5.639  0.6638  0.5875  0.0151
 6221SOL    HW130122   3.210   0.896   5.638 -1.0596  2.1395 -1.1464
 6221SOL    HW230123   3.066   0.877   5.623  1.9053  1.8915 -1.8462
 6222SOL     OW30124   4.220   4.368   3.023  0.0731  0.5969  0.3580
 6222SOL    HW130125   4.249   4.278   3.040 -0.5621  0.1158 -1.0921
 6222SOL    HW230126   4.132   4.371   3.061 -0.4531  0.2776 -0.8405
 6223SOL     OW30127   2.359   1.094   0.057 -0.1608  0.3376 -0.1187
 6223SOL    HW130128   2.418   1.142   0.114 -0.5283 -0.1595  0.6923
 6223SOL    HW230129   2.286   1.156   0.061 -0.0442  0.3477  1.9101
 6224SOL     OW30130   4.400   4.420   4.621 -0.0801 -0.3601  0.2008
 6224SOL    HW130131   4.334   4.392   4.684  0.3825 -2.5550 -0.2719
 6224SOL    HW230132   4.474   4.367   4.650 -0.0473  0.5477  1.8004
 6225SOL     OW30133   0.032   1.620   9.247  0.0203  0.3709  0.0768
 6225SOL    HW130134   0.009   1.572   9.326 -1.3729  0.8342 -0.0491
 6225SOL    HW230135   0.069   1.698   9.288  2.7326 -0.8183 -0.0843
 6226SOL     OW30136   0.059   4.060   7.815 -0.1261  0.4504  0.1965
 6226SOL    HW130137   4.695   4.108   7.813 -0.7485 -0.6438  0.0059
 6226SOL    HW230138   0.112   4.095   7.744  0.0471 -1.4089 -0.5742
 6227SOL     OW30139   3.654   3.311   6.279  0.3293  0.3955  0.4334
 6227SOL    HW130140   3.601   3.245   6.234  0.2351  1.0009 -0.3510
 6227SOL    HW230141   3.586   3.349   6.334  0.0219  0.5923 -0.0749
 6228SOL     OW30142   2.937   1.993  15.599  0.1538  0.1926  0.0420
 6228SOL    HW130143   3.013   2.018  15.547  0.4972  1.3336  1.0809
 6228SOL    HW230144   2.980   1.989  15.685 -1.0854 -0.9974  0.6233
 6229SOL     OW30145   1.311   1.613   7.733  0.5623  0.3017  0.2743
 6229SOL    HW130146   1.370   1.544   7.700  0.9385  1.6330 -1.8533
 6229SOL    HW230147   1.223   1.575   7.727  2.0046 -3.3320  1.7712
 6230SOL     OW30148   4.033   2.561   7.605  0.1065  0.2596 -0.3843
 6230SOL    HW130149   4.091   2.488   7.584 -0.4431 -0.6457  1.2657
 6230SOL    HW230150   4.092   2.625   7.646 -0.7436  0.9534 -0.2575
 6231SOL     OW30151   0.115   4.359  13.679  0.1724  0.9444 -0.5548
 6231SOL    HW130152   0.106   4.330  13.588  0.6821 -0.0575 -0.2950
 6231SOL    HW230153   0.049   4.298  13.714  1.1450 -0.6316 -1.4345
 6232SOL     OW30154   2.745   3.839   6.821  0.4736 -0.1169  0.2095
 6232SOL    HW130155   2.675   3.834   6.756  2.3828  0.6604 -1.9004
 6232SOL    HW230156   2.729   3.921   6.868  0.6606 -0.4776  0.9035
 6233SOL     OW30157   0.904   0.059   2.307  0.6383 -0.3903 -0.4904
 6233SOL    HW130158   0.904   4.684   2.288  0.5831 -0.3524 -0.6816
 6233SOL    HW230159   0.988   0.082   2.267  1.4258  2.1064  2.6086
 6234SOL     OW30160   0.214   2.112   2.092 -0.9151 -0.9625 -0.0980
 6234SOL    HW130161   0.156   2.036   2.098 -0.5087 -1.4443 -2.2866
 6234SOL    HW230162   0.171   2.163   2.024  0.4413 -1.7201 -1.5362
 6235SOL     OW30163   1.071   2.479   3.350  0.3048 -0.5295 -0.3285
 6235SOL    HW130164   1.117   2.411   3.400  0.9020  0.7196  0.8053
 6235SOL    HW230165   1.045   2.539   3.419 -2.6692 -0.2967 -1.6398
 6236SOL     OW30166   2.261   2.112   1.499 -0.0238 -0.2091 -0.2384
 6236SOL    HW130167   2.237   2.041   1.439 -0.3516  0.0785 -0.4494
 6236SOL    HW230168   2.240   2.064   1.579  1.6550 -0.2594  0.1644
 6237SOL     OW30169   2.557   4.613   9.498  0.0519  0.3732 -0.6648
 6237SOL    HW130170   2.523   4.563   9.424  1.8389 -0.3979 -0.9603
 6237SOL    HW230171   2.620   4.670   9.454  0.0960  0.1156 -0.9418
 6238SOL     OW30172   4.507   0.895   7.272  0.6728 -0.2794  0.4592
 6238SOL    HW130173   4.526   0.916   7.363  0.9777 -0.0305  0.3384
 6238SOL    HW230174   4.413   0.912   7.278  1.1410  2.6095  0.0065
 6239SOL     OW30175   1.427   4.471   2.270  0.6273  0.4827  0.2587
 6239SOL    HW130176   1.345   4.442   2.228  0.7614  1.3457 -0.5973
 6239SOL    HW230177   1.395   4.449   2.358 -0.5456  2.2205  0.2735
 6240SOL     OW30178   2.438   4.378  14.918 -0.7231  0.0552  0.0177
 6240SOL    HW130179   2.427   4.300  14.863 -1.9912 -1.1257  1.9451
 6240SOL    HW230180   2.349   4.392  14.949 -0.4643  0.0924  0.7330
 6241SOL     OW30181   0.547   0.407   7.436 -0.2568 -0.0802  0.2176
 6241SOL    HW130182   0.564   0.425   7.529 -2.0250 -2.9870  1.1129
 6241SOL    HW230183   0.540   0.498   7.406  0.2276 -0.1716 -0.1631
 6242SOL     OW30184   2.943   0.601  13.520  0.0715  0.4583  0.2007
 6242SOL    HW130185   2.908   0.532  13.576  1.5787  0.8522  1.6357
 6242SOL    HW230186   3.031   0.598  13.556 -0.5247 -0.1183  1.6212
 6243SOL     OW30187   3.515   3.648   6.288  0.1742 -0.3145  0.8240
 6243SOL    HW130188   3.504   3.602   6.205  1.3627  1.9564 -0.5992
 6243SOL    HW230189   3.481   3.585   6.351  1.2276 -1.0321  0.6681
 6244SOL     OW30190   0.041   0.740   1.945  0.0216  0.2771  0.0735
 6244SOL    HW130191   4.677   0.767   1.982 -0.5519 -0.3394 -0.7751
 6244SOL    HW230192   0.076   0.711   2.029  3.2571 -4.4401 -2.8796
 6245SOL     OW30193   2.781   3.841   9.689 -0.0752  0.2555  0.1173
 6245SOL    HW130194   2.782   3.774   9.621 -0.5461 -0.5932  0.9451
 6245SOL    HW230195   2.861   3.892   9.677  0.2112 -0.4051 -0.7416
 6246SOL     OW30196   0.277   0.913  11.991 -0.3562  0.0536  0.1553
 6246SOL    HW130197   0.183   0.905  12.009 -0.5644  0.1567 -0.8425
 6246SOL    HW230198   0.286   0.859  11.912 -2.8683  0.9283 -0.7448
 6247SOL     OW30199   1.755   0.539  16.697 -0.1448 -0.4757 -0.2037
 6247SOL    HW130200   1.767   0.446  16.718  2.2213  0.1008  0.9881
 6247SOL    HW230201   1.743   0.572  16.786 -2.4667  0.1979 -0.7577
 6248SOL     OW30202   2.119   3.252   5.662 -0.2006  0.2010 -0.4119
 6248SOL    HW130203   2.043   3.198   5.682 -0.5148  0.5627 -0.6181
 6248SOL    HW230204   2.090   3.299   5.584 -0.1514  0.6033 -0.1914
 6249SOL     OW30205   0.796   2.489   2.727 -0.2518  0.6763  0.4390
 6249SOL    HW130206   0.838   2.540   2.795  0.2634  0.3426  0.3680
 6249SOL    HW230207   0.712   2.450   2.753 -1.0543  1.9269 -0.2688
 6250SOL     OW30208   2.005   1.650  14.225  0.6359 -0.0932 -0.3423
 6250SOL    HW130209   1.986   1.727  14.279 -0.4719 -1.1398  0.7536
 6250SOL    HW230210   2.045   1.693  14.149 -0.9717  1.1789 -0.4727
 6251SOL     OW30211   1.304   2.236  17.597  0.2196 -0.1097  0.4082
 6251SOL    HW130212   1.366   2.250  17.526  0.1651 -1.7613  0.0436
 6251SOL    HW230213   1.361   2.202  17.666  1.0126  2.1851  0.8917
 6252SOL     OW30214   3.466   2.143   3.224 -0.5845  0.0761  0.2819
 6252SOL    HW130215   3.552   2.183   3.235 -0.7221  0.0313  1.5599
 6252SOL    HW230216   3.415   2.204   3.171  2.4244 -1.0992 -3.9903
 6253SOL     OW30217   4.364   0.418  16.747  0.2138  0.7453 -0.3655
 6253SOL    HW130218   4.342   0.366  16.823 -2.2559 -0.5659 -1.9849
 6253SOL    HW230219   4.276   0.423  16.710 -0.9209 -1.9295  2.0834
 6254SOL     OW30220   4.031   0.018  11.798  0.6855 -0.4531 -0.3276
 6254SOL    HW130221   4.022   0.066  11.716 -2.7748  1.5263  1.2123
 6254SOL    HW230222   3.951   0.044  11.844 -0.9840 -2.0485 -2.3387
 6255SOL     OW30223   1.001   2.256   8.540 -0.1680 -0.7996 -0.0570
 6255SOL    HW130224   0.922   2.249   8.593 -0.8958  1.1426 -0.8805
 6255SOL    HW230225   1.064   2.265   8.611  0.3238 -1.0820 -0.4623
 6256SOL     OW30226   1.583   4.694   3.558 -0.1424  0.0958 -0.5197
 6256SOL    HW130227   1.575   0.035   3.484  0.9249  1.1287  0.1922
 6256SOL    HW230228   1.640   0.027   3.615  1.3474  0.9369 -2.7825
 6257SOL     OW30229   4.103   3.153   5.232  1.0084 -0.5626 -0.1237
 6257SOL    HW130230   4.095   3.101   5.312  0.5488 -3.6022 -2.1452
 6257SOL    HW230231   4.191   3.134   5.199  0.2988 -2.0555 -1.0954
 6258SOL     OW30232   1.291   1.715  16.418 -0.3681  0.1123  0.1503
 6258SOL    HW130233   1.198   1.735  16.427 -0.7686 -1.8500  0.1576
 6258SOL    HW230234   1.303   1.653  16.490  1.1090  1.0069  0.6911
 6259SOL     OW30235   0.644   0.145  16.438  0.2794  0.0475  0.2865
 6259SOL    HW130236   0.572   0.106  16.487 -0.8209 -0.1017 -1.4900
 6259SOL    HW230237   0.666   0.089  16.363 -0.6981 -0.2865  0.2568
 6260SOL     OW30238   2.109   0.814   6.855 -0.5611 -0.3977 -0.4957
 6260SOL    HW130239   2.175   0.871   6.895 -0.0200 -3.1006  2.5124
 6260SOL    HW230240   2.024   0.857   6.857  0.0945  0.7659  2.1953
 6261SOL     OW30241   4.040   0.249   7.665 -0.4514  0.1402  0.2119
 6261SOL    HW130242   4.029   0.234   7.759  2.4390  1.1030  0.7170
 6261SOL    HW230243   3.953   0.271   7.632 -1.2919 -0.7824  1.8497
 6262SOL     OW30244   3.235   3.517   0.732 -0.1463  0.5745  0.2262
 6262SOL    HW130245   3.158   3.572   0.748  0.1110  1.0263 -0.1258
 6262SOL    HW230246   3.303   3.577   0.762  0.3667  0.2779 -0.3541
 6263SOL     OW30247   3.461   3.946   5.553  0.1360 -0.1121 -1.0261
 6263SOL    HW130248   3.460   4.029   5.505  0.5223  0.6070  0.2190
 6263SOL    HW230249   3.528   3.958   5.621 -2.0970 -0.7859  1.2662
 6264SOL     OW30250   3.753   2.567   7.581  0.3761  0.1899  0.3344
 6264SOL    HW130251   3.843   2.599   7.575  0.2250  0.6853  0.7230
 6264SOL    HW230252   3.762   2.476   7.553 -1.6095 -0.3919  1.5463
 6265SOL     OW30253   1.488   3.857  11.050  0.3679  0.0645  0.5593
 6265SOL    HW130254   1.403   3.823  11.020  0.3729  0.7653 -0.2439
 6265SOL    HW230255   1.459   3.895  11.133 -1.1311  1.3404 -0.5462
 6266SOL     OW30256   0.507   1.031   7.431 -0.0305 -0.0702  0.4858
 6266SOL    HW130257   0.591   1.015   7.387 -0.6579  0.1970 -0.8251
 6266SOL    HW230258   0.500   0.978   7.510 -1.5333  0.5175  0.7397
 6267SOL     OW30259   0.316   2.473  14.391  0.2787  0.0280  0.1324
 6267SOL    HW130260   0.353   2.530  14.459  0.4868  0.4010 -0.2921
 6267SOL    HW230261   0.235   2.521  14.373 -0.0570 -0.1198  1.2489
 6268SOL     OW30262   3.868   3.794  15.883 -0.2380  1.3154  0.3286
 6268SOL    HW130263   3.856   3.889  15.883 -1.4387  1.1560 -0.8814
 6268SOL    HW230264   3.928   3.784  15.956  1.3786 -0.1822 -1.1952
 6269SOL     OW30265   0.228   0.687   2.856  0.1981 -0.2874  0.4314
 6269SOL    HW130266   0.307   0.736   2.878  1.3290 -1.6521 -0.6019
 6269SOL    HW230267   0.182   0.738   2.789  2.3912 -0.1430 -0.9602
 6270SOL     OW30268   3.296   1.056   2.331 -0.9032  0.0447  0.5447
 6270SOL    HW130269   3.329   1.088   2.415 -2.5019 -1.7500  1.8574
 6270SOL    HW230270   3.353   0.981   2.317 -0.1276  0.6948  0.2492
 6271SOL     OW30271   3.410   3.288  17.337  0.0679  0.6222 -0.3509
 6271SOL    HW130272   3.450   3.202  17.326 -1.3793  0.0316 -1.1218
 6271SOL    HW230273   3.413   3.302  17.431  1.7078  0.5669 -0.3913
 6272SOL     OW30274   1.117   3.568   0.333  0.7218 -0.0704  0.3045
 6272SOL    HW130275   1.186   3.533   0.391  2.2753  0.3941 -1.2590
 6272SOL    HW230276   1.077   3.634   0.388 -1.2876 -1.2193  0.2084
 6273SOL     OW30277   1.069   3.476   7.742  0.1488  0.7908  0.5117
 6273SOL    HW130278   1.010   3.540   7.782  1.1154  1.9045  0.1523
 6273SOL    HW230279   1.113   3.449   7.822  0.9925  0.1212 -0.1851
 6274SOL     OW30280   1.104   1.427  12.963 -0.4136  0.3437 -0.0648
 6274SOL    HW130281   1.160   1.388  12.896 -0.3518 -0.0678  0.2210
 6274SOL    HW230282   1.083   1.347  13.012 -0.8862 -0.8839 -2.2520
 6275SOL     OW30283   1.592   2.512   3.262  0.0109  0.1757 -0.7967
 6275SOL    HW130284   1.512   2.557   3.289  0.0446 -0.3895  0.2269
 6275SOL    HW230285   1.656   2.508   3.333  0.9075 -1.6235 -1.7153
 6276SOL     OW30286   2.366   4.583  12.159 -0.0413 -0.0979 -0.3580
 6276SOL    HW130287   2.272   4.596  12.152 -0.1018 -0.2104  0.2649
 6276SOL    HW230288   2.383   4.531  12.080  0.5344  0.0799 -0.3561
 6277SOL     OW30289   1.816   0.904   1.981 -0.2785  0.4398  0.1693
 6277SOL    HW130290   1.863   0.821   1.986  0.4632  0.9465  1.4721
 6277SOL    HW230291   1.891   0.955   1.950 -1.2016  0.1652 -2.5048
 6278SOL     OW30292   3.060   0.455   7.763  0.0943  0.0982 -0.8238
 6278SOL    HW130293   3.053   0.401   7.684 -1.0444 -1.9407  0.6923
 6278SOL    HW230294   3.016   0.406   7.832  1.2973  0.6138  0.3187
 6279SOL     OW30295   2.618   4.396   2.371 -0.5911  0.0865 -0.2238
 6279SOL    HW130296   2.688   4.335   2.392 -1.1188  0.4850  2.8076
 6279SOL    HW230297   2.573   4.344   2.304 -2.4729  1.1237  0.2140
 6280SOL     OW30298   4.288   4.174   8.202  0.1654 -0.0695  0.9372
 6280SOL    HW130299   4.366   4.171   8.256  0.3142 -1.2922  0.6697
 6280SOL    HW230300   4.219   4.196   8.265 -0.1216  0.1370  0.5502
 6281SOL     OW30301   2.421   1.479   9.497 -0.0627 -0.1858  0.4397
 6281SOL    HW130302   2.495   1.418   9.500 -0.6020 -0.7478  2.2982
 6281SOL    HW230303   2.382   1.449   9.415 -1.8608 -0.9104  1.5602
 6282SOL     OW30304   1.743   2.586   3.517  0.1075  0.0622 -0.0886
 6282SOL    HW130305   1.740   2.632   3.601  4.3688 -1.5433  0.9505
 6282SOL    HW230306   1.698   2.506   3.545  0.8843 -0.1066  0.6675
 6283SOL     OW30307   4.142   0.041   0.723 -0.3277  0.6979 -0.2744
 6283SOL    HW130308   4.126   0.135   0.737 -0.6412  0.7256 -0.8229
 6283SOL    HW230309   4.064   0.008   0.767 -0.1625 -0.3771 -0.7880
 6284SOL     OW30310   0.034   3.431   7.021 -0.1688 -0.2440  0.1739
 6284SOL    HW130311   4.692   3.503   7.039 -0.2926  0.1992 -2.0126
 6284SOL    HW230312   0.019   3.371   7.094  1.2748  0.2098  0.8435
 6285SOL     OW30313   1.836   1.881   3.070  0.2182 -0.0377 -0.2112
 6285SOL    HW130314   1.840   1.819   3.143 -0.7823  0.2990  0.1305
 6285SOL    HW230315   1.871   1.829   2.998  0.1300  1.7346 -1.5394
 6286SOL     OW30316   3.191   1.530   0.138  0.2500 -0.2535 -0.3254
 6286SOL    HW130317   3.212   1.616   0.174  1.5392  0.3290 -2.4891
 6286SOL    HW230318   3.210   1.479   0.216 -0.2260 -0.0872 -0.0969
 6287SOL     OW30319   0.064   0.659  13.732  0.0028  0.0568  0.2621
 6287SOL    HW130320   0.080   0.582  13.677  1.6348  0.8683 -0.3913
 6287SOL    HW230321   0.040   0.717  13.660 -1.9529  0.2419  1.0661
 6288SOL     OW30322   3.982   3.669   4.357 -0.1697 -0.7460  0.1931
 6288SOL    HW130323   4.008   3.579   4.334  0.6328 -0.2418 -0.8566
 6288SOL    HW230324   4.065   3.703   4.391 -1.1959  0.8136  1.0997
 6289SOL     OW30325   0.143   2.450   7.432  0.1392  0.4980 -0.4300
 6289SOL    HW130326   0.151   2.372   7.378 -0.1755 -0.0623  0.3193
 6289SOL    HW230327   0.104   2.519   7.379  1.0817  1.8378  0.6239
 6290SOL     OW30328   4.223   2.950   0.275 -0.1622 -0.0775  0.4846
 6290SOL    HW130329   4.221   2.860   0.241  0.8842 -1.2852  3.5598
 6290SOL    HW230330   4.236   2.932   0.368 -0.9636 -1.6257  0.3019
 6291SOL     OW30331   3.238   3.945   7.275  0.0592 -0.2176  0.7210
 6291SOL    HW130332   3.167   3.989   7.323 -0.6016 -1.0743  0.5297
 6291SOL    HW230333   3.223   3.855   7.306 -0.8829 -1.0618 -2.2523
 6292SOL     OW30334   3.840   0.823  15.565  0.2896  0.0553 -0.1885
 6292SOL    HW130335   3.884   0.908  15.567 -1.1813  0.8200  0.1728
 6292SOL    HW230336   3.859   0.802  15.656 -0.1319  0.2643 -0.0513
 6293SOL     OW30337   1.813   3.743   8.957  0.1182 -0.3576 -0.0982
 6293SOL    HW130338   1.753   3.695   9.015  0.7153  0.2854  1.0401
 6293SOL    HW230339   1.752   3.784   8.895  0.8752  0.2302 -0.4522
 6294SOL     OW30340   1.303   0.702   7.300 -0.8692  0.0836  0.0653
 6294SOL    HW130341   1.271   0.787   7.272 -1.3348  0.5983  2.1367
 6294SOL    HW230342   1.337   0.734   7.384  0.6111 -1.2339 -0.0285
 6295SOL     OW30343   4.371   2.683   3.035  0.6314 -0.7023 -0.0256
 6295SOL    HW130344   4.366   2.771   3.070 -0.5031 -0.6348 -0.3484
 6295SOL    HW230345   4.293   2.673   2.981  0.6407 -2.5426  0.3036
 6296SOL     OW30346   1.782   3.353  16.603  0.7609 -0.7240 -0.3125
 6296SOL    HW130347   1.780   3.285  16.536 -3.4244 -0.9752  0.0316
 6296SOL    HW230348   1.868   3.337  16.641  0.9690  0.0837 -0.4370
 6297SOL     OW30349   2.116   1.403   8.077  0.0056  0.0056 -0.5095
 6297SOL    HW130350   2.100   1.474   8.139 -1.0451  0.0105 -0.7992
 6297SOL    HW230351   2.030   1.362   8.067  2.0807 -3.9342 -2.5641
 6298SOL     OW30352   2.918   0.865   9.700  0.5073  0.1267 -0.5697
 6298SOL    HW130353   2.917   0.939   9.761  1.4972  1.6098 -2.3349
 6298SOL    HW230354   3.001   0.825   9.726 -0.3073 -1.9591 -1.2183
 6299SOL     OW30355   4.508   3.342   8.623  0.6226  0.3138  0.0253
 6299SOL    HW130356   4.506   3.323   8.717  1.6752  1.2651  0.2471
 6299SOL    HW230357   4.413   3.340   8.613  0.6409 -1.0146  0.0624
 6300SOL     OW30358   0.301   4.313  14.857  0.6387 -0.2509 -0.0521
 6300SOL    HW130359   0.314   4.398  14.816  0.6628 -0.7811 -1.1444
 6300SOL    HW230360   0.238   4.331  14.927 -0.6138 -0.1252 -1.2287
 6301SOL     OW30361   0.156   3.706   3.881 -0.4790 -0.6514  0.1091
 6301SOL    HW130362   0.134   3.686   3.972  0.8824 -0.4587  0.4863
 6301SOL    HW230363   0.244   3.668   3.875 -1.0840 -2.0016 -0.3533
 6302SOL     OW30364   4.637   0.959  14.235 -0.0009 -0.5711 -0.1202
 6302SOL    HW130365   0.003   0.981  14.199 -0.1316  0.9361  0.5180
 6302SOL    HW230366   4.596   0.888  14.185  0.7049 -0.2141 -1.1929
 6303SOL     OW30367   1.373   3.875   6.425  0.4574  0.4831 -0.5333
 6303SOL    HW130368   1.432   3.872   6.500  0.3659 -1.5042 -0.5177
 6303SOL    HW230369   1.416   3.807   6.373 -1.9541 -1.7356  0.3784
 6304SOL     OW30370   1.687   1.065   1.381  1.1329 -0.7206 -0.4775
 6304SOL    HW130371   1.675   1.023   1.466  0.3392 -0.0743 -0.2727
 6304SOL    HW230372   1.783   1.069   1.380  1.0157  1.2196 -2.8316
 6305SOL     OW30373   1.845   3.131   0.362 -0.0859  0.1111  0.4299
 6305SOL    HW130374   1.904   3.058   0.344 -0.9714 -1.0089  2.0427
 6305SOL    HW230375   1.801   3.143   0.278  0.3114 -0.9035  0.0753
 6306SOL     OW30376   0.651   1.192   3.078  0.4037  0.2595 -0.3341
 6306SOL    HW130377   0.622   1.185   2.987  0.8158 -0.9280 -0.3726
 6306SOL    HW230378   0.575   1.224   3.127  1.1224 -0.2688  1.1440
 6307SOL     OW30379   1.966   1.702   0.480  0.4948 -0.4778 -0.6174
 6307SOL    HW130380   1.975   1.783   0.430 -3.1739 -0.2022 -0.8326
 6307SOL    HW230381   2.000   1.725   0.566  0.7687 -0.5179 -0.7122
 6308SOL     OW30382   0.872   0.695   9.555 -0.0007 -0.0467  0.5187
 6308SOL    HW130383   0.788   0.724   9.590 -0.6780 -0.5156 -0.7241
 6308SOL    HW230384   0.935   0.760   9.586  0.6486 -0.6846  0.5400
 6309SOL     OW30385   2.301   2.997   0.838 -0.3570 -0.3563  0.3240
 6309SOL    HW130386   2.353   3.064   0.795  0.8853 -1.7901 -0.4034
 6309SOL    HW230387   2.362   2.974   0.909 -2.2164  0.1899  2.0990
 6310SOL     OW30388   3.053   0.907   6.422  0.2334 -0.1690 -0.2245
 6310SOL    HW130389   3.093   0.921   6.337 -1.1072 -3.5714 -1.3886
 6310SOL    HW230390   2.960   0.916   6.401  0.5286 -1.6423 -2.0878
 6311SOL     OW30391   4.170   2.860   1.426 -0.1295  0.0221 -0.2924
 6311SOL    HW130392   4.092   2.836   1.476  0.1085  1.2572  0.6857
 6311SOL    HW230393   4.235   2.806   1.471  1.0668  1.7825  0.0994
 6312SOL     OW30394   2.003   0.635  11.563  0.1491  0.2885  0.4003
 6312SOL    HW130395   1.972   0.619  11.474  4.9301  0.7512 -1.3398
 6312SOL    HW230396   1.929   0.659  11.619 -0.0312  0.7983 -0.0600
 6313SOL     OW30397   3.225   4.239  10.478 -0.4064 -0.3826 -0.1907
 6313SOL    HW130398   3.251   4.211  10.566  3.7276  0.9117 -1.0014
 6313SOL    HW230399   3.307   4.282  10.457 -0.1095 -0.9250 -0.1280
 6314SOL     OW30400   3.396   1.652   7.936  0.1702  0.2335 -0.0557
 6314SOL    HW130401   3.451   1.669   8.013 -0.5927  2.5594 -0.0220
 6314SOL    HW230402   3.312   1.629   7.975  0.9270  0.5474  1.7910
 6315SOL     OW30403   2.493   0.963  17.537 -0.0595 -0.2643  0.4245
 6315SOL    HW130404   2.533   0.897  17.593 -0.2916  0.8501  1.9040
 6315SOL    HW230405   2.427   0.992  17.600  2.3527 -0.5947  3.0912
 6316SOL     OW30406   2.041   1.604  14.600  0.1720 -0.0082  0.0044
 6316SOL    HW130407   1.993   1.677  14.559  1.0962 -0.6882 -2.2993
 6316SOL    HW230408   1.980   1.531  14.606 -0.1593  0.3498  0.9313
 6317SOL     OW30409   3.719   2.730   3.287  0.0956 -0.2467 -0.7071
 6317SOL    HW130410   3.653   2.713   3.219  0.6319 -1.9063 -0.8140
 6317SOL    HW230411   3.765   2.648   3.304 -0.6100 -0.1636  1.5567
 6318SOL     OW30412   2.720   1.194   2.680 -0.4067 -0.1831 -0.5603
 6318SOL    HW130413   2.774   1.139   2.737 -0.6224  0.4550  0.2585
 6318SOL    HW230414   2.695   1.258   2.746  1.5825  0.7277 -0.6858
 6319SOL     OW30415   2.786   4.672   0.419  0.1732  0.4077  0.1692
 6319SOL    HW130416   2.728   4.612   0.372  1.4876 -0.1578 -0.7258
 6319SOL    HW230417   2.866   4.620   0.407  0.8882  1.4486  0.4349
 6320SOL     OW30418   0.808   3.006   7.977  0.8286  0.2026  0.1915
 6320SOL    HW130419   0.873   2.994   8.046  0.0566 -3.2219  0.3624
 6320SOL    HW230420   0.729   2.974   8.021  1.1193  0.1724  0.6908
 6321SOL     OW30421   0.752   4.217  10.188  0.9492 -0.4690 -0.1906
 6321SOL    HW130422   0.664   4.185  10.171  0.1058  0.4977  2.2912
 6321SOL    HW230423   0.785   4.241  10.102  2.7731 -0.3673  0.5406
 6322SOL     OW30424   4.670   2.932  15.915 -0.4314 -0.3379  0.4672
 6322SOL    HW130425   4.592   2.879  15.900  0.5421 -2.0116  1.3129
 6322SOL    HW230426   0.009   2.882  15.858 -1.0415 -1.1344  0.5373
 6323SOL     OW30427   1.185   0.308   9.045 -0.6979  0.0520 -0.3729
 6323SOL    HW130428   1.189   0.219   9.012 -0.5014 -0.2807  0.5432
 6323SOL    HW230429   1.193   0.281   9.137 -2.4748 -0.8901 -0.5047
 6324SOL     OW30430   1.888   2.224  16.016 -0.6485  0.9181 -0.0562
 6324SOL    HW130431   1.880   2.147  15.961  1.0908  2.6437 -2.7306
 6324SOL    HW230432   1.959   2.197  16.075 -0.2536 -0.3640 -1.1150
 6325SOL     OW30433   1.726   4.181   8.131  0.7528 -0.0585 -0.0915
 6325SOL    HW130434   1.692   4.119   8.196  2.2834 -2.3582 -1.5270
 6325SOL    HW230435   1.735   4.121   8.057 -0.4526  2.2130 -2.0729
 6326SOL     OW30436   0.195   3.720   7.310 -0.2484  0.4400 -0.3174
 6326SOL    HW130437   0.192   3.727   7.406 -1.4244  0.0882 -0.3255
 6326SOL    HW230438   0.285   3.739   7.283 -0.5735  1.2008 -0.8490
 6327SOL     OW30439   2.725   1.280  17.660 -0.3482  0.0679  0.0936
 6327SOL    HW130440   2.679   1.243   0.054 -0.7522  0.7591  0.1789
 6327SOL    HW230441   2.798   1.329   0.018  1.1916 -2.4437  0.3688
 6328SOL     OW30442   0.700   0.068   3.226  0.0066  0.7159 -0.1529
 6328SOL    HW130443   0.613   0.032   3.214  0.0086  0.3521  0.8875
 6328SOL    HW230444   0.757   0.049   3.152 -0.7036  0.4030 -0.6157
 6329SOL     OW30445   1.110   2.082   0.629  0.4464  0.0189 -0.1238
 6329SOL    HW130446   1.031   2.130   0.604  0.5830  1.4995  2.3457
 6329SOL    HW230447   1.178   2.146   0.612 -0.3338  0.2366 -2.4447
 6330SOL     OW30448   0.018   3.968   9.429 -0.3302  0.3854  0.4274
 6330SOL    HW130449   0.083   3.989   9.496  1.0791  0.2828 -0.9306
 6330SOL    HW230450   0.066   3.966   9.347 -0.2655  1.4946  0.4451
 6331SOL     OW30451   2.989   1.944   2.805  0.0974 -0.3439 -0.1898
 6331SOL    HW130452   2.954   2.023   2.847  0.6711 -0.8342  1.2331
 6331SOL    HW230453   2.910   1.916   2.759 -1.5138  0.3042  2.1758
 6332SOL     OW30454   1.221   3.589   2.575  0.0197 -0.1576  0.5530
 6332SOL    HW130455   1.212   3.569   2.668  1.0291  1.5726  1.0278
 6332SOL    HW230456   1.285   3.523   2.546  1.3398  0.5534  1.8871
 6333SOL     OW30457   2.289   0.034   8.568  0.3620  0.3747  0.3018
 6333SOL    HW130458   2.336   0.095   8.625  0.4522 -2.2478  3.0108
 6333SOL    HW230459   2.301   4.677   8.624  1.7994 -0.6192 -1.3620
 6334SOL     OW30460   1.226   2.873   2.238  0.5641 -0.2851  0.0254
 6334SOL    HW130461   1.209   2.848   2.147 -0.8650  1.4683 -0.1954
 6334SOL    HW230462   1.190   2.961   2.227 -0.6529 -0.6632  1.0674
 6335SOL     OW30463   4.287   3.490   9.273  0.7603  0.5977  0.4317
 6335SOL    HW130464   4.342   3.562   9.241  0.5761  0.3994 -0.3371
 6335SOL    HW230465   4.214   3.544   9.302 -0.3228 -1.3593  1.3406
 6336SOL     OW30466   2.538   2.238   5.462  0.2368 -0.0921 -0.1806
 6336SOL    HW130467   2.616   2.183   5.462 -0.1860 -0.6653  3.4258
 6336SOL    HW230468   2.501   2.211   5.378  1.2098 -1.1717 -0.2530
 6337SOL     OW30469   4.544   2.707   2.295  0.4200  0.1591  0.1542
 6337SOL    HW130470   4.486   2.634   2.314  3.2884 -2.3754 -0.9018
 6337SOL    HW230471   4.627   2.661   2.308  0.2268  0.1408  1.3472
 6338SOL     OW30472   2.353   2.018   3.902 -0.2311 -0.1335  0.0333
 6338SOL    HW130473   2.432   2.071   3.894 -0.7889  0.7723  0.5655
 6338SOL    HW230474   2.384   1.928   3.888  1.0377  0.6633 -2.2422
 6339SOL     OW30475   3.501   1.980  12.301 -0.3246 -0.3714 -0.3197
 6339SOL    HW130476   3.561   2.046  12.267  0.4902 -2.2080 -2.4396
 6339SOL    HW230477   3.555   1.910  12.338  0.8706  1.3528  1.1915
 6340SOL     OW30478   1.114   0.378  14.074 -0.2154 -0.3177 -0.4701
 6340SOL    HW130479   1.075   0.417  14.152 -0.0985  1.1567 -1.1438
 6340SOL    HW230480   1.194   0.430  14.079  0.3185 -1.0144 -1.6621
 6341SOL     OW30481   2.093   2.947   1.802 -1.1757 -0.5776  0.0372
 6341SOL    HW130482   2.014   2.949   1.856  0.1987 -0.0977  2.0090
 6341SOL    HW230483   2.109   3.039   1.782  1.0012 -1.1064 -0.6467
 6342SOL     OW30484   2.057   3.275   2.584  0.3510  0.4807 -0.5070
 6342SOL    HW130485   2.067   3.277   2.679 -2.4082 -1.6406 -0.1721
 6342SOL    HW230486   2.021   3.187   2.567  0.3927  0.3686  0.0095
 6343SOL     OW30487   3.101   3.824   9.435  0.4194  0.0052  0.0997
 6343SOL    HW130488   3.196   3.811   9.436  0.7448  2.4474  1.1127
 6343SOL    HW230489   3.089   3.888   9.364 -0.1288 -0.6552 -0.3968
 6344SOL     OW30490   2.330   0.145   9.768 -0.0949 -0.7092  0.5239
 6344SOL    HW130491   2.261   0.186   9.821  0.9059 -0.2768  1.5003
 6344SOL    HW230492   2.271   0.106   9.704 -0.5380 -0.5248  0.8199
 6345SOL     OW30493   2.432   2.302   1.339 -0.1599  0.1673  0.3453
 6345SOL    HW130494   2.462   2.247   1.266  0.6737  0.8599  0.1545
 6345SOL    HW230495   2.377   2.249   1.396  0.8349 -2.3606 -1.0875
 6346SOL     OW30496   1.473   1.561   0.924  0.2864 -0.7632  0.0985
 6346SOL    HW130497   1.442   1.572   1.013 -1.5394 -2.7523 -0.2881
 6346SOL    HW230498   1.549   1.508   0.946 -0.5546 -1.8692  0.3315
 6347SOL     OW30499   3.971   3.388   6.543  0.0599 -0.1081  0.4050
 6347SOL    HW130500   3.942   3.463   6.491  0.2843 -0.0268  0.3956
 6347SOL    HW230501   3.911   3.316   6.522 -0.6228  0.9001 -1.0392
 6348SOL     OW30502   0.233   0.048   2.612 -0.2534  0.4503 -0.0644
 6348SOL    HW130503   0.306   0.064   2.672 -1.2728  1.4608  0.8972
 6348SOL    HW230504   0.191   0.131   2.591  1.6421  1.6259  0.8068
 6349SOL     OW30505   1.783   2.191   9.245 -0.2902  0.4005  0.1743
 6349SOL    HW130506   1.724   2.265   9.258 -0.2337  0.7262 -1.3481
 6349SOL    HW230507   1.849   2.231   9.189 -1.8287  2.6247 -0.0283
 6350SOL     OW30508   2.001   4.135   5.451  0.2185  0.1704 -0.3998
 6350SOL    HW130509   1.999   4.070   5.381  2.0124  1.2258 -1.4478
 6350SOL    HW230510   1.974   4.218   5.411 -1.4545 -0.3368 -0.3242
 6351SOL     OW30511   4.454   3.759   6.380  0.0867  0.1362  0.4614
 6351SOL    HW130512   4.437   3.706   6.457 -1.4064 -2.2135 -1.4913
 6351SOL    HW230513   4.438   3.690   6.316  1.7310  0.2476 -0.0827
 6352SOL     OW30514   3.383   3.726   3.837  0.4225  0.0222 -0.1035
 6352SOL    HW130515   3.350   3.685   3.757 -1.4729  2.2225 -0.4355
 6352SOL    HW230516   3.478   3.717   3.825  0.5834 -1.7133  2.6236
 6353SOL     OW30517   3.111   3.516   4.886  0.1039  0.0610 -0.1334
 6353SOL    HW130518   3.094   3.422   4.885 -3.0429  0.6249  1.9468
 6353SOL    HW230519   3.189   3.526   4.941 -0.6981  0.0044  1.0275
 6354SOL     OW30520   4.493   2.234   2.020  0.1770  0.3051 -0.3776
 6354SOL    HW130521   4.499   2.152   1.970  0.0167  0.9069 -1.3769
 6354SOL    HW230522   4.500   2.196   2.108  1.3522 -2.1258 -1.5061
 6355SOL     OW30523   1.746   3.033  10.841 -0.5340 -0.0956  0.1346
 6355SOL    HW130524   1.681   2.963  10.846  1.3302 -1.7400  1.2919
 6355SOL    HW230525   1.825   2.985  10.815 -1.7474 -0.9622 -1.9337
 6356SOL     OW30526   1.118   4.613   8.844 -0.4691  0.1276  0.7277
 6356SOL    HW130527   1.109   4.519   8.831 -0.4262  0.2170  0.0686
 6356SOL    HW230528   1.072   4.633   8.763  0.5366  1.5363  0.4830
 6357SOL     OW30529   2.409   2.068   2.551 -0.1650 -0.3828 -0.0641
 6357SOL    HW130530   2.322   2.100   2.572  0.5910  2.2061 -0.8624
 6357SOL    HW230531   2.397   1.988   2.499 -1.1126  0.5790 -1.3110
 6358SOL     OW30532   2.252   0.768  16.103 -0.3345  0.1025 -0.3405
 6358SOL    HW130533   2.220   0.816  16.179  1.6450  0.3909  0.3177
 6358SOL    HW230534   2.255   0.685  16.150 -0.5099 -0.8303 -1.9688
 6359SOL     OW30535   4.515   0.647   6.188 -0.1005  0.7305  0.5441
 6359SOL    HW130536   4.440   0.707   6.192 -1.2177 -0.7355  1.4203
 6359SOL    HW230537   4.527   0.643   6.093 -0.4538  0.2789  0.5175
 6360SOL     OW30538   3.460   3.828   4.415  0.5010  0.1669  0.2578
 6360SOL    HW130539   3.404   3.756   4.385 -1.2471  1.0542  1.3497
 6360SOL    HW230540   3.392   3.894   4.426  0.2966 -0.1457  0.9279
 6361SOL     OW30541   2.427   3.925   8.361  0.3759 -0.5786 -0.0140
 6361SOL    HW130542   2.340   3.941   8.397  0.9528  1.8666  0.2890
 6361SOL    HW230543   2.468   3.997   8.408  0.4896 -0.0669 -0.8893
 6362SOL     OW30544   1.050   0.403   2.868  0.0828 -0.3635  0.5728
 6362SOL    HW130545   1.006   0.416   2.952  0.4925 -2.7197  1.1545
 6362SOL    HW230546   1.032   0.486   2.824  1.5974 -0.1425  0.3737
 6363SOL     OW30547   0.409   1.910   8.364  0.2333  0.1072 -0.0575
 6363SOL    HW130548   0.418   2.003   8.384 -1.9529  0.1346  0.8337
 6363SOL    HW230549   0.425   1.872   8.451  1.3976  0.4803 -0.1193
 6364SOL     OW30550   2.552   1.904   3.277  0.5478  0.3494 -0.4965
 6364SOL    HW130551   2.628   1.865   3.236 -2.4275 -4.1915 -1.7080
 6364SOL    HW230552   2.557   1.865   3.364 -1.5792  2.2720  0.5157
 6365SOL     OW30553   4.204   0.971   4.052  0.4659 -0.7170 -0.0530
 6365SOL    HW130554   4.245   1.045   4.096 -0.3629  0.1616 -0.7494
 6365SOL    HW230555   4.139   1.028   4.011  1.5840  0.3977 -0.2298
 6366SOL     OW30556   1.832   4.355   1.947 -0.6114  0.7046  0.1223
 6366SOL    HW130557   1.830   4.429   1.886  0.4403 -2.2124 -3.4944
 6366SOL    HW230558   1.783   4.389   2.022  1.1602 -0.1350  1.6710
 6367SOL     OW30559   2.136   0.788   4.209  0.4713 -0.5692 -0.0828
 6367SOL    HW130560   2.093   0.703   4.213 -0.7414  0.0669  0.6236
 6367SOL    HW230561   2.078   0.839   4.151  0.4467  0.7301  1.0854
 6368SOL     OW30562   0.360   2.639  17.656  0.3406 -0.0097 -0.2374
 6368SOL    HW130563   0.425   2.694  17.611  0.3645 -0.6785 -1.0144
 6368SOL    HW230564   0.281   2.688  17.633  0.8795  1.7800  1.7356
 6369SOL     OW30565   3.715   3.844  14.250 -0.8477 -0.1562  0.1364
 6369SOL    HW130566   3.650   3.911  14.225 -1.1474  0.1191  1.6236
 6369SOL    HW230567   3.673   3.762  14.225 -0.4218 -0.2720 -0.1924
 6370SOL     OW30568   3.430   2.514   4.886  0.0157 -0.1922 -0.0235
 6370SOL    HW130569   3.411   2.420   4.896 -0.7005 -0.1174 -0.6875
 6370SOL    HW230570   3.388   2.553   4.963 -1.0786 -0.4403 -0.4933
 6371SOL     OW30571   3.489   3.149   7.189 -0.0033  0.5414  0.0572
 6371SOL    HW130572   3.579   3.126   7.212 -0.1625  0.2839  0.4176
 6371SOL    HW230573   3.483   3.096   7.110 -0.5973 -0.4788  0.7928
 6372SOL     OW30574   2.779   3.425   2.765  0.7354 -0.0783 -0.2258
 6372SOL    HW130575   2.844   3.429   2.695 -1.1011 -1.4972 -2.0065
 6372SOL    HW230576   2.702   3.397   2.715  1.5111  2.4004 -2.8214
 6373SOL     OW30577   4.714   3.490  10.046 -0.1723  0.0818 -0.2173
 6373SOL    HW130578   0.040   3.418  10.090  1.2885 -0.2137 -2.1917
 6373SOL    HW230579   4.645   3.448   9.995 -0.6089 -0.2347  0.6392
 6374SOL     OW30580   3.195   4.626   4.033 -0.2523  0.6492 -0.8261
 6374SOL    HW130581   3.252   4.612   3.957 -0.3293  0.6132 -0.8780
 6374SOL    HW230582   3.106   4.634   3.999 -0.6483 -1.4984 -0.2746
 6375SOL     OW30583   0.576   1.403   1.083  0.0519 -0.1996 -0.1656
 6375SOL    HW130584   0.570   1.326   1.140  0.4328 -1.1513 -1.4038
 6375SOL    HW230585   0.497   1.445   1.117  1.7294  0.9705  2.2275
 6376SOL     OW30586   3.212   1.025  17.069  0.0910 -0.3413  0.2845
 6376SOL    HW130587   3.299   1.013  17.030 -0.6779 -0.5954 -1.3665
 6376SOL    HW230588   3.179   1.096  17.013  0.5735  0.5786  1.1744
 6377SOL     OW30589   0.044   1.707   8.041  0.3223 -0.1506 -0.3327
 6377SOL    HW130590   0.017   1.770   7.974  0.8210 -0.1335 -0.5175
 6377SOL    HW230591   0.108   1.761   8.088  1.0560 -2.5250  1.3881
 6378SOL     OW30592   4.183   0.514   8.882 -0.0903  0.1789  0.3768
 6378SOL    HW130593   4.099   0.521   8.926  0.1913 -0.2377  0.9794
 6378SOL    HW230594   4.184   0.435   8.828  0.1169  0.4578 -0.0275
 6379SOL     OW30595   0.684   4.100   4.406  0.1347  0.1397  0.0415
 6379SOL    HW130596   0.602   4.103   4.357  0.7450 -2.0805 -1.1375
 6379SOL    HW230597   0.710   4.191   4.398 -0.0327  0.2478  0.7418
 6380SOL     OW30598   3.438   2.225  15.419 -0.1161 -0.5708 -0.5545
 6380SOL    HW130599   3.344   2.217  15.406 -0.5219  1.1307  1.2895
 6380SOL    HW230600   3.467   2.282  15.348 -1.5409 -0.1383 -0.7752
 6381SOL     OW30601   2.557   2.873  13.393  0.1860  0.8869  0.0884
 6381SOL    HW130602   2.594   2.873  13.304  0.4367 -1.8721  0.1817
 6381SOL    HW230603   2.578   2.964  13.413  2.1891  0.7947 -1.5359
 6382SOL     OW30604   2.040   2.701   4.409  0.5198 -0.2120 -0.6277
 6382SOL    HW130605   2.074   2.755   4.338  2.9113 -0.5297  0.2825
 6382SOL    HW230606   1.957   2.679   4.367  0.9398 -0.1570 -1.4966
 6383SOL     OW30607   0.269   1.338  13.883 -0.0851  0.1091 -0.1589
 6383SOL    HW130608   0.188   1.368  13.923 -0.2397  0.5560 -0.8093
 6383SOL    HW230609   0.291   1.418  13.834  0.1500 -0.7793 -1.5075
 6384SOL     OW30610   0.178   2.715   1.089 -0.6646 -0.2784 -0.1295
 6384SOL    HW130611   0.196   2.637   1.037  1.0938  1.0054 -1.4451
 6384SOL    HW230612   0.087   2.735   1.067 -1.0023  0.1521  1.6675
 6385SOL     OW30613   0.396   1.547   7.104  0.4248  0.5713  0.3181
 6385SOL    HW130614   0.468   1.565   7.165  1.0070 -3.0669  0.6787
 6385SOL    HW230615   0.334   1.602   7.152 -0.1995 -1.1257  1.4465
 6386SOL     OW30616   1.023   0.305   5.672  0.2429  0.6579  0.1347
 6386SOL    HW130617   0.987   0.394   5.670  1.3364  1.0447 -2.5341
 6386SOL    HW230618   1.088   0.315   5.603 -0.2787 -1.4480 -0.6604
 6387SOL     OW30619   4.017   0.506   6.737 -0.4178 -1.3489  0.2664
 6387SOL    HW130620   3.990   0.598   6.749 -0.0373 -0.9718 -1.7804
 6387SOL    HW230621   4.010   0.491   6.643 -2.9821 -2.2802  0.6105
 6388SOL     OW30622   0.529   3.055  16.857  0.1412 -0.4809  0.3435
 6388SOL    HW130623   0.591   2.992  16.894  2.1425  0.2712 -1.7348
 6388SOL    HW230624   0.571   3.086  16.777 -0.2632 -0.0759  0.2868
 6389SOL     OW30625   1.024   1.838   2.378  0.0812  0.4082 -0.0668
 6389SOL    HW130626   1.028   1.773   2.307  0.8956 -0.2102  0.5475
 6389SOL    HW230627   1.112   1.821   2.412 -1.1282 -0.2687  2.7142
 6390SOL     OW30628   3.756   0.651  13.063 -0.2996  0.1321 -0.1550
 6390SOL    HW130629   3.724   0.632  13.152  2.5046 -0.8957  0.6411
 6390SOL    HW230630   3.836   0.695  13.088  0.5985 -0.5230 -1.9038
 6391SOL     OW30631   1.917   3.980   2.240  0.3782  0.2965  0.3533
 6391SOL    HW130632   1.890   3.892   2.211 -0.3333  1.3669 -2.2771
 6391SOL    HW230633   1.917   4.027   2.156  0.8798  0.2926  0.3530
 6392SOL     OW30634   2.411   0.961   9.422 -0.5603  0.1111  0.3530
 6392SOL    HW130635   2.423   0.871   9.389  2.6496 -0.3932  2.9293
 6392SOL    HW230636   2.331   0.997   9.384 -1.0152  0.1318  1.3406
 6393SOL     OW30637   2.318   1.786   6.030 -0.0987 -0.2839 -0.3538
 6393SOL    HW130638   2.347   1.747   5.948  1.8496 -0.5685  0.4730
 6393SOL    HW230639   2.301   1.878   6.011 -1.4400  0.0857  2.6401
 6394SOL     OW30640   4.210   3.611   0.176  0.0614 -0.4056 -0.2964
 6394SOL    HW130641   4.181   3.543   0.237  2.3754 -2.0808 -1.0884
 6394SOL    HW230642   4.248   3.560   0.105  0.9271 -1.1112  0.6691
 6395SOL     OW30643   2.376   3.973  14.408  0.1543  0.2653  0.8009
 6395SOL    HW130644   2.454   4.028  14.406  0.5304 -0.3117 -0.4393
 6395SOL    HW230645   2.380   3.922  14.327  0.3621 -1.1229  1.6713
 6396SOL     OW30646   0.039   0.286  10.435 -0.4834  0.2407 -0.1317
 6396SOL    HW130647   0.090   0.320  10.509  3.0852 -4.5186 -0.3631
 6396SOL    HW230648   0.101   0.274  10.362 -0.0941  0.7785  0.1100
 6397SOL     OW30649   2.369   3.078   7.608 -0.3400  0.1295 -0.4136
 6397SOL    HW130650   2.428   3.043   7.541  2.5425  1.1353  1.5749
 6397SOL    HW230651   2.436   3.122   7.661 -1.4545  0.0996  1.0161
 6398SOL     OW30652   0.753   3.350   3.823 -0.0929 -0.0654 -0.3322
 6398SOL    HW130653   0.819   3.290   3.859 -0.1890  0.5310  0.8381
 6398SOL    HW230654   0.806   3.418   3.782  0.5268 -0.2618  0.1334
 6399SOL     OW30655   1.347   2.911   6.116 -0.5443  0.3580 -0.1965
 6399SOL    HW130656   1.314   2.979   6.174 -1.3980  1.0937 -1.5424
 6399SOL    HW230657   1.357   2.830   6.166  2.0134  0.2593 -0.8751
 6400SOL     OW30658   0.001   1.411   2.460 -0.1607  0.0248 -0.8205
 6400SOL    HW130659   4.636   1.447   2.487 -1.2802  0.1905 -4.6019
 6400SOL    HW230660   4.699   1.318   2.453 -1.0845  0.0766  1.1825
 6401SOL     OW30661   2.320   1.173  15.216 -0.1570  0.3058  0.0723
 6401SOL    HW130662   2.412   1.194  15.233 -0.4997  0.4685  1.6952
 6401SOL    HW230663   2.329   1.133  15.129 -1.0115 -2.0566  1.0650
 6402SOL     OW30664   0.230   0.769   0.465 -0.2681 -0.4537  0.3402
 6402SOL    HW130665   0.235   0.808   0.378 -0.6977  0.0197  0.5296
 6402SOL    HW230666   0.323   0.748   0.468 -0.3437 -1.1541 -1.7373
 6403SOL     OW30667   4.203   2.692   0.221 -0.1716 -0.3624 -0.3129
 6403SOL    HW130668   4.261   2.684   0.145  2.0902 -3.2495  1.6998
 6403SOL    HW230669   4.247   2.646   0.292 -1.8814 -0.3601  0.7616
 6404SOL     OW30670   3.968   4.173   5.595  0.3867 -0.3720  0.6827
 6404SOL    HW130671   3.910   4.228   5.542 -0.2089  0.2263  1.9347
 6404SOL    HW230672   3.939   4.083   5.581  2.7752 -0.9377 -0.4795
 6405SOL     OW30673   1.450   0.066   8.013 -0.3409 -0.5814  0.1059
 6405SOL    HW130674   1.384   0.125   7.975 -0.4852 -2.2265 -2.1616
 6405SOL    HW230675   1.476   0.109   8.095 -1.5587  0.4390 -0.0429
 6406SOL     OW30676   0.901   1.796   8.422  0.2528 -0.8013 -0.6488
 6406SOL    HW130677   0.981   1.773   8.469  1.3415  2.5726 -0.8759
 6406SOL    HW230678   0.833   1.765   8.482  1.8502 -1.0447  1.0106
 6407SOL     OW30679   0.452   4.154  10.451 -0.0274  0.2533  0.8546
 6407SOL    HW130680   0.403   4.204  10.386  0.2784 -0.1906  0.2844
 6407SOL    HW230681   0.436   4.206  10.530 -1.1199  3.3817 -1.4348
 6408SOL     OW30682   2.268   1.073   9.055 -0.2241  0.2454  0.2259
 6408SOL    HW130683   2.329   1.111   9.119 -1.1545  1.1852  0.5567
 6408SOL    HW230684   2.181   1.082   9.094 -0.5402  1.9879 -0.8697
 6409SOL     OW30685   3.676   0.546   2.897 -0.6600 -0.3619 -0.0066
 6409SOL    HW130686   3.766   0.535   2.927  0.1321  1.7837 -1.5994
 6409SOL    HW230687   3.670   0.641   2.901 -0.1077 -0.3306 -0.0290
 6410SOL     OW30688   3.209   0.163  15.434 -0.1873  0.6679  0.0997
 6410SOL    HW130689   3.171   0.170  15.522 -1.1322  0.5224 -0.3019
 6410SOL    HW230690   3.137   0.138  15.377  0.8187  1.5353 -1.5678
 6411SOL     OW30691   3.229   4.528   8.827 -0.0544  0.0438 -0.3075
 6411SOL    HW130692   3.173   4.460   8.790  2.4148 -2.0147 -0.2476
 6411SOL    HW230693   3.165   4.595   8.852  0.8878  1.1843 -0.9288
 6412SOL     OW30694   3.478   1.830   6.642 -0.5072 -0.4739 -0.1680
 6412SOL    HW130695   3.438   1.803   6.724  0.5235 -0.9179  0.1901
 6412SOL    HW230696   3.543   1.894   6.670  0.0949 -1.4885  0.7360
 6413SOL     OW30697   1.216   1.421   1.508  0.1146 -0.1328  0.3865
 6413SOL    HW130698   1.238   1.357   1.575  0.7647  1.0092  1.2574
 6413SOL    HW230699   1.132   1.456   1.540  0.7321 -0.6203  2.5224
 6414SOL     OW30700   3.827   1.064  13.841  0.1047 -0.3160 -0.3266
 6414SOL    HW130701   3.754   1.016  13.804 -1.6184  3.1503 -1.4257
 6414SOL    HW230702   3.780   1.116  13.906  1.2336 -1.3633  1.3246
 6415SOL     OW30703   2.567   0.787  17.298 -0.2789  0.1222  0.2277
 6415SOL    HW130704   2.553   0.790  17.392 -1.0110 -2.2686  0.2037
 6415SOL    HW230705   2.660   0.810  17.292 -0.5296  1.5088  1.8580
 6416SOL     OW30706   3.482   4.422   5.308  0.6032  0.1034  0.3144
 6416SOL    HW130707   3.568   4.406   5.347  0.1360 -1.2477  0.7947
 6416SOL    HW230708   3.432   4.466   5.376  0.6586 -2.0676  1.7653
 6417SOL     OW30709   2.100   0.798   7.619 -0.3313 -0.4564 -0.0716
 6417SOL    HW130710   2.060   0.885   7.609  0.0773 -0.1386  1.0544
 6417SOL    HW230711   2.172   0.816   7.680 -0.4931  1.6166 -0.4884
 6418SOL     OW30712   1.537   1.203  11.211  0.3564  0.5385  0.1007
 6418SOL    HW130713   1.549   1.295  11.237 -2.2062  0.6363  0.8990
 6418SOL    HW230714   1.611   1.166  11.260  0.7188 -0.8109 -1.4885
 6419SOL     OW30715   3.100   3.387   8.879 -0.1278  0.2162 -0.7359
 6419SOL    HW130716   3.114   3.400   8.785 -2.0173  2.4174 -0.7134
 6419SOL    HW230717   3.110   3.292   8.886 -0.1849  0.1316 -1.7593
 6420SOL     OW30718   4.082   2.613  16.830  0.1411  0.4323 -0.2628
 6420SOL    HW130719   3.994   2.579  16.813  0.5145 -0.1971 -0.9600
 6420SOL    HW230720   4.062   2.704  16.854 -0.3812  0.4943 -0.9182
 6421SOL     OW30721   4.383   0.896   5.777  0.1911 -0.2386 -0.0328
 6421SOL    HW130722   4.424   0.976   5.809 -0.3446 -0.3430  0.9040
 6421SOL    HW230723   4.448   0.826   5.784 -0.5527 -0.9108  0.1961
 6422SOL     OW30724   3.962   0.642   6.158 -0.4216  0.3039  0.6389
 6422SOL    HW130725   3.911   0.577   6.111  3.3377 -1.5037 -0.9909
 6422SOL    HW230726   3.973   0.717   6.100  0.0302 -0.6034 -0.4390
 6423SOL     OW30727   1.474   1.599   0.297 -0.0124  0.2545  0.0831
 6423SOL    HW130728   1.550   1.577   0.351  1.0015 -1.7665 -2.1985
 6423SOL    HW230729   1.507   1.663   0.234  0.2255  0.8787  0.8357
 6424SOL     OW30730   3.185   2.773   6.061 -0.1866  0.3091 -0.0775
 6424SOL    HW130731   3.113   2.716   6.033 -0.5243 -0.2688  1.9888
 6424SOL    HW230732   3.257   2.728   6.016 -1.3958 -1.6121 -0.1077
 6425SOL     OW30733   2.249   2.009   7.445  0.2963  0.2296 -0.8961
 6425SOL    HW130734   2.334   1.983   7.409  0.5018 -1.0361  0.5411
 6425SOL    HW230735   2.277   1.993   7.535 -2.0203  2.6897  0.2737
 6426SOL     OW30736   0.000   1.797   4.765  0.0165  0.4058  0.0794
 6426SOL    HW130737   4.646   1.809   4.825  0.8135  1.0504  0.9151
 6426SOL    HW230738   0.076   1.803   4.823 -0.4040  2.3055  0.4245
 6427SOL     OW30739   2.879   2.692   7.943  0.3317  0.6859 -0.4270
 6427SOL    HW130740   2.799   2.666   7.990 -0.0924  0.0949 -1.4758
 6427SOL    HW230741   2.952   2.671   8.002  0.2342  2.6152  0.3655
 6428SOL     OW30742   0.941   2.286   5.335  0.7364  0.0676 -0.2188
 6428SOL    HW130743   0.956   2.242   5.251 -0.5862  0.3433 -0.5875
 6428SOL    HW230744   0.886   2.360   5.311 -2.8949 -2.0519  1.7328
 6429SOL     OW30745   1.632   0.942   1.644  0.3737 -0.1219  0.2718
 6429SOL    HW130746   1.656   1.031   1.668  3.2067 -0.7388 -0.1760
 6429SOL    HW230747   1.552   0.911   1.686  0.2427 -0.1771 -0.0138
 6430SOL     OW30748   0.731   0.205  17.610  0.1221  0.2494 -0.3709
 6430SOL    HW130749   0.731   0.301  17.604  0.0683  0.2996  0.3775
 6430SOL    HW230750   0.664   0.200  17.678 -0.3410  0.8299 -0.7800
 6431SOL     OW30751   0.394   3.012  12.080  0.2213  0.3486  0.1727
 6431SOL    HW130752   0.352   2.934  12.044  2.9008 -0.2930 -1.5704
 6431SOL    HW230753   0.332   3.076  12.045  0.1467  0.8943  1.3078
 6432SOL     OW30754   0.858   2.613  10.543 -0.1630 -0.3077  0.1843
 6432SOL    HW130755   0.882   2.547  10.478  0.4026  0.1822 -0.1077
 6432SOL    HW230756   0.949   2.636  10.559  0.5402 -1.2511 -2.3923
 6433SOL     OW30757   1.578   1.983   8.411 -0.2883 -0.0803 -0.0873
 6433SOL    HW130758   1.628   1.920   8.463  0.8361  0.6629 -0.2734
 6433SOL    HW230759   1.641   2.054   8.410 -1.4680  0.9578 -1.9279
 6434SOL     OW30760   4.294   4.612   7.279 -0.4059 -0.1610 -0.6423
 6434SOL    HW130761   4.356   4.654   7.220 -0.4587  0.7514 -0.0429
 6434SOL    HW230762   4.309   4.519   7.262  0.3374 -0.7020  3.1180
 6435SOL     OW30763   0.343   4.608  12.609 -0.1422 -0.4386  0.0822
 6435SOL    HW130764   0.425   4.581  12.651  0.8327  0.4424 -1.2809
 6435SOL    HW230765   0.287   4.542  12.651 -0.2035 -1.2528 -1.2898
 6436SOL     OW30766   3.967   3.176   2.003 -0.0143  0.2228 -0.5903
 6436SOL    HW130767   3.979   3.182   2.098  0.4271  2.7116 -0.7881
 6436SOL    HW230768   3.909   3.101   2.012  1.2397 -0.9107 -2.0044
 6437SOL     OW30769   1.034   1.214   7.954 -0.1938 -0.7629 -0.0064
 6437SOL    HW130770   1.043   1.166   8.037  0.5136 -0.7826 -0.0935
 6437SOL    HW230771   1.125   1.243   7.946 -1.1027  2.7649  2.2379
 6438SOL     OW30772   4.323   0.602   8.386 -0.0901  0.3983 -0.4212
 6438SOL    HW130773   4.324   0.507   8.401 -2.0082  0.4624  0.0981
 6438SOL    HW230774   4.414   0.617   8.361 -0.1678  1.0206 -0.3263
 6439SOL     OW30775   1.525   1.400   7.979 -0.1102 -0.7728 -0.6162
 6439SOL    HW130776   1.566   1.340   8.041  0.7216  0.8162  0.3708
 6439SOL    HW230777   1.584   1.474   7.972 -0.2823 -0.6055 -0.3132
 6440SOL     OW30778   4.581   0.061   1.395  0.3988  0.0164 -0.8072
 6440SOL    HW130779   4.647   0.127   1.373 -0.6135  1.5480  0.7427
 6440SOL    HW230780   4.627   4.701   1.370  0.8628 -0.3568  1.2031
 6441SOL     OW30781   1.366   2.184   3.644  0.3560 -0.0771  0.1303
 6441SOL    HW130782   1.393   2.149   3.559  1.0241  0.2394  0.2095
 6441SOL    HW230783   1.436   2.249   3.653 -0.9196  1.1028  1.3632
 6442SOL     OW30784   1.317   1.412   5.999  0.2050  0.0495 -0.0485
 6442SOL    HW130785   1.375   1.484   6.024  0.5022 -0.7178  1.4364
 6442SOL    HW230786   1.250   1.471   5.965  0.5157 -0.6564 -1.9045
 6443SOL     OW30787   0.811   0.990   9.310  0.2963 -0.7995 -0.0991
 6443SOL    HW130788   0.855   1.074   9.304 -0.4636 -0.4607 -0.9884
 6443SOL    HW230789   0.791   0.982   9.403 -0.1098  1.1672 -0.0319
 6444SOL     OW30790   2.559   2.950   2.155  0.0984 -0.9063 -0.4034
 6444SOL    HW130791   2.465   2.968   2.164  1.0150  2.6312  1.8099
 6444SOL    HW230792   2.549   2.893   2.079  1.6933  0.9742 -1.9933
 6445SOL     OW30793   0.026   0.314   9.876  0.4221  0.2051 -0.5939
 6445SOL    HW130794   0.118   0.337   9.892  0.4870 -0.8035  0.4665
 6445SOL    HW230795   0.010   0.383   9.812  0.2266  1.1679  0.5045
 6446SOL     OW30796   4.582   2.033  12.879  0.3008  0.2436  0.3575
 6446SOL    HW130797   4.595   2.064  12.789 -0.1476  1.5923  0.7695
 6446SOL    HW230798   4.630   1.950  12.866  0.0329  0.4241 -1.9157
 6447SOL     OW30799   3.129   2.693   5.224 -0.2105  0.3386  0.0015
 6447SOL    HW130800   3.037   2.669   5.235  0.3930 -1.6211  0.7608
 6447SOL    HW230801   3.118   2.767   5.163 -1.1700  2.2561  2.4938
 6448SOL     OW30802   1.269   3.253  17.202  0.3944  0.5082  0.1485
 6448SOL    HW130803   1.194   3.310  17.220 -0.3030 -1.1958  2.5810
 6448SOL    HW230804   1.341   3.303  17.242  0.2751  0.7070  0.1157
 6449SOL     OW30805   4.175   1.873  12.108 -0.4019  0.0503 -0.4108
 6449SOL    HW130806   4.258   1.870  12.156 -1.4148  0.7327  1.3822
 6449SOL    HW230807   4.150   1.782  12.120  3.1560 -0.5215  2.5551
 6450SOL     OW30808   0.376   0.169  16.817  0.2977 -0.3811 -0.2788
 6450SOL    HW130809   0.327   0.087  16.806 -0.9009  0.2223  0.6204
 6450SOL    HW230810   0.319   0.221  16.761  0.9555  0.4827 -0.1523
 6451SOL     OW30811   3.472   3.307   5.800  0.3999 -0.1360 -0.1671
 6451SOL    HW130812   3.459   3.397   5.829 -1.5881 -0.9332  1.4425
 6451SOL    HW230813   3.567   3.299   5.797  0.4015 -0.2178  0.0657
 6452SOL     OW30814   3.009   1.208   6.035 -0.0859 -0.5926  0.1924
 6452SOL    HW130815   2.917   1.234   6.041 -0.3295 -1.6029  0.8340
 6452SOL    HW230816   2.989   1.116   6.017 -1.2119 -0.2120 -0.4793
 6453SOL     OW30817   0.356   4.236   8.084 -0.1937  0.4519  0.1552
 6453SOL    HW130818   0.366   4.258   8.176 -2.8577  2.7203 -0.0918
 6453SOL    HW230819   0.393   4.147   8.081 -0.4112  0.3648  0.0389
 6454SOL     OW30820   0.193   0.749  15.120  0.1207  0.7075  0.3211
 6454SOL    HW130821   0.162   0.775  15.206  0.1804  0.0443  0.5463
 6454SOL    HW230822   0.235   0.827  15.085  2.2618 -0.3982  0.4240
 6455SOL     OW30823   3.148   0.123   8.764 -0.5400 -0.0176  0.0870
 6455SOL    HW130824   3.220   0.153   8.819  0.7514  1.5723 -2.4985
 6455SOL    HW230825   3.165   0.148   8.673 -0.7693 -0.8918 -0.1962
 6456SOL     OW30826   3.626   4.644   8.378  0.0180  0.1478  0.2023
 6456SOL    HW130827   3.592   4.616   8.293  0.7553 -0.1691  0.0160
 6456SOL    HW230828   3.592   0.014   8.369 -0.7175 -0.0773  0.7309
 6457SOL     OW30829   1.797   3.637  11.878 -0.5011  0.0059  0.0931
 6457SOL    HW130830   1.823   3.654  11.969  0.8960 -0.6370 -0.1751
 6457SOL    HW230831   1.716   3.587  11.890 -1.7601  0.9864 -4.3779
 6458SOL     OW30832   3.400   3.622   1.658  0.3969 -0.3072  0.1985
 6458SOL    HW130833   3.443   3.552   1.708  0.5212 -1.2073 -1.1640
 6458SOL    HW230834   3.363   3.568   1.588  0.5533 -1.6714  1.1612
 6459SOL     OW30835   1.740   2.183   5.328 -0.0499 -0.1403 -0.1603
 6459SOL    HW130836   1.670   2.172   5.263 -1.3574 -1.0785  1.3797
 6459SOL    HW230837   1.680   2.197   5.402 -0.5832  0.5133 -0.7142
 6460SOL     OW30838   0.050   2.364   6.697 -0.1709 -0.2841 -0.8025
 6460SOL    HW130839   0.067   2.368   6.792 -3.0909 -0.4561 -0.2805
 6460SOL    HW230840   0.049   2.268   6.696 -0.9502 -0.2982  0.4583
 6461SOL     OW30841   1.663   2.058   0.395  0.2243  0.3612  0.0854
 6461SOL    HW130842   1.605   2.046   0.470 -1.0341 -0.9263 -1.0885
 6461SOL    HW230843   1.623   2.144   0.377  2.3097  0.9217 -1.9534
 6462SOL     OW30844   2.967   4.031   9.611  0.4663  0.1298  0.4350
 6462SOL    HW130845   3.049   3.984   9.595  0.4460  0.6964 -1.3165
 6462SOL    HW230846   2.972   4.087   9.533  1.5019 -0.4403  0.0873
 6463SOL     OW30847   4.490   1.486   6.016 -0.2854  0.2843 -0.3943
 6463SOL    HW130848   4.525   1.524   6.097 -0.4200  1.2037 -0.7681
 6463SOL    HW230849   4.468   1.564   5.966  0.6198 -0.8901 -2.6371
 6464SOL     OW30850   1.581   2.678  15.656  0.7713  0.0584 -0.1499
 6464SOL    HW130851   1.582   2.731  15.576 -0.7546  1.4971  0.7754
 6464SOL    HW230852   1.601   2.590  15.623 -3.1176 -1.3307  1.2876
 6465SOL     OW30853   2.340   1.706   7.846 -0.0281 -0.0331 -0.4964
 6465SOL    HW130854   2.328   1.611   7.844 -2.5345  0.2779 -0.4648
 6465SOL    HW230855   2.424   1.711   7.890 -0.2545 -0.9777  0.0372
 6466SOL     OW30856   3.444   2.571   1.811 -0.0552 -0.7094  0.1768
 6466SOL    HW130857   3.515   2.507   1.817  1.4065  0.6291 -2.8088
 6466SOL    HW230858   3.443   2.577   1.715  0.5596 -0.3732  0.1927
 6467SOL     OW30859   4.357   2.716  10.362  0.0631 -0.6010  0.0441
 6467SOL    HW130860   4.442   2.718  10.406  0.6117 -0.9126 -1.0068
 6467SOL    HW230861   4.378   2.668  10.282 -2.1032 -0.3249 -0.6935
 6468SOL     OW30862   4.275   2.849  12.926 -0.5002 -0.0579  0.4745
 6468SOL    HW130863   4.210   2.912  12.896 -1.8513 -2.4156 -1.5179
 6468SOL    HW230864   4.271   2.869  13.019  0.5822 -2.8397  1.1413
 6469SOL     OW30865   0.964   1.225   0.698 -0.3397  0.2074  0.3828
 6469SOL    HW130866   0.927   1.302   0.656 -0.7848  0.1201  0.6124
 6469SOL    HW230867   1.049   1.246   0.738 -0.1923  0.3891 -0.0233
 6470SOL     OW30868   2.538   1.448   5.809  0.1037  0.2873 -0.0984
 6470SOL    HW130869   2.471   1.387   5.838 -0.5106  0.7638 -0.5179
 6470SOL    HW230870   2.495   1.533   5.815 -1.9913 -0.8235  0.6090
 6471SOL     OW30871   1.084   3.088   7.658  0.0255 -0.0594 -0.4879
 6471SOL    HW130872   0.995   3.093   7.622 -0.2379  0.4545  0.2325
 6471SOL    HW230873   1.075   3.108   7.751  0.2046 -1.4350 -0.1704
 6472SOL     OW30874   3.000   4.371   3.759  0.2635 -0.4276 -0.1506
 6472SOL    HW130875   3.049   4.448   3.730 -0.4582  0.2757  0.5115
 6472SOL    HW230876   2.977   4.340   3.671 -2.8734  0.0046  0.5018
 6473SOL     OW30877   4.014   1.213  13.726  0.2459 -0.7543  0.5593
 6473SOL    HW130878   3.959   1.291  13.727 -0.4364 -1.2506  1.6866
 6473SOL    HW230879   3.950   1.148  13.755  1.3361 -1.1584  2.0048
 6474SOL     OW30880   1.683   4.248   5.205  0.0563 -0.1350 -0.3588
 6474SOL    HW130881   1.773   4.275   5.222  0.0961 -0.7491  0.4180
 6474SOL    HW230882   1.661   4.182   5.271 -0.6651  1.4519  0.9851
 6475SOL     OW30883   2.466   2.712   2.987  0.3742  0.1192  0.1748
 6475SOL    HW130884   2.454   2.717   2.892 -0.5978  1.8313  0.3872
 6475SOL    HW230885   2.524   2.787   3.003  0.0099  0.3420  0.4556
 6476SOL     OW30886   4.248   0.684  11.832 -0.1875  0.4968  0.3850
 6476SOL    HW130887   4.300   0.764  11.843 -0.7295  0.7327  1.2483
 6476SOL    HW230888   4.195   0.701  11.754 -0.4744  0.9666  0.6764
 6477SOL     OW30889   3.266   1.534  17.055  0.0534 -0.5079 -0.0180
 6477SOL    HW130890   3.335   1.469  17.044 -0.8260 -1.2120 -1.2748
 6477SOL    HW230891   3.245   1.517  17.147  1.6845  0.4350  0.5249
 6478SOL     OW30892   3.598   2.950   5.371 -0.6554 -0.1774 -0.1125
 6478SOL    HW130893   3.672   3.011   5.375  1.6369 -3.0188  1.0050
 6478SOL    HW230894   3.608   2.904   5.287  1.5467 -0.2355  0.1761
 6479SOL     OW30895   3.200   4.011   3.634 -0.4856  0.3575 -0.1568
 6479SOL    HW130896   3.255   4.072   3.584 -0.8326  0.3248 -0.5749
 6479SOL    HW230897   3.206   3.927   3.588 -1.3858  0.4048 -0.3547
 6480SOL     OW30898   3.420   2.751   4.198 -0.2475  0.0720  0.3436
 6480SOL    HW130899   3.341   2.745   4.144 -0.0357  0.9768 -0.0768
 6480SOL    HW230900   3.421   2.844   4.221 -0.0973  0.6420 -1.9150
 6481SOL     OW30901   0.504   4.244   2.127 -0.0029  0.0034  0.3324
 6481SOL    HW130902   0.458   4.265   2.209  1.2002 -0.4961  1.1408
 6481SOL    HW230903   0.428   4.227   2.071  2.1254  0.6899 -2.6859
 6482SOL     OW30904   3.251   4.453  13.590 -0.1715 -0.8019 -0.2849
 6482SOL    HW130905   3.308   4.415  13.657 -1.2157 -2.3287 -0.2722
 6482SOL    HW230906   3.247   4.382  13.526 -0.0322 -1.5138  0.5060
 6483SOL     OW30907   1.431   3.068   2.118 -0.6691 -0.1773  0.0914
 6483SOL    HW130908   1.486   3.127   2.066  1.6793 -1.0147  1.6501
 6483SOL    HW230909   1.384   3.016   2.053  1.1146 -0.3789 -1.0347
 6484SOL     OW30910   3.020   2.520   4.953 -0.0645 -0.0709 -0.0616
 6484SOL    HW130911   3.074   2.442   4.937  1.0251  0.5829  0.4278
 6484SOL    HW230912   3.010   2.521   5.048  0.3733  0.1791 -0.0160
 6485SOL     OW30913   2.282   1.817   2.993 -0.0388 -0.1285  0.9564
 6485SOL    HW130914   2.283   1.731   3.034  0.1888 -0.1187  0.9709
 6485SOL    HW230915   2.244   1.869   3.064 -1.0594  0.2373  0.1524
 6486SOL     OW30916   1.595   2.409   9.269  0.1810 -0.2483  0.1817
 6486SOL    HW130917   1.602   2.489   9.322  2.0571  0.0125 -0.4721
 6486SOL    HW230918   1.572   2.449   9.185  1.6794  0.0122 -0.1040
 6487SOL     OW30919   0.099   4.591  13.428  0.6936 -0.4174 -0.2156
 6487SOL    HW130920   0.082   4.673  13.474  2.8505  0.7130 -1.4319
 6487SOL    HW230921   0.176   4.622  13.381 -0.1318  1.5438 -0.2727
 6488SOL     OW30922   0.783   1.367   5.601  0.1327 -0.1513  0.3904
 6488SOL    HW130923   0.702   1.413   5.579 -0.2042  0.6297  3.3062
 6488SOL    HW230924   0.796   1.375   5.696 -1.3830  0.1384  0.5745
 6489SOL     OW30925   2.554   3.523   1.615  0.5224  0.0042 -0.4636
 6489SOL    HW130926   2.475   3.531   1.669  0.9993 -2.5194  0.5876
 6489SOL    HW230927   2.575   3.615   1.599  0.5160 -0.1161 -1.1375
 6490SOL     OW30928   2.629   4.710   6.948  0.0607 -0.0448  0.1292
 6490SOL    HW130929   2.534   4.707   6.962  0.1272  1.4032  0.9450
 6490SOL    HW230930   2.633   0.026   6.859 -0.0418 -1.3344 -0.3928
 6491SOL     OW30931   1.413   4.713   5.659 -0.0034 -0.3087  0.0564
 6491SOL    HW130932   1.379   0.001   5.569 -1.6062  0.6515  0.7507
 6491SOL    HW230933   1.345   0.033   5.713  0.9776  1.6197 -0.1191
 6492SOL     OW30934   3.833   3.522   8.349  0.3878 -0.0722 -0.4599
 6492SOL    HW130935   3.859   3.610   8.322  0.9490  0.4426  1.7515
 6492SOL    HW230936   3.794   3.488   8.269  0.1476  0.8968 -0.7538
 6493SOL     OW30937   4.264   4.165   3.443  0.3464 -0.0489 -0.2190
 6493SOL    HW130938   4.179   4.204   3.459  0.0289 -0.4299 -1.0002
 6493SOL    HW230939   4.310   4.233   3.394  0.3889 -0.1637 -0.3408
 6494SOL     OW30940   1.935   1.781   4.333 -0.0089  0.0044  0.2293
 6494SOL    HW130941   1.995   1.757   4.404  1.1867 -1.4120 -1.2542
 6494SOL    HW230942   1.948   1.706   4.274 -0.1536 -1.1995  1.7425
 6495SOL     OW30943   3.660   2.934   3.955  0.0343 -0.4752  0.2679
 6495SOL    HW130944   3.651   2.849   3.912  0.8152 -0.2658 -0.2923
 6495SOL    HW230945   3.706   2.981   3.886 -0.9922  2.8008  1.8173
 6496SOL     OW30946   3.660   3.104   9.867 -0.1227  0.6335 -0.2143
 6496SOL    HW130947   3.586   3.046   9.885  0.5642 -0.8018 -2.0916
 6496SOL    HW230948   3.628   3.150   9.789 -0.0288  1.8392  0.4581
 6497SOL     OW30949   4.295   3.423   7.292  0.0041 -0.0496 -0.0289
 6497SOL    HW130950   4.275   3.499   7.346  1.7062 -0.7906  1.6629
 6497SOL    HW230951   4.223   3.421   7.230 -0.6873 -0.4010  0.7872
 6498SOL     OW30952   2.123   1.579   4.178  0.3514  0.1758  0.0947
 6498SOL    HW130953   2.112   1.608   4.088 -3.3566  1.1187  0.8311
 6498SOL    HW230954   2.114   1.484   4.165 -1.4269  0.4246 -0.5196
 6499SOL     OW30955   2.969   1.236  17.446  0.3188  0.2049 -0.5730
 6499SOL    HW130956   2.886   1.189  17.444  0.9182 -0.7168 -3.5259
 6499SOL    HW230957   3.008   1.188  17.519  1.6551 -0.2642 -1.6082
 6500SOL     OW30958   2.513   0.009  13.349 -1.2509 -0.4197  0.2364
 6500SOL    HW130959   2.426   4.715  13.388 -0.2078 -1.1917  2.3178
 6500SOL    HW230960   2.510   4.682  13.266  0.7088  0.1559 -0.1524
 6501SOL     OW30961   0.729   0.263   3.777  0.3067  0.0512  0.2697
 6501SOL    HW130962   0.806   0.298   3.732 -0.8833  1.6249 -0.5249
 6501SOL    HW230963   0.667   0.261   3.704 -2.6413 -2.0548  2.8315
 6502SOL     OW30964   2.558   1.589  12.345 -0.4011 -0.8003 -0.4747
 6502SOL    HW130965   2.479   1.640  12.327  0.4835  0.5042 -0.6114
 6502SOL    HW230966   2.582   1.555  12.259  0.2909  1.2753 -1.1000
 6503SOL     OW30967   3.353   2.942   9.777  0.8545  0.3943 -0.2563
 6503SOL    HW130968   3.341   2.976   9.688 -2.1956 -0.5079 -0.1900
 6503SOL    HW230969   3.269   2.964   9.817  1.3369  0.4111  0.7526
 6504SOL     OW30970   1.450   4.649   8.436 -0.0398  0.4854  0.1386
 6504SOL    HW130971   1.449   4.708   8.511  1.8863  1.4171 -0.5621
 6504SOL    HW230972   1.367   4.672   8.393 -0.5215 -0.7578  0.4139
 6505SOL     OW30973   2.311   0.211   6.986  0.3677 -0.5330  0.0457
 6505SOL    HW130974   2.325   0.169   7.071  0.2878 -2.1050 -0.7185
 6505SOL    HW230975   2.217   0.218   6.970  0.8135  4.2396 -0.5144
 6506SOL     OW30976   0.206   0.904   3.123  0.7072  0.2205 -0.1166
 6506SOL    HW130977   0.224   0.811   3.141  0.3539  0.3686  1.0280
 6506SOL    HW230978   0.289   0.934   3.086  2.7820 -0.5582  3.9210
 6507SOL     OW30979   4.178   0.051  16.703  0.3450 -0.7269  0.2433
 6507SOL    HW130980   4.152   4.681  16.679 -0.5658 -0.9382  1.9694
 6507SOL    HW230981   4.205   0.036  16.794  0.0644 -0.7613  0.3238
 6508SOL     OW30982   3.578   2.878   7.989  0.0910 -0.0422 -0.3807
 6508SOL    HW130983   3.518   2.946   7.959 -0.8615 -0.8017 -0.1921
 6508SOL    HW230984   3.615   2.859   7.902  0.3052 -0.3148 -0.2316
 6509SOL     OW30985   4.715   0.152   8.014  0.4913 -0.3823 -0.1658
 6509SOL    HW130986   0.088   0.175   8.023  0.3736 -0.2121  0.6638
 6509SOL    HW230987   4.712   0.057   8.024  0.3179 -0.5302 -1.6225
 6510SOL     OW30988   0.689   4.675  10.578 -0.7914 -0.4398  0.3097
 6510SOL    HW130989   0.685   4.586  10.612  1.3720 -1.4526 -2.1424
 6510SOL    HW230990   0.610   4.662  10.525 -0.3326  2.7730 -1.1300
 6511SOL     OW30991   1.299   3.157   6.212 -0.1129  0.3795 -0.4197
 6511SOL    HW130992   1.391   3.162   6.239  0.1945 -2.0211 -0.9603
 6511SOL    HW230993   1.284   3.250   6.197 -2.5040  0.2976  1.6122
 6512SOL     OW30994   0.659   4.266   6.522  0.7131  0.5107 -0.0013
 6512SOL    HW130995   0.563   4.266   6.518  0.7162 -0.8946  0.0787
 6512SOL    HW230996   0.677   4.224   6.438 -0.1042  0.8600 -0.3572
 6513SOL     OW30997   1.167   3.432  10.123  0.0209  0.1189  0.1219
 6513SOL    HW130998   1.101   3.472  10.180  0.3506  1.2759 -0.3133
 6513SOL    HW230999   1.143   3.485  10.047  0.1739 -2.4507 -1.7512
 6514SOL     OW31000   2.921   4.551   1.443 -0.5177  0.6243 -0.6060
 6514SOL    HW131001   2.912   4.456   1.443 -3.4134  0.8798  0.6054
 6514SOL    HW231002   2.857   4.565   1.373 -1.0912  1.0751  0.0118
 6515SOL     OW31003   1.227   2.386   5.775 -0.1270 -0.3629  0.0551
 6515SOL    HW131004   1.192   2.395   5.687  1.2227 -0.4847 -0.4866
 6515SOL    HW231005   1.170   2.316   5.808 -0.8331 -0.0550 -0.4954
 6516SOL     OW31006   0.934   2.970   6.489 -0.0196 -0.4139 -0.1312
 6516SOL    HW131007   0.986   2.934   6.560 -0.2758 -1.6231 -0.5467
 6516SOL    HW231008   0.848   2.984   6.529 -0.0331  3.6655 -1.6196
 6517SOL     OW31009   2.506   0.636   0.735 -0.6139  0.8163 -0.0886
 6517SOL    HW131010   2.425   0.602   0.697 -1.0712  1.0406  0.6926
 6517SOL    HW231011   2.580   0.598   0.687  1.0909  0.1777  3.0572
 6518SOL     OW31012   3.771   2.006   1.001 -0.1607  0.1103 -0.8206
 6518SOL    HW131013   3.705   1.938   1.012  0.6569 -0.8320 -1.7314
 6518SOL    HW231014   3.751   2.077   1.061 -1.7655  1.3854 -2.8756
 6519SOL     OW31015   1.371   3.922   1.536  0.2333  0.2806  0.2597
 6519SOL    HW131016   1.380   4.007   1.578 -1.3717  0.6185 -0.0745
 6519SOL    HW231017   1.458   3.917   1.496  0.3140  1.3137  0.3132
 6520SOL     OW31018   4.372   1.066   6.069 -0.0244 -0.2940  0.2903
 6520SOL    HW131019   4.297   1.125   6.063 -0.0423 -0.5896 -2.2317
 6520SOL    HW231020   4.433   1.125   6.024  1.2784 -0.3419  1.9812
 6521SOL     OW31021   3.529   2.408   6.774  0.2340  0.0546 -0.1963
 6521SOL    HW131022   3.589   2.483   6.776  1.1181 -0.6546  0.1312
 6521SOL    HW231023   3.448   2.455   6.790  0.5930  0.0430  1.6201
 6522SOL     OW31024   2.825   4.303  11.284 -0.4046  0.1964 -0.5838
 6522SOL    HW131025   2.909   4.270  11.251  0.6237  1.7516  0.4719
 6522SOL    HW231026   2.842   4.331  11.374  1.2573  0.3505 -0.9509
 6523SOL     OW31027   2.552   4.265   8.031 -0.1862  0.3835  0.3872
 6523SOL    HW131028   2.624   4.202   8.021  1.0903  1.4542  2.9778
 6523SOL    HW231029   2.493   4.221   7.969 -0.7177 -0.2033  1.3095
 6524SOL     OW31030   2.282   4.341   8.499 -0.3539 -0.3582 -0.4016
 6524SOL    HW131031   2.197   4.327   8.459  0.0829 -0.4798 -1.2789
 6524SOL    HW231032   2.260   4.404   8.568 -0.8313 -1.0782  0.1020
 6525SOL     OW31033   2.483   4.540  13.648  0.1706  0.2698  0.2063
 6525SOL    HW131034   2.577   4.536  13.665  0.5888 -0.3329 -2.2620
 6525SOL    HW231035   2.471   4.631  13.675  0.4156  0.7302 -1.2222
 6526SOL     OW31036   3.281   1.183   3.930 -0.6334  0.6416  0.1470
 6526SOL    HW131037   3.371   1.151   3.940 -1.1737 -1.1460 -0.7012
 6526SOL    HW231038   3.259   1.222   4.015 -0.1054 -0.9835  1.0416
 6527SOL     OW31039   2.246   0.729   0.019  0.0335 -0.6539 -0.3149
 6527SOL    HW131040   2.181   0.761  17.637  0.9947  0.1534 -0.9056
 6527SOL    HW231041   2.255   0.640  17.665  2.1359  0.7930 -3.4872
 6528SOL     OW31042   3.531   3.491   5.509  0.2318 -0.4221 -0.4569
 6528SOL    HW131043   3.480   3.530   5.581  1.5112  0.3048  0.0742
 6528SOL    HW231044   3.619   3.523   5.530  0.7288 -2.3478  0.3248
 6529SOL     OW31045   1.176   0.750   1.900 -0.0479 -0.3766  0.2329
 6529SOL    HW131046   1.241   0.713   1.960  1.6375 -0.2936 -1.5537
 6529SOL    HW231047   1.200   0.716   1.814 -0.4489 -1.4857  0.5596
 6530SOL     OW31048   3.113   1.633   4.212  0.1062  0.0020  0.3240
 6530SOL    HW131049   3.104   1.538   4.225  0.4859 -0.3000 -1.6210
 6530SOL    HW231050   3.068   1.656   4.293 -0.7517 -0.9376  0.1196
 6531SOL     OW31051   0.682   1.317   6.770 -0.0381 -0.2535 -0.1180
 6531SOL    HW131052   0.708   1.289   6.857  0.8350 -0.5611 -0.4747
 6531SOL    HW231053   0.665   1.237   6.720 -0.8306 -0.4252  0.4207
 6532SOL     OW31054   1.012   2.590   8.988  0.4457 -0.1653  0.3384
 6532SOL    HW131055   0.932   2.538   8.990 -0.8945  1.8856 -1.8510
 6532SOL    HW231056   0.993   2.647   9.062 -0.2909  2.8191 -2.1683
 6533SOL     OW31057   4.505   1.719  10.921 -0.0780 -0.0488  0.2516
 6533SOL    HW131058   4.413   1.702  10.899 -0.9596  2.3188  2.0494
 6533SOL    HW231059   4.496   1.727  11.016  1.9115 -2.0859  0.5998
 6534SOL     OW31060   3.739   1.065   5.101  0.3429  0.1252 -0.0542
 6534SOL    HW131061   3.745   1.020   5.017  2.6193  0.8941 -0.3017
 6534SOL    HW231062   3.820   1.115   5.098 -0.5118  1.5021 -0.0371
 6535SOL     OW31063   3.902   2.227   6.657 -0.8610  0.0430 -0.2556
 6535SOL    HW131064   3.868   2.304   6.703  0.9914  1.5466 -1.3467
 6535SOL    HW231065   3.973   2.264   6.604 -1.6240 -0.8929 -1.9409
 6536SOL     OW31066   4.059   3.844   0.148 -0.7256 -0.0365  0.4990
 6536SOL    HW131067   3.994   3.832   0.217 -1.4582 -1.2358 -0.4037
 6536SOL    HW231068   4.110   3.763   0.160 -1.0847 -0.5707 -1.4854
 6537SOL     OW31069   1.665   0.970   3.472  0.0163 -0.6234 -0.0691
 6537SOL    HW131070   1.606   1.045   3.473  1.9387  0.8493  3.3679
 6537SOL    HW231071   1.600   0.900   3.474  1.5156 -1.9605  1.5042
 6538SOL     OW31072   4.699   4.090   4.830  0.0690 -0.2916  0.2792
 6538SOL    HW131073   0.073   4.073   4.822  0.0558 -0.5351  0.6316
 6538SOL    HW231074   4.690   4.121   4.920  0.5490 -1.8043  0.8486
 6539SOL     OW31075   0.999   4.067   3.849 -0.0215 -0.0843  0.0162
 6539SOL    HW131076   1.050   3.986   3.842 -0.9062 -0.8348  2.1209
 6539SOL    HW231077   1.015   4.112   3.766 -2.4187 -0.6200 -0.7338
 6540SOL     OW31078   3.820   3.625   5.419 -0.2825 -0.4024 -0.3230
 6540SOL    HW131079   3.819   3.720   5.410  1.3898 -0.0396  3.2267
 6540SOL    HW231080   3.824   3.611   5.514  0.8851 -2.9578 -0.7287
 6541SOL     OW31081   0.248   2.765  14.668  0.1782 -0.0921 -0.3769
 6541SOL    HW131082   0.155   2.746  14.676  0.6734 -2.1790  0.3595
 6541SOL    HW231083   0.254   2.785  14.574 -1.7421  0.1477 -0.4408
 6542SOL     OW31084   4.153   2.333   6.569 -0.1058  0.1677  0.2926
 6542SOL    HW131085   4.148   2.361   6.478 -0.9585 -0.4762  0.1357
 6542SOL    HW231086   4.143   2.416   6.617  2.2830  0.4519  0.3001
 6543SOL     OW31087   2.956   3.385   4.368  0.3071  0.2332  0.0186
 6543SOL    HW131088   3.045   3.374   4.333 -0.1540 -1.6731 -0.5742
 6543SOL    HW231089   2.896   3.365   4.296 -0.0214 -1.0719  0.6539
 6544SOL     OW31090   2.910   2.580   3.868  0.0309  0.1194 -0.8279
 6544SOL    HW131091   2.895   2.665   3.911 -1.2275 -1.3521  1.6084
 6544SOL    HW231092   2.963   2.536   3.934 -2.4544 -1.9383 -0.2526
 6545SOL     OW31093   3.945   3.111  16.796 -0.4728  0.1108 -0.3039
 6545SOL    HW131094   3.987   3.158  16.723  0.9811 -1.2874 -0.3658
 6545SOL    HW231095   3.867   3.165  16.810 -1.2036 -1.4065  1.4576
 6546SOL     OW31096   0.369   2.513   7.099 -0.1642  0.2198  0.4057
 6546SOL    HW131097   0.328   2.455   7.163 -1.5377 -0.6258 -1.2257
 6546SOL    HW231098   0.446   2.545   7.145  2.2538 -4.3413 -0.5135
 6547SOL     OW31099   2.193   0.800  15.424  0.1295  0.0849  0.4175
 6547SOL    HW131100   2.170   0.714  15.388  1.2347 -0.0638  0.0670
 6547SOL    HW231101   2.184   0.853  15.345  0.0348  0.3715  0.6227
 6548SOL     OW31102   1.685   0.142   3.918 -0.1294  0.1593 -0.4648
 6548SOL    HW131103   1.700   0.127   3.825 -2.0154 -0.1036 -0.7257
 6548SOL    HW231104   1.637   0.225   3.914  0.1528  0.2700 -1.4592
 6549SOL     OW31105   1.224   2.042   9.287  0.2203 -0.1773 -0.3951
 6549SOL    HW131106   1.316   2.018   9.301  0.8336  1.8297 -1.0440
 6549SOL    HW231107   1.235   2.085   9.203  0.6710  1.8934  0.7351
 6550SOL     OW31108   4.583   1.642   6.218  0.3195 -0.1571 -0.1692
 6550SOL    HW131109   4.597   1.670   6.308  0.9515 -1.1918  0.0542
 6550SOL    HW231110   4.657   1.688   6.177  0.4045 -0.7245 -0.6622
 6551SOL     OW31111   3.479   1.876  10.461 -0.1201  0.0302 -0.1935
 6551SOL    HW131112   3.406   1.842  10.410 -1.2060  2.5933 -0.2914
 6551SOL    HW231113   3.460   1.969  10.455 -3.2935 -0.5204  1.6556
 6552SOL     OW31114   0.408   4.356   4.050  0.2019 -0.0339  0.1967
 6552SOL    HW131115   0.329   4.382   4.099 -1.5352 -1.0868 -2.0316
 6552SOL    HW231116   0.400   4.261   4.059  0.0285 -0.1177 -0.7884
 6553SOL     OW31117   2.133   3.579   2.293 -0.1003  0.1843 -0.0041
 6553SOL    HW131118   2.215   3.566   2.341 -1.3151 -1.7036  1.5817
 6553SOL    HW231119   2.143   3.658   2.240 -0.2036 -0.5208 -1.0693
 6554SOL     OW31120   4.431   0.688   7.833 -0.0185  0.4539 -0.0132
 6554SOL    HW131121   4.423   0.593   7.831  2.3084  0.3016 -1.6690
 6554SOL    HW231122   4.420   0.709   7.926  2.1662  1.4308  0.0378
 6555SOL     OW31123   0.638   2.328   5.158  0.6124  0.0298  0.8597
 6555SOL    HW131124   0.654   2.248   5.106 -0.8843  0.1114  0.2685
 6555SOL    HW231125   0.612   2.383   5.085 -0.5430 -0.8827  0.5825
 6556SOL     OW31126   3.416   2.322  17.063 -0.0366  0.3166  0.6677
 6556SOL    HW131127   3.340   2.268  17.084  0.3859  0.7232  3.1892
 6556SOL    HW231128   3.479   2.251  17.050 -1.9777 -1.4047  0.5770
 6557SOL     OW31129   3.314   0.278  11.651 -0.2220  0.5587  0.3048
 6557SOL    HW131130   3.318   0.283  11.746  0.5738  4.8920  0.0410
 6557SOL    HW231131   3.302   0.370  11.629 -3.8552  1.5615  6.5007
 6558SOL     OW31132   1.317   4.034   8.465  0.1834  0.4786  0.1016
 6558SOL    HW131133   1.360   4.092   8.403 -2.4562  1.2208 -1.0295
 6558SOL    HW231134   1.225   4.056   8.449  0.4493  0.1828 -1.8005
 6559SOL     OW31135   0.186   1.906   8.211 -0.1439  0.0767  0.6352
 6559SOL    HW131136   0.261   1.888   8.268  0.0049  1.1463  0.7812
 6559SOL    HW231137   0.115   1.861   8.257 -0.8143  0.7580  0.2576
 6560SOL     OW31138   2.060   0.435   2.456 -0.3253  0.4937  0.1387
 6560SOL    HW131139   2.094   0.370   2.518 -1.3271 -0.5503 -0.3984
 6560SOL    HW231140   2.139   0.463   2.411 -0.2289  1.1221  0.7084
 6561SOL     OW31141   1.972   0.022  16.152 -0.7464  1.1660  0.6102
 6561SOL    HW131142   2.060   0.060  16.145 -0.2711 -0.1432 -0.5490
 6561SOL    HW231143   1.917   0.080  16.100 -0.5379  0.6427 -0.1937
 6562SOL     OW31144   3.389   0.388   1.249  0.2462 -0.0828 -0.6685
 6562SOL    HW131145   3.350   0.348   1.172  1.4088 -3.1434  0.3200
 6562SOL    HW231146   3.330   0.457   1.278 -0.7394 -1.4172  0.4694
 6563SOL     OW31147   2.715   3.295   2.996 -0.3103  0.0091  0.2483
 6563SOL    HW131148   2.800   3.285   3.040  0.7214  0.4887 -1.6008
 6563SOL    HW231149   2.748   3.321   2.910  0.3426  0.8650  0.7603
 6564SOL     OW31150   3.379   2.393   3.133 -0.2189  0.3187  0.1165
 6564SOL    HW131151   3.284   2.376   3.135 -0.2575  0.3689 -1.6211
 6564SOL    HW231152   3.387   2.431   3.221  0.1521  0.0861  0.1814
 6565SOL     OW31153   4.192   3.333   2.851 -0.0837 -0.5042  0.3801
 6565SOL    HW131154   4.116   3.288   2.816  0.9490 -0.4124 -2.0072
 6565SOL    HW231155   4.195   3.273   2.925  0.6581 -0.5745  0.2917
 6566SOL     OW31156   4.425   2.980   8.729  0.4787  0.0550 -0.2072
 6566SOL    HW131157   4.370   2.904   8.711  0.2973  0.1169  0.0904
 6566SOL    HW231158   4.404   2.995   8.821 -0.4006  1.1515 -0.5947
 6567SOL     OW31159   3.558   2.636   3.965 -0.5344 -0.4542  0.1107
 6567SOL    HW131160   3.518   2.635   4.052  0.0453 -0.6097  0.3761
 6567SOL    HW231161   3.501   2.690   3.911 -0.6254  0.8324  1.5086
 6568SOL     OW31162   2.931   4.704  12.699  0.3580 -0.6097  0.0542
 6568SOL    HW131163   3.004   4.645  12.714 -0.3480 -1.6586 -0.6097
 6568SOL    HW231164   2.884   4.656  12.631  0.3633 -0.8532  0.2214
 6569SOL     OW31165   3.170   2.481   8.513 -0.3925 -0.1655  0.7064
 6569SOL    HW131166   3.181   2.421   8.586 -1.4431 -1.6680 -0.3861
 6569SOL    HW231167   3.143   2.418   8.446 -0.2204  0.5732 -0.0768
 6570SOL     OW31168   3.872   1.298  15.996  0.1053 -0.0570  0.0924
 6570SOL    HW131169   3.884   1.388  16.027  0.5794 -0.0664 -0.0556
 6570SOL    HW231170   3.804   1.309  15.930  0.6891  0.9656 -0.3444
 6571SOL     OW31171   2.904   4.019  15.915 -0.1505  0.2256 -0.9234
 6571SOL    HW131172   2.997   4.035  15.900 -0.3103  0.1341 -1.9564
 6571SOL    HW231173   2.886   3.943  15.860  0.2329 -1.5828  1.4262
 6572SOL     OW31174   3.826   3.020   2.405  0.1743 -0.3874 -0.4880
 6572SOL    HW131175   3.922   3.025   2.399  0.1230  0.2654 -0.6570
 6572SOL    HW231176   3.811   2.972   2.487 -0.4143  0.4424 -0.1151
 6573SOL     OW31177   0.751   1.817   4.557  0.3416 -0.2113  0.0124
 6573SOL    HW131178   0.820   1.870   4.517  0.8767  0.1965  1.4534
 6573SOL    HW231179   0.778   1.733   4.521 -0.2199  0.5248 -2.1214
 6574SOL     OW31180   1.872   0.068  16.589 -0.3639  0.0097  0.2139
 6574SOL    HW131181   1.868   0.104  16.500 -0.8390 -1.9355 -0.5366
 6574SOL    HW231182   1.836   0.132  16.652 -3.1164 -0.9831 -0.3326
 6575SOL     OW31183   0.643   3.819  10.774  0.3086 -0.1846  0.0306
 6575SOL    HW131184   0.664   3.805  10.681  0.0638 -0.4252  0.0128
 6575SOL    HW231185   0.704   3.890  10.793 -1.1138  1.3972 -1.3667
 6576SOL     OW31186   4.537   1.186   0.780 -0.1242  0.1754 -0.0933
 6576SOL    HW131187   4.475   1.115   0.790 -0.2233  0.1159 -1.2487
 6576SOL    HW231188   4.567   1.193   0.871  0.1674  0.7281 -0.2305
 6577SOL     OW31189   1.197   0.746   1.591 -0.3398  0.2135 -0.4888
 6577SOL    HW131190   1.127   0.767   1.530  0.0716  3.4176  0.1427
 6577SOL    HW231191   1.214   0.653   1.578  0.5135  0.0231  1.9223
 6578SOL     OW31192   0.620   0.791   3.690 -0.5000  0.5943 -0.0015
 6578SOL    HW131193   0.617   0.886   3.694  0.2061  0.6038  0.2440
 6578SOL    HW231194   0.541   0.774   3.741 -0.0666 -3.6677 -0.7490
 6579SOL     OW31195   2.292   1.453   9.239 -0.3883  0.1687  0.5995
 6579SOL    HW131196   2.314   1.442   9.147 -0.1217  2.9078  0.3324
 6579SOL    HW231197   2.255   1.541   9.236 -0.7250  0.0034 -0.0422
 6580SOL     OW31198   2.146   0.800  14.221 -0.3271  0.3982  1.0297
 6580SOL    HW131199   2.095   0.759  14.290  0.0496 -0.9285  0.5143
 6580SOL    HW231200   2.204   0.859  14.269  0.4446  0.1166  0.4502
 6581SOL     OW31201   3.316   2.069  11.280  0.9357 -0.3749 -0.2538
 6581SOL    HW131202   3.294   1.979  11.257 -0.9478  0.5082 -1.9730
 6581SOL    HW231203   3.244   2.119  11.242  1.0944 -0.5374 -0.7728
 6582SOL     OW31204   1.399   0.724   8.021  0.1059 -0.2510  0.1217
 6582SOL    HW131205   1.472   0.785   8.012 -0.9041  0.7979 -0.8920
 6582SOL    HW231206   1.371   0.731   7.930 -0.7336  1.3777  0.5021
 6583SOL     OW31207   3.179   3.025  15.341  0.1189  0.1971 -0.1373
 6583SOL    HW131208   3.213   3.112  15.321  1.9569 -0.5612 -0.3906
 6583SOL    HW231209   3.246   2.992  15.401 -2.1327 -2.5759  0.8633
 6584SOL     OW31210   2.825   3.208   0.703  0.3262  0.1941  0.4564
 6584SOL    HW131211   2.762   3.234   0.770  2.1420  0.1928  2.1569
 6584SOL    HW231212   2.757   3.195   0.636  0.6742 -1.6562  0.4521
 6585SOL     OW31213   3.904   4.088   9.069 -0.0682  0.2130 -0.4282
 6585SOL    HW131214   3.936   4.171   9.034 -0.9954  0.6573 -0.2327
 6585SOL    HW231215   3.809   4.087   9.052 -0.2501 -3.1206  0.6992
 6586SOL     OW31216   1.208   4.042   5.815 -0.8849  0.3694  0.2197
 6586SOL    HW131217   1.223   3.962   5.865  0.0706  0.5022  0.1381
 6586SOL    HW231218   1.254   4.023   5.734 -1.3890 -0.1411  0.0536
 6587SOL     OW31219   0.435   2.645  14.841 -0.3029 -0.0673  0.0899
 6587SOL    HW131220   0.380   2.692  14.780 -1.2879 -1.6555 -0.2335
 6587SOL    HW231221   0.522   2.643  14.801 -0.3945 -0.0930 -0.1062
 6588SOL     OW31222   0.502   0.474   7.148  0.3710 -0.4394 -0.3256
 6588SOL    HW131223   0.456   0.409   7.201 -1.3846  2.1384  1.2941
 6588SOL    HW231224   0.430   0.537   7.145  2.3200  1.8252  0.3191
 6589SOL     OW31225   0.583   3.967   4.916  0.4514 -0.2864 -0.0215
 6589SOL    HW131226   0.613   3.986   4.827 -0.5145  0.3527 -0.2074
 6589SOL    HW231227   0.571   4.056   4.950  1.5980  0.0191 -0.3975
 6590SOL     OW31228   1.899   1.779  15.590 -0.2222  0.4730  0.7880
 6590SOL    HW131229   1.984   1.778  15.547  1.3419  0.8652  3.9105
 6590SOL    HW231230   1.873   1.870  15.573  0.7504  0.3555 -1.3721
 6591SOL     OW31231   0.820   0.506  13.298  0.4020  0.0038  0.5606
 6591SOL    HW131232   0.846   0.564  13.370  1.7456  0.3656 -0.2177
 6591SOL    HW231233   0.758   0.561  13.250  3.3497  1.3969 -1.6166
 6592SOL     OW31234   4.141   0.754   8.508  0.0711  0.2529 -0.1900
 6592SOL    HW131235   4.133   0.823   8.442  0.7508  0.1507 -0.3746
 6592SOL    HW231236   4.202   0.694   8.466  0.8670  0.0677  1.2246
 6593SOL     OW31237   2.611   3.756  10.419 -0.0425  0.2235 -0.6340
 6593SOL    HW131238   2.630   3.702  10.342  0.8550 -2.0712  1.1575
 6593SOL    HW231239   2.697   3.795  10.436  0.7885 -1.5131 -0.7763
 6594SOL     OW31240   0.178   0.526   6.719 -0.4335  0.2382  0.9167
 6594SOL    HW131241   0.105   0.574   6.759 -0.9417  0.0568  0.2279
 6594SOL    HW231242   0.200   0.461   6.785  3.4609 -1.4756 -2.1151
 6595SOL     OW31243   0.789   4.015   0.250 -0.1216 -0.5799 -0.0914
 6595SOL    HW131244   0.881   4.033   0.230 -0.3086  0.9590  0.4835
 6595SOL    HW231245   0.758   4.038   0.163 -0.3039 -0.6963 -0.0575
 6596SOL     OW31246   0.572   1.076  17.590 -0.0321 -0.2653  0.3824
 6596SOL    HW131247   0.650   1.125  17.564 -0.9991  1.8327  1.4084
 6596SOL    HW231248   0.595   1.045  17.677 -3.1024 -0.1847  1.2082
 6597SOL     OW31249   1.156   2.454   1.077 -0.0561 -0.7595  0.4933
 6597SOL    HW131250   1.174   2.534   1.027 -0.8092 -0.2605  1.0168
 6597SOL    HW231251   1.177   2.392   1.007  1.7121  1.9308 -1.3940
 6598SOL     OW31252   2.714   4.315   5.868 -0.0807 -0.3007  0.0917
 6598SOL    HW131253   2.718   4.390   5.927  2.7675 -0.7561  0.4792
 6598SOL    HW231254   2.623   4.313   5.836  0.5813 -0.8559 -1.7943
 6599SOL     OW31255   2.923   1.236   1.511 -0.6260 -0.4864  0.3191
 6599SOL    HW131256   2.964   1.206   1.430 -1.7269  0.0502 -0.4319
 6599SOL    HW231257   2.885   1.319   1.484  0.8945  1.6147  4.6581
 6600SOL     OW31258   3.578   0.345  12.657  0.6763 -0.0333  0.3010
 6600SOL    HW131259   3.486   0.320  12.646  0.6020  0.8219 -0.9949
 6600SOL    HW231260   3.605   0.382  12.573  1.0534 -0.3175  0.2947
 6601SOL     OW31261   0.570   1.218   5.877 -0.0988  0.3020 -0.1690
 6601SOL    HW131262   0.537   1.289   5.932  0.7272  1.7095 -1.4599
 6601SOL    HW231263   0.631   1.184   5.943  0.2119 -1.2894 -1.2788
 6602SOL     OW31264   1.988   0.941   2.601 -0.6289 -0.2362 -0.0887
 6602SOL    HW131265   2.078   0.968   2.618 -1.2865  1.2503  0.9629
 6602SOL    HW231266   1.936   1.012   2.639  0.8610  0.7356  0.1443
 6603SOL     OW31267   3.464   1.073  11.636  0.0932 -0.3362 -0.2142
 6603SOL    HW131268   3.526   1.011  11.596 -1.2820 -2.6846  1.2944
 6603SOL    HW231269   3.457   1.132  11.561  1.2941  1.6998  1.2691
 6604SOL     OW31270   1.504   1.748   0.054  0.0846 -0.5020  0.5097
 6604SOL    HW131271   1.527   1.777  17.646 -2.2907 -0.5949 -0.1176
 6604SOL    HW231272   1.537   1.823   0.103 -0.2996 -0.3748  0.5677
 6605SOL     OW31273   3.469   3.369   2.410 -0.1203  0.2568  0.5934
 6605SOL    HW131274   3.506   3.290   2.371 -1.5733 -0.9367  1.6262
 6605SOL    HW231275   3.498   3.358   2.501 -2.5713 -0.0130  1.3240
 6606SOL     OW31276   3.836   0.182   6.238 -0.3016 -0.3498  0.7571
 6606SOL    HW131277   3.829   0.214   6.328 -0.0947  1.8682 -0.0126
 6606SOL    HW231278   3.920   0.135   6.241  0.1954  0.4265 -1.3440
 6607SOL     OW31279   3.111   4.303   6.921  0.2654 -0.5634 -0.1496
 6607SOL    HW131280   3.047   4.233   6.934 -0.6146  0.2298 -0.1578
 6607SOL    HW231281   3.109   4.333   7.012  1.8919 -0.7880 -0.0430
 6608SOL     OW31282   4.518   4.253   2.446  0.1688 -0.6811 -0.4712
 6608SOL    HW131283   4.468   4.263   2.364 -0.9562 -0.3912  0.2439
 6608SOL    HW231284   4.457   4.204   2.502  0.0652  1.5000  1.2949
 6609SOL     OW31285   2.540   0.858   3.010  0.2243 -0.7967 -0.2049
 6609SOL    HW131286   2.616   0.835   2.956 -0.2256 -0.7065 -0.8852
 6609SOL    HW231287   2.534   0.772   3.052  1.2388 -0.5756  0.3997
 6610SOL     OW31288   1.611   2.166   8.997  0.2216  0.9061  0.4381
 6610SOL    HW131289   1.661   2.146   9.075  0.5239  0.0561  0.0251
 6610SOL    HW231290   1.526   2.131   9.024  1.4344 -1.6364  0.9384
 6611SOL     OW31291   0.604   3.490   8.362  0.5574 -0.0649 -0.5306
 6611SOL    HW131292   0.637   3.577   8.340  2.1620 -0.3845  0.6386
 6611SOL    HW231293   0.683   3.449   8.398  0.5419 -1.5369 -2.1665
 6612SOL     OW31294   2.606   4.548   6.627 -0.4666 -0.5495 -0.4192
 6612SOL    HW131295   2.620   4.643   6.629  0.3995 -0.6345 -2.1314
 6612SOL    HW231296   2.694   4.512   6.638 -0.9103 -1.3671  0.4567
 6613SOL     OW31297   0.742   2.521   9.403 -0.2276  0.8478 -0.1358
 6613SOL    HW131298   0.703   2.450   9.454 -0.6515  0.7986 -0.5307
 6613SOL    HW231299   0.806   2.560   9.463 -0.3064  1.3900 -0.4042
 6614SOL     OW31300   1.165   1.663   5.955  0.1677 -0.0036 -0.2284
 6614SOL    HW131301   1.181   1.660   6.050 -0.5004 -0.3513 -0.1289
 6614SOL    HW231302   1.136   1.752   5.938 -1.3326  0.0634  2.6480
 6615SOL     OW31303   2.366   2.139   5.720  0.5645 -0.7990 -0.1061
 6615SOL    HW131304   2.286   2.181   5.687  0.6636 -0.9700 -0.5608
 6615SOL    HW231305   2.416   2.214   5.752  0.6668 -0.4455 -1.0768
 6616SOL     OW31306   2.934   3.681   0.288  0.1180 -0.0248 -0.2113
 6616SOL    HW131307   2.879   3.736   0.344  1.1174 -1.4701  2.2293
 6616SOL    HW231308   3.025   3.701   0.312  1.0202  0.3841 -3.9817
 6617SOL     OW31309   2.118   3.608   5.122 -0.5810 -0.4261 -0.2222
 6617SOL    HW131310   2.070   3.555   5.058  0.7247 -1.2226 -0.5481
 6617SOL    HW231311   2.146   3.679   5.064  1.4861 -0.8859  0.2177
 6618SOL     OW31312   2.234   1.664  15.894  0.3283  0.3015  0.7407
 6618SOL    HW131313   2.153   1.614  15.890  1.3200 -1.2565  0.0103
 6618SOL    HW231314   2.199   1.753  15.892  0.1648  0.2609  1.4979
 6619SOL     OW31315   4.244   1.175   1.357  0.5774 -0.4141 -0.4804
 6619SOL    HW131316   4.240   1.245   1.422 -0.2117 -0.3019 -0.6508
 6619SOL    HW231317   4.176   1.111   1.378  0.5752  0.3050  1.6816
 6620SOL     OW31318   1.153   1.592  14.530  0.5052  0.2548 -0.2657
 6620SOL    HW131319   1.131   1.677  14.569  0.6506  0.5171 -0.7533
 6620SOL    HW231320   1.070   1.579  14.483  0.3742  0.3709 -0.0663
 6621SOL     OW31321   4.670   0.102   8.671 -0.2289  0.2453  0.2574
 6621SOL    HW131322   0.036   0.098   8.627  0.1967 -1.6287  1.2888
 6621SOL    HW231323   4.676   0.020   8.719 -0.5555  0.8477  1.3294
 6622SOL     OW31324   1.075   1.580  17.421 -0.0642 -0.0967  0.2952
 6622SOL    HW131325   1.099   1.548  17.334  0.5596  0.8269  0.1264
 6622SOL    HW231326   1.037   1.667  17.409  1.6116  0.4548 -1.0438
 6623SOL     OW31327   2.870   1.178  13.862  0.1299 -0.6400  0.0864
 6623SOL    HW131328   2.950   1.215  13.900 -1.8886  0.1184  3.5705
 6623SOL    HW231329   2.824   1.167  13.945 -1.5599 -0.8721 -0.8949
 6624SOL     OW31330   4.114   2.160   8.602  0.1142 -0.7455 -0.0347
 6624SOL    HW131331   4.158   2.195   8.679 -1.5609  1.3854 -0.0589
 6624SOL    HW231332   4.129   2.067   8.617  0.7454 -0.7963 -0.9573
 6625SOL     OW31333   0.046   4.280   8.622 -0.2920  0.3234 -0.3216
 6625SOL    HW131334   4.709   4.246   8.692  2.1735 -0.9843  1.0319
 6625SOL    HW231335   0.116   4.311   8.680 -0.2929  1.3784 -0.8949
 6626SOL     OW31336   3.562   2.804   5.816  0.4821  0.1808  0.0293
 6626SOL    HW131337   3.647   2.846   5.800  0.1700  0.3806 -1.0982
 6626SOL    HW231338   3.511   2.879   5.785 -0.2122 -0.4216 -0.2908
 6627SOL     OW31339   1.668   1.627   5.081  0.4126  0.1119 -0.2089
 6627SOL    HW131340   1.733   1.684   5.122 -1.2958  1.5384  0.4810
 6627SOL    HW231341   1.722   1.551   5.058  0.3200  0.9383 -3.1426
 6628SOL     OW31342   4.456   2.660   4.147  0.1341  0.5069  0.0254
 6628SOL    HW131343   4.433   2.708   4.227  2.4092  1.2044  0.2590
 6628SOL    HW231344   4.405   2.717   4.090  0.5425 -0.7781 -1.6155
 6629SOL     OW31345   3.721   1.224   3.041  0.1533 -0.4460 -0.2527
 6629SOL    HW131346   3.798   1.167   3.035  0.4175 -0.2544  1.3427
 6629SOL    HW231347   3.726   1.290   2.971 -0.8222  0.6906  0.7571
 6630SOL     OW31348   3.035   2.449   5.766 -0.4774  0.7436  0.2739
 6630SOL    HW131349   2.965   2.449   5.700  0.3559 -2.2557 -0.6440
 6630SOL    HW231350   3.027   2.532   5.812 -2.1839  1.5124 -1.4072
 6631SOL     OW31351   1.370   4.260   7.817  0.6490  0.0924  0.4816
 6631SOL    HW131352   1.339   4.198   7.883 -2.5313  2.1030  0.8827
 6631SOL    HW231353   1.457   4.272   7.855  1.7270  1.8706 -2.5322
 6632SOL     OW31354   2.234   2.313   7.377 -0.0479  0.0721 -0.4936
 6632SOL    HW131355   2.231   2.255   7.301 -1.4151 -2.5653  1.6036
 6632SOL    HW231356   2.303   2.276   7.432  0.3056  0.7396 -0.4782
 6633SOL     OW31357   2.304   2.770   1.744  0.7401  0.1633  0.0094
 6633SOL    HW131358   2.227   2.825   1.727  0.7486 -0.0917 -0.8920
 6633SOL    HW231359   2.284   2.686   1.703 -1.1137  0.5071  0.2349
 6634SOL     OW31360   0.194   4.444   1.181 -0.1679  0.2464  0.2446
 6634SOL    HW131361   0.244   4.511   1.228 -0.8227  0.7718  0.1848
 6634SOL    HW231362   0.262   4.393   1.136 -2.4424 -1.6154 -1.1186
 6635SOL     OW31363   3.766   1.739   6.681 -0.0173 -0.1385 -0.3210
 6635SOL    HW131364   3.785   1.815   6.735  2.1183  0.9756 -2.6703
 6635SOL    HW231365   3.808   1.759   6.598  0.7518 -0.7377 -0.0752
 6636SOL     OW31366   1.157   4.447   4.065 -0.0289  0.2479 -0.3005
 6636SOL    HW131367   1.214   4.440   3.988 -0.5706  3.1492 -0.9559
 6636SOL    HW231368   1.109   4.364   4.065 -0.1314  0.3078 -1.4499
 6637SOL     OW31369   0.605   3.727   6.864 -0.2127 -0.5422  0.4966
 6637SOL    HW131370   0.523   3.716   6.912 -0.6200  0.8262  0.1064
 6637SOL    HW231371   0.651   3.786   6.923 -1.8101  0.8793  0.3201
 6638SOL     OW31372   1.498   3.032   0.340 -0.7520  0.0348  0.2210
 6638SOL    HW131373   1.553   2.954   0.354 -0.3198  0.2272 -0.3860
 6638SOL    HW231374   1.569   3.077   0.294  2.6990 -3.9766  1.5770
 6639SOL     OW31375   1.943   2.470  12.746 -0.3795 -0.0057  0.0398
 6639SOL    HW131376   1.921   2.431  12.830  0.2091 -1.3476 -0.4433
 6639SOL    HW231377   1.851   2.480  12.719 -0.2956  0.3265 -0.1296
 6640SOL     OW31378   2.655   2.709   4.766 -0.5651 -0.5591  0.0829
 6640SOL    HW131379   2.685   2.736   4.852 -0.7301 -1.7221  0.4993
 6640SOL    HW231380   2.691   2.779   4.711  0.5307  1.1329  2.9685
 6641SOL     OW31381   2.268   3.783   0.125  0.0633 -0.3164 -0.1836
 6641SOL    HW131382   2.198   3.824   0.176  1.0119 -0.4027  1.1986
 6641SOL    HW231383   2.252   3.693   0.151 -1.3335  0.3175  1.1248
 6642SOL     OW31384   2.909   2.003   1.568 -0.5382 -0.1240 -0.0541
 6642SOL    HW131385   2.943   1.942   1.634  2.6936  2.2122  0.4425
 6642SOL    HW231386   2.922   1.963   1.482 -0.3029  1.2901 -0.6830
 6643SOL     OW31387   3.870   2.251   8.510 -0.2932 -0.3845 -0.7995
 6643SOL    HW131388   3.953   2.229   8.552  0.0410  0.3741 -1.0760
 6643SOL    HW231389   3.899   2.331   8.467  0.1314 -0.3059 -0.3709
 6644SOL     OW31390   4.616   3.612   2.763 -0.5582 -0.2918 -0.3519
 6644SOL    HW131391   4.654   3.544   2.819  0.2132  1.6118  1.4491
 6644SOL    HW231392   4.522   3.598   2.769 -0.5923 -0.8043 -2.2584
 6645SOL     OW31393   3.685   2.047  16.111  0.4044 -0.6627  0.2151
 6645SOL    HW131394   3.743   2.077  16.181  1.6650 -0.6368 -0.8189
 6645SOL    HW231395   3.755   2.004  16.062 -0.8169  1.0280 -3.0126
 6646SOL     OW31396   2.651   1.710  16.916 -0.0835  0.5295 -0.1153
 6646SOL    HW131397   2.683   1.621  16.902 -3.2458 -0.7682  0.9487
 6646SOL    HW231398   2.728   1.747  16.959  1.2925  0.4044 -2.5129
 6647SOL     OW31399   1.013   1.520   7.776 -0.0041  0.4083 -0.1352
 6647SOL    HW131400   0.981   1.479   7.856  0.3433 -0.1256 -0.2695
 6647SOL    HW231401   0.954   1.596   7.775 -1.2688 -0.5303  3.0014
 6648SOL     OW31402   3.892   1.974   6.860 -0.2024 -0.3735 -0.0536
 6648SOL    HW131403   3.951   1.898   6.857  0.8253  0.3947  0.7452
 6648SOL    HW231404   3.948   2.030   6.913 -1.2675  2.2004 -1.6565
 6649SOL     OW31405   4.382   2.425   7.889 -0.4760 -0.2064  0.6790
 6649SOL    HW131406   4.312   2.364   7.863 -0.0741 -1.3366  2.2214
 6649SOL    HW231407   4.397   2.385   7.975 -1.9905  2.3231  2.1187
 6650SOL     OW31408   1.321   3.880  16.062 -0.2538  0.3468 -0.3064
 6650SOL    HW131409   1.352   3.841  15.980 -2.6301 -0.3797 -0.8631
 6650SOL    HW231410   1.319   3.971  16.032  0.2693  0.6165  0.4860
 6651SOL     OW31411   1.910   2.281   3.409 -0.2206 -0.4755  0.3778
 6651SOL    HW131412   1.896   2.217   3.340  1.5699  0.9284 -1.2881
 6651SOL    HW231413   2.002   2.304   3.396 -0.8888  1.5762 -0.6357
 6652SOL     OW31414   4.514   4.623   7.477  0.3551  0.1893  0.6657
 6652SOL    HW131415   4.452   4.613   7.405 -1.6214 -0.0374  2.3950
 6652SOL    HW231416   4.467   4.699   7.512 -0.4093 -0.1214  0.3198
 6653SOL     OW31417   3.172   0.307  16.943  0.0234 -0.0738  0.6546
 6653SOL    HW131418   3.101   0.329  16.883  0.0109  0.7228  0.9604
 6653SOL    HW231419   3.119   0.305  17.022 -1.0917  0.1107 -0.0922
 6654SOL     OW31420   3.191   2.610   7.186  0.3591  0.0971 -0.1354
 6654SOL    HW131421   3.184   2.527   7.233  2.6180  0.4973  0.8984
 6654SOL    HW231422   3.249   2.653   7.248  1.2839 -0.3472 -0.7002
 6655SOL     OW31423   1.649   3.028   0.695  0.1124 -0.1581 -0.0017
 6655SOL    HW131424   1.684   2.939   0.689 -1.0213 -0.8072  2.6732
 6655SOL    HW231425   1.734   3.071   0.688  1.0160 -1.6561  1.7337
 6656SOL     OW31426   0.018   3.480   9.641 -0.6293  0.4737 -0.1229
 6656SOL    HW131427   0.023   3.544   9.569  0.8600 -0.8792 -1.2170
 6656SOL    HW231428   4.714   3.403   9.590  1.2724 -1.1371  1.4189
 6657SOL     OW31429   3.946   0.697  12.358  0.5933  0.7058  0.4800
 6657SOL    HW131430   4.018   0.759  12.369  2.9050 -1.8910 -0.0976
 6657SOL    HW231431   3.896   0.751  12.296 -1.1382 -0.8111  0.5744
 6658SOL     OW31432   1.975   0.561   6.901 -0.1378  0.2123  0.5830
 6658SOL    HW131433   2.031   0.639   6.900  0.1577 -0.0042  0.1638
 6658SOL    HW231434   2.041   0.503   6.940 -2.0969 -1.5768  1.2443
 6659SOL     OW31435   1.252   2.981   9.059  0.4128  0.0888  0.1684
 6659SOL    HW131436   1.302   2.942   9.131  1.7110  2.0440  0.3310
 6659SOL    HW231437   1.269   2.914   8.994 -3.0017 -1.4671  0.8511
 6660SOL     OW31438   0.255   4.269   2.770 -0.1100 -0.3044  0.5804
 6660SOL    HW131439   0.255   4.177   2.796 -1.5041 -0.1933  0.9911
 6660SOL    HW231440   0.172   4.306   2.800 -0.9697 -1.0576 -0.8907
 6661SOL     OW31441   1.927   2.805   3.909  0.1974 -0.2947 -0.0053
 6661SOL    HW131442   1.918   2.862   3.833 -1.6245 -0.7935 -0.1662
 6661SOL    HW231443   1.845   2.825   3.955  1.7094  0.8495  2.2228
 6662SOL     OW31444   3.911   1.665   7.706  0.0116  0.0798 -0.0598
 6662SOL    HW131445   3.900   1.739   7.766 -0.4822 -1.0790  1.2734
 6662SOL    HW231446   3.994   1.693   7.668  0.0694  0.4566  0.3377
 6663SOL     OW31447   0.823   3.650   7.926  0.2625 -0.2151  0.4315
 6663SOL    HW131448   0.757   3.595   7.968 -0.2889  1.5284  1.8337
 6663SOL    HW231449   0.776   3.692   7.854 -0.6168 -1.4228  0.2918
 6664SOL     OW31450   0.751   2.360   1.754  0.2008  0.2169 -0.0700
 6664SOL    HW131451   0.754   2.445   1.709 -2.9498 -0.5212 -1.7094
 6664SOL    HW231452   0.660   2.349   1.782  0.0055  2.6670  0.2108
 6665SOL     OW31453   2.284   2.101  11.364  0.6841  0.3493 -0.0131
 6665SOL    HW131454   2.281   2.040  11.291  0.9074 -0.8103  0.9571
 6665SOL    HW231455   2.192   2.123  11.373  1.1025  2.4851 -0.9298
 6666SOL     OW31456   1.918   1.542   1.102  0.6230  0.4443  0.4767
 6666SOL    HW131457   1.913   1.630   1.139 -1.0346 -0.0048  1.2925
 6666SOL    HW231458   1.939   1.566   1.012 -0.6038 -0.6632 -0.0973
 6667SOL     OW31459   1.253   1.512   2.360  0.1061 -0.0219 -0.0301
 6667SOL    HW131460   1.304   1.480   2.434 -0.4963  0.7786  0.7230
 6667SOL    HW231461   1.318   1.505   2.290 -0.9403  5.2375 -1.5105
 6668SOL     OW31462   3.319   3.041  13.046 -0.2536 -0.1092 -0.5570
 6668SOL    HW131463   3.310   3.017  13.138  3.4476 -1.8947 -0.6816
 6668SOL    HW231464   3.378   2.972  13.016  0.0404 -1.5030  3.1971
 6669SOL     OW31465   3.743   3.076   4.793  0.7880 -0.6114 -0.2946
 6669SOL    HW131466   3.809   3.056   4.859 -0.9345  0.0551  1.6580
 6669SOL    HW231467   3.796   3.100   4.717 -1.2544  0.9194 -1.2207
 6670SOL     OW31468   2.636   0.056   5.316 -0.5554 -0.2480  0.2345
 6670SOL    HW131469   2.692   0.073   5.392 -2.9720  1.2431  1.6715
 6670SOL    HW231470   2.612   0.146   5.293 -0.7484 -0.7422 -1.4871
 6671SOL     OW31471   1.814   1.596  10.771  0.1086  0.4690  0.9103
 6671SOL    HW131472   1.846   1.667  10.715 -1.2536  1.9370  1.9860
 6671SOL    HW231473   1.869   1.610  10.849  0.5450 -1.8407  1.0215
 6672SOL     OW31474   2.248   0.592   4.617  0.5785  0.2341 -0.5221
 6672SOL    HW131475   2.329   0.632   4.649  0.8602 -1.1822  0.5592
 6672SOL    HW231476   2.218   0.670   4.571  0.8234  0.9144  0.4619
 6673SOL     OW31477   1.152   2.775   4.112 -0.2966  0.2983 -0.2162
 6673SOL    HW131478   1.223   2.721   4.078 -0.4407  0.1388 -0.2659
 6673SOL    HW231479   1.105   2.702   4.151 -0.2071  1.1101  1.4058
 6674SOL     OW31480   1.897   3.153   8.445 -0.0399  0.5170 -0.0550
 6674SOL    HW131481   1.984   3.148   8.406 -1.4786  0.2259 -3.1752
 6674SOL    HW231482   1.852   3.080   8.404 -0.9572 -0.4319  2.6180
 6675SOL     OW31483   0.949   2.014   5.444  0.1721  0.2231  0.2322
 6675SOL    HW131484   0.947   1.983   5.354 -3.3887 -0.0538  0.4182
 6675SOL    HW231485   0.988   2.100   5.434  3.9351 -1.7686 -2.2519
 6676SOL     OW31486   3.309   2.695   3.630  0.4595 -0.0346  0.6437
 6676SOL    HW131487   3.339   2.762   3.691  2.1356 -0.4164  0.2388
 6676SOL    HW231488   3.249   2.753   3.583  0.6886 -0.3001  0.0111
 6677SOL     OW31489   2.749   3.506   9.312  0.2142  0.4268  0.0208
 6677SOL    HW131490   2.777   3.481   9.224 -0.7220 -2.0985  0.4304
 6677SOL    HW231491   2.681   3.571   9.298  1.0836  1.3209 -0.0382
 6678SOL     OW31492   0.632   3.784   3.496  0.0231  0.0461 -0.0933
 6678SOL    HW131493   0.539   3.775   3.519 -0.2892 -0.2519 -1.4403
 6678SOL    HW231494   0.643   3.877   3.517  1.1395 -0.4067  1.2716
 6679SOL     OW31495   3.547   3.236   9.662  0.1896  0.3979  0.3029
 6679SOL    HW131496   3.455   3.262   9.658 -0.2699 -0.9666  2.2773
 6679SOL    HW231497   3.589   3.320   9.641  0.0523  0.2553 -0.5515
 6680SOL     OW31498   0.657   4.228  12.637  0.7005 -0.1268  0.3773
 6680SOL    HW131499   0.636   4.249  12.728 -2.5429  0.0813 -0.4433
 6680SOL    HW231500   0.662   4.313  12.592 -0.3792  0.5344  1.5116
 6681SOL     OW31501   1.868   3.152  17.615 -0.2619 -0.2591 -0.1897
 6681SOL    HW131502   1.854   3.144  17.521  2.0622  0.3647 -0.5953
 6681SOL    HW231503   1.923   3.078  17.640  2.3999  1.3964 -1.1247
 6682SOL     OW31504   0.927   4.571  17.366 -0.6764 -1.0123  0.1298
 6682SOL    HW131505   0.850   4.603  17.412  0.6802  2.5267 -0.0826
 6682SOL    HW231506   0.996   4.600  17.426  0.2494 -0.5980 -1.1232
 6683SOL     OW31507   3.592   4.386  12.071  0.2467 -0.4827  0.6229
 6683SOL    HW131508   3.565   4.458  12.015 -1.9064 -1.1843  0.7449
 6683SOL    HW231509   3.662   4.424  12.124  0.3866 -0.1986  0.2302
 6684SOL     OW31510   2.143   1.826   8.672 -0.0185  0.1931  0.7198
 6684SOL    HW131511   2.178   1.904   8.630 -1.2052 -0.5148 -1.5942
 6684SOL    HW231512   2.080   1.796   8.606  0.0759  0.5721  0.4569
 6685SOL     OW31513   3.240   3.787   6.320  0.1242 -0.2858 -0.1097
 6685SOL    HW131514   3.335   3.791   6.318  0.3223 -3.5413  1.6228
 6685SOL    HW231515   3.232   3.707   6.372  0.3312  0.4698  1.0923
 6686SOL     OW31516   4.520   2.825   2.669  0.7202 -0.0948  0.1410
 6686SOL    HW131517   4.438   2.807   2.715 -0.3690 -0.5025 -1.9568
 6686SOL    HW231518   4.575   2.771   2.726  0.3966 -0.9749 -0.3789
 6687SOL     OW31519   3.028   4.717  17.291  0.7589 -0.0829  0.6373
 6687SOL    HW131520   3.120   4.701  17.271  0.6539  0.1014 -0.0273
 6687SOL    HW231521   3.007   0.059  17.219 -0.3617 -0.3153  0.7587
 6688SOL     OW31522   2.319   3.899   8.068  0.0822 -0.4261  0.3854
 6688SOL    HW131523   2.337   3.919   8.160 -1.4253  0.0687  0.5638
 6688SOL    HW231524   2.359   3.813   8.051 -2.0443 -1.3177 -0.1715
 6689SOL     OW31525   3.002   4.559   4.741  0.2275 -0.5203  0.1155
 6689SOL    HW131526   2.917   4.515   4.746  0.1180 -0.2792  0.3334
 6689SOL    HW231527   2.983   4.644   4.780 -0.3680 -2.3338  3.7926
 6690SOL     OW31528   2.824   3.429   9.065 -0.2031 -0.3705  0.5377
 6690SOL    HW131529   2.916   3.405   9.053 -0.2437 -0.6163  0.7125
 6690SOL    HW231530   2.791   3.405   8.978  0.8252 -1.3678  0.4166
 6691SOL     OW31531   3.223   1.928   3.831 -0.3082 -0.0648  0.9206
 6691SOL    HW131532   3.234   1.905   3.923 -1.9470 -4.4379  0.0211
 6691SOL    HW231533   3.221   2.023   3.843 -1.1161 -0.0133  0.3661
 6692SOL     OW31534   0.977   3.384  12.118  0.2803 -0.2263 -0.3054
 6692SOL    HW131535   0.919   3.455  12.091  1.9493  1.1035 -0.4374
 6692SOL    HW231536   0.931   3.316  12.070 -1.9162  1.3028 -0.3883
 6693SOL     OW31537   3.611   0.573  16.923 -0.3911  0.4225  0.4291
 6693SOL    HW131538   3.573   0.556  16.837 -1.9841 -0.6442  1.3362
 6693SOL    HW231539   3.675   0.638  16.896 -1.5229  3.0164  3.9895
 6694SOL     OW31540   3.151   1.716  14.688 -0.7281 -0.4825 -0.2750
 6694SOL    HW131541   3.246   1.724  14.677 -0.7041 -2.0276 -1.2004
 6694SOL    HW231542   3.139   1.638  14.743  0.2886  0.1839  0.8832
 6695SOL     OW31543   3.541   1.384   3.862 -0.1167  0.6190  0.2263
 6695SOL    HW131544   3.535   1.475   3.891  1.5591  1.4427 -2.0300
 6695SOL    HW231545   3.454   1.379   3.822  0.6833  0.1466 -1.4172
 6696SOL     OW31546   0.844   4.650   3.951 -0.2966 -0.3412 -0.3782
 6696SOL    HW131547   0.774   4.715   3.957  0.4930  0.4067  0.6215
 6696SOL    HW231548   0.911   4.684   4.010  0.9546  0.0527 -2.0333
 6697SOL     OW31549   3.584   1.120  16.397  0.1997  0.2397  0.3157
 6697SOL    HW131550   3.591   1.025  16.383 -0.3966  0.3252 -0.5501
 6697SOL    HW231551   3.638   1.146  16.322 -0.6268  3.1981  0.7395
 6698SOL     OW31552   0.021   1.312   4.242  0.7677 -0.0530 -0.3248
 6698SOL    HW131553   4.707   1.284   4.327  1.3861 -0.2179 -0.1365
 6698SOL    HW231554   4.669   1.267   4.196  0.5383  1.3161 -1.3294
 6699SOL     OW31555   3.418   1.299   5.851 -0.0727  0.5956 -0.1173
 6699SOL    HW131556   3.453   1.343   5.773 -0.3790 -2.1416 -1.7898
 6699SOL    HW231557   3.498   1.259   5.885 -0.0041  0.9601  0.1477
 6700SOL     OW31558   1.994   1.761  17.636 -0.0248 -0.2467  0.1166
 6700SOL    HW131559   2.082   1.748  17.672  0.2682 -1.4361 -1.0124
 6700SOL    HW231560   1.993   1.840  17.582  2.2304  1.2701  2.2637
 6701SOL     OW31561   2.001   1.465  12.679  0.3581  0.2088 -0.2123
 6701SOL    HW131562   2.037   1.516  12.606  3.1822 -1.5963 -0.0791
 6701SOL    HW231563   1.971   1.532  12.740 -1.4526 -1.9629  1.2843
 6702SOL     OW31564   2.034   4.638  11.151  0.0770  0.0078  0.3400
 6702SOL    HW131565   2.124   4.667  11.168 -0.3665  1.2902  0.4881
 6702SOL    HW231566   1.992   0.004  11.153  0.6898  0.3263 -0.8502
 6703SOL     OW31567   4.517   2.331   5.813 -1.1023  0.2595 -0.0673
 6703SOL    HW131568   4.540   2.238   5.816 -0.4203  0.4267 -0.1167
 6703SOL    HW231569   4.435   2.327   5.862 -1.6738  1.5533 -0.9140
 6704SOL     OW31570   3.026   3.324   9.873 -0.1064  0.3973 -0.4265
 6704SOL    HW131571   2.931   3.321   9.888  0.0062 -1.9832 -0.2164
 6704SOL    HW231572   3.032   3.384   9.799 -1.1765 -0.1878 -0.9990
 6705SOL     OW31573   3.227   2.208  14.734  0.0183 -0.1316  0.1651
 6705SOL    HW131574   3.152   2.166  14.692  0.9600 -2.7834  1.1275
 6705SOL    HW231575   3.279   2.128  14.726 -1.6121 -1.2109  0.5095
 6706SOL     OW31576   0.881   4.647   9.671  0.1116 -0.1213 -0.6322
 6706SOL    HW131577   0.851   4.585   9.738  1.1353 -0.2794 -0.3226
 6706SOL    HW231578   0.797   4.673   9.634  0.1389  0.2484 -0.4336
 6707SOL     OW31579   0.736   0.496   3.940 -0.2315 -0.2457  0.2534
 6707SOL    HW131580   0.715   0.436   4.012 -0.9992 -1.4336 -0.9664
 6707SOL    HW231581   0.733   0.433   3.868  0.3963 -1.7021  1.4891
 6708SOL     OW31582   1.360   3.170   9.996 -0.3078  0.3974  0.6594
 6708SOL    HW131583   1.418   3.108  10.040  0.6879  0.5155 -0.4840
 6708SOL    HW231584   1.408   3.250  10.017  1.5882 -1.0465  1.8797
 6709SOL     OW31585   1.177   3.735  17.249 -0.1698  0.4324  0.5344
 6709SOL    HW131586   1.271   3.752  17.248 -0.6463  3.0819 -0.0570
 6709SOL    HW231587   1.165   3.736  17.344 -1.5760 -1.5782  0.3902
 6710SOL     OW31588   2.482   3.274   7.798  0.3949  0.4633 -0.0445
 6710SOL    HW131589   2.498   3.361   7.835 -0.3729  1.4258 -1.9498
 6710SOL    HW231590   2.397   3.256   7.838  1.0307  1.4276  1.7250
 6711SOL     OW31591   4.111   0.871   6.461  0.1805  0.0472 -0.5125
 6711SOL    HW131592   4.155   0.860   6.377 -0.2712 -1.5498 -0.5386
 6711SOL    HW231593   4.133   0.960   6.489 -0.8648  1.0701 -2.9348
 6712SOL     OW31594   4.621   1.386  16.343 -0.5843 -0.5220 -0.2031
 6712SOL    HW131595   4.588   1.476  16.341  0.8283 -0.0303 -0.9763
 6712SOL    HW231596   4.661   1.388  16.430  0.3202 -1.5488 -0.6121
 6713SOL     OW31597   2.396   1.923   5.545  0.4869 -0.2037  0.1425
 6713SOL    HW131598   2.411   1.999   5.601 -0.2345  1.4603 -1.9434
 6713SOL    HW231599   2.487   1.904   5.524  0.8384 -0.4253  1.8510
 6714SOL     OW31600   1.522   0.402  14.536 -0.4358 -0.1873  0.0620
 6714SOL    HW131601   1.447   0.402  14.595 -1.4116  0.3307 -1.2045
 6714SOL    HW231602   1.473   0.377  14.458  2.2811  2.2129 -2.4092
 6715SOL     OW31603   2.287   3.341   8.413  0.9398 -0.5484  0.1741
 6715SOL    HW131604   2.317   3.384   8.493 -0.2119 -2.2616  1.5237
 6715SOL    HW231605   2.256   3.413   8.358 -1.1100 -1.1421  0.5395
 6716SOL     OW31606   0.492   1.816   8.615 -0.2185 -0.1681 -0.8890
 6716SOL    HW131607   0.474   1.836   8.707 -0.5676 -2.5585 -0.4339
 6716SOL    HW231608   0.580   1.780   8.610 -0.0687  0.2085 -0.9599
 6717SOL     OW31609   3.528   0.397   4.532  0.5034 -0.5012  0.0357
 6717SOL    HW131610   3.611   0.365   4.496 -0.5702 -1.0208 -2.0392
 6717SOL    HW231611   3.470   0.334   4.488  4.0296 -2.0722 -2.3502
 6718SOL     OW31612   3.216   3.712   6.768 -0.1137  0.6928  0.1669
 6718SOL    HW131613   3.249   3.661   6.842 -1.6150  0.6790  0.8113
 6718SOL    HW231614   3.295   3.761   6.745  0.7246 -0.6787  0.0994
 6719SOL     OW31615   2.272   2.435  14.311  0.1862  0.3136 -0.1082
 6719SOL    HW131616   2.314   2.484  14.241 -2.0689  0.9123 -1.0394
 6719SOL    HW231617   2.305   2.468  14.395 -0.1704  0.5093 -0.0459
 6720SOL     OW31618   3.024   0.681   8.611  0.3710 -0.1407  0.1847
 6720SOL    HW131619   3.066   0.715   8.532 -0.1921  1.2623  0.4997
 6720SOL    HW231620   3.048   0.739   8.683 -0.0626  1.0481 -0.6255
 6721SOL     OW31621   1.915   4.143  14.909 -0.2763 -0.2528  0.1087
 6721SOL    HW131622   1.924   4.048  14.916  1.0001 -0.0303  1.5991
 6721SOL    HW231623   1.894   4.151  14.816  0.1950 -0.7068 -0.0377
 6722SOL     OW31624   4.699   1.156   2.482 -0.2646  0.3170  0.5497
 6722SOL    HW131625   0.070   1.128   2.471 -0.0292  0.4461  2.1482
 6722SOL    HW231626   4.660   1.084   2.531 -0.7464 -0.0822 -0.4422
 6723SOL     OW31627   1.361   4.112   7.582 -0.0343 -0.0717  0.2182
 6723SOL    HW131628   1.417   4.172   7.532 -0.3845 -1.0325 -1.3543
 6723SOL    HW231629   1.363   4.157   7.666  2.7792  1.4362 -0.6681
 6724SOL     OW31630   3.113   3.286   6.577 -0.1380 -0.3914  0.2401
 6724SOL    HW131631   3.161   3.307   6.496  2.4241 -3.5332  0.9399
 6724SOL    HW231632   3.128   3.192   6.584  1.3484 -0.1171  0.7959
 6725SOL     OW31633   2.210   2.615   3.023 -0.2247 -0.0897  0.0424
 6725SOL    HW131634   2.233   2.536   2.974  2.8802  1.9225 -1.7157
 6725SOL    HW231635   2.297   2.652   3.032  0.5237 -1.7144 -0.5135
 6726SOL     OW31636   2.265   4.706   8.953 -0.1109  0.0444  0.3653
 6726SOL    HW131637   2.187   0.041   8.961 -1.4202 -1.4120 -2.2541
 6726SOL    HW231638   2.327   0.042   8.904 -0.7860  1.5874  1.2817
 6727SOL     OW31639   4.401   1.920  10.720 -0.2844  0.2133  0.2576
 6727SOL    HW131640   4.433   1.995  10.769 -0.6282  0.9325 -0.6137
 6727SOL    HW231641   4.483   1.871  10.722  1.5705  3.4290  1.3998
 6728SOL     OW31642   4.188   3.198   0.121  0.5423 -0.1577  0.1426
 6728SOL    HW131643   4.241   3.123   0.149 -1.2134 -1.1851  0.7466
 6728SOL    HW231644   4.108   3.147   0.109 -0.5237  1.5870 -0.1745
 6729SOL     OW31645   2.928   0.170  12.476 -0.6027 -0.0725 -0.3236
 6729SOL    HW131646   2.868   0.240  12.502  0.2383 -0.5143  2.7458
 6729SOL    HW231647   2.920   0.116  12.554  0.3490  0.9527  0.4866
 6730SOL     OW31648   0.676   0.798   6.001  0.4750  0.1280 -0.1193
 6730SOL    HW131649   0.717   0.801   5.914 -0.2745  0.4064 -0.4613
 6730SOL    HW231650   0.711   0.881   6.033 -0.7793  0.2772  0.8532
 6731SOL     OW31651   0.525   3.601   8.720  0.2865 -0.1665 -0.2328
 6731SOL    HW131652   0.528   3.550   8.801  1.1076  1.5242  0.8132
 6731SOL    HW231653   0.617   3.603   8.695  0.5175  1.4548  0.7026
 6732SOL     OW31654   2.868   4.504   8.118 -0.1851 -0.5305 -0.3001
 6732SOL    HW131655   2.866   4.408   8.114  0.6953 -0.5351 -0.6351
 6732SOL    HW231656   2.798   4.535   8.060  0.8126  2.8486  0.3596
 6733SOL     OW31657   2.429   3.957  17.338 -0.6727  0.1012  0.3215
 6733SOL    HW131658   2.361   3.967  17.404  0.0001  2.2591  0.6940
 6733SOL    HW231659   2.448   3.863  17.334  0.6552  0.4120 -0.9433
 6734SOL     OW31660   0.466   2.202  16.875  0.6572  0.6895  0.1788
 6734SOL    HW131661   0.509   2.287  16.868  0.9158  0.6737  1.6779
 6734SOL    HW231662   0.486   2.166  16.961 -2.2001 -1.6430 -0.1187
 6735SOL     OW31663   2.056   2.683   6.060  0.1069 -0.8303 -0.1013
 6735SOL    HW131664   2.044   2.753   5.995 -0.1045 -1.0999 -0.3477
 6735SOL    HW231665   2.106   2.727   6.129  0.2079 -2.1012  0.6307
 6736SOL     OW31666   0.945   3.265   2.019 -0.1300  0.2175 -0.3019
 6736SOL    HW131667   0.935   3.340   2.078 -0.4269 -1.6955  2.0827
 6736SOL    HW231668   0.887   3.195   2.048  1.2200  0.6407  3.5362
 6737SOL     OW31669   2.456   1.021  17.197 -0.0071 -0.0288 -0.5993
 6737SOL    HW131670   2.451   1.025  17.101 -0.8155  0.1141 -0.5511
 6737SOL    HW231671   2.508   0.943  17.213  1.0309  0.2406 -2.6890
 6738SOL     OW31672   2.115   0.587   7.832 -0.0701  0.9297 -0.4262
 6738SOL    HW131673   2.142   0.650   7.765  2.5926 -0.2075 -0.4502
 6738SOL    HW231674   2.200   0.566   7.872  0.4240  0.8040 -1.5492
 6739SOL     OW31675   0.224   2.641   4.575 -0.2644 -0.5100 -0.0439
 6739SOL    HW131676   0.219   2.664   4.482 -1.6480 -2.3293 -0.4143
 6739SOL    HW231677   0.130   2.621   4.580  0.1138 -2.1293  0.2462
 6740SOL     OW31678   2.119   0.568  15.299  0.0909 -0.5104  0.2664
 6740SOL    HW131679   2.150   0.480  15.321 -1.4259 -1.5417 -1.6487
 6740SOL    HW231680   2.037   0.571  15.349 -1.2602  2.3706 -2.1020
 6741SOL     OW31681   0.964   2.772   7.381 -0.2437 -0.2889  0.1080
 6741SOL    HW131682   1.010   2.779   7.464 -2.3502 -0.6499  1.3001
 6741SOL    HW231683   0.874   2.803   7.396  0.1060  1.3797 -1.2621
 6742SOL     OW31684   0.601   3.056   2.878  0.2765  0.3113 -0.4773
 6742SOL    HW131685   0.632   3.019   2.961  0.6975 -0.1243 -0.8279
 6742SOL    HW231686   0.625   2.980   2.825  1.0621 -0.9802  1.6997
 6743SOL     OW31687   3.243   1.815  11.227 -0.3979 -0.4532 -0.2577
 6743SOL    HW131688   3.193   1.737  11.251  0.3127 -1.0127 -0.5885
 6743SOL    HW231689   3.257   1.803  11.133  0.2345 -0.6303 -0.1375
 6744SOL     OW31690   2.827   0.833  17.343  0.0377 -0.0285 -0.4765
 6744SOL    HW131691   2.831   0.848  17.438 -0.6944  0.2021 -0.4810
 6744SOL    HW231692   2.913   0.863  17.312  0.2218  0.6208  0.6464
 6745SOL     OW31693   3.149   3.642   2.697  0.0656  0.0749  0.2806
 6745SOL    HW131694   3.076   3.590   2.664  0.3362  0.4565 -0.9158
 6745SOL    HW231695   3.131   3.658   2.790  3.1465 -1.6112  1.1369
 6746SOL     OW31696   3.032   1.379  11.934 -0.5011  0.2740  0.6235
 6746SOL    HW131697   3.022   1.371  12.029  4.0595  0.8610  1.1529
 6746SOL    HW231698   3.123   1.353  11.923 -0.6831 -0.0208 -0.2062
 6747SOL     OW31699   3.733   4.386   8.485  0.1409 -0.3044  0.2013
 6747SOL    HW131700   3.658   4.335   8.451 -0.2717  0.8065 -0.5557
 6747SOL    HW231701   3.704   4.475   8.468  0.6772  0.1209  1.5429
 6748SOL     OW31702   4.095   0.768   5.095  0.2095  0.4420 -0.5770
 6748SOL    HW131703   4.048   0.685   5.107  2.0511 -0.3783  1.0487
 6748SOL    HW231704   4.153   0.758   5.170  0.7764 -1.5351 -1.2806
 6749SOL     OW31705   0.751   3.665   7.613  0.7191  0.3441  0.3169
 6749SOL    HW131706   0.784   3.643   7.526  0.8068  0.1051  0.4116
 6749SOL    HW231707   0.778   3.753   7.637  1.8722 -0.0369  0.4124
 6750SOL     OW31708   2.017   3.870   9.255 -0.0591  0.7399  0.3132
 6750SOL    HW131709   1.950   3.899   9.317 -0.1901 -0.1694  0.6064
 6750SOL    HW231710   2.077   3.816   9.308  0.1432  0.9511  0.2971
 6751SOL     OW31711   3.841   3.865  17.552 -0.1609  0.0867 -0.4634
 6751SOL    HW131712   3.873   3.943  17.597 -1.3796  0.9395 -1.0461
 6751SOL    HW231713   3.823   3.816  17.632  2.3051  1.0119  0.6523
 6752SOL     OW31714   1.649   2.300   2.752 -0.0702  0.2430 -0.2478
 6752SOL    HW131715   1.647   2.339   2.839  1.2204 -0.8387  0.2706
 6752SOL    HW231716   1.687   2.214   2.772  0.9737  0.1997 -2.4799
 6753SOL     OW31717   0.026   3.414   5.865  0.0440 -0.3209 -0.4645
 6753SOL    HW131718   0.056   3.339   5.812  2.4980  0.0600  0.3913
 6753SOL    HW231719   0.023   3.480   5.796 -1.3032  0.5154  0.4116
 6754SOL     OW31720   1.325   3.268   3.799  0.9433  0.1600 -0.7303
 6754SOL    HW131721   1.419   3.280   3.815  0.6992 -0.3764  1.1598
 6754SOL    HW231722   1.314   3.343   3.741 -1.0190  1.1568  0.9122
 6755SOL     OW31723   2.656   0.676   1.826  0.0579 -0.3758 -0.0385
 6755SOL    HW131724   2.724   0.661   1.891 -0.5143  1.4332  0.9892
 6755SOL    HW231725   2.670   0.770   1.812  0.4716 -0.5816 -0.9966
 6756SOL     OW31726   1.974   0.410  11.344 -0.0089 -0.2212  0.1913
 6756SOL    HW131727   1.879   0.406  11.346 -0.0674  1.1671  0.1897
 6756SOL    HW231728   2.002   0.361  11.266  0.0158  2.0253 -1.1959
 6757SOL     OW31729   1.319   0.355   5.691  0.3300 -0.4705 -0.7340
 6757SOL    HW131730   1.409   0.352   5.659  0.3798 -0.8257 -0.5700
 6757SOL    HW231731   1.291   0.432   5.642  0.2081 -2.4546 -3.7334
 6758SOL     OW31732   0.251   1.150  15.648  0.2408 -0.4150  0.3185
 6758SOL    HW131733   0.320   1.216  15.643  0.3699 -0.6144 -0.5466
 6758SOL    HW231734   0.232   1.155  15.742  0.3652  0.4578  0.2982
 6759SOL     OW31735   3.239   0.577  10.964  0.5299 -0.3461 -0.3237
 6759SOL    HW131736   3.172   0.551  11.027  2.3993 -3.6950  0.3055
 6759SOL    HW231737   3.254   0.493  10.920  0.5160  0.7167 -2.3621
 6760SOL     OW31738   4.050   0.811   2.859 -0.3504 -0.4521 -0.5654
 6760SOL    HW131739   4.079   0.721   2.873 -1.0408 -0.9007 -2.1026
 6760SOL    HW231740   4.076   0.824   2.768 -0.4295  1.6500 -0.2908
 6761SOL     OW31741   0.279   1.831   3.874 -0.2826  0.3941  0.4221
 6761SOL    HW131742   0.205   1.883   3.906  1.2069  2.4372  0.5859
 6761SOL    HW231743   0.289   1.865   3.785 -0.3052 -0.8160 -0.0446
 6762SOL     OW31744   2.584   1.873   4.370 -0.6748 -0.3495 -0.1349
 6762SOL    HW131745   2.631   1.834   4.444 -0.0663 -0.9061 -0.8178
 6762SOL    HW231746   2.535   1.801   4.331  1.4494 -2.2333  0.6453
 6763SOL     OW31747   2.671   4.584   3.502  0.3651 -0.4561  0.4741
 6763SOL    HW131748   2.645   4.619   3.417  0.5106 -1.6838 -0.0783
 6763SOL    HW231749   2.743   4.528   3.472  0.6442  0.3259 -0.3072
 6764SOL     OW31750   1.500   2.618   4.284 -0.0386 -0.2201 -0.0424
 6764SOL    HW131751   1.444   2.650   4.213 -0.1900 -1.7017 -0.5927
 6764SOL    HW231752   1.470   2.677   4.353  1.5310 -0.1576  0.5701
 6765SOL     OW31753   2.227   3.232   4.948 -0.3880  0.2089 -0.3836
 6765SOL    HW131754   2.166   3.223   4.876 -1.3315 -0.4883  0.5091
 6765SOL    HW231755   2.168   3.229   5.023 -0.3700  0.2387 -0.3680
 6766SOL     OW31756   3.439   3.834   5.151  0.0854 -0.3114 -1.0090
 6766SOL    HW131757   3.485   3.818   5.233 -1.0091 -1.1559 -0.5480
 6766SOL    HW231758   3.483   3.910   5.114  0.3905 -0.3947 -0.8196
 6767SOL     OW31759   4.310   3.540   7.858  0.3293  0.8053  0.1392
 6767SOL    HW131760   4.382   3.516   7.800  0.3132  0.1555  0.3938
 6767SOL    HW231761   4.330   3.633   7.850 -1.0664  1.3365  2.8496
 6768SOL     OW31762   3.502   0.460   8.895  0.2765 -0.1976  0.2369
 6768SOL    HW131763   3.424   0.406   8.880  0.0132  0.2289  0.0531
 6768SOL    HW231764   3.566   0.396   8.863 -0.2493 -0.8321  0.4555
 6769SOL     OW31765   3.880   0.361   8.820  0.0032  0.0527  0.5599
 6769SOL    HW131766   3.941   0.290   8.797 -2.1115 -1.3330 -0.8288
 6769SOL    HW231767   3.839   0.308   8.888 -1.5413  1.2783  0.5619
 6770SOL     OW31768   4.237   4.619  11.923  0.4193 -0.1331 -0.0042
 6770SOL    HW131769   4.247   4.533  11.883 -1.7958 -0.1351 -0.5616
 6770SOL    HW231770   4.167   4.661  11.874 -1.3214  0.4126  2.9292
 6771SOL     OW31771   2.647   1.848   5.485  0.1274 -0.1454 -0.3789
 6771SOL    HW131772   2.662   1.822   5.576 -0.4607  0.2554 -0.1715
 6771SOL    HW231773   2.688   1.769   5.447 -1.6400 -0.2224 -2.1174
 6772SOL     OW31774   1.376   3.416   2.041 -0.5570 -0.1893  0.7204
 6772SOL    HW131775   1.312   3.346   2.025 -2.6469  1.8902 -0.0308
 6772SOL    HW231776   1.458   3.367   2.036  0.4628  1.4663  1.3835
 6773SOL     OW31777   3.026   0.642   2.683 -0.1291  0.4058  0.3970
 6773SOL    HW131778   3.016   0.550   2.659  0.3356  0.3918  0.2580
 6773SOL    HW231779   3.018   0.630   2.777  0.5208  0.6460  0.4820
 6774SOL     OW31780   3.580   2.254   0.670  0.2805 -0.4067  0.3798
 6774SOL    HW131781   3.657   2.246   0.613 -0.9650  0.1264 -1.3638
 6774SOL    HW231782   3.563   2.164   0.698 -2.9397  0.0773 -0.0658
 6775SOL     OW31783   0.613   1.341   8.322 -0.1675  0.0828  0.6064
 6775SOL    HW131784   0.651   1.421   8.286 -0.1026 -1.0431 -1.8926
 6775SOL    HW231785   0.522   1.351   8.293 -0.6448 -0.8205  1.8153
 6776SOL     OW31786   2.276   3.997  13.985  0.3022 -0.8778  0.0811
 6776SOL    HW131787   2.217   3.922  13.970 -0.2333 -0.8604  2.1498
 6776SOL    HW231788   2.329   3.958  14.055  0.1008  1.0475  1.3079
 6777SOL     OW31789   3.001   2.010  15.039  0.1896  0.0585  0.1086
 6777SOL    HW131790   2.940   1.944  15.072 -0.4182  0.0436 -1.0772
 6777SOL    HW231791   2.950   2.089  15.051  1.0479  0.8360 -1.3447
 6778SOL     OW31792   4.544   1.545   7.360 -0.4358  0.1638  0.0198
 6778SOL    HW131793   4.563   1.455   7.388  1.7743  0.1834 -1.3701
 6778SOL    HW231794   4.472   1.575   7.415  0.8174  1.6008  0.8720
 6779SOL     OW31795   1.438   0.859  16.710  0.2018 -0.0894 -0.5512
 6779SOL    HW131796   1.508   0.805  16.747  1.8310  2.0710 -0.4563
 6779SOL    HW231797   1.439   0.933  16.771  0.6425  0.5452 -1.3279
 6780SOL     OW31798   2.268   0.355   4.811 -0.4359  0.2215  0.0370
 6780SOL    HW131799   2.260   0.267   4.773  0.5811  0.8939 -1.7379
 6780SOL    HW231800   2.290   0.407   4.734 -2.6329  1.0263 -0.0295
 6781SOL     OW31801   0.430   2.068  13.927  0.2358  0.0395  1.1848
 6781SOL    HW131802   0.482   1.991  13.947 -1.4652 -1.2381  0.7180
 6781SOL    HW231803   0.498   2.135  13.925  0.5764 -0.2664  2.8647
 6782SOL     OW31804   0.394   0.145   7.784 -0.0480 -0.1177  0.4187
 6782SOL    HW131805   0.425   0.235   7.775  0.3190 -0.2344  0.5074
 6782SOL    HW231806   0.449   0.106   7.852 -1.0913 -1.0123  0.7496
 6783SOL     OW31807   3.238   0.051   1.957  0.0281 -0.3203 -0.4361
 6783SOL    HW131808   3.331   0.072   1.953  0.3973 -2.0806 -1.0104
 6783SOL    HW231809   3.210   0.090   2.040 -0.0346 -1.2038 -0.0417
 6784SOL     OW31810   0.962   2.948   8.210 -0.9821  0.1539  0.2721
 6784SOL    HW131811   0.946   2.974   8.301  1.6713 -1.3083  1.1328
 6784SOL    HW231812   1.057   2.946   8.204 -1.0705 -0.8553 -0.8803
 6785SOL     OW31813   0.342   3.757   5.707  0.1635  0.0401 -0.3003
 6785SOL    HW131814   0.268   3.797   5.754 -0.7326 -0.2316 -1.4844
 6785SOL    HW231815   0.423   3.795   5.740 -0.3902 -0.2253  1.3743
 6786SOL     OW31816   1.732   0.894   5.605 -0.5266  0.4552 -0.3527
 6786SOL    HW131817   1.657   0.945   5.634 -1.2603 -0.0249 -1.4375
 6786SOL    HW231818   1.810   0.938   5.639 -0.8098  1.6257 -1.2287
 6787SOL     OW31819   1.066   0.226   0.652  0.3156 -0.7497  0.4196
 6787SOL    HW131820   1.077   0.155   0.716  1.8445 -1.6834 -0.8598
 6787SOL    HW231821   1.146   0.217   0.600 -1.1150  0.9155 -2.0201
 6788SOL     OW31822   4.566   0.002   3.253  0.1165  0.3104 -0.0702
 6788SOL    HW131823   4.587   0.093   3.272  0.1716  0.5115 -1.0858
 6788SOL    HW231824   4.525   0.005   3.167  1.5927  1.5390 -0.7165
 6789SOL     OW31825   3.219   3.070  12.078 -0.2574 -0.6595 -0.3326
 6789SOL    HW131826   3.179   3.115  12.152 -3.7185 -1.4406 -1.6718
 6789SOL    HW231827   3.139   3.057  12.026 -1.2762  4.8459 -0.1810
 6790SOL     OW31828   4.064   2.519  10.026  0.2762  0.0961 -0.2203
 6790SOL    HW131829   4.097   2.429  10.025 -0.2024 -0.0934  0.6835
 6790SOL    HW231830   4.148   2.567  10.029 -0.3079  1.1252 -0.2772
 6791SOL     OW31831   0.916   0.859  16.225  0.3216  0.1606  0.0144
 6791SOL    HW131832   0.883   0.779  16.265  0.6446 -0.1801 -0.3996
 6791SOL    HW231833   0.947   0.827  16.141  2.1250  1.6584  0.0826
 6792SOL     OW31834   3.047   1.786   3.114 -0.0710 -0.1350 -0.1285
 6792SOL    HW131835   3.092   1.779   3.030  1.0955 -1.0597  0.5714
 6792SOL    HW231836   3.120   1.762   3.172  1.2515 -0.7275 -2.0243
 6793SOL     OW31837   4.659   0.200  15.377  0.4756  0.7502  0.1090
 6793SOL    HW131838   0.021   0.171  15.417  1.5695  1.5361 -1.5822
 6793SOL    HW231839   4.652   0.130  15.312 -0.6881  2.4905 -1.6294
 6794SOL     OW31840   4.173   2.066   1.033  0.0605 -0.4653  0.0215
 6794SOL    HW131841   4.230   2.135   1.066  0.7519 -1.5491  1.0799
 6794SOL    HW231842   4.167   2.007   1.108 -0.4365  0.9269  1.0778
 6795SOL     OW31843   0.934   2.287   2.929  0.3920  0.6708 -1.4366
 6795SOL    HW131844   1.002   2.248   2.873 -0.8594 -3.1698 -0.2753
 6795SOL    HW231845   0.908   2.374   2.900 -3.0198  0.1250  0.0474
 6796SOL     OW31846   3.438   3.608   2.961  0.0113 -0.2631 -0.0291
 6796SOL    HW131847   3.457   3.518   2.987 -1.1575 -1.0017 -1.7779
 6796SOL    HW231848   3.432   3.608   2.866  0.1672 -1.8441 -0.0392
 6797SOL     OW31849   0.024   3.695   9.424 -0.1465  0.2092 -0.0483
 6797SOL    HW131850   0.118   3.710   9.412 -0.3272  2.1581  0.9572
 6797SOL    HW231851   4.700   3.780   9.427 -1.2629 -0.3809  0.4598
 6798SOL     OW31852   4.567   4.634   6.114  0.6831 -0.0386  0.4722
 6798SOL    HW131853   4.588   4.703   6.177  0.7882  0.2389  0.1354
 6798SOL    HW231854   4.563   4.689   6.036 -0.5174 -1.3432 -0.3969
 6799SOL     OW31855   2.972   1.180   9.765  0.3310  0.0496  0.3216
 6799SOL    HW131856   2.997   1.271   9.780  1.6657 -0.1608 -0.6355
 6799SOL    HW231857   2.876   1.183   9.770  0.3654  0.6429  0.6001
 6800SOL     OW31858   2.005   2.530   1.059 -0.0224  0.3580 -0.2305
 6800SOL    HW131859   2.038   2.619   1.067 -0.1217  0.5019 -1.3581
 6800SOL    HW231860   2.086   2.479   1.051 -0.1559  0.6430 -3.4074
 6801SOL     OW31861   3.133   2.359   2.643  0.6930  0.0105  0.2011
 6801SOL    HW131862   3.056   2.355   2.585  2.2516 -1.3936 -1.7757
 6801SOL    HW231863   3.177   2.276   2.626  0.8497 -0.1908  1.5976
 6802SOL     OW31864   1.637   3.830   1.460  0.1792 -0.2175  0.0272
 6802SOL    HW131865   1.706   3.844   1.525 -0.6329 -1.0009  1.0515
 6802SOL    HW231866   1.659   3.746   1.419  1.7824  0.1103  0.1860
 6803SOL     OW31867   1.113   3.900   9.953 -0.2922  0.6230 -0.5023
 6803SOL    HW131868   1.138   3.891   9.861 -1.1248 -0.2419 -0.6487
 6803SOL    HW231869   1.145   3.988   9.972 -0.8337  0.3830  1.5943
 6804SOL     OW31870   1.637   1.770   4.237 -0.3971  0.4515 -0.1766
 6804SOL    HW131871   1.666   1.808   4.154  0.5485 -0.0021 -0.0587
 6804SOL    HW231872   1.709   1.772   4.300 -0.4005  0.5911 -0.1783
 6805SOL     OW31873   3.399   4.616   3.309  0.4735 -0.5353  0.1481
 6805SOL    HW131874   3.392   4.639   3.216  1.5989 -0.0180  0.1941
 6805SOL    HW231875   3.432   4.528   3.294  1.0583 -0.2844 -0.0217
 6806SOL     OW31876   0.324   3.032  11.160 -0.1466 -0.0106  0.7585
 6806SOL    HW131877   0.416   3.042  11.184  0.3266 -2.5063  0.0194
 6806SOL    HW231878   0.334   2.962  11.095 -1.7686 -0.7475  1.3042
 6807SOL     OW31879   0.432   4.086  17.626  0.5569 -0.2152 -0.3105
 6807SOL    HW131880   0.516   4.091  17.671 -0.2023  0.5094  1.0231
 6807SOL    HW231881   0.370   4.045   0.005  0.3676 -0.0041 -0.3596
 6808SOL     OW31882   0.696   0.865  17.461  0.2816  0.0376  0.0923
 6808SOL    HW131883   0.625   0.911  17.505 -1.0942 -2.1048  0.0908
 6808SOL    HW231884   0.661   0.852  17.373  0.1110  2.8737 -0.2640
 6809SOL     OW31885   3.445   1.309   8.390  0.0713  0.6569 -0.1458
 6809SOL    HW131886   3.480   1.376   8.449  2.3334  0.6704 -1.4944
 6809SOL    HW231887   3.349   1.314   8.395  0.1261  1.4247  0.1259
 6810SOL     OW31888   4.300   1.687   7.421  0.1558  0.1683 -0.2740
 6810SOL    HW131889   4.209   1.674   7.394  0.2990  1.0102 -1.1876
 6810SOL    HW231890   4.308   1.779   7.394 -0.0116 -0.3916 -2.2731
 6811SOL     OW31891   1.455   3.416   2.666 -0.1538  0.2289  0.3425
 6811SOL    HW131892   1.413   3.335   2.695  2.6178 -0.8648  1.3066
 6811SOL    HW231893   1.527   3.376   2.617 -0.4964  1.4791 -1.1897
 6812SOL     OW31894   0.846   3.449   5.045 -0.5703  0.3222  0.2002
 6812SOL    HW131895   0.757   3.453   5.010 -0.9513 -1.8869  0.9453
 6812SOL    HW231896   0.833   3.497   5.127 -0.9776  0.2037  0.2034
 6813SOL     OW31897   1.020   0.547  11.552 -0.1830  0.6235  0.2636
 6813SOL    HW131898   1.060   0.465  11.578 -1.1631 -0.2858 -1.0903
 6813SOL    HW231899   1.000   0.578  11.640 -0.3326 -0.1223  0.4855
 6814SOL     OW31900   1.087   4.025   5.257  0.3635 -0.1338 -0.3365
 6814SOL    HW131901   1.016   4.090   5.252 -0.3418 -0.8493  0.4448
 6814SOL    HW231902   1.109   4.007   5.165  1.0311 -2.7866  0.3616
 6815SOL     OW31903   2.064   3.576   9.090 -0.4553 -0.3894 -0.1072
 6815SOL    HW131904   1.997   3.509   9.104 -0.7165 -0.0307  0.3709
 6815SOL    HW231905   2.014   3.656   9.103 -0.1448 -0.3192  0.6872
 6816SOL     OW31906   4.573   0.355  13.049 -0.0046  0.2245 -0.5956
 6816SOL    HW131907   4.524   0.358  12.967 -0.3617 -1.0317 -0.4126
 6816SOL    HW231908   4.571   0.262  13.071  0.2243  0.3794  0.0880
 6817SOL     OW31909   0.938   0.423   9.170 -0.4680  0.3171  0.1446
 6817SOL    HW131910   0.891   0.348   9.133 -0.3290  0.5393 -0.4849
 6817SOL    HW231911   1.027   0.395   9.145  0.1250  1.3089  1.1469
 6818SOL     OW31912   1.557   3.531   6.807  0.5783  0.1071  0.0023
 6818SOL    HW131913   1.475   3.570   6.777  0.6218  0.0533 -0.1825
 6818SOL    HW231914   1.598   3.602   6.857 -1.1668  0.7114  0.5616
 6819SOL     OW31915   3.456   1.483  13.588 -0.6279  0.2170 -0.0095
 6819SOL    HW131916   3.440   1.461  13.496  0.5561 -0.5963 -0.0249
 6819SOL    HW231917   3.550   1.470  13.602 -1.2370 -1.1891  2.6279
 6820SOL     OW31918   1.343   3.860   9.004 -0.3729 -0.4043 -0.0752
 6820SOL    HW131919   1.381   3.806   9.074  1.7859  1.0252 -0.1411
 6820SOL    HW231920   1.360   3.941   9.052 -1.1219 -0.3557  0.1081
 6821SOL     OW31921   1.599   2.441  15.355 -0.0729  0.1652 -0.4065
 6821SOL    HW131922   1.625   2.455  15.446  2.8664 -0.3332 -1.1762
 6821SOL    HW231923   1.653   2.509  15.315 -0.1801  1.4505  1.6417
 6822SOL     OW31924   3.766   1.988  12.513  0.0866 -0.8655 -0.0337
 6822SOL    HW131925   3.846   1.970  12.462  0.7374  2.6409 -0.2639
 6822SOL    HW231926   3.716   1.910  12.491  0.4211 -1.0704 -0.0748
 6823SOL     OW31927   1.938   1.211   8.113  0.4678 -0.7342  1.1296
 6823SOL    HW131928   1.858   1.159   8.127 -1.3288  2.1556  1.6158
 6823SOL    HW231929   1.954   1.186   8.022 -0.8064  0.7661  0.4839
 6824SOL     OW31930   0.235   3.882   6.873 -0.0062  0.4728 -0.1099
 6824SOL    HW131931   0.276   3.799   6.901  0.3154  0.8766  0.6184
 6824SOL    HW231932   0.284   3.942   6.930 -0.9764  2.5262 -1.4888
 6825SOL     OW31933   0.350   2.256   1.504  0.2272  0.0798  0.2986
 6825SOL    HW131934   0.329   2.333   1.450  0.4966  0.5946  0.9298
 6825SOL    HW231935   0.429   2.225   1.459 -0.8524  0.4747 -1.9080
 6826SOL     OW31936   4.710   4.081   2.017 -0.1540  0.4523 -0.0659
 6826SOL    HW131937   4.636   4.028   2.047  1.7894 -1.8990  0.6134
 6826SOL    HW231938   4.692   4.087   1.923 -1.2025 -0.1768  0.0938
 6827SOL     OW31939   3.874   2.600  11.735  0.4434 -0.1906  0.1710
 6827SOL    HW131940   3.947   2.572  11.679 -0.3965 -0.1838 -0.9032
 6827SOL    HW231941   3.801   2.602  11.673  0.7031 -0.3725 -0.1419
 6828SOL     OW31942   2.601   1.430  17.067  0.0417 -0.1647  0.3739
 6828SOL    HW131943   2.687   1.388  17.070  0.8827  1.7010  2.6778
 6828SOL    HW231944   2.623   1.509  17.117 -2.0262 -0.0298  1.0456
 6829SOL     OW31945   3.186   0.067  12.412  0.0775  0.2583 -0.1749
 6829SOL    HW131946   3.097   0.097  12.432 -0.2446  0.2680 -1.6100
 6829SOL    HW231947   3.218   0.137  12.356 -0.3639  0.3614 -0.3012
 6830SOL     OW31948   0.967   4.646   9.058  0.4890  0.2475  0.0907
 6830SOL    HW131949   0.939   4.561   9.093 -2.2386  0.6768 -1.0366
 6830SOL    HW231950   1.020   4.613   8.986 -1.3020  1.5054 -1.7990
 6831SOL     OW31951   4.282   3.751   4.445 -0.2337 -0.0056  0.3336
 6831SOL    HW131952   4.323   3.837   4.456  0.4540 -0.1322 -1.1613
 6831SOL    HW231953   4.325   3.725   4.363  0.4105  0.9965  0.3565
 6832SOL     OW31954   3.877   3.395   4.609  0.2470 -0.0142  0.0136
 6832SOL    HW131955   3.918   3.413   4.524  0.1694 -0.4127 -0.1127
 6832SOL    HW231956   3.859   3.302   4.595  0.2381  0.0505 -0.4113
 6833SOL     OW31957   0.209   1.536   6.546  0.1810 -0.2104  0.2574
 6833SOL    HW131958   0.186   1.561   6.636 -1.2216  0.7442 -0.3736
 6833SOL    HW231959   0.274   1.465   6.554  1.0870  0.4392 -1.4854
 6834SOL     OW31960   1.695   2.515   5.661 -0.3606 -0.0674  0.2806
 6834SOL    HW131961   1.650   2.458   5.724  0.3493 -1.7947 -0.7603
 6834SOL    HW231962   1.772   2.542   5.710 -0.1366 -0.5868  0.2167
 6835SOL     OW31963   0.922   1.381   5.872 -0.5074 -0.1737 -0.0880
 6835SOL    HW131964   0.889   1.391   5.961 -0.8160 -1.1111 -0.1029
 6835SOL    HW231965   0.989   1.449   5.873 -2.5784  1.8702 -1.2080
 6836SOL     OW31966   3.520   1.087   8.243  0.2998 -0.5796 -0.0782
 6836SOL    HW131967   3.489   1.159   8.299  0.7875  0.1641 -0.7516
 6836SOL    HW231968   3.440   1.076   8.192 -0.3541  0.4962  0.6825
 6837SOL     OW31969   1.507   4.214   9.370  0.4084  0.3542 -0.4753
 6837SOL    HW131970   1.447   4.281   9.402 -0.5871 -0.2552 -1.0830
 6837SOL    HW231971   1.549   4.184   9.451 -0.3051  2.1933  0.5686
 6838SOL     OW31972   2.798   2.498   7.580  0.1064  0.2523 -0.1787
 6838SOL    HW131973   2.796   2.586   7.616 -1.4407  1.1171 -2.3717
 6838SOL    HW231974   2.731   2.504   7.511 -0.8884 -3.2058  0.4563
 6839SOL     OW31975   3.552   0.533   3.734 -0.3360 -0.1556  0.1029
 6839SOL    HW131976   3.623   0.594   3.755  0.5557 -1.4807  0.9088
 6839SOL    HW231977   3.516   0.583   3.661 -0.7830  0.5361  0.7883
 6840SOL     OW31978   4.370   0.649   3.466 -0.2704  0.5229  0.0300
 6840SOL    HW131979   4.386   0.628   3.558  0.3882  1.1204  0.0502
 6840SOL    HW231980   4.454   0.691   3.447  0.1758 -0.4110 -0.0664
 6841SOL     OW31981   2.979   1.978   4.542  0.2042 -0.0455  0.4943
 6841SOL    HW131982   2.997   1.921   4.618  1.1600  2.4554  2.1394
 6841SOL    HW231983   2.968   1.913   4.472  0.8376  0.3808  0.0022
 6842SOL     OW31984   2.112   3.860  14.346  0.0639 -0.0160 -0.3574
 6842SOL    HW131985   2.160   3.801  14.289  0.0315 -2.1995  1.8646
 6842SOL    HW231986   2.121   3.942  14.297  1.2498  0.7948  1.2028
 6843SOL     OW31987   2.342   4.074   7.273 -0.0155 -0.0154 -0.6936
 6843SOL    HW131988   2.264   4.022   7.253 -1.4515  1.5974  0.7169
 6843SOL    HW231989   2.391   4.017   7.333  0.8310 -2.1809 -3.4863
 6844SOL     OW31990   4.667   1.866  11.217  0.4192  0.4440  0.3026
 6844SOL    HW131991   4.645   1.843  11.127 -0.2654 -0.1710  0.6326
 6844SOL    HW231992   4.596   1.929  11.229  0.0838  0.0470  0.4256
 6845SOL     OW31993   0.947   2.247   5.873 -0.2087  0.1836 -0.3097
 6845SOL    HW131994   0.868   2.302   5.871 -0.0135  0.5366  2.0653
 6845SOL    HW231995   0.925   2.189   5.800  0.4353  0.2250 -0.5331
 6846SOL     OW31996   3.868   2.713   8.485 -0.3049 -0.0404 -0.2095
 6846SOL    HW131997   3.830   2.758   8.560 -0.3354 -0.3001 -0.0693
 6846SOL    HW231998   3.895   2.787   8.430 -1.8567  1.8356  1.5430
 6847SOL     OW31999   2.238   0.013   4.065  0.1478  0.4044  0.3299
 6847SOL    HW132000   2.216   0.065   4.142 -2.5832 -0.2347 -0.0251
 6847SOL    HW232001   2.159   0.001   4.012 -0.2063 -0.2384  1.0036
 6848SOL     OW32002   1.337   2.086   2.610 -0.5520 -0.4048  0.4072
 6848SOL    HW132003   1.252   2.053   2.581 -1.1389  0.0493  1.5903
 6848SOL    HW232004   1.326   2.170   2.565  0.4504 -1.0805 -1.0872
 6849SOL     OW32005   0.068   3.758  10.073 -0.4158  0.9355  0.6215
 6849SOL    HW132006   4.705   3.801  10.094 -2.0362 -0.1419 -3.5736
 6849SOL    HW232007   0.046   3.665  10.071 -0.8067  1.0216  1.0881
 6850SOL     OW32008   3.748   0.787   0.197 -0.1315  0.1802  0.0720
 6850SOL    HW132009   3.807   0.854   0.161 -1.1020  1.9553  1.8363
 6850SOL    HW232010   3.793   0.765   0.279 -3.1471 -1.0900  1.3887
 6851SOL     OW32011   1.480   4.112   5.917 -0.1391 -0.3697  0.2582
 6851SOL    HW132012   1.386   4.130   5.923  0.0773 -0.3143  3.6611
 6851SOL    HW232013   1.471   4.016   5.919  0.4342 -0.4361 -0.4098
 6852SOL     OW32014   3.447   2.636   0.298 -0.6670 -0.2624  0.6058
 6852SOL    HW132015   3.478   2.615   0.386  1.7964  0.6427 -0.0391
 6852SOL    HW232016   3.521   2.673   0.249  0.9692 -3.7627  0.4878
 6853SOL     OW32017   3.214   2.451   6.671  0.2445  0.5964 -0.5260
 6853SOL    HW132018   3.277   2.504   6.623  1.2351  0.7012  0.8707
 6853SOL    HW232019   3.207   2.507   6.748 -1.9140  0.7971 -0.8752
 6854SOL     OW32020   2.658   0.867   7.971  0.1559  0.6418 -0.2207
 6854SOL    HW132021   2.659   0.836   8.061  0.6313 -1.4409 -0.9612
 6854SOL    HW232022   2.752   0.866   7.957  0.0976 -0.0844 -0.5328
 6855SOL     OW32023   4.483   2.405   1.658  0.9287 -0.3451 -0.0679
 6855SOL    HW132024   4.399   2.444   1.682  1.5128  0.9694 -0.2085
 6855SOL    HW232025   4.531   2.449   1.728 -0.1458 -0.6637  0.8752
 6856SOL     OW32026   2.568   0.095   6.300 -0.1008 -0.2531  0.2956
 6856SOL    HW132027   2.501   0.028   6.305 -0.1920 -0.1362  0.6130
 6856SOL    HW232028   2.639   0.050   6.347 -0.7863 -0.2312  1.3532
 6857SOL     OW32029   0.525   2.508   4.961 -0.3666 -0.0786 -0.5255
 6857SOL    HW132030   0.540   2.595   4.997 -0.4344 -0.3233  0.0960
 6857SOL    HW232031   0.494   2.529   4.873 -1.8201  1.2120  0.2947
 6858SOL     OW32032   1.211   3.649   4.776 -0.1652  0.6157 -0.3792
 6858SOL    HW132033   1.262   3.730   4.784  0.9973 -0.1319 -0.2267
 6858SOL    HW232034   1.193   3.624   4.867 -1.8520 -1.3011 -1.2694
 6859SOL     OW32035   0.345   1.946   7.514 -0.3299  0.1971  0.4534
 6859SOL    HW132036   0.355   1.856   7.545 -1.3568  0.6248  2.0171
 6859SOL    HW232037   0.327   1.989   7.597 -1.3625  1.3646 -0.3853
 6860SOL     OW32038   0.207   2.378   3.689  0.4155 -0.5205 -0.1292
 6860SOL    HW132039   0.114   2.394   3.697  0.1614 -1.8054 -0.4716
 6860SOL    HW232040   0.224   2.320   3.615 -0.5405 -0.1383 -0.6502
 6861SOL     OW32041   3.858   2.144   2.195 -0.3290  0.3212 -0.1094
 6861SOL    HW132042   3.901   2.154   2.110 -2.2979 -0.0256 -1.1677
 6861SOL    HW232043   3.931   2.140   2.256 -1.3711  0.4175  1.1620
 6862SOL     OW32044   0.566   1.653  15.430 -0.2986 -0.1956 -0.9605
 6862SOL    HW132045   0.551   1.559  15.437  0.1311 -0.2829 -1.2589
 6862SOL    HW232046   0.661   1.662  15.437 -0.6364  3.9098 -1.5396
 6863SOL     OW32047   1.393   1.218   8.898  0.1926 -0.9207 -0.1331
 6863SOL    HW132048   1.403   1.132   8.940  0.4759 -0.1610  1.3466
 6863SOL    HW232049   1.402   1.199   8.804 -1.2762  0.2512 -0.4983
 6864SOL     OW32050   3.901   0.167   7.957  0.4002 -0.2692 -0.0969
 6864SOL    HW132051   3.836   0.229   7.925  0.3390 -0.5276 -0.4848
 6864SOL    HW232052   3.922   0.220   8.033 -2.6869 -0.1233  0.6684
 6865SOL     OW32053   0.815   2.198   6.806 -0.3433  0.3175 -0.8747
 6865SOL    HW132054   0.813   2.250   6.726  0.2727  2.0339  0.2351
 6865SOL    HW232055   0.908   2.177   6.813 -0.5975 -0.5203  0.1309
 6866SOL     OW32056   0.360   3.082  12.659 -0.3490 -0.3179  0.1424
 6866SOL    HW132057   0.398   3.039  12.583 -0.5747  1.7692 -1.1550
 6866SOL    HW232058   0.382   3.172  12.637  0.7677 -0.4435  0.7191
 6867SOL     OW32059   0.946   1.876   6.731 -0.6527  0.1079 -0.7387
 6867SOL    HW132060   0.897   1.901   6.654 -0.6650 -2.1610 -1.4468
 6867SOL    HW232061   0.987   1.796   6.700 -0.2324 -0.0050  0.0987
 6868SOL     OW32062   3.156   3.716   6.066 -0.1272  0.0614  0.2596
 6868SOL    HW132063   3.203   3.765   5.999 -1.1656 -0.2436 -0.7071
 6868SOL    HW232064   3.160   3.770   6.145  1.2153  0.6899 -0.2465
 6869SOL     OW32065   2.867   1.865   8.118 -0.4290  0.6152  0.3643
 6869SOL    HW132066   2.903   1.859   8.030  1.2832 -1.9800  1.2554
 6869SOL    HW232067   2.869   1.772   8.138  1.2575  0.5391 -0.1296
 6870SOL     OW32068   3.027   2.662   3.134  0.1261 -0.9231  0.6482
 6870SOL    HW132069   2.933   2.644   3.139 -0.4806  1.2321 -3.1926
 6870SOL    HW232070   3.047   2.607   3.210 -2.4980 -1.8541  0.6535
 6871SOL     OW32071   0.251   3.341   4.522  0.3003  0.6568  0.2549
 6871SOL    HW132072   0.269   3.255   4.559 -0.1107  0.5149  0.1332
 6871SOL    HW232073   0.157   3.346   4.541  0.3450 -4.4019  1.8834
 6872SOL     OW32074   1.129   3.979  10.618 -0.3630 -0.5573 -0.4994
 6872SOL    HW132075   1.097   4.004  10.705 -0.3795 -1.5323 -0.2178
 6872SOL    HW232076   1.154   4.066  10.587  1.4414 -1.1662 -0.7381
 6873SOL     OW32077   2.093   3.258   6.078 -0.0898 -0.4646 -0.3908
 6873SOL    HW132078   2.149   3.251   6.001 -1.1380 -2.7022 -0.9299
 6873SOL    HW232079   2.158   3.213   6.133  0.1041  1.3342  0.8756
 6874SOL     OW32080   1.386   4.027  13.759 -0.1065 -0.0625 -0.2037
 6874SOL    HW132081   1.299   3.990  13.774  0.7726 -1.5420  1.2344
 6874SOL    HW232082   1.454   3.963  13.782  0.1738 -0.0937 -1.1121
 6875SOL     OW32083   3.646   4.331   0.618  0.7703  0.3340  0.2868
 6875SOL    HW132084   3.687   4.409   0.654  1.5633 -0.5309  1.2599
 6875SOL    HW232085   3.712   4.262   0.633  2.5672  1.3362 -2.9282
 6876SOL     OW32086   3.946   2.156   1.243 -0.0556 -0.3385 -0.4957
 6876SOL    HW132087   3.890   2.174   1.167 -2.4277 -0.9891  1.1083
 6876SOL    HW232088   4.008   2.087   1.218 -0.9720 -1.5931  0.6822
 6877SOL     OW32089   4.452   1.627   3.493 -0.2121  0.1665  0.4875
 6877SOL    HW132090   4.358   1.640   3.503 -0.4198 -0.0438 -1.0971
 6877SOL    HW232091   4.482   1.599   3.579  1.3538  0.8574  0.1604
 6878SOL     OW32092   0.058   3.476   8.667  0.0815  0.2081 -0.7389
 6878SOL    HW132093   0.094   3.427   8.593  2.6156  0.6454  0.1979
 6878SOL    HW232094   4.695   3.431   8.684  2.0771 -2.4978  1.6698
 6879SOL     OW32095   0.814   2.365   7.104 -0.1779  0.0024 -0.4008
 6879SOL    HW132096   0.842   2.277   7.130  0.9530  0.0371 -1.4837
 6879SOL    HW232097   0.854   2.423   7.168  0.2401  0.0739 -0.7235
 6880SOL     OW32098   0.297   0.411   2.850 -0.2388  0.0444 -0.6836
 6880SOL    HW132099   0.286   0.506   2.844  0.4345  0.2443  1.1664
 6880SOL    HW232100   0.357   0.406   2.925  0.6206  0.1385 -1.3547
 6881SOL     OW32101   0.018   2.925   1.360 -0.0062 -0.1514 -0.6129
 6881SOL    HW132102   0.009   3.017   1.386  1.0914 -0.0787 -0.4478
 6881SOL    HW232103   0.084   2.942   1.292 -1.4708  0.3050 -1.9032
 6882SOL     OW32104   2.474   0.972   8.468  0.0274  0.1715 -0.3699
 6882SOL    HW132105   2.535   1.045   8.478  0.8333 -0.9413  2.6637
 6882SOL    HW232106   2.513   0.899   8.516  4.1109  1.0496 -2.3060
 6883SOL     OW32107   4.684   2.995  12.022  0.0545  0.4293 -0.6642
 6883SOL    HW132108   0.029   3.066  12.023 -0.8387  1.2547 -2.0798
 6883SOL    HW232109   4.658   3.004  12.114  1.4179 -2.1473 -0.0156
 6884SOL     OW32110   3.022   3.535   9.695  0.7194 -0.2555 -0.3598
 6884SOL    HW132111   3.065   3.595   9.756  0.2978  0.2541 -0.5616
 6884SOL    HW232112   2.961   3.588   9.644 -0.2011  0.1469  1.1567
 6885SOL     OW32113   3.841   3.289   2.307  0.2469 -0.2080  0.3409
 6885SOL    HW132114   3.757   3.315   2.269  0.2283 -2.1686 -0.9494
 6885SOL    HW232115   3.824   3.219   2.369 -0.9515  0.9607  1.3360
 6886SOL     OW32116   4.270   3.361   4.990 -0.9827  0.2272  0.0225
 6886SOL    HW132117   4.344   3.419   5.011  0.5203 -0.7882 -2.5147
 6886SOL    HW232118   4.222   3.411   4.924 -3.9418  0.0146  2.0430
 6887SOL     OW32119   3.438   2.319   9.386  0.3421 -0.3094  0.3947
 6887SOL    HW132120   3.400   2.404   9.407  2.9529  0.6328  1.3212
 6887SOL    HW232121   3.368   2.256   9.406 -0.1686 -0.1064 -0.7256
 6888SOL     OW32122   3.819   2.975  10.820 -0.7771  0.0712 -0.0855
 6888SOL    HW132123   3.861   2.895  10.852  0.8966  0.8815 -0.2325
 6888SOL    HW232124   3.863   2.996  10.738 -0.4083 -2.2720 -0.4845
 6889SOL     OW32125   0.616   2.907   1.217 -0.1294 -0.1718 -0.3333
 6889SOL    HW132126   0.691   2.864   1.259  0.4132  2.3579  1.2903
 6889SOL    HW232127   0.646   2.904   1.126  0.3607  0.4722 -0.1882
 6890SOL     OW32128   1.345   4.687   3.678  0.5766  0.2105 -0.0396
 6890SOL    HW132129   1.335   0.058   3.709 -1.9845 -0.4461  1.1408
 6890SOL    HW232130   1.436   4.682   3.650 -0.4757 -0.3997 -3.3582
 6891SOL     OW32131   2.831   2.841   9.451 -0.7009 -0.5074  0.3043
 6891SOL    HW132132   2.748   2.808   9.416 -0.7566  0.1522 -0.1757
 6891SOL    HW232133   2.862   2.914   9.397 -0.8829 -0.9845 -0.4471
 6892SOL     OW32134   2.133   2.437   6.594 -0.5728  0.1831 -0.4768
 6892SOL    HW132135   2.100   2.471   6.677  1.3671 -1.5142  0.9928
 6892SOL    HW232136   2.163   2.349   6.617 -2.7929 -0.8863 -1.6080
 6893SOL     OW32137   0.630   0.343  11.216 -0.2260  0.0247 -0.3201
 6893SOL    HW132138   0.594   0.383  11.137 -0.2317  0.4083 -0.1229
 6893SOL    HW232139   0.722   0.323  11.198 -0.0806 -1.4732  2.0967
 6894SOL     OW32140   1.813   2.217   2.421 -0.1828  0.0211  0.5842
 6894SOL    HW132141   1.728   2.226   2.464 -1.4121  0.2432 -1.8821
 6894SOL    HW232142   1.849   2.305   2.408 -0.8471  0.3381  0.8524
 6895SOL     OW32143   3.464   0.522  17.645  0.2434 -0.1056  0.0301
 6895SOL    HW132144   3.469   0.614  17.669  0.1379  0.5986 -2.6641
 6895SOL    HW232145   3.418   0.496   0.044  1.9533  1.0384  1.4029
 6896SOL     OW32146   0.450   3.103   2.415 -0.6894  0.5116 -0.9033
 6896SOL    HW132147   0.482   3.161   2.485  0.1058  0.6816 -1.4024
 6896SOL    HW232148   0.524   3.046   2.393 -0.3361  1.3757 -1.9498
 6897SOL     OW32149   2.228   3.214  12.067  0.5784 -0.5239  0.1673
 6897SOL    HW132150   2.295   3.153  12.035  0.8404  0.4035 -1.0684
 6897SOL    HW232151   2.198   3.263  11.991  1.7313 -0.0086  0.0400
 6898SOL     OW32152   3.007   2.983   6.108 -0.2878  0.3175  0.1878
 6898SOL    HW132153   2.967   2.991   6.194 -1.8473  0.5231 -0.5423
 6898SOL    HW232154   3.061   2.906   6.125 -3.3515 -1.6155  1.2009
 6899SOL     OW32155   4.479   3.306   9.173  0.2647  0.3189 -0.1322
 6899SOL    HW132156   4.398   3.358   9.177  0.1055 -0.1442  2.5282
 6899SOL    HW232157   4.543   3.376   9.163  1.4090 -0.4142  2.3348
 6900SOL     OW32158   2.653   0.510  12.438 -0.1538  0.0162 -0.3996
 6900SOL    HW132159   2.745   0.508  12.412  0.4974  2.2139  1.6835
 6900SOL    HW232160   2.658   0.443  12.506  1.1797  1.0538  0.5087
 6901SOL     OW32161   4.485   1.507   7.104  0.4206  0.2673  0.2538
 6901SOL    HW132162   4.501   1.543   7.191  1.6286  0.7876 -0.1794
 6901SOL    HW232163   4.575   1.510   7.070 -0.1781 -0.4939 -1.4017
 6902SOL     OW32164   3.590   4.347  12.986  0.0636 -0.3223  0.4600
 6902SOL    HW132165   3.575   4.301  13.068 -2.2735  1.7725  1.2110
 6902SOL    HW232166   3.503   4.333  12.948  0.4451 -0.0270 -0.5412
 6903SOL     OW32167   3.737   0.220   2.020  0.3167 -0.6849  0.1641
 6903SOL    HW132168   3.680   0.177   1.956  0.0245  0.2886 -0.2280
 6903SOL    HW232169   3.787   0.278   1.963 -0.7243  0.5175  0.4811
 6904SOL     OW32170   2.318   1.445   2.443 -0.1959 -0.1624 -0.5815
 6904SOL    HW132171   2.291   1.361   2.404 -0.3976 -0.9040  1.1593
 6904SOL    HW232172   2.402   1.423   2.482 -1.1819 -0.5343  1.3230
 6905SOL     OW32173   3.798   4.203   8.726  0.3702  0.7371 -0.1117
 6905SOL    HW132174   3.702   4.205   8.725  0.4149  1.8858 -3.5467
 6905SOL    HW232175   3.812   4.293   8.698 -1.8078  0.6403 -1.5105
 6906SOL     OW32176   4.141   3.391   0.980  0.5544 -0.1175 -0.7119
 6906SOL    HW132177   4.192   3.366   1.058  2.7846  1.2956 -1.7403
 6906SOL    HW232178   4.086   3.315   0.960 -1.7008  1.6398 -1.1338
 6907SOL     OW32179   2.335   2.986   5.563  0.1089 -0.4873 -0.0174
 6907SOL    HW132180   2.306   3.057   5.506 -0.9086 -1.0052 -0.1391
 6907SOL    HW232181   2.412   3.021   5.607  0.5098  2.9362 -3.4683
 6908SOL     OW32182   0.308   0.678   7.124  0.6245 -0.4435 -0.4633
 6908SOL    HW132183   0.222   0.674   7.166  0.3765 -1.3897 -1.0687
 6908SOL    HW232184   0.330   0.766   7.154 -0.1847 -0.0969 -0.8868
 6909SOL     OW32185   3.617   4.699   0.356  0.1727 -0.3749 -0.0720
 6909SOL    HW132186   3.636   0.052   0.297 -1.2192  1.0815  1.2818
 6909SOL    HW232187   3.560   4.646   0.300 -0.9676  1.8471 -1.0199
 6910SOL     OW32188   0.774   4.579   6.352 -0.0849  0.1412 -0.2474
 6910SOL    HW132189   0.868   4.583   6.370 -0.0157  0.2739 -0.6428
 6910SOL    HW232190   0.784   4.560   6.259 -0.9654 -0.6670 -0.1731
 6911SOL     OW32191   1.169   4.224   7.236 -0.4228 -0.3452  0.1686
 6911SOL    HW132192   1.092   4.168   7.234  0.7355 -1.9297 -0.7409
 6911SOL    HW232193   1.190   4.234   7.143 -0.4120  0.0515  0.2154
 6912SOL     OW32194   1.861   4.532   2.281  0.1920  0.1070 -0.2884
 6912SOL    HW132195   1.821   4.510   2.365 -1.0543  2.0808 -0.3539
 6912SOL    HW232196   1.822   4.458   2.235 -0.3495  0.9420 -1.1709
 6913SOL     OW32197   3.967   0.204   8.609 -0.3558  0.3505  0.0652
 6913SOL    HW132198   3.962   0.150   8.531  1.0594  0.1449  0.1215
 6913SOL    HW232199   3.892   0.262   8.597 -0.3859 -0.3375 -3.0528
 6914SOL     OW32200   3.381   4.521   7.888  0.3666  0.3793 -0.3454
 6914SOL    HW132201   3.415   4.495   7.803 -1.1599 -1.1717 -0.4837
 6914SOL    HW232202   3.289   4.501   7.867 -0.6640  1.7287  2.8661
 6915SOL     OW32203   3.271   4.526  10.873 -0.1955  0.3469 -0.1889
 6915SOL    HW132204   3.337   4.574  10.824 -0.4902 -0.6679 -1.5869
 6915SOL    HW232205   3.197   4.507  10.816 -2.0852 -0.6788  2.5902
 6916SOL     OW32206   0.348   0.038   5.155  0.3793  0.4910 -0.2332
 6916SOL    HW132207   0.400   4.692   5.200  1.3946  0.0102 -2.0833
 6916SOL    HW232208   0.406   0.114   5.141  1.3968  0.0992  1.8913
 6917SOL     OW32209   4.103   4.551  13.568 -0.2738  0.9683 -0.4537
 6917SOL    HW132210   4.159   4.628  13.575 -1.0967  1.5121  0.0793
 6917SOL    HW232211   4.023   4.580  13.611  0.1900  0.9088  0.4520
 6918SOL     OW32212   0.614   3.047   6.265 -0.1356  0.0979  0.4041
 6918SOL    HW132213   0.585   2.968   6.310  1.0012 -2.1343 -2.8197
 6918SOL    HW232214   0.677   3.008   6.205  0.8820  0.1798  1.4008
 6919SOL     OW32215   1.566   1.292   1.345  0.4827  0.0250 -0.1762
 6919SOL    HW132216   1.641   1.350   1.326  0.9107 -0.9835 -1.5165
 6919SOL    HW232217   1.610   1.207   1.339 -0.3141 -0.5178  1.4911
 6920SOL     OW32218   0.199   3.347  11.510  0.3565  0.4789  0.3815
 6920SOL    HW132219   0.180   3.303  11.593  2.5027 -0.9977  0.0824
 6920SOL    HW232220   0.197   3.270  11.454  0.2981  0.1949  0.7752
 6921SOL     OW32221   4.235   0.792  12.250 -0.2435 -0.2129 -0.5416
 6921SOL    HW132222   4.175   0.813  12.178 -2.2259 -0.2362  1.1076
 6921SOL    HW232223   4.242   0.882  12.282 -0.1620 -0.4852  0.1954
 6922SOL     OW32224   3.537   0.314  15.193  0.3105  0.1565  0.2580
 6922SOL    HW132225   3.572   0.250  15.131 -0.8782  0.2866 -0.5421
 6922SOL    HW232226   3.617   0.366  15.198  0.1375  0.3990  0.5091
 6923SOL     OW32227   4.632   4.560   2.076 -0.1020 -0.1929 -0.6341
 6923SOL    HW132228   4.549   4.607   2.068  1.8444  3.1127 -1.2346
 6923SOL    HW232229   4.607   4.475   2.113  2.3276 -0.0039  1.4761
 6924SOL     OW32230   3.883   1.005  10.288 -0.5147  0.1884  0.6011
 6924SOL    HW132231   3.864   1.090  10.248  1.6621  0.2322 -0.3171
 6924SOL    HW232232   3.897   0.956  10.207  0.9253  0.0873  0.9241
 6925SOL     OW32233   3.020   1.135   6.583 -0.0439  0.4812 -0.4006
 6925SOL    HW132234   3.110   1.165   6.571 -0.3816  1.5860 -0.0757
 6925SOL    HW232235   3.016   1.051   6.536  2.1827 -0.7829  1.6370
 6926SOL     OW32236   4.394   4.358  11.110  0.1105 -0.5766  0.5017
 6926SOL    HW132237   4.413   4.438  11.159  0.6728 -0.4052  0.0100
 6926SOL    HW232238   4.314   4.337  11.159  0.6504  0.0400  1.6531
 6927SOL     OW32239   2.788   0.478   1.990  0.9399  0.2709  0.3663
 6927SOL    HW132240   2.761   0.459   2.080  0.1005  0.6840  0.1996
 6927SOL    HW232241   2.706   0.447   1.951  0.0215  0.7040  1.9304
 6928SOL     OW32242   3.015   0.663   7.451 -0.0893 -0.2920  0.0765
 6928SOL    HW132243   2.983   0.597   7.512  4.2204 -0.9939  1.5549
 6928SOL    HW232244   2.950   0.729   7.478  0.8726 -0.2245  2.2351
 6929SOL     OW32245   0.646   2.752   4.610  0.1552  0.4888 -0.2572
 6929SOL    HW132246   0.650   2.708   4.526 -0.5161 -0.8982  0.4332
 6929SOL    HW232247   0.721   2.716   4.657 -0.6184  0.5742  1.0577
 6930SOL     OW32248   2.264   3.926   3.549 -0.8638 -0.0631 -0.0018
 6930SOL    HW132249   2.328   3.894   3.485 -0.9322  0.5351 -0.3634
 6930SOL    HW232250   2.315   3.923   3.630  0.1022  3.0588 -0.5228
 6931SOL     OW32251   4.455   2.900  14.677 -0.0493 -0.6136  0.4361
 6931SOL    HW132252   4.394   2.859  14.616  1.3737 -0.5212 -1.0277
 6931SOL    HW232253   4.461   2.829  14.741 -1.3854 -0.3070  0.9010
 6932SOL     OW32254   1.016   4.590   7.255 -0.0375 -0.3802 -0.1073
 6932SOL    HW132255   0.994   4.510   7.302 -2.2466  0.9930  1.1948
 6932SOL    HW232256   0.964   4.655   7.302  1.1472 -0.2980  1.0840
 6933SOL     OW32257   1.549   4.417   7.958  0.1020 -0.0708  0.4826
 6933SOL    HW132258   1.575   4.440   8.047  0.2483  0.0388  0.4105
 6933SOL    HW232259   1.576   4.486   7.898 -1.6957  1.3316  1.2801
 6934SOL     OW32260   0.618   1.396   8.637  0.2663  0.4026 -0.1262
 6934SOL    HW132261   0.588   1.413   8.726 -1.4090 -1.2934 -0.3594
 6934SOL    HW232262   0.539   1.392   8.584 -1.3313 -1.3274  2.3586
 6935SOL     OW32263   0.709   1.830   2.198  0.6193 -0.7545 -0.1436
 6935SOL    HW132264   0.795   1.872   2.186 -0.1667  1.6139  2.4945
 6935SOL    HW232265   0.710   1.761   2.131 -1.5464 -0.6397 -0.2777
 6936SOL     OW32266   1.035   0.484   6.457  0.5034 -0.1688  0.8182
 6936SOL    HW132267   1.068   0.572   6.471  0.0913 -0.2128  2.0306
 6936SOL    HW232268   1.095   0.443   6.395 -0.7486 -0.6913 -0.0683
 6937SOL     OW32269   3.275   3.100  10.655  0.0554  0.2188 -0.0806
 6937SOL    HW132270   3.323   3.136  10.580  1.9006  0.6274  1.2766
 6937SOL    HW232271   3.200   3.158  10.665 -1.0790 -1.2653 -0.0308
 6938SOL     OW32272   1.536   2.355   4.928 -0.6969  0.4470  0.2318
 6938SOL    HW132273   1.540   2.390   4.839 -0.1265  0.3891  0.2343
 6938SOL    HW232274   1.449   2.389   4.951 -1.3700 -1.1380  0.0016
 6939SOL     OW32275   0.794   4.274   2.967 -0.2494 -0.2185 -0.5978
 6939SOL    HW132276   0.798   4.323   3.050 -1.9057 -0.5309 -0.3233
 6939SOL    HW232277   0.719   4.323   2.933 -0.5526 -1.2699 -1.4410
 6940SOL     OW32278   3.809   2.471   5.374 -0.6032  0.2763  0.6894
 6940SOL    HW132279   3.774   2.382   5.376  1.8663 -0.7751 -1.9261
 6940SOL    HW232280   3.900   2.468   5.403 -0.1203  1.5215 -0.6484
 6941SOL     OW32281   1.203   1.836   5.035 -0.4802  0.5784  0.0916
 6941SOL    HW132282   1.146   1.888   4.979 -1.6903  1.6776  2.3768
 6941SOL    HW232283   1.213   1.767   4.969 -2.4938 -0.2223  0.6273
 6942SOL     OW32284   0.188   2.883   6.370 -0.9191 -0.2450  0.0100
 6942SOL    HW132285   0.203   2.973   6.402 -1.6021 -0.0239 -0.3001
 6942SOL    HW232286   0.179   2.834   6.451  0.3261 -0.1522  0.2141
 6943SOL     OW32287   2.633   0.647   2.238 -0.4597 -0.5611 -0.2801
 6943SOL    HW132288   2.610   0.678   2.326 -0.2746 -1.8832  0.2320
 6943SOL    HW232289   2.608   0.555   2.247 -1.1475 -0.1364  2.3492
 6944SOL     OW32290   2.275   3.656   5.556  0.4085  0.9027 -0.4632
 6944SOL    HW132291   2.231   3.697   5.481 -1.9919 -0.5063  0.1700
 6944SOL    HW232292   2.229   3.703   5.626  1.1917  0.3730  0.4005
 6945SOL     OW32293   0.250   2.487  12.923  0.3367  0.3419 -0.1067
 6945SOL    HW132294   0.214   2.575  12.916 -1.2761 -0.3568 -0.4267
 6945SOL    HW232295   0.228   2.456  12.835 -4.1641  0.8682  0.8445
 6946SOL     OW32296   0.798   2.548  11.654 -0.2558  0.3732 -0.4115
 6946SOL    HW132297   0.839   2.542  11.740  0.7851  1.3208 -0.8351
 6946SOL    HW232298   0.875   2.549  11.596  1.4982 -0.0337  1.9287
 6947SOL     OW32299   1.808   0.002   7.548  1.0394 -0.1218  0.2906
 6947SOL    HW132300   1.775   0.061   7.480 -0.7690 -2.7882 -1.1125
 6947SOL    HW232301   1.740   4.655   7.555  3.2812 -2.4563 -0.1732
 6948SOL     OW32302   3.148   3.223  15.657  0.6941  0.2153 -0.0192
 6948SOL    HW132303   3.068   3.226  15.709  0.2985 -0.0930 -0.6112
 6948SOL    HW232304   3.175   3.131  15.664 -1.0868 -0.2108  1.1772
 6949SOL     OW32305   4.549   0.047  10.308 -0.4204  0.0769 -0.1526
 6949SOL    HW132306   4.626   4.718  10.337 -2.1542 -2.2123  0.6297
 6949SOL    HW232307   4.486   4.695  10.310  0.2139 -0.4920 -0.4961
 6950SOL     OW32308   0.771   2.054   3.353 -0.5788 -0.2961  0.5459
 6950SOL    HW132309   0.858   2.039   3.317 -1.4015 -0.5935 -1.2823
 6950SOL    HW232310   0.750   2.134   3.306  3.2901  0.4803  0.1221
 6951SOL     OW32311   2.971   1.894   1.818 -0.3794  0.4123 -0.0533
 6951SOL    HW132312   2.897   1.916   1.873 -0.7691  1.2061 -0.8865
 6951SOL    HW232313   2.957   1.802   1.798  1.3870 -0.5599  3.2151
 6952SOL     OW32314   1.959   1.548   7.850  0.2294 -0.7033  0.3424
 6952SOL    HW132315   1.917   1.614   7.795 -1.0454 -0.4781  1.5981
 6952SOL    HW232316   2.028   1.603   7.889  0.3583 -1.1630  0.7608
 6953SOL     OW32317   3.133   3.074   9.921 -0.1025  0.1099  0.0910
 6953SOL    HW132318   3.052   3.024   9.931  0.0722 -0.4925 -1.5612
 6953SOL    HW232319   3.111   3.158   9.882 -1.8398  0.1124  1.0813
 6954SOL     OW32320   1.890   2.431  17.339 -0.5882 -0.0531 -0.2085
 6954SOL    HW132321   1.835   2.389  17.406 -0.1021  0.9466  0.7981
 6954SOL    HW232322   1.834   2.405  17.266 -1.6564  1.3052  0.1335
 6955SOL     OW32323   4.329   2.594  15.538  0.4811  0.1253 -0.1234
 6955SOL    HW132324   4.346   2.688  15.533 -0.9163  0.4614  1.5091
 6955SOL    HW232325   4.233   2.597  15.546  0.1465  0.9667 -4.5650
 6956SOL     OW32326   3.701   2.476  13.609 -0.7234  0.1348 -0.0206
 6956SOL    HW132327   3.636   2.499  13.543  1.1030  1.1225 -1.4713
 6956SOL    HW232328   3.754   2.419  13.553 -1.0085  2.5644 -2.7796
 6957SOL     OW32329   0.538   4.630   5.935  0.6072  0.2545 -0.6598
 6957SOL    HW132330   0.601   4.560   5.952 -1.1428 -1.2641 -0.4362
 6957SOL    HW232331   0.579   4.715   5.950  0.2329  0.3345 -0.1016
 6958SOL     OW32332   2.286   1.678   0.232 -0.2412 -0.1110 -0.3823
 6958SOL    HW132333   2.341   1.614   0.188  1.2497  0.7343  0.2753
 6958SOL    HW232334   2.226   1.623   0.282 -0.5565  0.3765 -0.2167
 6959SOL     OW32335   3.668   2.215   8.890  0.2903 -0.0309 -0.2792
 6959SOL    HW132336   3.680   2.127   8.855 -0.2800  0.7752 -2.5363
 6959SOL    HW232337   3.583   2.198   8.931 -0.0952  4.4743  0.7724
 6960SOL     OW32338   1.403   0.965   9.017  0.5370 -0.0929  0.0107
 6960SOL    HW132339   1.442   0.921   9.092  0.9733 -0.1498 -0.2522
 6960SOL    HW232340   1.315   0.990   9.047  0.4467  1.5381 -1.5984
 6961SOL     OW32341   0.186   2.893  11.757  0.1058  0.0496  0.8911
 6961SOL    HW132342   0.119   2.843  11.805  0.3081 -1.4839 -0.4607
 6961SOL    HW232343   0.133   2.907  11.678 -0.3362  2.0061  1.5183
 6962SOL     OW32344   4.622   1.709   2.518  0.3502 -0.5600  0.7776
 6962SOL    HW132345   4.699   1.656   2.540  1.0387  0.3302  0.5217
 6962SOL    HW232346   4.561   1.637   2.531  1.0641 -1.4154 -0.6001
 6963SOL     OW32347   1.600   3.854   7.600 -0.1803 -0.4911  0.7092
 6963SOL    HW132348   1.595   3.759   7.596  2.1771 -0.5354 -1.4095
 6963SOL    HW232349   1.529   3.878   7.541  0.1929  0.0142  0.4639
 6964SOL     OW32350   0.148   4.421   1.997  0.1250  0.2489 -0.7661
 6964SOL    HW132351   0.076   4.471   2.036 -0.1576  0.5523 -1.6850
 6964SOL    HW232352   0.213   4.477   2.040 -2.4824  2.0416  0.8468
 6965SOL     OW32353   3.822   0.633   8.840  0.1375  0.0480  0.6329
 6965SOL    HW132354   3.826   0.537   8.835 -0.7991 -0.0496  1.8684
 6965SOL    HW232355   3.803   0.656   8.749 -1.6116 -1.6410  0.5705
 6966SOL     OW32356   3.577   1.982   9.416  0.0646  0.0027  0.1379
 6966SOL    HW132357   3.487   1.993   9.448 -0.0994 -2.2690  0.4567
 6966SOL    HW232358   3.608   1.901   9.457 -0.1804 -1.4324 -2.5112
 6967SOL     OW32359   3.130   3.184   9.210 -0.1358 -0.2738  0.6731
 6967SOL    HW132360   3.150   3.120   9.141 -1.5315 -0.8638  0.8146
 6967SOL    HW232361   3.128   3.270   9.169 -2.6395 -1.6345 -2.0719
 6968SOL     OW32362   4.279   4.444  16.892 -0.2968 -0.2021  0.3511
 6968SOL    HW132363   4.197   4.422  16.848 -0.7726  2.9016 -0.2814
 6968SOL    HW232364   4.272   4.372  16.955  1.4485 -1.9416 -1.4986
 6969SOL     OW32365   0.013   3.602   5.645  0.1559 -0.0606  0.4459
 6969SOL    HW132366   4.701   3.664   5.579  3.0323  0.3707 -0.5455
 6969SOL    HW232367   0.085   3.570   5.589  0.1962  0.4697  0.1969
 6970SOL     OW32368   1.427   1.648   3.901 -0.1440  0.0093  0.5830
 6970SOL    HW132369   1.406   1.645   3.807  1.8343 -0.8391  0.1649
 6970SOL    HW232370   1.485   1.572   3.900  0.1014  0.2095 -0.4668
 6971SOL     OW32371   2.900   1.477  16.350  0.4470  0.1198  0.0268
 6971SOL    HW132372   2.943   1.522  16.422 -0.9070 -0.6124  1.2849
 6971SOL    HW232373   2.845   1.544  16.308 -0.5191 -0.5066  0.3026
 6972SOL     OW32374   1.528   2.981  11.759  0.5158 -0.6231  0.4157
 6972SOL    HW132375   1.559   2.903  11.804  0.8555  0.0646  1.3799
 6972SOL    HW232376   1.604   2.987  11.700 -0.7252  0.5023 -1.0645
 6973SOL     OW32377   3.202   2.516   0.379 -0.0746 -0.1954  0.6669
 6973SOL    HW132378   3.195   2.459   0.303  0.6747  0.3444  0.1958
 6973SOL    HW232379   3.279   2.567   0.354  1.0229 -2.5657 -0.7961
 6974SOL     OW32380   1.041   0.825   3.614 -0.1814  0.3865 -0.0327
 6974SOL    HW132381   1.094   0.748   3.593 -0.0030  0.2044  1.0856
 6974SOL    HW232382   1.047   0.865   3.527 -0.7587 -0.1314 -0.3060
 6975SOL     OW32383   2.570   4.325  12.145  0.4402 -0.1530  0.1994
 6975SOL    HW132384   2.489   4.300  12.188 -1.0498  2.6300 -0.9344
 6975SOL    HW232385   2.623   4.327  12.224  1.5170 -1.2911 -0.4949
 6976SOL     OW32386   2.363   0.434  12.794  0.3359 -0.2151 -0.0563
 6976SOL    HW132387   2.278   0.475  12.778  1.5253  1.9358 -0.9952
 6976SOL    HW232388   2.422   0.510  12.792 -0.5538  0.4688 -0.4456
 6977SOL     OW32389   2.717   2.719   7.713  0.3830  0.0846  0.0231
 6977SOL    HW132390   2.631   2.751   7.739  0.7236  1.1433 -0.1556
 6977SOL    HW232391   2.768   2.733   7.792  0.1236  3.0818 -0.3419
 6978SOL     OW32392   2.863   1.564   3.650 -0.2081  0.9065  0.1428
 6978SOL    HW132393   2.898   1.637   3.598  0.8518  0.8252  0.7417
 6978SOL    HW232394   2.881   1.599   3.737  0.1711  0.3328  0.2932
 6979SOL     OW32395   3.900   4.486   4.806  0.6667  0.0468  0.5588
 6979SOL    HW132396   3.882   4.403   4.761  0.4823  1.3053 -1.6645
 6979SOL    HW232397   3.927   4.534   4.728 -0.1891 -1.7343 -0.8248
 6980SOL     OW32398   3.312   1.945  16.038  0.1798 -0.1649 -0.6491
 6980SOL    HW132399   3.275   1.877  16.094  0.4489  0.8210  0.7317
 6980SOL    HW232400   3.342   2.012  16.099 -2.6417  2.6989 -2.3915
 6981SOL     OW32401   4.270   1.416   3.170 -0.2569 -0.0400  0.1696
 6981SOL    HW132402   4.330   1.468   3.223 -0.1317  0.7526 -0.7575
 6981SOL    HW232403   4.284   1.452   3.083  2.4095 -1.4932  0.0122
 6982SOL     OW32404   4.343   0.892   2.880 -0.2552 -0.2364  0.3017
 6982SOL    HW132405   4.252   0.862   2.884  0.1206 -1.4342 -0.1348
 6982SOL    HW232406   4.384   0.848   2.954  0.0634  1.2274  1.0048
 6983SOL     OW32407   2.967   0.000   2.214 -0.3321 -0.2850 -0.5721
 6983SOL    HW132408   3.054   0.034   2.236 -1.4498 -0.4179  4.0658
 6983SOL    HW232409   2.937   0.075   2.163  0.0190 -0.5786 -1.2045
 6984SOL     OW32410   3.509   0.355   2.784  0.3072 -0.0586  0.7360
 6984SOL    HW132411   3.467   0.400   2.711  1.9061  0.2776  0.0055
 6984SOL    HW232412   3.556   0.428   2.826  0.3919  0.4202 -0.1746
 6985SOL     OW32413   0.336   0.532  15.091  0.6427 -0.3466 -0.3229
 6985SOL    HW132414   0.278   0.606  15.107  0.3863 -0.5751 -0.1990
 6985SOL    HW232415   0.292   0.461  15.137 -1.1206  1.7250  1.2070
 6986SOL     OW32416   1.240   3.210   5.517 -0.3314  0.2376 -0.7005
 6986SOL    HW132417   1.201   3.131   5.478  0.9739 -1.0561  0.6009
 6986SOL    HW232418   1.335   3.198   5.517 -0.4637 -0.8821  1.2435
 6987SOL     OW32419   2.142   1.942   3.189 -0.5044 -0.5191 -0.4246
 6987SOL    HW132420   2.057   1.976   3.218  0.4309  3.5160 -2.4841
 6987SOL    HW232421   2.204   2.007   3.220 -0.3538 -0.4625 -0.8546
 6988SOL     OW32422   4.135   2.750   4.671 -0.4127  0.0280  0.6183
 6988SOL    HW132423   4.199   2.760   4.741  0.1755  1.3394 -0.1218
 6988SOL    HW232424   4.082   2.686   4.720 -1.5714  1.8828  1.8000
 6989SOL     OW32425   4.635   3.858   2.316  0.0492 -0.3480  0.5435
 6989SOL    HW132426   4.543   3.843   2.334 -0.5292  1.6207 -0.7171
 6989SOL    HW232427   4.643   3.783   2.257  1.8459 -0.1497  0.5204
 6990SOL     OW32428   1.230   0.200   0.961  0.0856  0.2830 -0.3473
 6990SOL    HW132429   1.151   0.250   0.979  0.3163  1.2450 -1.9686
 6990SOL    HW232430   1.188   0.134   0.906 -0.6959  0.5476 -0.0617
 6991SOL     OW32431   4.041   3.339   8.488 -0.4169  0.1012 -0.7443
 6991SOL    HW132432   4.114   3.311   8.433  1.1173  0.8437  0.8760
 6991SOL    HW232433   3.977   3.337   8.418 -0.0139  0.7142 -1.1311
 6992SOL     OW32434   1.384   0.787   5.571 -0.1769 -0.3890 -0.0083
 6992SOL    HW132435   1.429   0.868   5.548 -1.7381  0.9316  1.6218
 6992SOL    HW232436   1.459   0.731   5.592 -0.2860 -0.9462 -1.0806
 6993SOL     OW32437   4.538   0.232  15.657 -0.6124 -0.3086 -0.3353
 6993SOL    HW132438   4.525   0.302  15.721 -0.8666  0.7637 -1.5468
 6993SOL    HW232439   4.569   0.157  15.708 -0.8057 -1.5846 -2.1072
 6994SOL     OW32440   0.149   3.218  13.166  0.2312 -0.1667  0.5656
 6994SOL    HW132441   0.170   3.309  13.144 -0.1546  0.1122  1.3568
 6994SOL    HW232442   0.065   3.213  13.212 -0.0539  1.7326  0.2515
 6995SOL     OW32443   2.620   1.451   6.721  0.0391 -0.0005  0.1219
 6995SOL    HW132444   2.565   1.529   6.726 -0.8218 -0.5587 -0.8168
 6995SOL    HW232445   2.707   1.492   6.718  1.5671 -3.4055 -1.7969
 6996SOL     OW32446   1.610   1.462   5.616 -0.2683 -0.7124  0.2430
 6996SOL    HW132447   1.524   1.494   5.590  0.1234  0.9226  0.9851
 6996SOL    HW232448   1.647   1.421   5.537 -0.5069  0.9623 -0.7337
 6997SOL     OW32449   1.312   0.401  16.174  0.0119 -0.0151  0.3305
 6997SOL    HW132450   1.270   0.487  16.175 -0.8341 -0.4364  1.3510
 6997SOL    HW232451   1.366   0.413  16.252 -1.9058  2.2613  1.3104
 6998SOL     OW32452   3.622   0.958   6.235 -0.2735 -0.1266  0.3774
 6998SOL    HW132453   3.574   0.875   6.235  0.6897 -0.7089  2.7200
 6998SOL    HW232454   3.708   0.916   6.241  0.1964  0.7131 -0.6065
 6999SOL     OW32455   1.501   0.890  13.819  0.5550 -0.3548  0.0495
 6999SOL    HW132456   1.583   0.845  13.798  0.9517  0.3184  0.1453
 6999SOL    HW232457   1.536   0.977  13.840  2.7643 -1.1791 -0.1886
 7000SOL     OW32458   3.025   4.298  16.086 -0.4188  0.0011  0.7050
 7000SOL    HW132459   3.092   4.261  16.028 -0.6524 -0.2744  0.6114
 7000SOL    HW232460   2.966   4.224  16.096  0.6116 -0.7449  1.3094
 7001SOL     OW32461   4.561   2.747   1.749 -0.1410  0.1312 -0.1076
 7001SOL    HW132462   4.645   2.705   1.732 -0.2307 -0.2087  0.2761
 7001SOL    HW232463   4.584   2.786   1.834  1.4990 -1.2613  0.0888
 7002SOL     OW32464   0.327   0.165   7.066  0.2202  0.0492 -0.1533
 7002SOL    HW132465   0.353   0.185   7.156 -0.7494 -0.4115  0.2316
 7002SOL    HW232466   0.397   0.109   7.034  1.5379  0.9120  1.1787
 7003SOL     OW32467   4.484   2.942   2.443  0.0034 -0.6587  0.0413
 7003SOL    HW132468   4.483   2.860   2.394  1.2330 -1.9349  2.1952
 7003SOL    HW232469   4.515   2.900   2.522  0.1967  3.5482  2.2311
 7004SOL     OW32470   3.022   4.718   7.631  0.2183 -0.1087  0.3571
 7004SOL    HW132471   3.023   0.009   7.536 -0.2602  1.3575  0.5192
 7004SOL    HW232472   3.075   4.638   7.642 -0.6636 -0.7098  0.2072
 7005SOL     OW32473   2.803   3.729   8.598 -0.1059  0.5662 -0.7309
 7005SOL    HW132474   2.729   3.693   8.549  0.1080 -0.1525 -0.5271
 7005SOL    HW232475   2.805   3.819   8.567 -0.6244  0.5921 -0.6807
 7006SOL     OW32476   0.277   0.287   0.722  0.4452 -0.0055  0.1905
 7006SOL    HW132477   0.190   0.326   0.733  1.4160  1.7337  1.7346
 7006SOL    HW232478   0.299   0.292   0.816  0.2878 -0.5439  0.2577
 7007SOL     OW32479   1.888   3.521   4.072  0.1964  0.0003 -0.6245
 7007SOL    HW132480   1.867   3.534   4.164  2.1439  0.3421 -0.2157
 7007SOL    HW232481   1.970   3.571   4.063 -0.3054  1.1278  1.0636
 7008SOL     OW32482   4.069   0.707   1.371 -0.5865 -0.6217  0.1568
 7008SOL    HW132483   4.028   0.721   1.285  0.1298  4.3363  0.6097
 7008SOL    HW232484   4.094   0.616   1.357 -0.5109 -0.8622  1.8919
 7009SOL     OW32485   3.569   3.754   5.364  0.0317  0.6108  0.4859
 7009SOL    HW132486   3.579   3.669   5.408 -3.5032  1.6078  3.2414
 7009SOL    HW232487   3.536   3.814   5.431 -0.1464 -0.0291  0.9675
 7010SOL     OW32488   4.711   1.686   5.226  0.2119  0.1296 -0.2161
 7010SOL    HW132489   0.076   1.641   5.230 -0.1438 -0.5119  0.0268
 7010SOL    HW232490   4.675   1.652   5.307 -0.1652 -0.8592 -0.7994
 7011SOL     OW32491   0.181   3.977   3.798  0.5152  0.5384  0.1445
 7011SOL    HW132492   0.174   3.888   3.834 -0.9861  1.1542  1.3456
 7011SOL    HW232493   0.174   4.026   3.880 -0.4839  0.2527  0.2207
 7012SOL     OW32494   2.077   3.583  12.007  0.8656 -0.2436  0.5605
 7012SOL    HW132495   2.098   3.535  12.087 -0.6284  0.5939  1.4651
 7012SOL    HW232496   2.164   3.593  11.970  1.1583 -0.1457  1.2833
 7013SOL     OW32497   4.255   4.140   5.650 -0.4857  0.3315 -0.5386
 7013SOL    HW132498   4.253   4.060   5.703  0.7851 -1.2207 -2.8559
 7013SOL    HW232499   4.161   4.157   5.649 -0.1670  2.1837  0.8258
 7014SOL     OW32500   1.423   3.869   8.256 -0.5537 -0.4461  0.6416
 7014SOL    HW132501   1.391   3.928   8.324 -1.0332 -0.7061  0.6386
 7014SOL    HW232502   1.339   3.876   8.211  0.3783  1.1497 -0.8546
 7015SOL     OW32503   3.784   1.740  13.090 -0.2568 -0.2917 -0.3448
 7015SOL    HW132504   3.756   1.649  13.092 -0.6781 -0.1345  1.0801
 7015SOL    HW232505   3.862   1.737  13.145 -0.5853 -1.3562  0.0598
 7016SOL     OW32506   3.257   3.102   0.644  0.0237  0.6586 -0.5298
 7016SOL    HW132507   3.309   3.122   0.566 -0.5892  2.1634 -0.5632
 7016SOL    HW232508   3.169   3.103   0.607 -1.1929 -0.6270  2.3102
 7017SOL     OW32509   2.645   4.159   7.304 -0.4943 -0.1984  0.1594
 7017SOL    HW132510   2.552   4.168   7.283 -0.5006  0.6050  0.5354
 7017SOL    HW232511   2.669   4.246   7.335 -0.0087  0.4928 -2.1306
 7018SOL     OW32512   2.970   2.461  16.317  0.5170 -0.4287  0.1843
 7018SOL    HW132513   3.062   2.479  16.299  1.2027  0.4375  4.4357
 7018SOL    HW232514   2.942   2.472  16.227 -0.3172  2.9396  0.8711
 7019SOL     OW32515   3.903   1.908   5.805 -0.5074  0.4278 -0.5772
 7019SOL    HW132516   3.846   1.912   5.728 -0.7786  2.9880 -0.2334
 7019SOL    HW232517   3.840   1.872   5.867  0.5104 -1.9265 -0.8836
 7020SOL     OW32518   0.866   4.179   6.956  0.1697  0.3256 -0.1198
 7020SOL    HW132519   0.906   4.177   7.043 -1.9111  1.1279  0.8516
 7020SOL    HW232520   0.816   4.260   6.969 -0.9036 -0.5214  1.0028
 7021SOL     OW32521   3.130   0.269   9.265  0.2091  0.2992  0.6807
 7021SOL    HW132522   3.154   0.277   9.357  0.3086  0.8266  0.6080
 7021SOL    HW232523   3.091   0.351   9.232 -0.9714 -0.4009  0.3107
 7022SOL     OW32524   4.699   4.553   1.326 -0.5007 -0.7158  0.1369
 7022SOL    HW132525   0.058   4.529   1.277 -0.5308 -2.0370  0.7443
 7022SOL    HW232526   4.709   4.497   1.402  2.5075  0.4666  0.5995
 7023SOL     OW32527   0.425   1.165   5.090 -0.3184 -0.7277  0.0696
 7023SOL    HW132528   0.365   1.131   5.156 -0.6813 -0.0333  0.0945
 7023SOL    HW232529   0.415   1.260   5.091  0.7276 -0.6362  1.5712
 7024SOL     OW32530   2.955   0.671   6.516 -0.4944 -0.1163 -0.2615
 7024SOL    HW132531   3.007   0.739   6.474  1.6434 -1.3687  0.3377
 7024SOL    HW232532   2.870   0.667   6.473 -1.5098 -0.5467  1.7881
 7025SOL     OW32533   1.708   3.620   2.443  0.5634 -0.0242 -0.0560
 7025SOL    HW132534   1.669   3.536   2.418  0.0071  0.7713 -1.8770
 7025SOL    HW232535   1.791   3.592   2.482  1.3379  2.4622  0.0514
 7026SOL     OW32536   2.165   4.187   8.964  0.5951  0.6121  0.0025
 7026SOL    HW132537   2.105   4.254   8.931  0.9228  1.1165  0.4224
 7026SOL    HW232538   2.116   4.105   8.955  0.6808  0.5172  0.4067
 7027SOL     OW32539   3.058   2.491   2.336 -0.0676  0.1648 -0.1633
 7027SOL    HW132540   3.048   2.586   2.332 -0.1266  0.1342 -0.8390
 7027SOL    HW232541   2.986   2.471   2.395  3.5282  0.4829  4.3096
 7028SOL     OW32542   2.405   2.161  13.271 -0.2268  0.1645 -0.2548
 7028SOL    HW132543   2.434   2.155  13.180  1.0710  1.1861  0.0874
 7028SOL    HW232544   2.412   2.073  13.306 -0.2370 -0.4922 -1.8869
 7029SOL     OW32545   0.957   3.991   5.699  0.0929  0.5101  0.2592
 7029SOL    HW132546   1.035   4.033   5.734 -1.0036  0.1345  3.1221
 7029SOL    HW232547   0.930   4.061   5.638  0.6618  1.8300  1.5250
 7030SOL     OW32548   0.803   0.395   8.472  0.0269  0.5308  0.3863
 7030SOL    HW132549   0.818   0.411   8.565 -0.9155  2.3735  0.2122
 7030SOL    HW232550   0.758   0.476   8.447 -0.4923  0.4346  1.0277
 7031SOL     OW32551   3.503   1.023   2.876  0.3371 -0.2949  0.0608
 7031SOL    HW132552   3.464   0.995   2.793  3.7441 -0.7549 -1.4204
 7031SOL    HW232553   3.593   1.047   2.854 -0.0173  0.7222 -0.2885
 7032SOL     OW32554   2.352   3.499  17.259 -0.9776 -0.0274  0.0525
 7032SOL    HW132555   2.443   3.515  17.281  0.1093 -1.6447 -3.1960
 7032SOL    HW232556   2.312   3.517  17.344  0.5987  0.0949  0.7608
 7033SOL     OW32557   3.314   3.271   3.336 -0.0323 -0.2989  0.9117
 7033SOL    HW132558   3.403   3.275   3.371  0.9538 -0.3889 -1.6323
 7033SOL    HW232559   3.290   3.362   3.321 -1.0198 -0.1976  3.1054
 7034SOL     OW32560   1.475   1.034   5.562 -0.0508 -0.0341 -0.9326
 7034SOL    HW132561   1.502   1.081   5.483 -0.8929  3.7765  1.0616
 7034SOL    HW232562   1.454   1.105   5.623 -1.5730  1.4265 -3.1539
 7035SOL     OW32563   3.817   3.029   8.950 -0.0321 -0.0276 -0.7662
 7035SOL    HW132564   3.836   3.114   8.909  0.0293 -0.0490 -0.7819
 7035SOL    HW232565   3.806   3.061   9.040  0.0855  0.4571 -0.9224
 7036SOL     OW32566   2.445   0.884   0.430 -0.0515 -0.5563  0.6842
 7036SOL    HW132567   2.364   0.891   0.378  0.6550 -1.5550 -0.5334
 7036SOL    HW232568   2.433   0.792   0.452 -0.0245 -0.5223  0.8428
 7037SOL     OW32569   1.066   3.603   8.828  0.3149  0.3798  0.0175
 7037SOL    HW132570   0.993   3.574   8.882 -0.5104 -0.7696 -1.7086
 7037SOL    HW232571   1.117   3.523   8.818  1.4486  1.1975 -0.9059
 7038SOL     OW32572   2.287   1.648  15.477 -0.6674  0.3475  0.4466
 7038SOL    HW132573   2.330   1.599  15.547 -1.8740  0.5885  1.3717
 7038SOL    HW232574   2.319   1.589  15.409  1.2316  4.4672 -2.2031
 7039SOL     OW32575   2.554   0.759   7.727 -0.4399 -0.1532 -0.3916
 7039SOL    HW132576   2.564   0.665   7.714 -1.0345  0.1337 -2.9534
 7039SOL    HW232577   2.610   0.766   7.805 -0.4257  0.9186 -0.4906
 7040SOL     OW32578   1.388   2.825  15.858  0.3248 -0.2938 -0.1314
 7040SOL    HW132579   1.374   2.798  15.767  0.9714 -1.0372 -0.0122
 7040SOL    HW232580   1.336   2.760  15.905  0.3617 -0.0040  0.3064
 7041SOL     OW32581   0.056   0.385   8.459  0.4362  0.5470 -0.2156
 7041SOL    HW132582   0.084   0.399   8.549 -1.7271  1.8233  0.2416
 7041SOL    HW232583   0.084   0.297   8.435  0.4319 -0.5297  3.7432
 7042SOL     OW32584   2.416   3.781   4.700 -0.0031 -0.1912  0.3151
 7042SOL    HW132585   2.349   3.714   4.706  0.9903 -1.0852  1.4569
 7042SOL    HW232586   2.454   3.764   4.614 -0.1126 -0.8989  0.4100
 7043SOL     OW32587   1.417   3.621  14.008 -0.0896 -0.2136  0.1984
 7043SOL    HW132588   1.510   3.600  13.997  0.3572  0.7420  1.9806
 7043SOL    HW232589   1.422   3.642  14.102  2.3862 -2.1354  0.4933
 7044SOL     OW32590   2.186   2.258   5.199  0.0967 -0.1668 -0.2281
 7044SOL    HW132591   2.127   2.300   5.136 -0.4809 -1.3112 -0.4508
 7044SOL    HW232592   2.230   2.340   5.221 -0.6753 -0.1178  1.1262
 7045SOL     OW32593   2.003   2.008   2.399  0.3033 -0.0327 -0.0703
 7045SOL    HW132594   2.069   2.055   2.449  0.1363  0.4533 -0.3100
 7045SOL    HW232595   1.929   2.068   2.409  0.6039  0.1579  1.0263
 7046SOL     OW32596   3.839   4.353   3.959 -0.1608 -0.1592  0.1073
 7046SOL    HW132597   3.744   4.362   3.964 -0.1560  0.0880 -0.2567
 7046SOL    HW232598   3.857   4.398   3.876 -0.5667 -1.2990 -0.6022
 7047SOL     OW32599   0.933   2.776  12.709  0.0651  0.1033  0.6890
 7047SOL    HW132600   0.981   2.859  12.706  2.4059 -1.3671 -3.8266
 7047SOL    HW232601   0.848   2.801  12.745  0.4269 -0.0466  1.6543
 7048SOL     OW32602   0.350   4.577   2.898  0.0159 -0.5069 -0.2723
 7048SOL    HW132603   0.369   4.652   2.842  2.8796  1.1157  2.8804
 7048SOL    HW232604   0.286   4.524   2.851  1.0552  1.5584 -3.9580
 7049SOL     OW32605   4.710   0.869   4.492 -0.0244 -0.0818  0.1555
 7049SOL    HW132606   4.703   0.826   4.578 -0.4903  1.0334  0.6698
 7049SOL    HW232607   4.701   0.961   4.518  0.6929  0.0423 -0.0159
 7050SOL     OW32608   0.831   1.645   6.254 -0.2082  0.1838 -0.2547
 7050SOL    HW132609   0.849   1.569   6.200  0.6600  0.2233 -0.0219
 7050SOL    HW232610   0.804   1.710   6.188 -0.3996  0.0856 -0.2703
 7051SOL     OW32611   1.369   1.215  11.636 -0.3922 -0.3586  0.1960
 7051SOL    HW132612   1.431   1.151  11.600 -2.5362 -2.4078  0.1942
 7051SOL    HW232613   1.290   1.190  11.588 -0.5871 -2.0395  1.3811
 7052SOL     OW32614   4.577   1.565  13.644  0.1205 -0.0545 -0.2713
 7052SOL    HW132615   4.600   1.635  13.583 -0.8318 -0.3121 -0.9247
 7052SOL    HW232616   4.510   1.520  13.593  0.8145  0.1576 -1.3571
 7053SOL     OW32617   1.044   4.263   8.070 -0.0804 -0.7206 -0.3557
 7053SOL    HW132618   1.089   4.280   8.152 -0.2476  0.9256 -0.6080
 7053SOL    HW232619   1.073   4.344   8.027 -1.8074 -1.2290 -2.4907
 7054SOL     OW32620   2.263   1.063   7.507  0.0621  0.1484 -0.6064
 7054SOL    HW132621   2.320   1.132   7.473 -1.1968  0.4964 -2.0084
 7054SOL    HW232622   2.315   0.983   7.498 -0.6581 -0.5439  1.5216
 7055SOL     OW32623   2.422   0.208   6.528 -0.1220  0.3305 -0.0458
 7055SOL    HW132624   2.366   0.273   6.485 -0.2118  0.7268  0.6707
 7055SOL    HW232625   2.467   0.174   6.451  1.0309  1.8488 -0.0496
 7056SOL     OW32626   4.656   3.036   6.225  0.2919  0.0616  0.0547
 7056SOL    HW132627   4.702   3.119   6.235  0.8630 -0.2680  0.1357
 7056SOL    HW232628   4.692   3.016   6.139 -2.0323 -0.9047 -0.6844
 7057SOL     OW32629   4.094   1.197   7.777  0.2348 -0.3954  0.0136
 7057SOL    HW132630   4.168   1.137   7.770 -0.1041 -0.9750  1.4319
 7057SOL    HW232631   4.140   1.273   7.741 -1.6280  0.2077 -1.1115
 7058SOL     OW32632   0.461   0.867  12.917 -0.3113 -0.4750  0.2455
 7058SOL    HW132633   0.524   0.845  12.849  0.0503 -1.8771  1.0461
 7058SOL    HW232634   0.403   0.919  12.860  1.7097  0.2698 -1.1409
 7059SOL     OW32635   1.471   4.587  16.544 -0.1182  0.5806 -0.2602
 7059SOL    HW132636   1.448   4.499  16.514  2.9593 -0.2452 -0.2008
 7059SOL    HW232637   1.419   4.632  16.478 -1.1186 -0.4752 -0.2008
 7060SOL     OW32638   4.529   3.077   5.931 -0.1472 -0.1421 -0.4610
 7060SOL    HW132639   4.517   2.988   5.900 -0.3458 -0.3433  0.1960
 7060SOL    HW232640   4.624   3.087   5.921  0.0890 -0.9059  0.9393
 7061SOL     OW32641   0.215   0.389   8.669  0.0585 -0.5733 -0.6020
 7061SOL    HW132642   0.272   0.373   8.744 -0.2510  2.7240  0.3496
 7061SOL    HW232643   0.272   0.439   8.611  0.2332 -0.6829 -0.5229
 7062SOL     OW32644   1.889   0.467   4.641  0.6186 -0.3705  0.6675
 7062SOL    HW132645   1.933   0.429   4.716  1.7454 -0.1055  0.1460
 7062SOL    HW232646   1.897   0.560   4.663 -1.3794 -0.2227  0.8062
 7063SOL     OW32647   3.453   4.591  12.772 -0.0626 -0.1306  1.0532
 7063SOL    HW132648   3.404   4.635  12.704  0.1213 -0.8943  0.4240
 7063SOL    HW232649   3.533   4.565  12.725  0.3833  2.2637  0.5237
 7064SOL     OW32650   0.185   1.480   7.829  0.3792  0.2218  0.2034
 7064SOL    HW132651   0.098   1.465   7.792  0.3529  0.0658  0.3296
 7064SOL    HW232652   0.168   1.529   7.910  1.7218  1.7316 -0.4244
 7065SOL     OW32653   2.208   0.305  15.321  0.2370 -0.0030  0.3596
 7065SOL    HW132654   2.142   0.238  15.343  0.2417 -0.7125 -1.7960
 7065SOL    HW232655   2.286   0.254  15.301  1.3002  2.1529 -0.8723
 7066SOL     OW32656   1.263   0.722   3.817  0.2279 -0.5818  0.1063
 7066SOL    HW132657   1.271   0.676   3.901 -0.2528 -0.2987  0.3034
 7066SOL    HW232658   1.223   0.803   3.847  1.2583 -0.3181  0.7765
 7067SOL     OW32659   1.496   0.586  16.605 -0.2270 -0.1171 -0.1956
 7067SOL    HW132660   1.464   0.571  16.694 -1.2996 -0.7281 -0.6829
 7067SOL    HW232661   1.589   0.565  16.618 -0.4964 -1.1260  0.1265
 7068SOL     OW32662   2.732   4.195   9.557 -0.3130 -0.1222 -0.3762
 7068SOL    HW132663   2.817   4.220   9.593  0.8400 -1.4561 -2.1722
 7068SOL    HW232664   2.711   4.119   9.611  1.4059  0.0946  0.5936
 7069SOL     OW32665   3.358   0.908   4.395 -0.1123  0.3111  0.4494
 7069SOL    HW132666   3.368   0.997   4.361  1.3497  0.3479  0.9539
 7069SOL    HW232667   3.306   0.869   4.325  0.9263  0.2322 -0.2778
 7070SOL     OW32668   2.815   3.619   6.965  1.0898 -0.6625 -0.0991
 7070SOL    HW132669   2.782   3.581   6.884 -2.9793  0.6501  0.9273
 7070SOL    HW232670   2.786   3.708   6.949  0.9268 -0.5741  0.6823
 7071SOL     OW32671   4.565   3.993  13.890 -0.0955  0.4462 -0.5728
 7071SOL    HW132672   4.552   3.898  13.892  1.2871  0.2663  0.0725
 7071SOL    HW232673   4.502   4.020  13.957 -0.7786 -0.9298 -0.6718
 7072SOL     OW32674   3.190   3.309  13.939  0.2284 -0.3566 -0.9557
 7072SOL    HW132675   3.191   3.256  14.019 -1.5353 -1.8542 -1.9331
 7072SOL    HW232676   3.104   3.297  13.897 -1.1205  1.1069  1.3974
 7073SOL     OW32677   3.770   3.393   5.277 -0.5538  0.2450  0.2320
 7073SOL    HW132678   3.864   3.404   5.259 -0.5323  2.7766  1.9532
 7073SOL    HW232679   3.748   3.483   5.302  1.9849  0.5506  1.3933
 7074SOL     OW32680   1.217   0.123   8.497 -0.2701  0.4344 -0.0262
 7074SOL    HW132681   1.167   0.163   8.427 -1.6063  0.0520  0.7193
 7074SOL    HW232682   1.235   0.197   8.555 -1.1711  0.0179  0.7954
 7075SOL     OW32683   3.166   0.261   4.007 -0.0982  0.6074 -0.4496
 7075SOL    HW132684   3.247   0.311   4.018  1.3643 -1.6063 -1.3091
 7075SOL    HW232685   3.118   0.329   3.960  2.0652  1.1444 -1.8942
 7076SOL     OW32686   0.848   2.966  12.241  0.0358  0.2431  0.2119
 7076SOL    HW132687   0.826   2.888  12.190 -2.5100  0.8587  0.3467
 7076SOL    HW232688   0.895   3.023  12.179 -0.5241  0.7601  0.2578
 7077SOL     OW32689   2.831   0.257   8.619 -0.3287  0.0372 -0.0323
 7077SOL    HW132690   2.909   0.205   8.600 -1.2741 -1.1691 -0.6219
 7077SOL    HW232691   2.788   0.253   8.533 -1.8071  4.1050  0.5374
 7078SOL     OW32692   3.290   2.155   7.869 -0.7055  0.3746 -0.0662
 7078SOL    HW132693   3.276   2.240   7.911 -2.5080  0.0757 -0.0633
 7078SOL    HW232694   3.358   2.178   7.805 -2.2978 -0.6652 -2.1499
 7079SOL     OW32695   1.857   3.805   3.410 -0.6099  0.0140 -0.0323
 7079SOL    HW132696   1.894   3.851   3.485  0.9445  1.0314 -1.4242
 7079SOL    HW232697   1.932   3.785   3.355  0.6660  2.4303  0.8370
 7080SOL     OW32698   3.828   4.126   5.888  0.0028  0.1201 -0.5289
 7080SOL    HW132699   3.877   4.101   5.967 -0.8732 -2.5466 -0.8356
 7080SOL    HW232700   3.902   4.142   5.830  0.4233  1.2619  0.3051
 7081SOL     OW32701   1.483   3.010   6.609 -0.2789  0.1852 -0.4928
 7081SOL    HW132702   1.571   3.008   6.571 -1.0052 -0.8086 -2.1050
 7081SOL    HW232703   1.464   3.104   6.603 -0.0876  0.3017  0.8372
 7082SOL     OW32704   1.876   2.527   4.000  0.5368  0.0391 -0.0018
 7082SOL    HW132705   1.886   2.622   4.001 -0.1081  0.1109 -0.3717
 7082SOL    HW232706   1.960   2.505   3.959 -0.7395 -0.8882 -2.1314
 7083SOL     OW32707   2.575   0.076  15.778 -0.7922  0.2316 -0.3106
 7083SOL    HW132708   2.524   0.152  15.749 -1.6713 -0.9301 -1.7747
 7083SOL    HW232709   2.520   0.050  15.852 -2.1233  1.4064 -0.9079
 7084SOL     OW32710   0.608   3.120  16.590 -0.0610  0.9984 -0.0303
 7084SOL    HW132711   0.532   3.141  16.536  0.6242 -1.7103 -2.0497
 7084SOL    HW232712   0.670   3.189  16.567  2.9318 -0.5201  3.3474
 7085SOL     OW32713   0.658   4.074   7.427 -0.5593 -0.3697 -0.2722
 7085SOL    HW132714   0.658   4.101   7.519 -0.9775 -0.7864 -0.1496
 7085SOL    HW232715   0.717   4.132   7.379  0.5542 -0.0014  1.5414
 7086SOL     OW32716   0.906   2.669   9.579  0.0462  0.7208 -0.8154
 7086SOL    HW132717   0.894   2.636   9.668 -0.9149  0.1282 -1.1638
 7086SOL    HW232718   0.998   2.695   9.576 -0.2895  2.2797  1.9928
 7087SOL     OW32719   2.258   4.136   5.594  0.0429  0.1510  0.2107
 7087SOL    HW132720   2.199   4.096   5.530  2.4537  1.1679 -2.6710
 7087SOL    HW232721   2.317   4.070   5.632  0.3764  0.4971  0.2954
 7088SOL     OW32722   0.714   0.644   7.067 -0.1316 -0.1891 -0.4727
 7088SOL    HW132723   0.656   0.572   7.092  0.0941 -0.4109 -0.5903
 7088SOL    HW232724   0.710   0.638   6.971 -0.2299 -1.6120 -0.3832
 7089SOL     OW32725   2.842   2.734   2.553 -0.2161 -0.1857  0.0530
 7089SOL    HW132726   2.748   2.738   2.570  0.1582 -1.4311  2.5490
 7089SOL    HW232727   2.837   2.754   2.460  1.2587 -3.4572 -0.7443
 7090SOL     OW32728   3.200   2.318  14.982 -0.0876 -0.2538  0.2914
 7090SOL    HW132729   3.213   2.260  14.907  0.4405  0.1388  0.0760
 7090SOL    HW232730   3.144   2.386  14.945 -0.5215 -0.0075  1.4099
 7091SOL     OW32731   4.272   2.140  10.373  0.0091  0.2431  0.1057
 7091SOL    HW132732   4.221   2.218  10.349  1.0282  1.3080  1.4292
 7091SOL    HW232733   4.295   2.155  10.464  0.2087 -1.7479  0.3751
 7092SOL     OW32734   0.850   4.596  14.651  0.3603 -0.0462  0.2118
 7092SOL    HW132735   0.803   4.528  14.699  0.5631 -1.0548 -1.0103
 7092SOL    HW232736   0.774   4.635  14.609  0.2283  0.7276  1.1970
 7093SOL     OW32737   4.603   0.259   3.316 -0.4775 -0.3392 -0.2598
 7093SOL    HW132738   4.539   0.320   3.280 -2.0226 -2.3930 -1.0319
 7093SOL    HW232739   4.657   0.309   3.377  0.5624 -1.2256 -0.4427
 7094SOL     OW32740   0.850   4.276   9.942  0.2525 -0.5516 -0.2302
 7094SOL    HW132741   0.842   4.191   9.899 -0.7373 -0.4568 -0.2383
 7094SOL    HW232742   0.878   4.324   9.864 -1.5940 -1.6839 -1.5844
 7095SOL     OW32743   3.386   0.072   7.289 -0.2894 -0.2863 -0.2157
 7095SOL    HW132744   3.479   0.063   7.268 -0.3085 -1.7097  0.2840
 7095SOL    HW232745   3.386   0.055   7.384 -2.4856 -1.7409 -0.4679
 7096SOL     OW32746   4.069   4.256   6.385 -0.0214  0.5303  0.7563
 7096SOL    HW132747   4.101   4.166   6.391  0.7363  0.7522 -0.0442
 7096SOL    HW232748   3.975   4.242   6.388 -0.4085  3.0920  0.6523
 7097SOL     OW32749   3.010   1.102   1.733 -0.5133  0.6118 -0.1580
 7097SOL    HW132750   2.982   1.156   1.807 -0.1611  0.1325  0.3239
 7097SOL    HW232751   2.988   1.154   1.656 -0.7936 -1.1733 -1.2756
 7098SOL     OW32752   4.377   3.941   3.557 -0.6479  0.1387  0.0822
 7098SOL    HW132753   4.318   3.892   3.499 -1.0046  1.7463 -0.8976
 7098SOL    HW232754   4.349   4.025   3.521  0.1499  0.2687 -0.2138
 7099SOL     OW32755   0.203   0.101  15.372 -0.0149 -0.0140  0.2756
 7099SOL    HW132756   0.284   0.077  15.418  0.5403 -0.6542 -1.0395
 7099SOL    HW232757   0.214   0.196  15.371 -1.1822  0.0986 -1.1648
 7100SOL     OW32758   0.577   1.749  15.763  0.3734 -0.2941 -0.3212
 7100SOL    HW132759   0.559   1.756  15.669  1.1601 -0.6173 -0.4936
 7100SOL    HW232760   0.670   1.728  15.752  0.4374  0.0047 -0.3537
 7101SOL     OW32761   2.881   3.712  11.147  0.2893 -0.2169  0.0241
 7101SOL    HW132762   2.895   3.775  11.217 -0.5941  0.7514 -0.6621
 7101SOL    HW232763   2.786   3.713  11.135  0.4636  2.0261 -1.1927
 7102SOL     OW32764   1.439   1.481   0.004  0.8069 -0.0901  0.2490
 7102SOL    HW132765   1.519   1.466  17.635  1.0408 -2.0830  1.2250
 7102SOL    HW232766   1.464   1.567   0.038  0.2283 -0.3989  1.4628
 7103SOL     OW32767   3.396   2.842   3.847  0.1979 -0.2739  0.0949
 7103SOL    HW132768   3.390   2.898   3.925 -0.1709  0.9697 -0.8284
 7103SOL    HW232769   3.416   2.911   3.784 -0.4681 -0.7929 -0.6786
 7104SOL     OW32770   3.422   4.614  10.649 -0.0156 -0.1712 -0.0175
 7104SOL    HW132771   3.441   4.547  10.582  1.1585 -1.2558  1.4030
 7104SOL    HW232772   3.442   4.700  10.610 -0.8079 -0.0981 -0.2503
 7105SOL     OW32773   0.988   2.407   8.327 -0.3496 -0.6065 -0.0475
 7105SOL    HW132774   0.997   2.326   8.377 -0.2996  1.2347  2.9239
 7105SOL    HW232775   0.915   2.445   8.375 -0.5571 -1.0696  0.0069
 7106SOL     OW32776   2.376   2.992   4.586 -0.4758  0.3718 -0.6426
 7106SOL    HW132777   2.339   2.905   4.601 -0.2478  0.1491 -1.4078
 7106SOL    HW232778   2.446   2.969   4.526 -1.2836  0.6751 -1.7025
 7107SOL     OW32779   1.872   2.352   3.100  0.3252  0.1052 -0.6661
 7107SOL    HW132780   1.904   2.432   3.140  1.7773 -0.5530 -0.5035
 7107SOL    HW232781   1.821   2.386   3.026 -0.2268  1.3526  0.2971
 7108SOL     OW32782   3.483   3.030   3.614  0.4604 -0.0857  0.2559
 7108SOL    HW132783   3.417   3.096   3.592 -0.5652 -1.2940 -0.2927
 7108SOL    HW232784   3.516   3.000   3.529  1.0255  2.5203 -0.4273
 7109SOL     OW32785   1.013   2.080   9.434  0.7542 -0.1605  0.0029
 7109SOL    HW132786   0.999   1.999   9.483  1.8063 -0.3676 -0.0464
 7109SOL    HW232787   1.074   2.054   9.365  1.0599  1.6617 -0.4202
 7110SOL     OW32788   2.115   0.267   9.885 -0.2016 -0.0110 -0.5855
 7110SOL    HW132789   2.118   0.359   9.859 -1.1009  0.0988 -0.3212
 7110SOL    HW232790   2.039   0.233   9.837  0.7141 -2.1763 -0.4797
 7111SOL     OW32791   3.214   3.528  12.693 -0.4676  0.1324  0.1749
 7111SOL    HW132792   3.140   3.477  12.725 -0.5560  0.8458  1.1022
 7111SOL    HW232793   3.215   3.610  12.742  1.4476  0.5808 -0.6170
 7112SOL     OW32794   1.217   3.786  12.335  0.3582 -0.5826 -0.2104
 7112SOL    HW132795   1.184   3.841  12.407 -1.0781  0.2265 -1.4893
 7112SOL    HW232796   1.290   3.735  12.370  1.0942  1.0435  0.6357
 7113SOL     OW32797   2.184   0.650   2.119  0.3422 -0.3643  0.6059
 7113SOL    HW132798   2.214   0.664   2.029  1.7134 -2.1387  0.7821
 7113SOL    HW232799   2.093   0.632   2.097  0.8562 -1.1851 -0.8699
 7114SOL     OW32800   2.201   2.585   8.728  0.2764 -0.1194 -0.6469
 7114SOL    HW132801   2.148   2.552   8.655  0.8903 -1.3417 -0.5331
 7114SOL    HW232802   2.290   2.553   8.711  1.0890  2.0835 -0.5288
 7115SOL     OW32803   2.101   4.695   3.067 -0.4175 -0.7193  0.4774
 7115SOL    HW132804   2.130   4.649   2.988 -0.0894 -0.2327  0.3225
 7115SOL    HW232805   2.154   0.052   3.049  0.8734 -1.7506 -0.1253
 7116SOL     OW32806   4.578   0.702  14.504 -0.6762  0.2350 -0.2726
 7116SOL    HW132807   4.484   0.716  14.513 -0.7328 -0.0309 -0.4610
 7116SOL    HW232808   4.606   0.766  14.570 -2.0095  0.2063  0.3187
 7117SOL     OW32809   1.215   4.255  16.170 -0.5198  0.2745 -0.2789
 7117SOL    HW132810   1.181   4.231  16.257 -1.5624  0.5881 -0.6016
 7117SOL    HW232811   1.194   4.348  16.169 -0.3974  0.3533  2.6651
 7118SOL     OW32812   2.044   1.231   7.245  0.3974  0.5226 -0.0677
 7118SOL    HW132813   2.131   1.225   7.284 -0.5175  0.4242  1.9412
 7118SOL    HW232814   2.038   1.140   7.215  0.0664  0.5815 -0.1785
 7119SOL     OW32815   0.284   1.448   4.776  0.1029  0.1547  0.2196
 7119SOL    HW132816   0.303   1.530   4.730 -2.9748 -0.3247 -1.9019
 7119SOL    HW232817   0.373   1.414   4.770 -0.4811 -1.2964 -0.2025
 7120SOL     OW32818   3.417   0.415   6.527  0.2155 -0.0075  0.5546
 7120SOL    HW132819   3.485   0.463   6.574 -0.1949 -0.5542  1.7239
 7120SOL    HW232820   3.458   0.388   6.445  1.5334  1.2432  0.7910
 7121SOL     OW32821   2.184   3.433  12.242 -0.0520  0.1531 -0.4697
 7121SOL    HW132822   2.213   3.350  12.206  2.8668  0.2891  1.5376
 7121SOL    HW232823   2.111   3.398  12.293 -0.0122  0.8856  0.0924
 7122SOL     OW32824   1.847   4.580   4.464  1.1414  0.8866 -0.3049
 7122SOL    HW132825   1.811   4.664   4.434 -1.4128  0.6012  1.9441
 7122SOL    HW232826   1.934   4.578   4.425  1.6910  1.0540  0.9263
 7123SOL     OW32827   2.197   3.758   3.838 -0.1596  0.1321  0.1851
 7123SOL    HW132828   2.270   3.704   3.869 -0.7095 -0.3067  0.7303
 7123SOL    HW232829   2.150   3.761   3.921 -1.0313 -1.7516 -0.2255
 7124SOL     OW32830   4.613   2.687   2.893  0.1408  0.5859 -0.0599
 7124SOL    HW132831   4.548   2.691   2.963 -1.8175  2.0316 -1.9334
 7124SOL    HW232832   4.654   2.772   2.910 -0.5441  0.8578  0.2321
 7125SOL     OW32833   4.391   2.611   5.449  0.6963 -0.0899  0.0576
 7125SOL    HW132834   4.449   2.537   5.468 -0.7375 -1.0075  0.9467
 7125SOL    HW232835   4.416   2.662   5.525  0.0814  1.0530 -0.5104
 7126SOL     OW32836   3.020   4.425  10.585  0.3111  0.0448  0.1679
 7126SOL    HW132837   3.089   4.360  10.572 -0.3456 -0.0696 -2.7116
 7126SOL    HW232838   2.997   4.409  10.676 -0.2072 -0.6619 -0.0878
 7127SOL     OW32839   2.757   3.227  12.530 -0.2444 -0.0223 -0.0206
 7127SOL    HW132840   2.741   3.148  12.581 -0.8007 -0.6437 -1.1876
 7127SOL    HW232841   2.778   3.173  12.454  0.4983 -0.6170  0.6062
 7128SOL     OW32842   1.208   4.501   4.366 -0.5004  0.5886  0.8629
 7128SOL    HW132843   1.178   4.485   4.276  2.0015 -0.6962  0.2545
 7128SOL    HW232844   1.300   4.523   4.355 -0.3241  0.5451  2.3373
 7129SOL     OW32845   1.488   3.856   8.606  0.2006 -0.0466  0.2698
 7129SOL    HW132846   1.439   3.920   8.554  0.8698  1.0060  0.9355
 7129SOL    HW232847   1.407   3.809   8.624 -1.4793  1.0774 -4.4487
 7130SOL     OW32848   2.938   1.559  16.967  0.5093  0.1771  0.3366
 7130SOL    HW132849   2.959   1.640  17.013  3.8999  0.1690 -1.1923
 7130SOL    HW232850   2.918   1.504  17.044 -0.6369  1.1695  0.7476
 7131SOL     OW32851   2.094   0.302   7.311  0.2086 -0.2963 -0.0066
 7131SOL    HW132852   2.064   0.382   7.354  0.1448  0.2605 -1.0823
 7131SOL    HW232853   2.049   0.239   7.366 -0.7226  1.6801  1.5176
 7132SOL     OW32854   3.898   0.036   3.426 -0.1645  0.3078 -0.2629
 7132SOL    HW132855   3.930   0.126   3.438  0.2926 -0.0933  1.4434
 7132SOL    HW232856   3.816   0.049   3.378  0.8299 -1.4224 -2.4158
 7133SOL     OW32857   3.805   2.331   6.296 -0.1281 -0.2776  0.0062
 7133SOL    HW132858   3.892   2.346   6.333 -0.5029 -0.8432  1.0992
 7133SOL    HW232859   3.759   2.415   6.286  0.9535  0.2275 -0.6984
 7134SOL     OW32860   1.800   3.419   9.245 -0.6663 -0.4998 -0.0043
 7134SOL    HW132861   1.744   3.356   9.200 -1.9668  0.3455  0.4264
 7134SOL    HW232862   1.759   3.505   9.241 -1.7470 -1.0829 -1.4046
 7135SOL     OW32863   4.000   0.405   2.187 -0.0953 -0.3979  0.4810
 7135SOL    HW132864   3.905   0.417   2.185  0.0058  0.0281 -1.5301
 7135SOL    HW232865   4.024   0.481   2.240  1.1653 -0.1449 -0.4686
 7136SOL     OW32866   2.856   2.112   0.922 -0.1250 -0.0124 -0.0258
 7136SOL    HW132867   2.913   2.163   0.980 -0.5111 -0.4096  0.7154
 7136SOL    HW232868   2.856   2.023   0.960 -0.7658  0.2486  0.5903
 7137SOL     OW32869   2.307   2.507   1.604 -0.1822 -0.2856  0.4870
 7137SOL    HW132870   2.333   2.432   1.657  0.4268  0.6993  1.5934
 7137SOL    HW232871   2.228   2.485   1.555 -1.1531  0.3120  1.7868
 7138SOL     OW32872   3.763   2.328   0.272  0.0791 -0.2241 -0.7382
 7138SOL    HW132873   3.683   2.316   0.221 -0.8182 -0.6038  0.7869
 7138SOL    HW232874   3.824   2.282   0.214  0.4325  0.7237 -1.1235
 7139SOL     OW32875   4.579   1.875   7.225 -0.2174 -0.3981 -0.0104
 7139SOL    HW132876   4.642   1.816   7.267  0.2897  1.0019  1.2044
 7139SOL    HW232877   4.599   1.859   7.133  1.0805  0.8483  0.0551
 7140SOL     OW32878   2.232   4.469   5.960 -0.2632 -0.7110 -0.1624
 7140SOL    HW132879   2.199   4.467   6.050  2.4174  0.5502  0.8711
 7140SOL    HW232880   2.156   4.509   5.918  0.9158  1.3825 -0.3030
 7141SOL     OW32881   4.136   2.630  15.134  0.3099 -0.4438  0.1003
 7141SOL    HW132882   4.202   2.591  15.191 -0.0517  1.0149  1.4967
 7141SOL    HW232883   4.189   2.709  15.120  1.5243 -1.2053  0.3231
 7142SOL     OW32884   2.111   0.407  10.520  0.3103 -0.2717  0.7393
 7142SOL    HW132885   2.075   0.427  10.607 -1.4081 -1.1416  0.2359
 7142SOL    HW232886   2.139   0.492  10.485 -0.5034 -0.5520 -0.6056
 7143SOL     OW32887   3.900   3.732   7.831 -0.4497 -0.5763  0.4622
 7143SOL    HW132888   3.921   3.824   7.814 -1.4112 -0.3000  0.7846
 7143SOL    HW232889   3.971   3.711   7.892  2.0903  1.6964 -1.6572
 7144SOL     OW32890   1.945   1.049   5.670  0.0012 -0.5482 -0.2768
 7144SOL    HW132891   1.993   1.115   5.721  1.0798 -0.7586 -1.0044
 7144SOL    HW232892   1.923   1.102   5.593 -2.4190 -0.9226  0.1681
 7145SOL     OW32893   0.820   1.930   5.875 -0.3880  0.7695  1.1077
 7145SOL    HW132894   0.825   1.989   5.799  3.6417  0.5776  1.2343
 7145SOL    HW232895   0.911   1.923   5.902 -0.8763 -0.2092  2.4964
 7146SOL     OW32896   0.864   4.473   3.171 -0.1941 -0.7554 -0.2075
 7146SOL    HW132897   0.839   4.511   3.255  2.4069 -0.5895  0.4765
 7146SOL    HW232898   0.947   4.518   3.155  0.6145 -1.8012  1.0547
 7147SOL     OW32899   1.246   3.410   6.137  0.1613 -0.4126 -0.2419
 7147SOL    HW132900   1.151   3.409   6.137  0.1690 -1.3434 -1.9374
 7147SOL    HW232901   1.274   3.456   6.217 -1.3762  1.0063 -0.5189
 7148SOL     OW32902   3.241   3.129   3.546  0.3194  0.3761  0.5663
 7148SOL    HW132903   3.277   3.167   3.465 -3.4453  0.3003 -1.1545
 7148SOL    HW232904   3.155   3.171   3.555  0.5355  0.3861  2.5019
 7149SOL     OW32905   2.875   2.408  17.357 -0.1734 -0.1383  0.5391
 7149SOL    HW132906   2.888   2.456  17.275  0.7566 -2.4806 -0.6766
 7149SOL    HW232907   2.833   2.471  17.416 -0.8494  1.0937 -1.2781
 7150SOL     OW32908   3.608   2.994  17.390  0.3669 -0.1403  0.3759
 7150SOL    HW132909   3.515   3.009  17.404  0.3818  1.0848 -0.8785
 7150SOL    HW232910   3.602   2.927  17.322 -1.0567 -1.9135  2.2797
 7151SOL     OW32911   0.611   0.476   3.246 -0.4524 -0.7824 -0.1372
 7151SOL    HW132912   0.669   0.552   3.237  0.1682 -1.3440 -0.9080
 7151SOL    HW232913   0.643   0.450   3.332 -0.4688 -2.2011 -0.5603
 7152SOL     OW32914   3.391   4.372   9.020 -0.6078 -0.7421 -0.1158
 7152SOL    HW132915   3.375   4.411   8.933  0.0351 -1.0075 -0.3467
 7152SOL    HW232916   3.438   4.437   9.072 -0.9032 -1.1836  0.6974
 7153SOL     OW32917   0.947   0.180   7.220 -0.2855  0.1642  0.3760
 7153SOL    HW132918   0.921   0.119   7.289  1.6171  0.3208  1.2390
 7153SOL    HW232919   0.893   0.254   7.248  2.0920  1.5356  1.3227
 7154SOL     OW32920   3.135   2.783   6.351  0.0653 -0.3731 -0.1593
 7154SOL    HW132921   3.149   2.789   6.256  0.0513  3.4797  0.1167
 7154SOL    HW232922   3.222   2.746   6.369  0.3495  0.3954  0.0113
 7155SOL     OW32923   2.767   2.799   4.382  0.1264 -0.3005 -0.0981
 7155SOL    HW132924   2.687   2.834   4.421 -0.3091 -1.1017 -0.2750
 7155SOL    HW232925   2.820   2.879   4.391 -2.3528  1.2884  0.4195
 7156SOL     OW32926   4.471   3.129   4.765 -0.0913 -0.1542  0.0294
 7156SOL    HW132927   4.524   3.062   4.723  0.1982 -0.7093  1.3183
 7156SOL    HW232928   4.536   3.193   4.794  0.6871 -0.3194 -1.3366
 7157SOL     OW32929   3.390   1.183   2.558 -0.3073 -0.2067 -0.1926
 7157SOL    HW132930   3.452   1.254   2.572 -0.4474 -0.4504  1.6429
 7157SOL    HW232931   3.421   1.125   2.627  1.9927  1.4538  0.1752
 7158SOL     OW32932   3.062   3.726   9.121 -0.0699  0.5728 -0.1425
 7158SOL    HW132933   3.018   3.750   9.039  2.4128  1.7945 -1.1306
 7158SOL    HW232934   3.041   3.807   9.167  0.8004  1.1837 -0.8335
 7159SOL     OW32935   3.578   0.661  10.666 -0.6410  0.6951  0.6525
 7159SOL    HW132936   3.558   0.582  10.615 -1.1730  1.8219 -0.8648
 7159SOL    HW232937   3.667   0.637  10.692  0.0968  3.5052  0.6974
 7160SOL     OW32938   4.531   0.429   6.915  0.0329 -0.1010  0.2628
 7160SOL    HW132939   4.582   0.502   6.881 -0.9185 -1.3204 -3.7644
 7160SOL    HW232940   4.593   0.361   6.940  1.1750  0.8888  0.0899
 7161SOL     OW32941   0.172   1.094   5.696  0.1792 -0.4579 -0.2057
 7161SOL    HW132942   0.085   1.103   5.656  0.1075  3.2488  0.8076
 7161SOL    HW232943   0.149   1.127   5.782  0.9062 -1.0273  0.2099
 7162SOL     OW32944   4.630   2.663   4.533 -0.2337 -0.0415  0.2712
 7162SOL    HW132945   4.562   2.626   4.590  0.5465  1.1142  1.9572
 7162SOL    HW232946   4.593   2.639   4.448 -0.5094  1.8488 -0.1432
 7163SOL     OW32947   0.645   2.227  11.233 -0.0614 -0.5919 -0.1104
 7163SOL    HW132948   0.719   2.257  11.179  1.3574 -0.9728  1.6099
 7163SOL    HW232949   0.698   2.209  11.311 -0.2076 -0.0076  0.1276
 7164SOL     OW32950   2.578   2.350   6.484  0.2197 -0.0980  0.0565
 7164SOL    HW132951   2.557   2.438   6.451  1.0579  0.0441 -0.0952
 7164SOL    HW232952   2.574   2.290   6.410  1.7693 -1.1751  0.8419
 7165SOL     OW32953   3.162   1.841   2.006 -0.1504  0.2885 -0.0352
 7165SOL    HW132954   3.111   1.859   1.927 -0.7749 -1.0183  0.0667
 7165SOL    HW232955   3.219   1.917   2.016  2.3984 -1.6117 -0.2116
 7166SOL     OW32956   4.331   2.868   4.008 -0.2733  0.6163 -0.2669
 7166SOL    HW132957   4.328   2.941   3.946 -0.2405  1.4534  0.7270
 7166SOL    HW232958   4.365   2.803   3.945 -2.2123 -1.4473  0.8163
 7167SOL     OW32959   2.578   3.322   2.625  0.2026  0.0511  0.1162
 7167SOL    HW132960   2.623   3.302   2.543 -3.6510  0.9633 -2.2113
 7167SOL    HW232961   2.545   3.232   2.636  0.7655  0.2887  3.6573
 7168SOL     OW32962   1.153   1.816   3.873 -0.7703  0.5446  0.1495
 7168SOL    HW132963   1.105   1.740   3.840  0.0182  0.2014 -0.2339
 7168SOL    HW232964   1.201   1.866   3.807 -2.3160 -0.5730 -1.8021
 7169SOL     OW32965   1.852   0.968   7.347 -0.9239  0.5770  1.1217
 7169SOL    HW132966   1.780   1.031   7.352 -0.5810  1.1105 -0.6586
 7169SOL    HW232967   1.876   0.968   7.439 -1.1305 -0.1367  1.1795
 7170SOL     OW32968   2.210   1.829   6.836 -0.0669 -0.1541 -0.9362
 7170SOL    HW132969   2.184   1.834   6.744  1.0590  0.5240 -1.2243
 7170SOL    HW232970   2.164   1.907   6.868  0.9418  0.1011 -0.1078
 7171SOL     OW32971   2.882   3.660   7.497  0.2185  0.2058  0.0187
 7171SOL    HW132972   2.871   3.740   7.444  0.5980  0.8978  0.9865
 7171SOL    HW232973   2.841   3.691   7.577 -1.3785  0.7110 -0.9906
 7172SOL     OW32974   3.806   2.522   8.825 -0.1708 -0.4776  0.3530
 7172SOL    HW132975   3.817   2.617   8.816 -0.6404 -0.6369 -1.9767
 7172SOL    HW232976   3.866   2.509   8.898  1.9259  1.6948 -1.0022
 7173SOL     OW32977   1.475   2.815  16.402  0.6362 -0.3353 -0.0389
 7173SOL    HW132978   1.520   2.732  16.420  0.5657 -0.2396  0.5801
 7173SOL    HW232979   1.523   2.854  16.329 -1.6266  0.8636 -0.8772
 7174SOL     OW32980   0.324   1.919   6.007  0.2527  0.1686 -0.0979
 7174SOL    HW132981   0.343   1.953   5.920  0.6155  1.3946  0.4610
 7174SOL    HW232982   0.348   1.994   6.061  2.0958 -1.3053  1.1126
 7175SOL     OW32983   2.180   1.702   7.202 -0.5448 -0.2526  0.1040
 7175SOL    HW132984   2.253   1.656   7.245 -1.2140 -0.3201  1.1662
 7175SOL    HW232985   2.143   1.638   7.141  2.0773 -0.9274 -0.8125
 7176SOL     OW32986   1.780   1.240  10.458 -0.6995 -0.0636  0.1987
 7176SOL    HW132987   1.851   1.303  10.463  0.5229 -1.6149  2.5195
 7176SOL    HW232988   1.736   1.277  10.535  1.8259  0.5920  1.3064
 7177SOL     OW32989   4.109   4.292  11.156 -0.0584 -0.4179 -0.7154
 7177SOL    HW132990   4.028   4.276  11.107 -0.6782  2.3725 -0.5813
 7177SOL    HW232991   4.072   4.351  11.222  2.1456  0.5785 -0.4028
 7178SOL     OW32992   1.464   2.045   3.386 -0.0244  0.0449 -0.4674
 7178SOL    HW132993   1.516   2.078   3.313  0.7919  0.9916  0.5529
 7178SOL    HW232994   1.515   1.969   3.414 -2.0267 -1.0058  0.3818
 7179SOL     OW32995   2.612   1.630  15.491  0.1163 -0.9470 -0.4889
 7179SOL    HW132996   2.602   1.538  15.466 -0.2863 -1.0841  0.1507
 7179SOL    HW232997   2.523   1.650  15.521  0.6915 -0.0820  0.6424
 7180SOL     OW32998   0.231   0.371   1.569  0.3452  0.8516  0.6494
 7180SOL    HW132999   0.184   0.290   1.585 -0.8134  1.8183  2.0721
 7180SOL    HW233000   0.171   0.441   1.593 -0.7744  0.6996 -1.7304
 7181SOL     OW33001   4.649   2.521   7.098  0.4137  0.9919  0.0190
 7181SOL    HW133002   4.628   2.614   7.087 -3.7999 -0.0764 -0.9354
 7181SOL    HW233003   4.613   2.495   7.183 -0.6053  2.5487  0.0673
 7182SOL     OW33004   0.888   0.937   3.125 -0.3863 -0.0319 -0.0258
 7182SOL    HW133005   0.880   1.027   3.094  0.3495 -0.6268 -1.9783
 7182SOL    HW233006   0.846   0.884   3.057 -0.3039 -1.2453  0.8749
 7183SOL     OW33007   1.785   0.506   8.465 -0.2841 -0.1338  0.0921
 7183SOL    HW133008   1.867   0.532   8.507 -0.3533  1.4318 -0.7436
 7183SOL    HW233009   1.768   0.419   8.502 -1.0539 -0.7479 -1.7389
 7184SOL     OW33010   1.671   3.456   5.613 -0.0284  0.2902  0.1568
 7184SOL    HW133011   1.663   3.379   5.670 -0.4500 -0.1049 -0.4460
 7184SOL    HW233012   1.631   3.419   5.535  0.6890  1.7713 -0.8910
 7185SOL     OW33013   2.074   3.058  16.796 -0.4584 -0.2889  0.2842
 7185SOL    HW133014   2.064   2.992  16.727  0.0869  0.8353 -0.8777
 7185SOL    HW233015   2.170   3.059  16.800 -0.3349 -1.9108 -2.0012
 7186SOL     OW33016   2.747   4.047   7.936  0.2886 -0.4670 -0.1741
 7186SOL    HW133017   2.720   3.974   7.992 -2.8756  1.6254  1.0274
 7186SOL    HW233018   2.780   4.001   7.859  0.1583 -1.9861  0.6712
 7187SOL     OW33019   0.170   0.553   3.997  0.0811  0.3346 -0.0658
 7187SOL    HW133020   0.102   0.553   4.065 -0.5047 -0.0548 -0.6403
 7187SOL    HW233021   0.229   0.611   4.045  1.5066 -0.5443 -0.7540
 7188SOL     OW33022   2.400   0.746  14.799 -0.1241  0.0248  0.3349
 7188SOL    HW133023   2.328   0.788  14.846  0.4099  1.4386 -0.0813
 7188SOL    HW233024   2.478   0.782  14.843  1.4295 -4.1885  1.0390
 7189SOL     OW33025   1.846   0.420   8.763 -0.4405 -0.2901 -0.2308
 7189SOL    HW133026   1.834   0.325   8.767 -0.8013 -0.2553 -0.5444
 7189SOL    HW233027   1.926   0.414   8.710 -2.0669 -0.8320 -2.6417
 7190SOL     OW33028   1.860   2.026   1.626  0.7729 -0.5946 -0.1476
 7190SOL    HW133029   1.922   2.095   1.647 -0.4219 -0.6102  3.3860
 7190SOL    HW233030   1.867   2.050   1.533  0.6352  1.8939  0.4896
 7191SOL     OW33031   3.344   0.212   4.683  0.0778 -0.1348  0.2647
 7191SOL    HW133032   3.324   0.144   4.747  1.9858  0.2843  1.3108
 7191SOL    HW233033   3.435   0.185   4.670  0.3344  1.2514 -0.8180
 7192SOL     OW33034   1.865   2.969   8.124  0.4473 -0.1396 -0.0183
 7192SOL    HW133035   1.819   3.033   8.071  3.5119  0.6986 -1.6536
 7192SOL    HW233036   1.957   2.974   8.098  0.4991 -1.4391 -0.0955
 7193SOL     OW33037   4.558   4.660   2.853  0.5119  0.0450 -0.4350
 7193SOL    HW133038   4.509   4.703   2.783 -0.3440 -2.2311 -1.2190
 7193SOL    HW233039   4.612   4.604   2.798  2.1543  0.7862  0.4330
 7194SOL     OW33040   3.572   2.241  13.712 -0.1765  0.1886  0.5269
 7194SOL    HW133041   3.566   2.303  13.639 -0.9161 -0.1691  0.2899
 7194SOL    HW233042   3.560   2.305  13.783  0.6535  1.6416 -0.6441
 7195SOL     OW33043   1.391   0.965   0.166  0.5408  0.3892  0.0796
 7195SOL    HW133044   1.411   0.891   0.108  0.4679  1.4981 -1.3450
 7195SOL    HW233045   1.481   0.977   0.195 -0.0140  0.3203  1.8558
 7196SOL     OW33046   1.476   0.627   5.990  0.3804  0.1679 -0.1499
 7196SOL    HW133047   1.562   0.647   6.026  0.9172 -1.2394 -0.6273
 7196SOL    HW233048   1.492   0.647   5.898 -1.6852  1.3406 -0.2445
 7197SOL     OW33049   0.966   0.745  15.988  0.3366  0.4774 -0.4148
 7197SOL    HW133050   0.952   0.721  15.896  0.3282 -0.3496 -0.1985
 7197SOL    HW233051   1.046   0.798  15.978  0.3986  0.3368 -0.6823
 7198SOL     OW33052   0.207   3.059   5.249 -0.5887  0.0985 -0.3684
 7198SOL    HW133053   0.147   2.985   5.254  0.2622 -0.4880  0.9453
 7198SOL    HW233054   0.139   3.127   5.246 -1.6307 -0.9449 -0.6510
 7199SOL     OW33055   0.362   2.853   3.968  0.4175 -0.3565  0.1862
 7199SOL    HW133056   0.409   2.891   3.894  1.6979 -0.3821  0.9992
 7199SOL    HW233057   0.409   2.776   4.000 -1.2019 -0.9856  1.0599
 7200SOL     OW33058   0.003   2.101   7.311  0.3474 -0.1189  0.1680
 7200SOL    HW133059   4.663   2.045   7.262  1.5070 -1.4776  0.3175
 7200SOL    HW233060   4.670   2.107   7.391  1.1764  3.1876  0.4789
 7201SOL     OW33061   1.231   1.623   7.296 -0.0265 -0.0687  0.2811
 7201SOL    HW133062   1.213   1.683   7.369 -0.6115  0.0207  0.0630
 7201SOL    HW233063   1.299   1.662   7.241  2.0040 -2.7915  0.8067
 7202SOL     OW33064   3.343   2.355   4.117 -0.1328  0.4843 -0.1430
 7202SOL    HW133065   3.328   2.315   4.202 -0.6484 -1.4088 -1.1089
 7202SOL    HW233066   3.437   2.375   4.114 -0.8622  4.0479  0.3243
 7203SOL     OW33067   1.530   3.125   4.101  0.0372  0.0852 -0.3652
 7203SOL    HW133068   1.561   3.180   4.029  1.0346  1.1971  0.9103
 7203SOL    HW233069   1.499   3.181   4.173  2.3792  1.9996 -0.8531
 7204SOL     OW33070   2.211   3.874   7.732 -0.7857 -0.3786 -0.2127
 7204SOL    HW133071   2.173   3.949   7.687  2.3071  1.3107 -0.0186
 7204SOL    HW233072   2.171   3.802   7.683  1.8232 -3.8041  2.6439
 7205SOL     OW33073   2.916   0.675   9.957 -0.2406  0.4406 -0.0657
 7205SOL    HW133074   2.895   0.668  10.050  1.1327 -0.7716  0.1428
 7205SOL    HW233075   2.952   0.764   9.958 -1.6093  1.0284 -1.8942
 7206SOL     OW33076   3.972   2.581   1.823 -1.0385  0.0557 -0.1616
 7206SOL    HW133077   3.889   2.626   1.804 -0.5472  0.4485 -1.3627
 7206SOL    HW233078   3.960   2.499   1.775  1.8398 -0.1223 -0.5586
 7207SOL     OW33079   0.386   0.691   6.078 -0.0336 -0.1343 -0.8250
 7207SOL    HW133080   0.457   0.747   6.110 -1.5473  0.7898  0.9714
 7207SOL    HW233081   0.376   0.637   6.157  1.2383  0.1975 -0.4359
 7208SOL     OW33082   1.151   0.907   9.427  0.0918 -0.5655  0.1309
 7208SOL    HW133083   1.098   0.917   9.507  0.9624 -2.6117  0.9633
 7208SOL    HW233084   1.131   0.814   9.417  2.1379 -0.9310 -0.5270
 7209SOL     OW33085   2.594   0.744  12.244 -0.6013 -0.2972  0.0656
 7209SOL    HW133086   2.504   0.743  12.212 -1.1298 -1.7855  1.5864
 7209SOL    HW233087   2.601   0.674  12.309  2.1218  0.5131  0.6526
 7210SOL     OW33088   0.335   0.818   5.004  0.2253 -0.0790  0.5009
 7210SOL    HW133089   0.248   0.779   5.008  1.5278 -3.3895 -3.6877
 7210SOL    HW233090   0.348   0.839   5.096  0.4854  1.7231  0.0735
 7211SOL     OW33091   4.678   2.518   4.092 -0.1655 -0.0980 -0.6215
 7211SOL    HW133092   4.656   2.425   4.099 -2.3435  0.3663 -1.1814
 7211SOL    HW233093   4.600   2.563   4.124 -1.6535 -1.3041 -2.5416
 7212SOL     OW33094   1.796   0.201  11.770  0.1756 -0.2202  0.2296
 7212SOL    HW133095   1.713   0.244  11.749  1.0673 -0.1870 -3.3107
 7212SOL    HW233096   1.824   0.246  11.850 -1.8684 -2.0738  1.9664
 7213SOL     OW33097   2.191   0.998   5.049  0.1148  0.4063 -0.3321
 7213SOL    HW133098   2.142   0.917   5.066 -1.4608  1.3543 -0.3002
 7213SOL    HW233099   2.143   1.064   5.100  0.9945  0.7667  0.0235
 7214SOL     OW33100   0.819   0.499   9.736 -0.2742  0.6271 -0.2041
 7214SOL    HW133101   0.836   0.559   9.663  0.8500  0.0231 -0.4263
 7214SOL    HW233102   0.724   0.513   9.744 -0.4167  0.1844 -1.0037
 7215SOL     OW33103   1.182   3.251  12.313 -0.3626  0.5796 -0.3032
 7215SOL    HW133104   1.100   3.262  12.265 -1.1517 -0.6199  0.7843
 7215SOL    HW233105   1.255   3.293  12.267 -1.2538  0.7375 -1.5821
 7216SOL     OW33106   3.457   4.291   0.831 -0.2534  0.3206  0.9274
 7216SOL    HW133107   3.456   4.384   0.857 -0.8436 -0.0484  2.2160
 7216SOL    HW233108   3.530   4.296   0.769  0.2694 -0.0654  1.5124
 7217SOL     OW33109   0.763   1.274  11.169 -0.1645 -0.4117 -0.4069
 7217SOL    HW133110   0.805   1.238  11.247 -0.5948  2.0145  0.9699
 7217SOL    HW233111   0.755   1.365  11.197 -1.2548 -0.9528  1.0749
 7218SOL     OW33112   3.146   4.436   1.094  0.3245 -0.1124 -0.5912
 7218SOL    HW133113   3.129   4.478   1.178 -0.0346 -1.8091  0.1910
 7218SOL    HW233114   3.213   4.379   1.132  1.0614  0.3964 -1.1049
 7219SOL     OW33115   0.619   1.816   7.785  0.0873  0.0448  0.3900
 7219SOL    HW133116   0.713   1.800   7.787  0.0877 -0.1825 -1.2123
 7219SOL    HW233117   0.602   1.728   7.751  0.9938  0.2136 -0.4896
 7220SOL     OW33118   0.334   2.604   9.314 -0.4494  0.1413  0.2915
 7220SOL    HW133119   0.307   2.676   9.371  0.6573  0.6947  0.1159
 7220SOL    HW233120   0.255   2.549   9.312 -0.6523  0.5386 -2.2644
 7221SOL     OW33121   3.535   3.118  16.955  0.3517  0.1660  0.4430
 7221SOL    HW133122   3.540   3.152  16.866 -1.0009  2.4407  1.2178
 7221SOL    HW233123   3.571   3.030  16.949 -1.8342 -0.9661  3.9495
 7222SOL     OW33124   4.396   0.276   1.956  0.3148 -0.4468 -0.1839
 7222SOL    HW133125   4.392   0.338   2.029 -1.7482  0.6260 -1.1828
 7222SOL    HW233126   4.449   0.211   2.001  0.2786  0.1364  0.6949
 7223SOL     OW33127   4.215   0.843   1.588  0.5587 -0.6198 -0.4091
 7223SOL    HW133128   4.186   0.766   1.539 -1.4096 -1.4687  2.1108
 7223SOL    HW233129   4.278   0.801   1.646 -0.3628 -1.9239 -0.3522
 7224SOL     OW33130   2.731   4.028   8.562  0.1524 -0.0302  0.1710
 7224SOL    HW133131   2.733   4.038   8.658  2.0392 -1.0710  0.2308
 7224SOL    HW233132   2.688   4.108   8.531  0.1033 -0.1644 -0.0975
 7225SOL     OW33133   2.192   0.359   7.587 -0.2120  0.4235 -0.5333
 7225SOL    HW133134   2.104   0.343   7.552 -0.4504 -0.6961  0.6190
 7225SOL    HW233135   2.171   0.335   7.677 -0.8469  1.6019 -0.3660
 7226SOL     OW33136   1.855   2.787  16.816 -0.1052 -0.3648  0.2479
 7226SOL    HW133137   1.856   2.859  16.753  0.5397  1.0166  1.8438
 7226SOL    HW233138   1.764   2.759  16.807  0.3369 -1.6307 -0.2564
 7227SOL     OW33139   1.699   2.678   8.563  0.3240  0.1197  0.2974
 7227SOL    HW133140   1.725   2.643   8.477  2.2704 -0.7255  1.2206
 7227SOL    HW233141   1.618   2.631   8.577 -0.3817  1.6529  1.3624
 7228SOL     OW33142   3.909   0.708  11.808  0.2360 -0.1564  0.2029
 7228SOL    HW133143   3.937   0.621  11.779  2.5586  0.2196  1.2601
 7228SOL    HW233144   3.877   0.743  11.725 -0.1382  0.0723  0.4467
 7229SOL     OW33145   2.517   0.982  15.353 -0.1115  0.1697 -0.1217
 7229SOL    HW133146   2.468   0.950  15.278 -1.6732  0.7892  0.6261
 7229SOL    HW233147   2.558   1.059  15.313  3.2537 -1.8176 -0.4799
 7230SOL     OW33148   1.325   0.193   7.430 -0.2955  0.6407  0.3061
 7230SOL    HW133149   1.286   0.236   7.354  0.0538 -1.8168 -1.2548
 7230SOL    HW233150   1.389   0.139   7.384 -0.2881  1.1582 -0.2910
 7231SOL     OW33151   2.033   1.672   3.916  0.3167  0.0296 -0.2651
 7231SOL    HW133152   2.107   1.640   3.865  1.6552  0.6287  1.3023
 7231SOL    HW233153   1.960   1.662   3.855  0.1588 -3.0921  0.4715
 7232SOL     OW33154   1.164   4.375   0.273 -0.1568 -0.1902  0.0198
 7232SOL    HW133155   1.129   4.441   0.334  1.6749  0.3331  0.5100
 7232SOL    HW233156   1.149   4.297   0.327  1.4113 -0.7987 -0.4472
 7233SOL     OW33157   2.373   0.649  17.141 -0.3780  0.2577 -0.1817
 7233SOL    HW133158   2.408   0.710  17.206  0.2299  0.2052 -0.4686
 7233SOL    HW233159   2.448   0.633  17.085 -1.5370 -0.5747 -1.5022
 7234SOL     OW33160   1.634   1.624   7.023  0.2567  0.1070 -0.2633
 7234SOL    HW133161   1.625   1.552   7.086 -0.3132  1.9162  1.6884
 7234SOL    HW233162   1.560   1.682   7.040 -1.4163 -2.3899  0.9428
 7235SOL     OW33163   2.460   3.479  14.862 -0.2720 -0.3885  0.5704
 7235SOL    HW133164   2.532   3.542  14.865 -1.1860  0.7269 -1.1936
 7235SOL    HW233165   2.488   3.434  14.782 -1.2888 -1.1495  0.6507
 7236SOL     OW33166   3.786   3.214  11.424 -0.0443  0.4459  0.2921
 7236SOL    HW133167   3.798   3.174  11.338 -0.0497  1.6038 -0.2402
 7236SOL    HW233168   3.719   3.155  11.457  0.2873 -0.0528  0.0865
 7237SOL     OW33169   4.256   3.984  11.665  0.0185  0.1635  0.4944
 7237SOL    HW133170   4.166   3.988  11.635  0.2039 -2.5023 -0.4466
 7237SOL    HW233171   4.243   3.933  11.746  1.7698 -2.7196 -1.0206
 7238SOL     OW33172   3.924   2.001   3.378  0.3792 -0.1183  0.2465
 7238SOL    HW133173   3.885   1.926   3.332  1.4143 -0.9971  0.7886
 7238SOL    HW233174   4.011   2.008   3.338 -0.8325  0.4538 -2.3053
 7239SOL     OW33175   0.832   4.174   5.255 -0.3536  0.1713  0.2009
 7239SOL    HW133176   0.868   4.228   5.184  1.6767  1.4978  2.2332
 7239SOL    HW233177   0.743   4.157   5.224 -0.1844 -0.5249  0.0997
 7240SOL     OW33178   1.960   2.336  15.036 -0.2193  0.0171  0.0403
 7240SOL    HW133179   2.023   2.317  15.105 -1.6619 -2.9645  0.5557
 7240SOL    HW233180   2.003   2.415  15.003  0.3409 -0.2867  0.0493
 7241SOL     OW33181   3.790   1.381   8.484  0.0963  0.1084  0.0252
 7241SOL    HW133182   3.752   1.318   8.423  0.3226  0.9420 -0.9779
 7241SOL    HW233183   3.860   1.328   8.523 -0.1903 -1.0907 -1.0848
 7242SOL     OW33184   4.485   3.590   1.833 -0.3841  0.6592  0.0336
 7242SOL    HW133185   4.499   3.508   1.785 -0.4938  0.2541  0.7039
 7242SOL    HW233186   4.391   3.586   1.852  0.0693 -1.6502  1.7042
 7243SOL     OW33187   4.141   3.886   1.645  0.4122  0.1112  1.0202
 7243SOL    HW133188   4.087   3.809   1.664  0.5977 -0.5476 -1.0919
 7243SOL    HW233189   4.163   3.870   1.553  0.6099  1.2480  0.8792
 7244SOL     OW33190   3.526   0.838   7.249  0.1190  0.4582 -0.4307
 7244SOL    HW133191   3.508   0.874   7.336 -0.0939  1.1953 -0.7852
 7244SOL    HW233192   3.613   0.799   7.262  0.4249  1.5034  0.6622
 7245SOL     OW33193   0.037   2.977   1.887 -0.0430  0.9342 -0.1564
 7245SOL    HW133194   0.114   2.968   1.831 -1.7772  1.9036 -2.6747
 7245SOL    HW233195   0.051   3.068   1.913 -0.1730 -0.2742  4.1823
 7246SOL     OW33196   3.759   3.630  15.668  0.1104  0.5083 -0.1293
 7246SOL    HW133197   3.801   3.675  15.741  0.5522 -1.9875  1.1814
 7246SOL    HW233198   3.701   3.696  15.631 -1.8551  0.0065  2.0777
 7247SOL     OW33199   2.056   3.958   7.253  0.2252 -0.2016 -0.1016
 7247SOL    HW133200   1.977   3.951   7.199  0.7257 -0.2299 -0.8159
 7247SOL    HW233201   2.017   4.020   7.315 -1.5828  0.0441 -1.4669
 7248SOL     OW33202   1.882   0.808   0.373 -0.2682 -0.1768 -0.1386
 7248SOL    HW133203   1.808   0.852   0.415 -1.0122  1.1559 -2.8142
 7248SOL    HW233204   1.836   0.732   0.338  0.7538 -1.6436  1.7432
 7249SOL     OW33205   1.835   3.190   7.944  0.2989  0.0899 -0.2023
 7249SOL    HW133206   1.897   3.166   7.876  0.5231  1.1934 -0.3932
 7249SOL    HW233207   1.754   3.206   7.895 -0.3827  1.9194  1.5274
 7250SOL     OW33208   3.909   4.404   4.365 -0.6136 -0.1574  0.0699
 7250SOL    HW133209   3.814   4.394   4.378 -0.4208 -1.2994  0.6045
 7250SOL    HW233210   3.904   4.487   4.318  0.0143 -0.9029 -1.3211
 7251SOL     OW33211   0.513   0.770   2.867  0.0547 -0.3458 -0.3322
 7251SOL    HW133212   0.530   0.693   2.813  2.1065 -0.3296  0.3221
 7251SOL    HW233213   0.605   0.794   2.870 -0.5189  1.4742  2.0223
 7252SOL     OW33214   0.418   0.076   3.870  0.8037  0.2303  0.5495
 7252SOL    HW133215   0.389   0.167   3.876  1.2944  0.5162 -1.3312
 7252SOL    HW233216   0.337   0.030   3.847 -0.2330  2.1677  0.3600
 7253SOL     OW33217   1.483   0.932   2.295  0.1749  0.2636 -0.2635
 7253SOL    HW133218   1.513   0.920   2.205 -0.6554  3.3560 -0.9431
 7253SOL    HW233219   1.563   0.899   2.336 -0.4831 -1.5930 -0.4779
 7254SOL     OW33220   0.126   3.126  11.369 -0.7220 -0.4432  0.8057
 7254SOL    HW133221   0.192   3.080  11.317  1.1661  1.9742  1.0035
 7254SOL    HW233222   0.087   3.050  11.412 -0.3210  0.0570  2.0719
 7255SOL     OW33223   1.014   4.087   3.392  0.3815 -0.1108 -0.1361
 7255SOL    HW133224   0.976   4.104   3.306 -2.3777  0.3403  1.1774
 7255SOL    HW233225   1.058   4.008   3.361 -1.4699 -0.5654 -1.5790
 7256SOL     OW33226   4.699   3.330   2.304 -0.2563  0.3355 -0.3901
 7256SOL    HW133227   4.653   3.319   2.221  0.4319 -1.9461 -0.4559
 7256SOL    HW233228   4.652   3.404   2.343  0.6196 -0.4247  2.1272
 7257SOL     OW33229   0.823   2.691   9.221  0.0206 -0.2208  0.6187
 7257SOL    HW133230   0.910   2.707   9.257  0.6286 -1.3732 -0.3438
 7257SOL    HW233231   0.781   2.633   9.285  0.0235 -0.2032  0.6366
 7258SOL     OW33232   3.525   0.773   3.063  0.0749  0.3061  0.2336
 7258SOL    HW133233   3.509   0.855   3.016  1.8016  1.1558  1.1303
 7258SOL    HW233234   3.617   0.772   3.037 -0.1791  1.1397 -0.6884
 7259SOL     OW33235   3.912   3.618   6.353  0.2498  0.0237 -0.2934
 7259SOL    HW133236   3.859   3.678   6.406  0.1912  0.5332 -0.9301
 7259SOL    HW233237   3.996   3.657   6.378 -0.5875  1.6432  0.0543
 7260SOL     OW33238   1.863   3.878   8.488 -0.1684  0.0797  0.0984
 7260SOL    HW133239   1.900   3.841   8.408 -0.9744 -1.8195  0.6120
 7260SOL    HW233240   1.846   3.802   8.543  0.4605  1.7415  2.5847
 7261SOL     OW33241   2.835   2.602  17.135  0.1203 -0.2129 -0.5959
 7261SOL    HW133242   2.825   2.688  17.178  2.0835 -1.0616  1.5766
 7261SOL    HW233243   2.887   2.617  17.056 -0.0916  1.5325 -0.4187
 7262SOL     OW33244   2.651   1.612  13.129 -0.0302 -0.3526  0.7947
 7262SOL    HW133245   2.646   1.668  13.207  1.9270  2.4095 -1.0950
 7262SOL    HW233246   2.587   1.660  13.076  0.1707 -0.1052  0.7769
 7263SOL     OW33247   0.273   3.020   7.652  0.0786 -0.4054 -0.3935
 7263SOL    HW133248   0.274   3.004   7.746  0.1851  1.0134 -0.1556
 7263SOL    HW233249   0.190   3.065   7.639  1.2310  1.9264  0.3668
 7264SOL     OW33250   0.676   0.942  10.625  0.3176  0.1345  0.9254
 7264SOL    HW133251   0.763   0.934  10.585 -0.3537  0.1489 -0.5526
 7264SOL    HW233252   0.656   0.850  10.641 -1.9189  0.1307 -1.8022
 7265SOL     OW33253   2.045   1.979  12.012  0.3356 -0.7835 -0.3632
 7265SOL    HW133254   2.015   1.910  11.954  0.0256 -0.6814 -0.3260
 7265SOL    HW233255   2.137   1.972  11.989  0.9953  1.8691  1.4943
 7266SOL     OW33256   1.909   3.623  15.138 -0.2169 -0.1521  0.4369
 7266SOL    HW133257   1.819   3.654  15.148  0.1636  0.9040  0.6116
 7266SOL    HW233258   1.889   3.544  15.187  1.1651 -0.2949  0.7879
 7267SOL     OW33259   4.503   2.112  10.853 -0.0244  0.6092 -0.1507
 7267SOL    HW133260   4.467   2.188  10.901 -0.1381  1.0797 -0.9830
 7267SOL    HW233261   4.588   2.105  10.897 -0.9466 -2.4404  1.1612
 7268SOL     OW33262   3.273   2.679   2.983  0.2780 -0.4077  0.4279
 7268SOL    HW133263   3.199   2.665   3.041  0.9933 -0.9619  1.1985
 7268SOL    HW233264   3.218   2.674   2.904 -0.1002 -1.0268  0.7327
 7269SOL     OW33265   4.405   1.081  16.043 -0.7202 -0.2740 -0.6179
 7269SOL    HW133266   4.353   1.077  16.123 -3.4513 -1.1663 -2.4145
 7269SOL    HW233267   4.345   1.129  15.985 -1.5601  0.7632  1.0903
 7270SOL     OW33268   4.154   2.345   5.652 -0.0325  0.3342  0.0503
 7270SOL    HW133269   4.237   2.349   5.700  0.1130  2.6888 -0.3830
 7270SOL    HW233270   4.129   2.253   5.659  0.3821  0.2832  0.8746
 7271SOL     OW33271   4.088   2.458  10.626 -0.4383  0.1919 -0.6316
 7271SOL    HW133272   4.082   2.535  10.569  0.1284 -0.6957 -1.8980
 7271SOL    HW233273   4.120   2.396  10.560  1.7951 -1.2069  1.7775
 7272SOL     OW33274   2.935   0.527   9.683  0.1578 -0.0097  0.0570
 7272SOL    HW133275   2.847   0.550   9.650  0.3835 -1.3612 -1.4956
 7272SOL    HW233276   2.924   0.564   9.770  2.2575 -0.8981  0.6863
 7273SOL     OW33277   0.206   4.015   7.123  0.7516 -0.2099  0.0935
 7273SOL    HW133278   0.296   4.046   7.131  1.3774 -2.1032  0.4542
 7273SOL    HW233279   0.203   3.952   7.196  0.7179  0.7100  0.8832
 7274SOL     OW33280   4.457   1.804   5.643 -0.7793  0.3239 -0.1635
 7274SOL    HW133281   4.459   1.749   5.565  2.1080 -0.0885  0.2103
 7274SOL    HW233282   4.362   1.809   5.653 -0.5976 -0.1627  1.8389
 7275SOL     OW33283   1.850   3.864   5.010  0.5814  0.0269  0.0405
 7275SOL    HW133284   1.875   3.841   5.100  1.6819 -0.3518 -0.3591
 7275SOL    HW233285   1.905   3.941   4.999  1.5356 -0.8247 -1.1494
 7276SOL     OW33286   1.322   3.592   8.620 -0.2622 -0.3088 -0.1942
 7276SOL    HW133287   1.341   3.563   8.710  0.4495  2.1498  0.4482
 7276SOL    HW233288   1.332   3.505   8.582  0.5518  0.2868 -1.3497
 7277SOL     OW33289   3.397   2.218   4.849 -0.0765 -0.0685 -0.6733
 7277SOL    HW133290   3.492   2.223   4.833  0.2699 -1.5214  0.9472
 7277SOL    HW233291   3.375   2.180   4.764  1.5115 -1.1723 -0.5870
 7278SOL     OW33292   3.739   2.167   5.739  0.1570  0.4846 -0.6614
 7278SOL    HW133293   3.698   2.206   5.662 -1.6783  0.0790  0.1130
 7278SOL    HW233294   3.808   2.107   5.711  1.0405  0.4779  1.4603
 7279SOL     OW33295   0.072   4.215   8.077 -0.0740 -0.1707  0.3580
 7279SOL    HW133296   0.165   4.233   8.064 -0.7176  2.5223 -0.4715
 7279SOL    HW233297   0.051   4.154   8.006  1.3814  0.8470 -0.9560
 7280SOL     OW33298   4.500   3.633   5.810  0.3137  0.2107  0.1566
 7280SOL    HW133299   4.536   3.649   5.897 -2.3428 -1.9456  1.6556
 7280SOL    HW233300   4.561   3.663   5.743  1.1377 -2.1402 -0.1112
 7281SOL     OW33301   3.241   4.100   6.701  0.2509  0.5328  0.5128
 7281SOL    HW133302   3.293   4.022   6.683  2.0637  1.7067  0.6132
 7281SOL    HW233303   3.237   4.101   6.797 -0.4192 -2.5529  0.5222
 7282SOL     OW33304   1.575   4.459   7.276  0.2596 -0.1126  0.3160
 7282SOL    HW133305   1.660   4.473   7.233 -0.7008 -1.4187 -1.9930
 7282SOL    HW233306   1.563   4.365   7.268 -2.1165  0.2152  0.0245
 7283SOL     OW33307   1.783   3.416  15.257 -0.4390  0.0080 -0.0445
 7283SOL    HW133308   1.761   3.420  15.350 -1.8646 -4.9095 -0.1625
 7283SOL    HW233309   1.697   3.426  15.216 -0.7262 -0.8483  0.3360
 7284SOL     OW33310   3.325   2.828   2.716 -0.0442  0.5315  0.6406
 7284SOL    HW133311   3.319   2.754   2.777  1.6549  1.8923  2.4500
 7284SOL    HW233312   3.386   2.793   2.650 -0.1516 -0.5964  1.1393
 7285SOL     OW33313   0.918   4.120   8.647  0.2313 -0.4022 -0.1759
 7285SOL    HW133314   0.973   4.103   8.724 -1.5896 -1.3335  0.9413
 7285SOL    HW233315   0.875   4.036   8.633  0.3705 -0.0406 -2.6457
 7286SOL     OW33316   2.488   3.322   5.228  0.4536  0.3818 -0.4018
 7286SOL    HW133317   2.486   3.361   5.140 -1.8720  2.9231  0.7723
 7286SOL    HW233318   2.539   3.243   5.211 -0.5082 -0.4900  0.7879
 7287SOL     OW33319   3.903   1.326  15.615 -0.2514 -0.1241  0.2798
 7287SOL    HW133320   3.914   1.416  15.583  0.6920 -0.8674 -1.4970
 7287SOL    HW233321   3.836   1.342  15.682  0.3271 -1.1563  1.0921
 7288SOL     OW33322   0.975   3.836   4.897  0.7281  0.1107  0.1159
 7288SOL    HW133323   1.058   3.877   4.923 -0.1505  2.3226 -0.5487
 7288SOL    HW233324   0.955   3.899   4.827  1.6005  1.2781  0.9188
 7289SOL     OW33325   2.266   3.473   2.552  0.2108 -0.0295  0.1804
 7289SOL    HW133326   2.349   3.448   2.512  0.7328  0.6791  0.8319
 7289SOL    HW233327   2.233   3.387   2.577  2.0534 -0.7684  0.0740
 7290SOL     OW33328   1.471   3.182   8.727 -0.3580  0.3842  0.7497
 7290SOL    HW133329   1.518   3.173   8.809  0.9893  1.2598  0.0757
 7290SOL    HW233330   1.458   3.088   8.713 -1.5130  0.6644 -0.1275
 7291SOL     OW33331   4.121   1.556   8.074 -0.5306 -0.1042 -0.0781
 7291SOL    HW133332   4.127   1.473   8.122  1.2854  1.9797  3.3159
 7291SOL    HW233333   4.117   1.518   7.986  1.8291  0.9842 -0.6621
 7292SOL     OW33334   2.868   1.509   2.703  0.4042  0.1067 -0.0306
 7292SOL    HW133335   2.924   1.446   2.749  2.9164 -0.3121 -3.6187
 7292SOL    HW233336   2.938   1.553   2.653 -1.4461  1.9325 -1.0326
 7293SOL     OW33337   2.983   2.194   3.601 -0.5460  0.1348  0.1573
 7293SOL    HW133338   2.893   2.216   3.577 -0.9785 -1.6919  0.0878
 7293SOL    HW233339   3.007   2.134   3.531  0.0481 -0.2888  0.7158
 7294SOL     OW33340   2.385   4.517  10.411  0.0320  0.0455 -0.0853
 7294SOL    HW133341   2.364   4.436  10.364 -1.0884  0.0329  0.4424
 7294SOL    HW233342   2.301   4.557  10.429  0.5952  0.7139  1.0205
 7295SOL     OW33343   3.783   3.128   9.213 -0.3464  0.5342 -0.0345
 7295SOL    HW133344   3.759   3.219   9.232 -0.3049 -0.0979  3.0622
 7295SOL    HW233345   3.767   3.098   9.302 -2.0366  2.1927  0.2272
 7296SOL     OW33346   1.838   2.610   5.456 -0.1033  0.0578  0.1899
 7296SOL    HW133347   1.928   2.609   5.489  0.0739  0.9202 -0.2587
 7296SOL    HW233348   1.790   2.579   5.532  0.1344  0.1314  0.3705
 7297SOL     OW33349   3.928   4.173  15.506 -0.2307 -0.6576  0.2839
 7297SOL    HW133350   3.858   4.179  15.441 -0.2467 -0.4476  0.3220
 7297SOL    HW233351   3.936   4.080  15.529  0.0042 -0.5855  0.4924
 7298SOL     OW33352   2.509   1.675   4.906 -0.2042  0.2528  0.2167
 7298SOL    HW133353   2.597   1.640   4.893 -1.4321 -2.4046 -0.8598
 7298SOL    HW233354   2.523   1.764   4.873  1.1175 -0.4098 -0.9818
 7299SOL     OW33355   2.070   1.638  15.264 -0.0883 -0.1412  0.2746
 7299SOL    HW133356   2.154   1.593  15.277 -0.9534 -1.6221  0.7427
 7299SOL    HW233357   2.014   1.566  15.235  0.5353  0.2432 -1.9170
 7300SOL     OW33358   1.713   2.408  14.319  0.2420  0.0341 -1.0998
 7300SOL    HW133359   1.802   2.443  14.319  0.4872 -0.5919  0.4184
 7300SOL    HW233360   1.685   2.432  14.408 -0.3625 -1.5843 -0.8584
 7301SOL     OW33361   4.598   4.620   2.426 -0.1876 -0.3140 -0.8387
 7301SOL    HW133362   4.645   4.703   2.432  1.8883 -1.4839 -1.0688
 7301SOL    HW233363   4.584   4.612   2.332  0.7154 -0.0223 -0.9993
 7302SOL     OW33364   1.506   1.631   9.561  0.0530  0.3431  0.0603
 7302SOL    HW133365   1.521   1.611   9.654  0.4854 -1.1961 -0.3354
 7302SOL    HW233366   1.568   1.701   9.541  1.6281 -0.9219  0.4227
 7303SOL     OW33367   2.079   1.369   6.670  0.3782 -0.2311  0.4170
 7303SOL    HW133368   2.123   1.343   6.751 -3.2583 -1.1734  2.1158
 7303SOL    HW233369   1.994   1.353   6.713  1.1670 -3.7868  0.6765
 7304SOL     OW33370   0.804   4.560   8.280  0.1842  0.0946 -0.1496
 7304SOL    HW133371   0.896   4.583   8.274 -0.6375  3.1636 -1.0442
 7304SOL    HW233372   0.794   4.571   8.374  1.7825  2.1249 -0.2268
 7305SOL     OW33373   4.207   0.273   8.735 -0.0568 -0.3691  0.3960
 7305SOL    HW133374   4.271   0.243   8.670 -1.5007  0.0127 -1.2013
 7305SOL    HW233375   4.128   0.239   8.694 -1.2874  0.5745  1.9933
 7306SOL     OW33376   1.552   3.162   6.296  0.0746 -0.1253 -0.2462
 7306SOL    HW133377   1.601   3.100   6.350  1.4607 -0.8374 -2.3111
 7306SOL    HW233378   1.561   3.246   6.342 -0.9809  1.3811 -2.7850
 7307SOL     OW33379   1.704   1.814   6.322 -0.3221  0.3869  0.1176
 7307SOL    HW133380   1.762   1.752   6.365 -1.6453  0.8983  2.6141
 7307SOL    HW233381   1.632   1.817   6.384 -0.4302  0.3136 -0.0048
 7308SOL     OW33382   2.058   1.315   5.742  0.2904 -0.5824  0.3161
 7308SOL    HW133383   2.019   1.292   5.826  0.9274 -1.0865  0.4681
 7308SOL    HW233384   2.150   1.296   5.757 -0.0643 -2.4311  0.1391
 7309SOL     OW33385   0.438   4.274   7.828 -0.1742  0.3623  0.3951
 7309SOL    HW133386   0.353   4.263   7.785 -0.1792 -3.8954  1.5220
 7309SOL    HW233387   0.410   4.268   7.919  2.1273 -2.3277  0.9334
 7310SOL     OW33388   1.711   1.284   5.769  0.2275  0.1769  0.1349
 7310SOL    HW133389   1.668   1.336   5.701 -0.9535 -0.5492  0.3366
 7310SOL    HW233390   1.684   1.325   5.852  1.6878 -0.0433  0.7227
 7311SOL     OW33391   2.972   0.051   3.979 -0.7874 -0.0808 -0.1494
 7311SOL    HW133392   3.046   0.112   3.987 -0.9925  0.2547 -0.7925
 7311SOL    HW233393   2.960   0.030   4.071  0.8635 -3.3307 -0.6816
 7312SOL     OW33394   2.710   2.446   1.139  0.0176 -0.2380  0.1737
 7312SOL    HW133395   2.628   2.472   1.180 -0.6008 -0.9642 -0.5896
 7312SOL    HW233396   2.743   2.528   1.101  1.9756 -1.3693 -0.5719
 7313SOL     OW33397   1.665   4.145   5.507  0.0263  0.1870 -0.2451
 7313SOL    HW133398   1.695   4.139   5.597  1.2053 -1.1368 -0.7264
 7313SOL    HW233399   1.629   4.233   5.497  0.0101  0.2945  0.8142
 7314SOL     OW33400   0.992   0.919   4.779  0.7836  0.3812  0.0578
 7314SOL    HW133401   1.011   0.984   4.848  0.5333 -0.6352  1.0840
 7314SOL    HW233402   0.903   0.892   4.800  0.5902 -0.0641 -1.3141
 7315SOL     OW33403   2.724   4.096   1.612 -0.0931 -0.8449 -0.1904
 7315SOL    HW133404   2.679   4.139   1.684 -0.2240  1.3532 -1.5887
 7315SOL    HW233405   2.654   4.087   1.547 -1.4229 -1.4329  1.3103
 7316SOL     OW33406   4.135   1.224   4.422 -0.4132  0.0160 -0.3047
 7316SOL    HW133407   4.057   1.170   4.415 -0.9067  0.6808  0.1306
 7316SOL    HW233408   4.108   1.280   4.349  1.9081 -0.7133 -1.7131
 7317SOL     OW33409   4.149   4.128   3.868  0.2702  0.1924  0.4587
 7317SOL    HW133410   4.122   4.110   3.958 -0.5137  0.3164  0.2440
 7317SOL    HW233411   4.186   4.040   3.857 -1.8237 -0.4418 -1.2969
 7318SOL     OW33412   1.068   2.116  15.954  0.3932  0.1962 -0.0119
 7318SOL    HW133413   1.111   2.086  16.034  1.8208  0.3286 -0.7157
 7318SOL    HW233414   1.018   2.038  15.929  2.0414 -1.0886  0.6559
 7319SOL     OW33415   2.652   2.657   2.230 -0.2859  0.2600  0.1681
 7319SOL    HW133416   2.703   2.667   2.149  0.1054 -3.5593 -0.0790
 7319SOL    HW233417   2.576   2.631   2.178  0.6628 -0.1702 -1.0252
 7320SOL     OW33418   4.709   3.002   4.944 -0.6674  0.0592 -0.7493
 7320SOL    HW133419   4.618   2.976   4.949 -0.1581 -1.9695 -1.8711
 7320SOL    HW233420   0.014   3.013   5.036  3.3908 -0.3243 -1.7623
 7321SOL     OW33421   2.772   0.915   4.634 -0.1979  0.1110  0.7957
 7321SOL    HW133422   2.799   0.837   4.584 -1.0456  0.3191  0.0097
 7321SOL    HW233423   2.829   0.977   4.589  0.2296 -1.4065 -0.7397
 7322SOL     OW33424   3.365   3.614   7.246 -0.0878  0.2168 -0.7192
 7322SOL    HW133425   3.281   3.655   7.268  0.2222  0.7483 -0.5178
 7322SOL    HW233426   3.335   3.526   7.223  1.2179 -0.5302  0.4662
 7323SOL     OW33427   4.489   3.327   1.683 -0.2766  0.1196  0.1115
 7323SOL    HW133428   4.429   3.300   1.751 -0.4675 -3.6150 -1.5121
 7323SOL    HW233429   4.430   3.341   1.608  1.9789 -2.3059 -2.1372
 7324SOL     OW33430   0.712   1.651   1.020  0.2612  0.0491  0.5752
 7324SOL    HW133431   0.660   1.571   1.017  2.0488 -1.0948  0.1794
 7324SOL    HW233432   0.801   1.623   1.040 -0.0651 -0.4564  1.3117
 7325SOL     OW33433   0.558   0.599  10.228 -0.3231 -0.0425  0.2428
 7325SOL    HW133434   0.482   0.551  10.197 -0.1846 -0.2660  0.2491
 7325SOL    HW233435   0.524   0.617  10.316  3.3107  1.7641  1.2767
 7326SOL     OW33436   1.997   3.122  15.612 -0.3981  0.4979  0.0285
 7326SOL    HW133437   1.942   3.071  15.672 -0.6527  1.2429  0.4307
 7326SOL    HW233438   2.081   3.120  15.660 -0.2039 -0.2561 -0.3420
 7327SOL     OW33439   1.229   4.378  12.507 -0.3377 -0.1629  0.1333
 7327SOL    HW133440   1.143   4.384  12.467 -0.0464 -0.9877 -0.6341
 7327SOL    HW233441   1.288   4.347  12.438 -0.9952  0.7943 -0.8421
 7328SOL     OW33442   2.740   4.321  13.850  0.7757 -0.1848 -0.1935
 7328SOL    HW133443   2.787   4.364  13.778  0.1196  2.8067  1.1725
 7328SOL    HW233444   2.707   4.396  13.900  2.4725  0.3736  0.1148
 7329SOL     OW33445   1.688   1.385   5.358 -0.1377  0.5443 -0.1858
 7329SOL    HW133446   1.653   1.349   5.277  1.9458  1.9252 -1.6617
 7329SOL    HW233447   1.765   1.434   5.330 -0.9030  0.3732 -2.5973
 7330SOL     OW33448   4.416   0.469  11.760  0.1759  0.2782  0.2151
 7330SOL    HW133449   4.380   0.482  11.672  0.9650  0.2137 -0.1164
 7330SOL    HW233450   4.388   0.556  11.786  0.7625  0.0230  1.6707
 7331SOL     OW33451   2.660   2.392   6.133 -0.1653  0.5385 -0.2400
 7331SOL    HW133452   2.632   2.304   6.157  2.2520  0.3021  1.7541
 7331SOL    HW233453   2.721   2.373   6.062  0.5870 -1.9542  1.0706
 7332SOL     OW33454   2.093   1.778   7.931 -0.2780  0.2884 -0.0279
 7332SOL    HW133455   2.186   1.762   7.918  0.4480  3.4718  1.4820
 7332SOL    HW233456   2.079   1.857   7.879  1.6664  0.3397 -0.4472
 7333SOL     OW33457   1.976   1.784  15.900 -0.0478  0.7045  0.3854
 7333SOL    HW133458   1.952   1.813  15.812  0.5634  3.1397  1.0457
 7333SOL    HW233459   1.956   1.690  15.899 -1.3358  1.0021 -1.6145
 7334SOL     OW33460   0.774   2.895   9.008  0.3345 -0.2712  0.2771
 7334SOL    HW133461   0.734   2.823   9.058  1.1246  0.3168  1.7349
 7334SOL    HW233462   0.810   2.956   9.072  0.7965 -0.7213  0.4447
 7335SOL     OW33463   3.791   3.185   6.494  0.3223  0.4001 -0.7706
 7335SOL    HW133464   3.759   3.232   6.417  1.4577 -1.5138 -2.4156
 7335SOL    HW233465   3.796   3.096   6.459 -1.3051  0.5409 -1.3566
 7336SOL     OW33466   1.872   3.857  14.765  0.0379  0.1346 -0.0229
 7336SOL    HW133467   1.949   3.895  14.723 -0.3222  0.0469 -0.7657
 7336SOL    HW233468   1.887   3.860  14.860  1.7367 -0.3488 -0.2920
 7337SOL     OW33469   3.125   1.669   8.839 -0.0354  0.1704 -0.1930
 7337SOL    HW133470   3.060   1.736   8.861 -0.5141 -0.7551  1.2181
 7337SOL    HW233471   3.199   1.706   8.888 -0.1310  1.1158 -0.7465
 7338SOL     OW33472   2.783   3.122   7.517  0.5397 -0.0400  0.3325
 7338SOL    HW133473   2.813   3.208   7.488  0.9830 -1.1630 -2.5087
 7338SOL    HW233474   2.707   3.098   7.465  1.3316 -1.1885 -0.3194
 7339SOL     OW33475   4.468   4.418   5.217  0.0863 -0.2889 -0.2064
 7339SOL    HW133476   4.380   4.451   5.234  0.1199  0.7450 -2.0706
 7339SOL    HW233477   4.486   4.366   5.296  1.8767 -1.0077 -1.0918
 7340SOL     OW33478   3.668   4.344   9.033  0.0708  0.1261  0.1033
 7340SOL    HW133479   3.747   4.298   9.005  0.0469 -0.4770  1.0436
 7340SOL    HW233480   3.602   4.280   9.008  0.3887 -0.7559  1.5662
 7341SOL     OW33481   4.274   2.512  17.001  0.7865 -0.0328 -0.1603
 7341SOL    HW133482   4.204   2.533  16.940 -0.0381 -0.6501  0.5823
 7341SOL    HW233483   4.335   2.583  16.980 -1.3189  2.0467  0.8347
 7342SOL     OW33484   0.590   2.663  10.614 -0.3884 -0.1606 -0.3184
 7342SOL    HW133485   0.602   2.747  10.570 -0.6915  0.5566  0.9637
 7342SOL    HW233486   0.683   2.646  10.630 -0.5916 -0.6157  0.3841
 7343SOL     OW33487   4.621   3.623  16.316 -0.4793 -0.2694 -0.0798
 7343SOL    HW133488   4.553   3.565  16.283  2.5807 -3.5624 -0.6623
 7343SOL    HW233489   4.633   3.586  16.404  4.1372 -0.7090 -0.8917
 7344SOL     OW33490   4.085   2.849   5.838  0.2589 -0.1444 -0.7602
 7344SOL    HW133491   4.128   2.767   5.858 -0.9664 -0.8336 -0.9320
 7344SOL    HW233492   4.128   2.910   5.897  1.1230  0.9417 -2.4842
 7345SOL     OW33493   3.477   3.386   6.452  0.2161  0.7867  0.0372
 7345SOL    HW133494   3.396   3.433   6.434 -2.0152 -3.2684 -0.6724
 7345SOL    HW233495   3.483   3.383   6.548 -1.5073  1.6214  0.1699
 7346SOL     OW33496   3.565   1.523  13.234  0.8245 -0.0053 -0.0837
 7346SOL    HW133497   3.537   1.434  13.256 -0.1126  0.5331  0.8887
 7346SOL    HW233498   3.587   1.567  13.316 -1.5226 -1.9624  1.5950
 7347SOL     OW33499   4.016   1.691   3.266 -0.3260 -0.0677 -0.1546
 7347SOL    HW133500   3.975   1.623   3.214 -1.3903  0.8558 -0.5310
 7347SOL    HW233501   3.933   1.739   3.271 -0.1755  0.4014 -2.2934
 7348SOL     OW33502   3.684   1.840   3.673 -0.0125 -0.2863  0.4671
 7348SOL    HW133503   3.718   1.782   3.741 -0.1968  0.0087  0.8115
 7348SOL    HW233504   3.645   1.782   3.607 -1.8073  1.4364  0.0053
 7349SOL     OW33505   2.526   3.792   1.785 -0.3702 -0.0234  0.0654
 7349SOL    HW133506   2.605   3.801   1.733  0.8222 -1.9894  1.5080
 7349SOL    HW233507   2.534   3.841   1.867  1.0477  1.7905 -1.1618
 7350SOL     OW33508   3.005   4.611   4.459  0.0526  0.1099 -0.1895
 7350SOL    HW133509   3.099   4.619   4.442  1.1780 -1.9903  4.9317
 7350SOL    HW233510   3.001   4.582   4.550  0.7532 -1.9268 -0.7843
 7351SOL     OW33511   3.897   2.344   4.099  0.3701  0.0918 -0.3368
 7351SOL    HW133512   3.986   2.332   4.065 -0.2186  0.8404 -2.1532
 7351SOL    HW233513   3.915   2.416   4.160 -0.0496  1.5787 -1.9679
 7352SOL     OW33514   0.651   2.877   6.512 -0.6172  0.0844 -0.1342
 7352SOL    HW133515   0.643   2.801   6.569  3.0061 -0.4110 -0.2816
 7352SOL    HW233516   0.582   2.845   6.453 -0.2142  1.4648 -1.3547
 7353SOL     OW33517   3.883   1.260  10.133 -0.7203  0.4536  0.3954
 7353SOL    HW133518   3.874   1.322  10.205  0.1911 -0.3809  1.2419
 7353SOL    HW233519   3.979   1.263  10.127 -0.4809 -0.6682  4.0212
 7354SOL     OW33520   3.072   0.467   6.206 -0.2295  0.1229  0.9632
 7354SOL    HW133521   3.167   0.469   6.220 -0.0608 -1.6036  0.0376
 7354SOL    HW233522   3.055   0.561   6.200 -1.2295 -0.1705 -0.5570
 7355SOL     OW33523   0.405   4.615   7.982  0.0067 -0.9004 -0.0263
 7355SOL    HW133524   0.460   4.551   8.028 -0.3650 -1.5221 -0.4348
 7355SOL    HW233525   0.333   4.562   7.948 -1.8351  1.2266  0.5497
 7356SOL     OW33526   3.637   1.120   7.324  0.1782 -0.2624 -0.9342
 7356SOL    HW133527   3.568   1.114   7.258 -0.6452 -2.6557  0.1696
 7356SOL    HW233528   3.606   1.062   7.393  0.8027  1.1293  0.5173
 7357SOL     OW33529   3.454   0.664   1.116  0.1183 -0.4874  0.3023
 7357SOL    HW133530   3.429   0.681   1.207  1.5452 -1.0190  0.7827
 7357SOL    HW233531   3.482   0.750   1.082 -3.2292 -0.3615 -2.1550
 7358SOL     OW33532   0.384   3.994   7.522  0.4688 -0.4834 -0.0701
 7358SOL    HW133533   0.461   4.003   7.467 -0.5800 -0.4011 -1.5267
 7358SOL    HW233534   0.406   3.912   7.566 -0.1448 -0.5414  0.1403
 7359SOL     OW33535   3.154   4.590   1.318 -0.2140 -0.1830  0.1314
 7359SOL    HW133536   3.212   4.637   1.378 -0.7164 -0.2013  0.6323
 7359SOL    HW233537   3.070   4.584   1.363  0.7209  0.3729  1.9575
 7360SOL     OW33538   3.968   3.770   1.032  0.2717 -0.2057  0.3717
 7360SOL    HW133539   3.920   3.699   1.075  0.0960  0.4140  1.2068
 7360SOL    HW233540   3.959   3.727   0.947 -1.0159 -1.1650  0.9852
 7361SOL     OW33541   3.739   0.409   9.855 -0.0579 -0.6626  0.2224
 7361SOL    HW133542   3.822   0.372   9.884  0.5128  1.6140  1.4648
 7361SOL    HW233543   3.762   0.501   9.864 -0.2998 -0.7522  1.7742
 7362SOL     OW33544   2.580   0.004   3.775 -0.4312 -0.3587 -0.2663
 7362SOL    HW133545   2.573   4.716   3.680 -1.3400  1.4009 -0.3349
 7362SOL    HW233546   2.672   4.700   3.790  0.7192  3.6143 -0.9842
 7363SOL     OW33547   4.353   1.004  14.145  0.1191 -0.2125 -0.2245
 7363SOL    HW133548   4.436   1.052  14.148  0.4085 -0.6958 -0.3744
 7363SOL    HW233549   4.347   0.974  14.236  0.8785  0.2470 -0.0230
 7364SOL     OW33550   0.563   2.040   3.890  0.2014  0.1770  0.4877
 7364SOL    HW133551   0.610   2.121   3.868 -0.5295  0.1924 -1.0716
 7364SOL    HW233552   0.475   2.074   3.873 -0.4011 -1.7471 -0.2099
 7365SOL     OW33553   0.857   0.808   0.140 -0.1190 -0.3443 -0.1520
 7365SOL    HW133554   0.818   0.758   0.069  1.6016  0.1886 -1.4828
 7365SOL    HW233555   0.947   0.823   0.111  0.8170 -3.6965  1.0080
 7366SOL     OW33556   4.674   0.604   2.531 -0.3618 -0.0022  0.1262
 7366SOL    HW133557   0.036   0.654   2.522 -0.1402 -0.3914 -0.0442
 7366SOL    HW233558   4.710   0.523   2.569 -0.3563  0.3937  0.9446
 7367SOL     OW33559   1.977   4.046   6.036  0.1171  0.1222 -0.0622
 7367SOL    HW133560   1.917   3.977   6.066 -1.2174  1.5052  0.4022
 7367SOL    HW233561   1.934   4.074   5.955  0.1927  1.2049  0.2749
 7368SOL     OW33562   2.519   0.728   1.596 -0.2464 -0.2356  0.6288
 7368SOL    HW133563   2.559   0.647   1.627  0.5561  0.2487  0.8435
 7368SOL    HW233564   2.468   0.683   1.528  1.4915 -2.3445  0.7347
 7369SOL     OW33565   0.579   4.212   5.055  0.1886 -0.2921 -0.6621
 7369SOL    HW133566   0.573   4.299   5.015 -1.1139  0.1411  0.4667
 7369SOL    HW233567   0.498   4.207   5.106  1.8527 -2.6869  1.7184
 7370SOL     OW33568   1.694   2.662   2.434 -0.3109  0.6574  0.5372
 7370SOL    HW133569   1.662   2.730   2.376 -1.9035 -2.0027 -1.6821
 7370SOL    HW233570   1.787   2.681   2.421 -0.0966 -2.1844 -2.0123
 7371SOL     OW33571   3.672   1.037   4.804 -0.1600  0.4871  0.0598
 7371SOL    HW133572   3.710   0.950   4.810  0.0655  0.4303 -2.1480
 7371SOL    HW233573   3.591   1.016   4.759 -0.1572  1.5056 -0.4194
 7372SOL     OW33574   2.406   3.089   8.827 -0.0534  0.2761  0.2353
 7372SOL    HW133575   2.399   3.154   8.897  0.2775  2.6466 -1.9100
 7372SOL    HW233576   2.347   3.127   8.761  0.8405 -1.7710 -1.7381
 7373SOL     OW33577   0.042   3.351   3.911  0.4920 -0.2609 -0.3163
 7373SOL    HW133578   0.021   3.404   3.834  0.5401  0.0773 -0.0967
 7373SOL    HW233579   0.099   3.283   3.875 -0.0997 -1.4884  1.0148
 7374SOL     OW33580   3.683   1.390  15.788 -0.2036  0.5208 -0.1315
 7374SOL    HW133581   3.644   1.475  15.770 -1.6379  0.2155  1.5767
 7374SOL    HW233582   3.616   1.342  15.837  0.1099  2.3703  2.1027
 7375SOL     OW33583   3.699   2.945   0.829  0.2467  0.0264  0.8749
 7375SOL    HW133584   3.706   3.036   0.858  1.9038  0.5602 -1.1480
 7375SOL    HW233585   3.607   2.932   0.804  1.4536  0.6284 -3.7611
 7376SOL     OW33586   0.592   3.219   2.615 -0.1395 -0.1660 -0.2639
 7376SOL    HW133587   0.631   3.160   2.680 -1.0327 -2.1902 -1.5712
 7376SOL    HW233588   0.593   3.296   2.671 -0.1610 -0.7066  0.4857
 7377SOL     OW33589   0.738   3.789   9.187 -0.0127 -0.2869 -0.4640
 7377SOL    HW133590   0.742   3.765   9.094 -1.3796  0.7234 -0.7770
 7377SOL    HW233591   0.798   3.863   9.189  0.3233 -0.3886 -4.9895
 7378SOL     OW33592   1.789   1.736   8.626  0.1144  0.2429 -0.1755
 7378SOL    HW133593   1.821   1.766   8.541  0.7651  1.5410  0.5254
 7378SOL    HW233594   1.864   1.705   8.676 -1.5339  0.0929  2.2545
 7379SOL     OW33595   3.299   3.785   2.105  0.0198 -0.0443 -0.0341
 7379SOL    HW133596   3.240   3.853   2.071 -1.0140 -0.4480  0.9499
 7379SOL    HW233597   3.272   3.706   2.059 -1.0104 -1.5511  3.1668
 7380SOL     OW33598   0.698   0.753   6.457 -0.3733 -0.1040  0.6657
 7380SOL    HW133599   0.648   0.745   6.538 -1.8650  0.6268 -0.1727
 7380SOL    HW233600   0.739   0.838   6.475 -1.4742  0.5131  0.2361
 7381SOL     OW33601   4.581   2.755  10.513 -0.0520 -0.0747 -0.2648
 7381SOL    HW133602   4.642   2.688  10.544  0.7427  0.8310  0.1272
 7381SOL    HW233603   4.636   2.810  10.458  1.6125 -1.2796  0.1711
 7382SOL     OW33604   2.050   0.074  15.336  0.9831 -0.2673 -0.5096
 7382SOL    HW133605   2.074   4.717  15.389  1.5487  0.1215 -0.2125
 7382SOL    HW233606   2.065   0.037  15.249  0.1527  0.3817 -0.9270
 7383SOL     OW33607   1.018   4.198   4.097  0.0460  0.7901 -0.1744
 7383SOL    HW133608   1.019   4.156   4.011  0.0817  0.7325 -0.1459
 7383SOL    HW233609   0.962   4.135   4.143  0.2813 -0.3003 -1.3615
 7384SOL     OW33610   1.243   2.157   3.267 -0.4440 -0.0243 -0.0031
 7384SOL    HW133611   1.271   2.109   3.190 -0.2351 -1.5889  1.0331
 7384SOL    HW233612   1.327   2.154   3.313 -1.0725 -0.6951  1.1286
 7385SOL     OW33613   2.647   0.549   1.259 -0.8699 -0.1806  0.8229
 7385SOL    HW133614   2.588   0.554   1.184 -0.1135  0.6116  0.2779
 7385SOL    HW233615   2.590   0.581   1.330  0.4845 -1.1219  2.3364
 7386SOL     OW33616   4.529   2.795   4.989  0.1548  0.1710  0.1475
 7386SOL    HW133617   4.496   2.742   5.061 -4.3971  0.3966 -1.7944
 7386SOL    HW233618   4.551   2.723   4.930  0.8029  0.2658  0.2661
 7387SOL     OW33619   2.098   0.724  17.089  0.1247 -0.0246 -0.0164
 7387SOL    HW133620   2.185   0.703  17.121 -0.6173  0.4810  2.3236
 7387SOL    HW233621   2.132   0.769  17.012  0.1337  0.9285  0.5462
 7388SOL     OW33622   2.535   2.085   1.186 -0.6326 -0.1269  0.2649
 7388SOL    HW133623   2.522   2.053   1.097 -0.2185  0.1115  0.1205
 7388SOL    HW233624   2.528   2.004   1.237 -2.3694  0.5651  1.1546
 7389SOL     OW33625   3.885   3.803   8.536 -0.0383 -0.2273  0.1154
 7389SOL    HW133626   3.940   3.726   8.524 -2.4296 -1.6794 -1.5398
 7389SOL    HW233627   3.944   3.867   8.496 -1.2704 -0.0767 -1.5021
 7390SOL     OW33628   3.223   2.924   0.960 -0.2279  0.3368  0.3051
 7390SOL    HW133629   3.249   2.833   0.969 -0.5048  0.1685 -0.6114
 7390SOL    HW233630   3.139   2.917   0.916 -0.9667  2.9159  1.3157
 7391SOL     OW33631   3.523   0.398   6.065  0.2792 -0.5700  0.6854
 7391SOL    HW133632   3.616   0.378   6.075 -0.0591 -1.6108  1.7560
 7391SOL    HW233633   3.491   0.364   6.149 -0.3656  1.7372  1.3573
 7392SOL     OW33634   1.519   1.740   8.686 -0.8016  0.3946 -0.4026
 7392SOL    HW133635   1.533   1.835   8.692  2.6998 -0.2444  1.6954
 7392SOL    HW233636   1.609   1.710   8.673 -0.2686  1.1480  1.5442
 7393SOL     OW33637   4.014   2.388   0.893 -0.3765  0.1969  0.0362
 7393SOL    HW133638   4.031   2.482   0.885  0.4776  0.2202  2.1613
 7393SOL    HW233639   3.949   2.383   0.964  2.5783 -0.7353  2.6742
 7394SOL     OW33640   3.932   0.827   4.061  0.1025 -0.4794 -0.4725
 7394SOL    HW133641   4.003   0.856   4.119 -2.3419  1.0602  1.7552
 7394SOL    HW233642   3.885   0.778   4.128  0.3800  1.6330  1.2592
 7395SOL     OW33643   0.034   3.280   1.001  0.5128 -0.3888 -0.2165
 7395SOL    HW133644   4.659   3.288   0.985 -0.0031 -0.3381  2.8626
 7395SOL    HW233645   0.083   3.323   0.931  2.5832 -0.8824  0.9303
 7396SOL     OW33646   4.452   1.441   8.539 -0.0397 -0.7065  0.0294
 7396SOL    HW133647   4.445   1.458   8.633  2.5602 -1.2622  0.3411
 7396SOL    HW233648   4.517   1.371   8.536 -2.2919 -2.7167 -1.4653
 7397SOL     OW33649   1.580   2.325  12.471  0.0116  0.0547  0.3945
 7397SOL    HW133650   1.499   2.334  12.421 -0.1732 -0.8870  0.5220
 7397SOL    HW233651   1.643   2.340  12.399 -0.6397  0.0164 -0.1817
 7398SOL     OW33652   2.200   0.689   8.722  0.6407 -0.0578 -0.6677
 7398SOL    HW133653   2.149   0.686   8.803  2.0737 -1.6098  0.1766
 7398SOL    HW233654   2.161   0.769   8.688  1.3393  0.4091 -0.3868
 7399SOL     OW33655   4.295   0.382   2.625 -0.1871 -0.4439  0.3276
 7399SOL    HW133656   4.342   0.394   2.707 -0.3325  3.8880 -0.2267
 7399SOL    HW233657   4.247   0.300   2.640 -0.6090 -0.1843  0.3842
 7400SOL     OW33658   2.068   0.482   0.668 -0.5313 -0.2845 -0.1934
 7400SOL    HW133659   2.028   0.553   0.618 -1.6583 -1.2294 -0.6307
 7400SOL    HW233660   2.088   0.414   0.604 -1.6196 -2.0280  1.3122
 7401SOL     OW33661   3.855   1.975   6.516 -0.5141  0.0058  0.3448
 7401SOL    HW133662   3.787   2.013   6.460 -3.1968 -3.8395  0.9866
 7401SOL    HW233663   3.874   2.055   6.565  1.5892  0.6499 -1.5562
 7402SOL     OW33664   2.079   3.954  14.631  0.5285 -0.3116 -0.0535
 7402SOL    HW133665   2.067   4.048  14.617 -0.5696 -0.6571 -1.4133
 7402SOL    HW233666   2.107   3.917  14.547  0.4706 -1.0769  0.2636
 7403SOL     OW33667   3.014   2.841   0.574  0.0719 -0.3264  0.3970
 7403SOL    HW133668   2.986   2.874   0.660  0.3569  1.2474 -0.1133
 7403SOL    HW233669   3.021   2.921   0.523 -1.5338  0.0054  0.6891
 7404SOL     OW33670   0.549   3.698   1.916  0.0490 -0.2343 -0.1599
 7404SOL    HW133671   0.469   3.666   1.958  2.1125  0.4041  4.2559
 7404SOL    HW233672   0.566   3.612   1.877  2.2638 -0.0272  0.3100
 7405SOL     OW33673   3.526   1.070   3.989  0.1548 -0.2528 -0.4775
 7405SOL    HW133674   3.481   0.991   3.959 -0.4282 -0.6062  1.3642
 7405SOL    HW233675   3.619   1.046   3.983  0.4758  0.6524  0.9303
 7406SOL     OW33676   2.317   1.813  10.269  0.1280  0.0762  0.0577
 7406SOL    HW133677   2.372   1.846  10.198  2.6434 -0.2052  1.8365
 7406SOL    HW233678   2.316   1.894  10.320  2.3483  0.7804 -1.0079
 7407SOL     OW33679   3.328   1.184  13.022 -0.2168  0.6048  0.5378
 7407SOL    HW133680   3.362   1.099  12.994  0.2983  0.8459  0.4157
 7407SOL    HW233681   3.234   1.172  13.030 -0.0841 -0.4458  0.5333
 7408SOL     OW33682   3.491   0.906   4.640  0.7243 -0.7251 -0.6569
 7408SOL    HW133683   3.546   0.947   4.573 -0.3740  0.1503 -1.0283
 7408SOL    HW233684   3.421   0.885   4.578 -1.1280 -0.0439  1.1906
 7409SOL     OW33685   4.702   3.874   6.285 -0.3447 -0.1503 -0.2243
 7409SOL    HW133686   4.650   3.833   6.354 -2.0098  0.5131 -1.0895
 7409SOL    HW233687   4.676   3.963   6.307  2.0452  0.6137 -0.4129
 7410SOL     OW33688   1.076   4.256   3.628 -0.4741 -0.0291  0.1562
 7410SOL    HW133689   1.030   4.324   3.581  1.5054  1.4445  0.3566
 7410SOL    HW233690   1.087   4.189   3.560  0.5992 -0.3806  0.6728
 7411SOL     OW33691   1.955   3.293   2.997  0.0533  0.0822 -0.2996
 7411SOL    HW133692   1.992   3.361   3.053  1.7338 -0.9201 -0.1981
 7411SOL    HW233693   1.867   3.331   2.996 -0.6506 -1.5470 -0.6843
 7412SOL     OW33694   2.467   0.966   5.015 -0.3826  0.3820  0.6308
 7412SOL    HW133695   2.373   0.983   5.003 -0.0249  1.4987 -0.6417
 7412SOL    HW233696   2.499   1.001   4.931 -0.6771 -2.6650 -0.7602
 7413SOL     OW33697   1.198   4.681   7.711 -0.2965  0.7381 -0.3018
 7413SOL    HW133698   1.232   0.051   7.709 -0.8358  0.9467 -0.0831
 7413SOL    HW233699   1.275   4.628   7.692 -0.5292  0.0158  0.7517
 7414SOL     OW33700   0.861   0.751  15.700  0.1567  0.5539  0.2042
 7414SOL    HW133701   0.852   0.703  15.618 -0.6751  0.6196  0.2589
 7414SOL    HW233702   0.885   0.837  15.666  1.2454 -0.6699 -2.2043
 7415SOL     OW33703   2.189   2.260   3.105  0.8539 -0.1614 -0.3551
 7415SOL    HW133704   2.242   2.187   3.075  0.1902 -1.2789  1.1810
 7415SOL    HW233705   2.221   2.335   3.055 -0.7268  0.4986 -0.3944
 7416SOL     OW33706   0.379   1.544   5.690 -0.0504 -0.0381 -0.4214
 7416SOL    HW133707   0.302   1.498   5.724  0.7256 -0.4127  0.8081
 7416SOL    HW233708   0.402   1.478   5.624 -0.7212  0.0718 -0.7734
 7417SOL     OW33709   3.196   4.154  14.806  0.1684 -0.3692 -0.4081
 7417SOL    HW133710   3.208   4.193  14.719 -1.7721  1.8161  0.3271
 7417SOL    HW233711   3.239   4.219  14.860  0.8226 -0.3886 -0.9019
 7418SOL     OW33712   0.814   0.987   8.485 -0.3174 -1.0242 -0.0397
 7418SOL    HW133713   0.731   1.035   8.487  0.9261  1.1051  0.0130
 7418SOL    HW233714   0.872   1.052   8.525 -0.9550 -0.8694  0.6305
 7419SOL     OW33715   4.258   3.512   2.478  1.1145  0.3405  0.4062
 7419SOL    HW133716   4.301   3.516   2.563 -0.0614  2.5074  0.9139
 7419SOL    HW233717   4.175   3.468   2.499  0.4867  0.7137 -1.2529
 7420SOL     OW33718   0.152   1.967   9.570  0.1415 -0.4715 -0.0930
 7420SOL    HW133719   0.076   1.917   9.539 -0.2508 -1.0902  1.8404
 7420SOL    HW233720   0.159   1.920   9.653  1.6755 -1.4365 -0.7791
 7421SOL     OW33721   0.385   3.842   6.324 -0.0162 -0.5022 -0.0361
 7421SOL    HW133722   0.402   3.751   6.351 -1.4515 -0.6782  0.2909
 7421SOL    HW233723   0.366   3.882   6.409  0.6799 -1.6901  0.6893
 7422SOL     OW33724   0.257   0.019   6.577  0.1420 -0.0828  0.1829
 7422SOL    HW133725   0.324   0.046   6.640 -0.7475  3.4162 -0.3489
 7422SOL    HW233726   0.310   0.021   6.496 -0.5877  1.7960 -0.2666
 7423SOL     OW33727   0.354   3.201   8.907 -0.5475 -0.0293 -0.0749
 7423SOL    HW133728   0.426   3.186   8.968  1.9025  0.9399 -2.7149
 7423SOL    HW233729   0.281   3.209   8.968 -0.0333  0.1420  0.5161
 7424SOL     OW33730   1.456   0.269  15.966 -0.8422  0.5208 -0.2556
 7424SOL    HW133731   1.410   0.328  16.026  1.4692  1.8502  0.2131
 7424SOL    HW233732   1.391   0.199  15.968  2.1312 -2.1349  3.0669
 7425SOL     OW33733   3.499   2.086   4.337 -0.2615  0.1582  0.0631
 7425SOL    HW133734   3.442   2.163   4.330 -0.4534  0.0796  0.7215
 7425SOL    HW233735   3.578   2.120   4.379  0.8325 -2.4220  0.1018
 7426SOL     OW33736   1.923   3.826   7.792 -0.2362 -0.1577 -0.0865
 7426SOL    HW133737   1.883   3.758   7.847  0.9361  0.0272  0.9952
 7426SOL    HW233738   1.852   3.890   7.802 -2.1380 -2.2233 -0.4944
 7427SOL     OW33739   4.064   1.210   6.455 -0.3249 -0.3901  0.1238
 7427SOL    HW133740   4.030   1.260   6.381  0.4494  1.9478  1.3604
 7427SOL    HW233741   3.982   1.174   6.488  0.7893 -0.7700  2.4627
 7428SOL     OW33742   1.182   4.589   3.052  0.1317 -0.2295  1.0413
 7428SOL    HW133743   1.165   4.575   2.959  0.9897 -0.8103  0.9685
 7428SOL    HW233744   1.209   4.681   3.051 -1.1801  0.1290 -0.5708
 7429SOL     OW33745   1.764   0.966   8.165 -0.3097 -0.3278  0.2556
 7429SOL    HW133746   1.853   0.941   8.139 -0.6204 -1.1546 -0.0148
 7429SOL    HW233747   1.747   0.907   8.238 -0.1149 -0.8862 -0.1475
 7430SOL     OW33748   1.505   2.067   0.670 -0.1808 -0.0708 -0.4674
 7430SOL    HW133749   1.474   2.093   0.757 -0.9225 -2.1207 -0.1281
 7430SOL    HW233750   1.597   2.049   0.687  0.0192 -0.1580 -1.6452
 7431SOL     OW33751   4.625   1.296   7.605  0.0771  0.5244 -0.2539
 7431SOL    HW133752   4.567   1.246   7.548 -1.5857  0.4835  1.4669
 7431SOL    HW233753   4.646   1.226   7.667 -0.7294 -1.5932 -2.3571
 7432SOL     OW33754   4.079   4.124   1.923 -0.2466 -0.0451 -0.2262
 7432SOL    HW133755   4.083   4.161   1.835  0.2343 -1.0714 -0.6420
 7432SOL    HW233756   4.026   4.046   1.907 -0.6151  0.1240  0.1650
 7433SOL     OW33757   1.964   2.291   7.943  0.3158  0.1470 -0.1700
 7433SOL    HW133758   2.012   2.374   7.952 -0.2932  0.5492 -0.6586
 7433SOL    HW233759   2.038   2.236   7.970  0.0918 -0.0924 -0.0500
 7434SOL     OW33760   3.989   1.413   6.717 -0.3799  0.5813  0.2858
 7434SOL    HW133761   3.915   1.455   6.760 -0.9299  1.3415 -1.3958
 7434SOL    HW233762   3.983   1.420   6.621  0.3264  2.9790  0.3966
 7435SOL     OW33763   1.952   0.940   6.163 -0.4642  0.0120  0.1722
 7435SOL    HW133764   1.909   0.981   6.088  1.2201 -0.3704 -0.9923
 7435SOL    HW233765   1.947   0.849   6.132 -1.8819  0.6728 -1.5605
 7436SOL     OW33766   4.071   3.847   9.059  0.7023  0.4757 -0.1915
 7436SOL    HW133767   4.016   3.925   9.052 -0.8966 -0.7095 -0.7750
 7436SOL    HW233768   4.053   3.812   9.147 -2.2770 -2.3516 -1.9386
 7437SOL     OW33769   3.128   2.293   3.299  0.2737  0.3201 -0.4736
 7437SOL    HW133770   3.108   2.284   3.206 -0.7213  0.9624 -0.3280
 7437SOL    HW233771   3.151   2.205   3.328 -0.4132  0.8935  1.7767
 7438SOL     OW33772   1.810   4.414   2.512  0.1123  0.0318  0.0323
 7438SOL    HW133773   1.898   4.389   2.540  0.2142  2.5997  2.0749
 7438SOL    HW233774   1.792   4.328   2.476 -1.1911  1.0806 -1.8113
 7439SOL     OW33775   4.657   2.871  16.355  0.1792 -0.0425 -0.1033
 7439SOL    HW133776   4.711   2.937  16.312  0.4203 -0.6123 -0.6689
 7439SOL    HW233777   4.619   2.819  16.284 -1.8179  2.7976 -1.1039
 7440SOL     OW33778   3.934   1.069  15.553 -0.1205 -0.0930 -0.3595
 7440SOL    HW133779   4.027   1.074  15.532  0.1587  1.6151  1.3046
 7440SOL    HW233780   3.914   1.157  15.583  0.1747 -0.0781 -0.2077
 7441SOL     OW33781   4.215   4.014   8.876  0.1631 -0.3009  0.4585
 7441SOL    HW133782   4.265   4.039   8.954  1.2071 -1.5516  0.1930
 7441SOL    HW233783   4.160   3.944   8.911 -0.0675 -0.2812  0.1350
 7442SOL     OW33784   1.806   4.056   3.029  0.5133  0.0553 -0.0450
 7442SOL    HW133785   1.733   4.017   3.077 -0.1499 -0.3508 -1.4057
 7442SOL    HW233786   1.795   4.014   2.944 -2.9194  0.9897 -0.0440
 7443SOL     OW33787   2.169   1.505   0.380  0.8232 -0.0158 -0.1889
 7443SOL    HW133788   2.178   1.415   0.412  1.4370  0.5125  1.1390
 7443SOL    HW233789   2.124   1.549   0.452  0.6267 -2.1406  0.9897
 7444SOL     OW33790   4.275   4.548  13.186 -0.1642 -0.1803  0.6504
 7444SOL    HW133791   4.319   4.469  13.156  0.1652  0.4795 -0.5846
 7444SOL    HW233792   4.355   4.599  13.190 -0.6965  0.8053 -1.1403
 7445SOL     OW33793   4.152   4.471   6.991  0.1169 -0.0798  0.1158
 7445SOL    HW133794   4.109   4.411   7.054 -1.1201  1.1980  0.4911
 7445SOL    HW233795   4.243   4.441   6.992 -0.1215 -0.8265 -0.4408
 7446SOL     OW33796   0.902   2.562   1.137  0.6819 -0.0420 -0.0519
 7446SOL    HW133797   0.862   2.583   1.052  3.1322  0.8841 -0.9949
 7446SOL    HW233798   0.968   2.496   1.117  1.5025  0.6295  0.4715
 7447SOL     OW33799   2.587   4.667   0.849 -0.1551 -0.1490  0.6316
 7447SOL    HW133800   2.593   0.007   0.774  1.4893 -1.3989 -0.2393
 7447SOL    HW233801   2.587   0.012   0.919  1.5799 -0.2380  0.7298
 7448SOL     OW33802   0.286   4.440   7.469  0.5504  0.3547  0.2248
 7448SOL    HW133803   0.196   4.453   7.439  1.2764  2.5406 -0.9668
 7448SOL    HW233804   0.286   4.494   7.548 -0.2837 -1.3505  1.4021
 7449SOL     OW33805   3.152   2.562   1.239 -0.5466  0.0050  0.3130
 7449SOL    HW133806   3.192   2.506   1.172  1.6088 -0.2969  1.8735
 7449SOL    HW233807   3.085   2.611   1.191 -0.7721 -0.9800 -0.3778
 7450SOL     OW33808   4.069   4.503  16.015  0.2850  0.9557 -0.1518
 7450SOL    HW133809   4.119   4.427  15.983  0.9322  1.7404 -1.0301
 7450SOL    HW233810   4.064   4.498  16.110 -0.4802 -2.8799 -0.3984
 7451SOL     OW33811   0.434   3.097   8.046  0.4651 -0.1235 -0.0701
 7451SOL    HW133812   0.411   3.110   8.138  1.9355  1.5815  0.0538
 7451SOL    HW233813   0.397   3.010   8.029  1.8917 -0.4443 -1.5678
 7452SOL     OW33814   1.179   2.725   9.554  0.2417  0.1093  0.0453
 7452SOL    HW133815   1.171   2.819   9.571  0.5269 -0.2097  1.9332
 7452SOL    HW233816   1.272   2.724   9.534  0.1034  0.7652 -0.6235
 7453SOL     OW33817   0.301   3.464   6.273 -0.4049  0.5135  0.0168
 7453SOL    HW133818   0.387   3.504   6.286 -0.7687  0.7604  1.7424
 7453SOL    HW233819   0.321   3.372   6.256 -0.6318  0.4065  0.3294
 7454SOL     OW33820   1.047   3.354   5.379 -0.0489  0.1451 -0.4491
 7454SOL    HW133821   1.004   3.405   5.448 -1.0101 -2.5685  0.9582
 7454SOL    HW233822   1.122   3.314   5.424  1.0011 -0.8600 -3.1353
 7455SOL     OW33823   2.731   4.038   8.854  0.3397 -0.0275 -0.2099
 7455SOL    HW133824   2.720   4.109   8.918  0.7962  1.3448 -1.6416
 7455SOL    HW233825   2.824   4.048   8.835 -0.1191  0.3216 -2.2490
 7456SOL     OW33826   2.611   3.640   4.509 -0.4758  0.2219  0.7979
 7456SOL    HW133827   2.603   3.607   4.420 -2.2554  2.1274  0.2400
 7456SOL    HW233828   2.626   3.560   4.559  0.1422 -0.1405  0.0246
 7457SOL     OW33829   4.377   0.660   1.722 -0.2849  0.8348 -0.5885
 7457SOL    HW133830   4.418   0.726   1.779  1.8797 -1.3464  0.3484
 7457SOL    HW233831   4.436   0.586   1.731 -0.2857  0.7131 -1.6308
 7458SOL     OW33832   4.586   4.310   2.151  0.0199  0.0248  0.5790
 7458SOL    HW133833   4.633   4.244   2.100  1.3986  1.0618  0.5120
 7458SOL    HW233834   4.499   4.270   2.158 -0.3282  0.6034 -0.4496
 7459SOL     OW33835   0.757   2.330   2.431 -0.0789 -0.0104 -0.2952
 7459SOL    HW133836   0.834   2.367   2.473  0.6653 -0.8494 -0.9291
 7459SOL    HW233837   0.784   2.239   2.424  1.0458  0.3123 -0.0838
 7460SOL     OW33838   2.256   1.329  10.003  0.3470  0.1947  0.3420
 7460SOL    HW133839   2.259   1.277  10.083  0.5553  1.6197  1.2680
 7460SOL    HW233840   2.349   1.348   9.990  0.0750 -0.1201 -2.1509
 7461SOL     OW33841   0.638   2.383   4.143 -0.4171  0.0266  0.5432
 7461SOL    HW133842   0.615   2.321   4.212  0.2289  1.9417  2.4966
 7461SOL    HW233843   0.627   2.328   4.065 -1.1206 -0.3324  0.8949
 7462SOL     OW33844   0.096   1.737   8.673  0.4709  0.3741  0.2717
 7462SOL    HW133845   0.012   1.695   8.695 -0.1782  1.2779 -0.4711
 7462SOL    HW233846   0.098   1.716   8.580 -0.0073 -0.4415  0.4468
 7463SOL     OW33847   1.794   0.607  16.415 -0.2780  0.0348  0.5752
 7463SOL    HW133848   1.802   0.580  16.506  1.0086 -1.2824  0.0788
 7463SOL    HW233849   1.740   0.686  16.418  0.4903  0.5931 -0.1528
 7464SOL     OW33850   2.336   0.641   0.471 -0.4596  0.5565  0.3797
 7464SOL    HW133851   2.358   0.551   0.497 -1.6175  0.4663  1.0394
 7464SOL    HW233852   2.242   0.647   0.487 -0.9507 -3.3967 -1.1861
 7465SOL     OW33853   4.287   1.423   4.602  0.1185 -0.9644  0.3768
 7465SOL    HW133854   4.346   1.351   4.622  1.1059 -0.2366  0.0983
 7465SOL    HW233855   4.248   1.377   4.527 -1.2328  2.2808 -0.8955
 7466SOL     OW33856   0.683   3.727   3.048  0.1896 -0.7620  0.6426
 7466SOL    HW133857   0.746   3.668   3.090 -1.0916 -1.4335  1.6214
 7466SOL    HW233858   0.632   3.762   3.121 -0.4894  0.5804 -0.4732
 7467SOL     OW33859   1.848   0.559   5.184 -0.7345  0.4551  0.2543
 7467SOL    HW133860   1.878   0.472   5.156  0.7249  0.8055  0.7412
 7467SOL    HW233861   1.762   0.574   5.144 -1.0084 -2.1596 -0.1258
 7468SOL     OW33862   1.935   3.233   3.388 -0.1619  0.2271 -0.3411
 7468SOL    HW133863   2.009   3.279   3.348  2.7591 -2.1499  2.2988
 7468SOL    HW233864   1.936   3.143   3.357  2.7144  0.3451 -0.6258
 7469SOL     OW33865   1.023   3.289  11.699  0.4299 -0.7209 -0.4516
 7469SOL    HW133866   0.949   3.275  11.758  0.4953  0.9107  0.0132
 7469SOL    HW233867   1.086   3.232  11.742  0.6207 -1.1461 -1.2993
 7470SOL     OW33868   2.829   2.346   6.593 -0.0305  0.0537  0.1836
 7470SOL    HW133869   2.743   2.361   6.554  1.3161  1.0180 -2.4262
 7470SOL    HW233870   2.857   2.297   6.516 -0.4763 -0.6841  0.4807
 7471SOL     OW33871   0.640   1.308   5.260  1.0458  0.0568  0.8620
 7471SOL    HW133872   0.732   1.313   5.234  0.3807 -0.1013 -1.5343
 7471SOL    HW233873   0.623   1.218   5.231  0.7081  0.0506  1.0770
 7472SOL     OW33874   2.960   3.006   7.245 -0.0035 -0.2162 -0.5103
 7472SOL    HW133875   2.951   2.988   7.151 -0.5978 -0.4436 -0.4118
 7472SOL    HW233876   2.953   2.917   7.279 -2.6874  0.0454 -0.3580
 7473SOL     OW33877   1.297   1.215   1.263 -0.1259 -0.3674  0.0096
 7473SOL    HW133878   1.305   1.287   1.325  1.4291 -0.3238 -0.2521
 7473SOL    HW233879   1.386   1.218   1.228 -1.0094  0.2990 -2.2058
 7474SOL     OW33880   1.306   0.431   2.774 -0.7168  0.7279 -0.1457
 7474SOL    HW133881   1.231   0.391   2.818 -1.8122 -1.5798 -4.0805
 7474SOL    HW233882   1.266   0.454   2.690 -1.1318 -0.6215 -0.3232
 7475SOL     OW33883   1.030   4.028   6.218  0.4284 -0.5172 -0.6261
 7475SOL    HW133884   1.103   4.058   6.164  0.8104  2.3905  1.5275
 7475SOL    HW233885   1.077   3.999   6.296  3.8115  0.1263 -2.4134
 7476SOL     OW33886   1.541   1.129   2.490 -0.3100  0.3024 -0.2381
 7476SOL    HW133887   1.526   1.077   2.411  0.4797 -0.6783  0.2612
 7476SOL    HW233888   1.589   1.066   2.543  1.0903  1.6651  0.0937
 7477SOL     OW33889   3.956   2.877   2.800 -0.8016  0.2032 -0.6488
 7477SOL    HW133890   3.872   2.860   2.757 -1.0161  0.4615 -0.3325
 7477SOL    HW233891   3.947   2.972   2.808  2.0243  0.4443 -0.6031
 7478SOL     OW33892   1.725   2.491  10.508  0.1988  0.2188 -0.0840
 7478SOL    HW133893   1.808   2.531  10.536 -0.4025  1.7079 -0.3894
 7478SOL    HW233894   1.738   2.397  10.509  2.2930  0.4953 -1.9265
 7479SOL     OW33895   4.008   2.917   3.348 -0.6614 -0.2120 -0.2772
 7479SOL    HW133896   4.055   2.958   3.420  0.3355  0.9143 -1.5920
 7479SOL    HW233897   4.064   2.855   3.301  1.9413 -0.3655  3.0161
 7480SOL     OW33898   4.119   4.591  17.535 -0.2436 -0.0130  0.2353
 7480SOL    HW133899   4.082   4.632  17.613  0.2329 -2.3325  1.6772
 7480SOL    HW233900   4.160   4.660  17.483 -0.3769 -2.2102 -2.8271
 7481SOL     OW33901   3.525   3.947  13.546 -0.2810 -0.4453  0.5150
 7481SOL    HW133902   3.619   3.965  13.546 -0.9311  2.9034 -0.4895
 7481SOL    HW233903   3.480   4.031  13.542  0.2460 -0.3286 -2.5230
 7482SOL     OW33904   1.047   1.278   6.269 -0.2948  0.1476  0.2617
 7482SOL    HW133905   1.098   1.227   6.205  0.3368 -0.1952  1.0369
 7482SOL    HW233906   1.055   1.228   6.350  1.6119  1.5453  0.9258
 7483SOL     OW33907   0.937   0.204   7.668 -0.1077  0.0761 -0.6246
 7483SOL    HW133908   0.889   0.242   7.742 -1.2401  2.0576 -2.3772
 7483SOL    HW233909   1.028   0.217   7.693 -0.0698  1.8494 -1.6876
 7484SOL     OW33910   2.865   4.481   9.474  0.1377 -0.3438  0.0156
 7484SOL    HW133911   2.863   4.412   9.407  0.1554  2.0626 -2.4597
 7484SOL    HW233912   2.776   4.487   9.508  0.4256 -0.9253  0.8615
 7485SOL     OW33913   0.544   4.094  16.588 -0.4164 -0.0030  0.0416
 7485SOL    HW133914   0.534   4.176  16.637  0.4179  0.9760 -1.4436
 7485SOL    HW233915   0.529   4.128  16.500  0.9704 -0.8868 -0.5436
 7486SOL     OW33916   4.482   4.610  12.923  0.1013 -0.0868  0.6126
 7486SOL    HW133917   4.500   4.635  13.014 -0.3026  1.3525  0.3062
 7486SOL    HW233918   4.406   4.666  12.903  1.2142  1.3633  0.3944
 7487SOL     OW33919   1.866   2.866   2.801  0.2869  0.0022 -0.2984
 7487SOL    HW133920   1.944   2.835   2.754  0.8652 -1.6242  1.6899
 7487SOL    HW233921   1.807   2.797   2.772  0.3631  0.4453 -1.5070
 7488SOL     OW33922   4.508   2.257  11.690 -0.3271 -0.0395  0.2126
 7488SOL    HW133923   4.592   2.264  11.644 -0.5837  1.0624 -0.0722
 7488SOL    HW233924   4.493   2.163  11.697 -2.4908  0.3895  1.2627
 7489SOL     OW33925   3.515   2.883  10.079  0.5157 -0.2551  0.7019
 7489SOL    HW133926   3.580   2.906  10.145 -0.9696  2.4945  1.2414
 7489SOL    HW233927   3.563   2.844  10.006  0.2539  0.4851  0.1342
 7490SOL     OW33928   0.391   3.843   1.543  0.6881 -0.8755  0.1958
 7490SOL    HW133929   0.417   3.925   1.585  2.6860 -1.7365  0.6151
 7490SOL    HW233930   0.312   3.849   1.488 -0.3850  0.7564  1.9208
 7491SOL     OW33931   2.405   0.343  16.103  0.1193  0.2570 -0.2832
 7491SOL    HW133932   2.376   0.430  16.132  3.4740  1.0016  0.8630
 7491SOL    HW233933   2.498   0.343  16.125 -0.1527 -1.7158  0.8516
 7492SOL     OW33934   1.978   3.564  13.587 -0.3424 -0.3247  0.2339
 7492SOL    HW133935   1.935   3.560  13.501 -0.8031  0.2986  0.4377
 7492SOL    HW233936   1.903   3.550  13.645 -0.3714 -2.7802 -0.3773
 7493SOL     OW33937   2.453   0.665   9.413 -0.2153  0.0539  0.5190
 7493SOL    HW133938   2.517   0.618   9.360  0.6591  0.6637  1.0277
 7493SOL    HW233939   2.483   0.665   9.504 -0.8236 -0.2711  0.7214
 7494SOL     OW33940   0.153   1.582  13.513  0.1271  0.0560  0.0578
 7494SOL    HW133941   0.060   1.567  13.529 -0.1906  0.6331 -1.2345
 7494SOL    HW233942   0.142   1.664  13.465  2.3072 -0.8741 -2.0720
 7495SOL     OW33943   1.333   3.666  13.765 -0.0975 -0.8784 -0.1864
 7495SOL    HW133944   1.375   3.650  13.849 -0.9291 -4.2988 -0.4175
 7495SOL    HW233945   1.284   3.748  13.776  0.2892 -0.9131  1.9028
 7496SOL     OW33946   2.302   2.101  14.183 -0.0616 -0.3172 -0.5770
 7496SOL    HW133947   2.324   2.193  14.196  1.6424 -1.0338  1.5303
 7496SOL    HW233948   2.209   2.103  14.207  1.1160 -0.5448  4.0371
 7497SOL     OW33949   3.320   4.349   2.574 -0.0239 -0.5093 -0.4820
 7497SOL    HW133950   3.399   4.296   2.575  0.2797 -0.0474  0.1395
 7497SOL    HW233951   3.312   4.335   2.480  1.1343  0.7815 -0.7733
 7498SOL     OW33952   3.209   3.947   1.827  0.0181 -0.2792 -0.1846
 7498SOL    HW133953   3.224   4.033   1.867 -0.5431 -0.1247 -0.3082
 7498SOL    HW233954   3.125   3.967   1.788 -0.6322 -0.4766  1.1011
 7499SOL     OW33955   3.611   4.493   7.539  0.1756  0.2700 -0.2577
 7499SOL    HW133956   3.565   4.565   7.582 -0.4894 -1.6053  2.1754
 7499SOL    HW233957   3.568   4.482   7.454 -0.9288  0.5384  0.2728
 7500SOL     OW33958   3.020   3.670   0.802 -0.1381  0.2712  0.4441
 7500SOL    HW133959   3.014   3.718   0.719 -0.9460  0.8145  0.8250
 7500SOL    HW233960   2.952   3.604   0.791  0.3542 -0.0632 -0.5689
 7501SOL     OW33961   2.401   4.606  16.022  0.6309  0.4038  0.2779
 7501SOL    HW133962   2.396   4.695  16.057  3.8266  0.4464  0.5819
 7501SOL    HW233963   2.488   4.576  16.046  0.0187 -0.7222  1.0827
 7502SOL     OW33964   2.549   0.116  13.005 -0.5333  0.3578  0.2553
 7502SOL    HW133965   2.542   0.027  13.041  1.2221  0.1454  0.0546
 7502SOL    HW233966   2.589   0.099  12.920  1.1250 -0.3041  1.1679
 7503SOL     OW33967   3.849   1.589  12.389 -0.4345  0.4165  0.1769
 7503SOL    HW133968   3.803   1.518  12.433 -0.2276  0.5731  0.6463
 7503SOL    HW233969   3.921   1.601  12.451 -1.2079  3.2921  0.5459
 7504SOL     OW33970   2.330   1.458  12.090  0.2218 -0.2447 -0.1972
 7504SOL    HW133971   2.325   1.427  12.000  2.5821  0.7006 -0.6648
 7504SOL    HW233972   2.421   1.438  12.113 -0.4960 -2.1613  0.9656
 7505SOL     OW33973   4.085   0.130  13.307  0.2304  0.5375 -0.5211
 7505SOL    HW133974   4.115   0.111  13.396 -0.7860  0.2335 -0.2397
 7505SOL    HW233975   4.091   0.225  13.316 -0.6443  0.6171 -0.6975
 7506SOL     OW33976   3.357   4.099   9.337 -0.0299 -0.4015 -0.5508
 7506SOL    HW133977   3.287   4.084   9.401  1.3123  2.3399  1.5608
 7506SOL    HW233978   3.313   4.116   9.254 -0.2933 -1.1831 -0.5754
 7507SOL     OW33979   1.205   0.739  16.602 -0.1801 -0.2985  0.4260
 7507SOL    HW133980   1.232   0.742  16.510  0.4732 -1.0794  0.5925
 7507SOL    HW233981   1.288   0.759  16.646  0.8860 -2.2343 -0.6919
 7508SOL     OW33982   1.165   3.399   4.643 -0.4497 -0.0710 -0.0618
 7508SOL    HW133983   1.231   3.362   4.702 -0.0584  1.0005  0.1671
 7508SOL    HW233984   1.162   3.486   4.682 -1.0241  0.8178 -2.1242
 7509SOL     OW33985   3.269   1.291  11.986  0.0483  0.0008  0.1053
 7509SOL    HW133986   3.334   1.223  11.967  0.5920  1.0485 -1.6970
 7509SOL    HW233987   3.311   1.375  11.972 -0.6534  0.8787  3.2885
 7510SOL     OW33988   0.370   3.195   1.210  0.2167 -0.7042  0.8236
 7510SOL    HW133989   0.303   3.132   1.181 -1.1102  0.1085  2.0941
 7510SOL    HW233990   0.451   3.160   1.173  0.9662  0.5052  1.3547
 7511SOL     OW33991   1.328   1.194   7.932 -0.4973  0.3580 -0.0927
 7511SOL    HW133992   1.355   1.135   8.003 -3.1297  0.9306  1.3604
 7511SOL    HW233993   1.362   1.277   7.963  2.4888 -0.6211 -0.6578
 7512SOL     OW33994   0.720   0.937   9.881 -0.0220 -0.0234  0.5055
 7512SOL    HW133995   0.811   0.953   9.906  0.8920  0.3960 -3.1601
 7512SOL    HW233996   0.728   0.872   9.811  1.7439  2.4899 -1.5835
 7513SOL     OW33997   0.257   4.144   1.985  0.1452 -0.3625  0.1420
 7513SOL    HW133998   0.250   4.227   1.938 -1.4204 -1.0115 -0.7978
 7513SOL    HW233999   0.167   4.135   2.018 -0.2285  4.1787  0.3633
 7514SOL     OW34000   0.313   4.059   4.803 -0.4860 -0.1942  0.3932
 7514SOL    HW134001   0.319   4.061   4.707 -0.0979 -0.6175  0.4107
 7514SOL    HW234002   0.357   3.978   4.829  0.3612  0.3332  0.5691
 7515SOL     OW34003   3.621   4.385  10.981  0.2569  0.3410 -0.5640
 7515SOL    HW134004   3.624   4.329  11.059  2.1775  0.4242 -0.5799
 7515SOL    HW234005   3.541   4.346  10.945 -0.5481  1.8554 -0.4059
 7516SOL     OW34006   0.899   1.565   3.759 -0.0647 -0.6169 -0.5118
 7516SOL    HW134007   0.888   1.470   3.772  2.5804 -0.6588  1.3417
 7516SOL    HW234008   0.952   1.564   3.679  0.4309  0.8091 -0.1963
 7517SOL     OW34009   0.477   3.330   3.888  0.3626 -0.0256 -0.5184
 7517SOL    HW134010   0.452   3.243   3.858  1.8884 -0.4271 -0.5862
 7517SOL    HW234011   0.572   3.327   3.894  0.2758 -1.4473  0.0918
 7518SOL     OW34012   0.440   2.799   8.068  0.1268  0.0804 -0.0779
 7518SOL    HW134013   0.429   2.705   8.054 -1.1189  0.6127 -2.6578
 7518SOL    HW234014   0.481   2.799   8.155  0.0077 -2.4104 -0.0164
 7519SOL     OW34015   1.494   2.487  13.832 -0.4188  0.4562 -0.3001
 7519SOL    HW134016   1.509   2.422  13.901  0.9276 -0.8494 -1.8363
 7519SOL    HW234017   1.413   2.531  13.857  0.0180  0.5272  1.0091
 7520SOL     OW34018   2.229   3.890  17.554  0.2086  0.2517 -0.3246
 7520SOL    HW134019   2.135   3.875  17.566  0.3543  0.9615  1.6614
 7520SOL    HW234020   2.252   3.835  17.629  1.7258 -0.3197 -1.2187
 7521SOL     OW34021   3.845   4.588   5.969  0.7325 -0.5135  0.2809
 7521SOL    HW134022   3.757   4.621   5.948  0.6840 -1.6729 -1.3248
 7521SOL    HW234023   3.834   4.568   6.062  2.2866  2.2889  1.0681
 7522SOL     OW34024   2.044   2.550   8.002  0.0217  0.6240  0.5461
 7522SOL    HW134025   2.113   2.560   7.936 -0.3311 -0.9840 -0.0592
 7522SOL    HW234026   2.057   2.635   8.043  0.0603  0.9178 -0.0693
 7523SOL     OW34027   2.161   2.874   5.753 -0.2207  0.4004  0.1365
 7523SOL    HW134028   2.210   2.849   5.832  0.9154 -2.6063 -1.4870
 7523SOL    HW234029   2.212   2.937   5.703 -0.7397  0.4522 -0.3226
 7524SOL     OW34030   1.004   2.016   3.197  0.7415 -0.0218  0.0516
 7524SOL    HW134031   0.977   2.046   3.111  0.2073 -1.4380 -0.2765
 7524SOL    HW234032   1.087   2.062   3.200 -0.2207  1.9224 -3.4252
 7525SOL     OW34033   2.866   1.615   0.531  0.0617  0.6937 -0.3490
 7525SOL    HW134034   2.878   1.613   0.436  3.3585 -1.4999  0.1313
 7525SOL    HW234035   2.852   1.709   0.546 -1.9372  0.6801 -2.0103
 7526SOL     OW34036   0.134   1.851   3.512  0.4583 -0.5585 -0.2189
 7526SOL    HW134037   0.216   1.896   3.536  0.7290 -1.4907  0.5907
 7526SOL    HW234038   0.071   1.912   3.550 -0.5220 -0.2706 -2.3093
 7527SOL     OW34039   3.528   1.241   3.616 -0.3216  0.1956 -0.0817
 7527SOL    HW134040   3.463   1.266   3.681 -0.5399  1.3626 -0.7360
 7527SOL    HW234041   3.499   1.154   3.588  1.8705 -0.5518 -0.0202
 7528SOL     OW34042   2.929   4.347   7.531  0.2340  0.3885 -0.1614
 7528SOL    HW134043   2.858   4.356   7.594  0.7362 -2.4089  0.8006
 7528SOL    HW234044   2.920   4.414   7.464  0.5892  0.4016 -0.1968
 7529SOL     OW34045   3.155   1.791   5.719  0.3600 -0.2561  0.2862
 7529SOL    HW134046   3.222   1.853   5.750  0.1927  0.0322  0.0804
 7529SOL    HW234047   3.201   1.707   5.718  0.5968 -0.1259  0.0775
 7530SOL     OW34048   1.743   0.742  13.740 -0.7725 -0.3997 -1.0132
 7530SOL    HW134049   1.827   0.726  13.783 -1.1918 -1.7466 -0.6791
 7530SOL    HW234050   1.775   0.789  13.663 -0.5409  0.5930 -0.3146
 7531SOL     OW34051   2.334   0.748  13.612  0.2050 -0.1590 -0.0133
 7531SOL    HW134052   2.393   0.823  13.616  1.9791 -1.5015 -1.3213
 7531SOL    HW234053   2.309   0.739  13.705  1.8237  3.6210  0.7739
 7532SOL     OW34054   0.965   1.751  10.035  0.1480 -0.1224 -0.0360
 7532SOL    HW134055   0.917   1.669  10.019  3.3108 -2.3149  1.7654
 7532SOL    HW234056   0.942   1.809   9.962  1.4004  1.2875  0.7032
 7533SOL     OW34057   4.630   2.966   7.868 -0.1673  0.0184 -0.4549
 7533SOL    HW134058   4.664   3.009   7.946  1.2286 -1.3286 -0.3252
 7533SOL    HW234059   4.620   3.046   7.817 -1.6126  0.0738 -0.1074
 7534SOL     OW34060   3.585   1.192   0.612 -0.4414  0.2802 -0.2529
 7534SOL    HW134061   3.573   1.266   0.552 -3.5229 -0.4449 -0.5168
 7534SOL    HW234062   3.599   1.119   0.552 -2.6501  0.6205 -1.2068
 7535SOL     OW34063   3.279   3.494   8.498  0.2008 -1.1526 -0.1024
 7535SOL    HW134064   3.185   3.490   8.514  0.0132 -0.4176 -1.0096
 7535SOL    HW234065   3.295   3.494   8.592 -0.0432 -0.6996 -0.0618
 7536SOL     OW34066   2.588   3.002   1.874 -0.2057  0.3234  0.1163
 7536SOL    HW134067   2.588   2.974   1.783  1.5017 -0.7818  0.4534
 7536SOL    HW234068   2.679   2.995   1.904 -0.0384 -1.1103 -0.7523
 7537SOL     OW34069   0.452   2.671  15.113  0.1904 -0.2062  0.2204
 7537SOL    HW134070   0.523   2.611  15.136 -0.1478 -0.5904  0.2751
 7537SOL    HW234071   0.446   2.645  15.021 -1.0350  0.1267  0.2082
 7538SOL     OW34072   0.879   1.775  14.689 -0.3684  0.0992 -0.2828
 7538SOL    HW134073   0.974   1.785  14.698 -0.7269  0.7545  2.6552
 7538SOL    HW234074   0.873   1.771  14.593 -0.6008  0.6575 -0.2932
 7539SOL     OW34075   3.638   0.742   4.081  0.0575  0.2035  0.9115
 7539SOL    HW134076   3.552   0.775   4.056 -0.3468 -0.4641  1.4334
 7539SOL    HW234077   3.690   0.746   4.001 -3.7740  3.1542 -1.4181
 7540SOL     OW34078   4.510   4.272  14.122  0.2707 -0.1450 -0.5433
 7540SOL    HW134079   4.474   4.285  14.034  0.4673 -0.6025 -0.6854
 7540SOL    HW234080   4.453   4.328  14.176 -0.2336  0.6368 -1.8783
 7541SOL     OW34081   4.197   4.578   7.713 -0.1820 -0.4981 -0.4282
 7541SOL    HW134082   4.110   4.598   7.748  0.5567 -0.4586  1.4272
 7541SOL    HW234083   4.211   4.652   7.654 -1.3349 -0.2701 -0.4139
 7542SOL     OW34084   1.411   3.804   4.945  0.6050  0.2503  0.2436
 7542SOL    HW134085   1.439   3.841   5.029 -0.0714  1.6546 -0.1459
 7542SOL    HW234086   1.459   3.722   4.951 -1.2101 -0.7357  1.1028
 7543SOL     OW34087   1.609   3.065   4.539 -0.3804 -0.0064 -0.2657
 7543SOL    HW134088   1.653   3.002   4.596  0.2369 -0.4902 -1.2797
 7543SOL    HW234089   1.634   3.020   4.458 -0.8694  0.0162 -0.4273
 7544SOL     OW34090   1.491   1.405   4.422  0.5307  0.2063 -0.4722
 7544SOL    HW134091   1.454   1.488   4.392 -0.7834  0.6888  2.5334
 7544SOL    HW234092   1.490   1.408   4.517  0.3142  2.4542 -0.5629
 7545SOL     OW34093   3.543   2.486   2.916 -0.3293 -0.2357  0.7815
 7545SOL    HW134094   3.457   2.506   2.880  0.1885 -2.1287 -1.5520
 7545SOL    HW234095   3.521   2.434   2.993  2.7281 -3.4761 -0.5200
 7546SOL     OW34096   0.495   0.834  10.049  0.4475 -0.9571  0.1730
 7546SOL    HW134097   0.576   0.864  10.006  0.4200  0.7418  1.3089
 7546SOL    HW234098   0.530   0.840  10.138 -1.2980  1.1895  0.7204
 7547SOL     OW34099   4.663   2.120   2.610 -0.1084 -0.6044 -0.4956
 7547SOL    HW134100   0.023   2.075   2.640 -1.4332 -2.0910  0.7941
 7547SOL    HW234101   4.637   2.060   2.540 -1.3113  0.1212 -0.6583
 7548SOL     OW34102   1.818   0.524  17.603 -0.1286  0.1112 -0.3835
 7548SOL    HW134103   1.896   0.470  17.603 -1.6303 -2.0495  0.8983
 7548SOL    HW234104   1.856   0.598  17.555  2.2221 -0.6015  0.3878
 7549SOL     OW34105   3.492   2.189   7.712 -0.1655 -0.2981 -0.2156
 7549SOL    HW134106   3.551   2.113   7.708  0.2744  0.0869 -0.9927
 7549SOL    HW234107   3.507   2.239   7.633 -1.0154 -0.6029 -0.5709
 7550SOL     OW34108   2.583   4.414   0.993 -0.1514  0.0024 -0.6564
 7550SOL    HW134109   2.519   4.406   1.063  1.8469 -0.3624  1.1499
 7550SOL    HW234110   2.542   4.482   0.940 -0.7966 -1.1110 -1.5874
 7551SOL     OW34111   0.703   2.910   7.343 -0.2294  0.1166 -0.3046
 7551SOL    HW134112   0.701   2.839   7.278  1.0755 -0.1729 -0.0296
 7551SOL    HW234113   0.638   2.891   7.411 -0.3785  0.8479 -0.2515
 7552SOL     OW34114   3.922   0.746  15.814  0.0518 -0.2486 -0.0756
 7552SOL    HW134115   3.901   0.756  15.906 -0.7529 -1.9465 -0.0826
 7552SOL    HW234116   4.001   0.800  15.817  0.0692 -0.2372 -0.6283
 7553SOL     OW34117   1.380   0.956   2.876 -0.7908  0.7871 -0.7943
 7553SOL    HW134118   1.392   0.977   2.969 -0.7511  0.0284 -0.6308
 7553SOL    HW234119   1.453   0.896   2.864  0.2426  2.4183 -2.6539
 7554SOL     OW34120   4.118   2.749   6.799  0.2576 -0.7746  0.2784
 7554SOL    HW134121   4.182   2.725   6.732  1.4820 -0.4498  1.3197
 7554SOL    HW234122   4.152   2.832   6.834 -0.4601 -0.3685 -0.0023
 7555SOL     OW34123   4.185   0.920   7.270  0.4585 -0.4463  0.5453
 7555SOL    HW134124   4.146   0.833   7.263 -0.7128  0.0431  1.1271
 7555SOL    HW234125   4.170   0.952   7.181  0.9636  1.7099  1.2351
 7556SOL     OW34126   0.332   2.243   5.992  0.0921  0.0236 -0.0958
 7556SOL    HW134127   0.395   2.188   5.944 -1.1369  0.4477 -2.2167
 7556SOL    HW234128   0.380   2.325   6.001 -2.0389  1.1351  0.8666
 7557SOL     OW34129   1.815   4.112  16.707  0.0053 -0.3707 -0.3388
 7557SOL    HW134130   1.827   4.035  16.652  1.2740  1.0836 -2.1390
 7557SOL    HW234131   1.748   4.087  16.770 -2.0865  1.1463 -1.9319
 7558SOL     OW34132   4.447   0.731   8.100  0.5065  0.0390  0.1845
 7558SOL    HW134133   4.541   0.713   8.104  0.5699  0.1540 -0.9393
 7558SOL    HW234134   4.454   0.827   8.100  1.3613 -0.0159  2.3018
 7559SOL     OW34135   3.352   3.587   5.043  0.4969  0.2524  0.3540
 7559SOL    HW134136   3.411   3.528   5.090 -0.9750 -0.7322  0.9890
 7559SOL    HW234137   3.395   3.672   5.050  0.3943  0.3246  0.1058
 7560SOL     OW34138   1.834   0.440   6.302 -0.1252  0.2190  0.1213
 7560SOL    HW134139   1.898   0.479   6.362 -1.2382  0.7475  0.9563
 7560SOL    HW234140   1.870   0.352   6.297  0.8864  0.6296  0.0324
 7561SOL     OW34141   2.480   0.033   4.626 -0.3697 -0.3881 -0.4757
 7561SOL    HW134142   2.496   0.049   4.719  0.6309  1.8235 -1.0308
 7561SOL    HW234143   2.448   0.120   4.601 -0.4469 -0.6039 -1.1346
 7562SOL     OW34144   4.542   2.723   8.012  0.0232 -0.1341  0.6395
 7562SOL    HW134145   4.447   2.726   8.018 -0.0407 -1.8694  0.4278
 7562SOL    HW234146   4.556   2.810   7.976  2.0135 -1.3819 -1.5812
 7563SOL     OW34147   1.262   2.989  14.976 -0.4947  0.1064 -0.6270
 7563SOL    HW134148   1.170   3.005  14.954 -0.4834  1.5718  0.4090
 7563SOL    HW234149   1.293   3.074  15.006  1.6790 -1.3346  1.2129
 7564SOL     OW34150   3.567   3.582   9.329 -0.5549 -0.0074  0.2996
 7564SOL    HW134151   3.549   3.676   9.320  0.1078  0.1846  1.0145
 7564SOL    HW234152   3.482   3.540   9.314 -0.0109 -1.3752  1.0477
 7565SOL     OW34153   3.879   2.463   6.787  0.9947 -0.8084  0.6989
 7565SOL    HW134154   3.896   2.527   6.856 -0.6762 -1.3746  1.6221
 7565SOL    HW234155   3.917   2.503   6.708 -0.9315  0.0337  0.2171
 7566SOL     OW34156   3.027   3.848   0.587 -0.0577  0.3000 -0.0253
 7566SOL    HW134157   2.954   3.909   0.598 -0.7895 -0.7692  1.0308
 7566SOL    HW234158   3.041   3.851   0.493  1.1636  0.6808  0.1666
 7567SOL     OW34159   1.550   0.909   2.041 -0.1493 -0.0290  0.0886
 7567SOL    HW134160   1.643   0.931   2.050 -0.6254  2.0636 -0.2227
 7567SOL    HW234161   1.553   0.831   1.985  1.6681  0.5270 -0.5817
 7568SOL     OW34162   3.058   1.074  17.640 -0.0627  0.0738 -0.2123
 7568SOL    HW134163   3.138   1.035  17.605 -1.1840 -0.2578 -2.3575
 7568SOL    HW234164   3.093   1.128   0.031  2.3767 -0.5208 -0.9422
 7569SOL     OW34165   4.167   1.261  10.471 -0.0065  0.1633 -0.1374
 7569SOL    HW134166   4.261   1.245  10.474 -0.1257 -0.4801 -0.0350
 7569SOL    HW234167   4.141   1.225  10.555  1.0287  0.2016  0.1977
 7570SOL     OW34168   4.180   0.802   3.304 -0.2250  0.2233 -0.4409
 7570SOL    HW134169   4.212   0.892   3.293  1.8301 -0.6062 -1.1847
 7570SOL    HW234170   4.253   0.749   3.337  0.3187  1.2324  0.0072
 7571SOL     OW34171   0.951   0.920  13.210 -0.3131  0.4882 -0.0250
 7571SOL    HW134172   0.985   0.910  13.121 -0.7666 -0.3033 -0.1099
 7571SOL    HW234173   0.857   0.929  13.195 -0.3467 -1.0381 -0.7624
 7572SOL     OW34174   3.989   4.048  11.810 -0.0527  0.2621  0.1255
 7572SOL    HW134175   3.965   4.056  11.717 -0.9812 -0.3565  0.3195
 7572SOL    HW234176   3.971   3.956  11.824  2.4404 -0.3095 -0.4066
 7573SOL     OW34177   0.155   3.419   5.189 -0.0429 -0.5075 -0.2804
 7573SOL    HW134178   0.248   3.413   5.167  0.3412  0.3170  1.1468
 7573SOL    HW234179   0.118   3.486   5.131  1.4196  1.6138  1.2478
 7574SOL     OW34180   0.100   4.096  13.871  0.1247  0.7848 -0.2611
 7574SOL    HW134181   0.008   4.071  13.881  0.4423  0.2387  1.3164
 7574SOL    HW234182   0.123   4.030  13.806  0.4706  2.7842 -2.1924
 7575SOL     OW34183   0.552   0.311   3.485  0.5607  0.0179  0.3871
 7575SOL    HW134184   0.503   0.380   3.531 -0.9606 -0.5679 -0.3496
 7575SOL    HW234185   0.493   0.236   3.495  2.0499 -1.2846 -0.4472
 7576SOL     OW34186   2.779   3.573   6.272 -0.7648 -0.0804 -0.5606
 7576SOL    HW134187   2.731   3.507   6.322 -1.2215 -1.1841 -2.4863
 7576SOL    HW234188   2.709   3.596   6.211  0.0229  1.4113 -0.8886
 7577SOL     OW34189   3.777   3.176  17.482  0.4462  0.3086  0.9170
 7577SOL    HW134190   3.806   3.199  17.394 -0.6626  1.3129  0.8109
 7577SOL    HW234191   3.708   3.115  17.458  1.1480  0.0852 -0.5027
 7578SOL     OW34192   3.945   0.158   5.547  0.4968  0.3040  0.1179
 7578SOL    HW134193   3.850   0.170   5.540 -0.0327 -4.1203 -0.5040
 7578SOL    HW234194   3.959   0.109   5.628  1.7660  1.3717  0.5516
 7579SOL     OW34195   0.936   3.612  15.846  0.4152  0.0999 -0.0040
 7579SOL    HW134196   1.002   3.576  15.787 -0.3126  0.8045 -1.2473
 7579SOL    HW234197   0.876   3.661  15.790 -1.5575 -1.2305  0.9079
 7580SOL     OW34198   2.163   4.402  12.407  0.2747  0.2252 -0.3239
 7580SOL    HW134199   2.197   4.390  12.496 -0.7362 -0.0631  0.0232
 7580SOL    HW234200   2.225   4.342  12.365 -0.4431 -1.2597  0.6873
 7581SOL     OW34201   0.151   4.480  13.931  0.0627  0.3596 -0.2231
 7581SOL    HW134202   0.180   4.571  13.925 -2.5667  1.1984 -0.0081
 7581SOL    HW234203   0.119   4.454  13.845  1.1869 -1.1056 -0.2058
 7582SOL     OW34204   1.819   3.023  15.797 -0.1145  0.0376  0.4851
 7582SOL    HW134205   1.771   3.103  15.776 -0.4004 -1.1061 -3.2368
 7582SOL    HW234206   1.763   2.987  15.866  0.9696 -5.1184 -1.3181
 7583SOL     OW34207   3.608   1.657   3.441  0.2642  0.0124 -0.1741
 7583SOL    HW134208   3.608   1.564   3.418 -0.0798 -0.5184  1.9966
 7583SOL    HW234209   3.517   1.675   3.466 -0.2983 -1.7581 -0.9906
 7584SOL     OW34210   3.527   2.892   8.841 -0.2146 -0.4263  0.1149
 7584SOL    HW134211   3.489   2.922   8.758 -0.2547 -0.8983 -0.0342
 7584SOL    HW234212   3.612   2.937   8.847 -0.0336 -1.0583  2.0116
 7585SOL     OW34213   4.046   4.326  13.733 -0.2710  0.3896  0.3975
 7585SOL    HW134214   4.023   4.379  13.810 -1.7094 -0.7464  0.7710
 7585SOL    HW234215   4.032   4.379  13.655  0.6841  2.3027  1.5494
 7586SOL     OW34216   3.056   3.056   2.895  0.1680 -0.4605  0.2808
 7586SOL    HW134217   3.150   3.054   2.916  0.4051 -1.4545 -0.8648
 7586SOL    HW234218   3.027   3.066   2.985 -2.4443 -0.8431 -0.5170
 7587SOL     OW34219   2.473   0.084   8.825 -0.2670 -0.5859  0.0342
 7587SOL    HW134220   2.520   0.167   8.823 -1.5295  0.1301  0.1349
 7587SOL    HW234221   2.536   0.022   8.787  3.4329  1.8188  2.2802
 7588SOL     OW34222   0.570   3.427  13.465 -0.2887  0.1347  0.1071
 7588SOL    HW134223   0.623   3.352  13.436 -2.9664 -1.0739 -1.6920
 7588SOL    HW234224   0.625   3.489  13.511 -0.0345  1.0702 -1.4517
 7589SOL     OW34225   1.581   4.159   4.397  0.1150 -0.2090 -1.0543
 7589SOL    HW134226   1.544   4.225   4.339 -1.0805  0.4743  0.4847
 7589SOL    HW234227   1.501   4.121   4.434 -0.7279  1.1425 -1.4478
 7590SOL     OW34228   2.598   0.964   6.106 -0.6346 -0.4000 -0.1386
 7590SOL    HW134229   2.676   0.959   6.162 -0.1463 -2.9091 -1.0330
 7590SOL    HW234230   2.643   0.929   6.029 -0.2365 -0.1085 -0.0409
 7591SOL     OW34231   2.210   3.100   4.363  0.3553  0.2355 -0.2769
 7591SOL    HW134232   2.176   3.012   4.347 -1.2164  0.6062  1.0061
 7591SOL    HW234233   2.127   3.141   4.340 -0.0900 -0.3760  0.2559
 7592SOL     OW34234   0.243   1.086  15.348  0.3415  0.6990 -0.5650
 7592SOL    HW134235   0.251   1.104  15.442 -4.6172  1.3811 -0.2677
 7592SOL    HW234236   0.194   1.005  15.341  2.0839 -0.3383 -0.6682
 7593SOL     OW34237   0.254   3.371   4.901 -0.2722  0.0029  0.7770
 7593SOL    HW134238   0.323   3.339   4.959 -0.7430 -1.4822  0.5199
 7593SOL    HW234239   0.315   3.396   4.831 -1.1405 -0.8743 -0.3066
 7594SOL     OW34240   4.158   1.530   5.471 -0.1616 -0.1305 -0.0362
 7594SOL    HW134241   4.124   1.607   5.517 -1.3424 -1.2197  0.9299
 7594SOL    HW234242   4.095   1.465   5.504  2.5384 -2.8418 -0.2818
 7595SOL     OW34243   3.396   0.089   2.710 -0.1767 -0.3076  0.2597
 7595SOL    HW134244   3.425   0.160   2.767 -0.9650  0.0822  0.1701
 7595SOL    HW234245   3.323   0.131   2.666  0.0602 -0.0944  0.0713
 7596SOL     OW34246   2.554   2.675   5.334 -0.2475 -0.1494  0.0416
 7596SOL    HW134247   2.486   2.718   5.387 -0.9376  0.9205 -1.7302
 7596SOL    HW234248   2.630   2.733   5.330  0.6311 -1.4195 -1.4033
 7597SOL     OW34249   0.936   0.252   9.663 -0.2219  0.0902 -0.7463
 7597SOL    HW134250   0.982   0.292   9.589  2.2620  1.6203  1.6282
 7597SOL    HW234251   0.921   0.339   9.702  1.8576 -0.9768  2.4239
 7598SOL     OW34252   1.366   4.124   5.272  0.4303 -0.3455  0.2712
 7598SOL    HW134253   1.288   4.129   5.327  1.4836  0.6875  1.6597
 7598SOL    HW234254   1.350   4.060   5.202 -1.8593  0.4601  0.0746
 7599SOL     OW34255   0.214   1.192   4.484 -0.7550  0.6452 -0.2054
 7599SOL    HW134256   0.148   1.207   4.416  0.4141 -0.3351 -1.5553
 7599SOL    HW234257   0.159   1.181   4.561  1.1888 -0.2838  1.0510
 7600SOL     OW34258   1.847   0.743  10.164  0.2386 -0.2193  1.0018
 7600SOL    HW134259   1.841   0.752  10.069  2.1515 -3.3714  0.5863
 7600SOL    HW234260   1.831   0.833  10.192 -1.4669 -0.3643  0.4931
 7601SOL     OW34261   4.055   2.499   5.461  0.0480  0.0536 -0.1145
 7601SOL    HW134262   4.131   2.557   5.461  0.2887 -0.2691  1.1928
 7601SOL    HW234263   4.089   2.447   5.534  1.1302  0.0800 -0.5978
 7602SOL     OW34264   0.094   4.342  13.378  0.0417 -0.1419 -0.3930
 7602SOL    HW134265   0.103   4.432  13.408 -3.0690  0.0190 -0.0059
 7602SOL    HW234266   0.133   4.348  13.291  0.5947 -5.0008 -0.5063
 7603SOL     OW34267   3.004   1.431   4.350 -0.0882  0.1179 -0.4794
 7603SOL    HW134268   2.992   1.426   4.445  1.2177  1.3523 -0.2479
 7603SOL    HW234269   2.921   1.399   4.314  0.7835 -1.7901 -0.7731
 7604SOL     OW34270   2.983   1.062   9.277  0.2060  0.0872  0.0981
 7604SOL    HW134271   2.956   1.095   9.362 -0.5888 -2.2232  0.7166
 7604SOL    HW234272   3.003   1.148   9.239 -0.1837 -0.3152 -1.0279
 7605SOL     OW34273   3.194   0.629   4.679  0.7094  0.1106 -0.7340
 7605SOL    HW134274   3.208   0.568   4.751  1.1244  2.1182  0.8553
 7605SOL    HW234275   3.173   0.712   4.720 -4.2377 -0.8350 -1.3828
 7606SOL     OW34276   1.221   0.275   8.004 -0.4344  0.0141 -0.6550
 7606SOL    HW134277   1.231   0.323   7.922 -1.9947  0.2029 -0.7359
 7606SOL    HW234278   1.210   0.355   8.055  4.2724 -0.1486  0.6408
 7607SOL     OW34279   0.228   1.825   9.325 -0.4596 -0.3029 -0.1092
 7607SOL    HW134280   0.215   1.886   9.397  2.3718 -0.2888  0.4118
 7607SOL    HW234281   0.319   1.803   9.345 -0.2340  2.5205  1.8940
 7608SOL     OW34282   2.252   4.404  13.594  0.0229  0.1793 -0.0842
 7608SOL    HW134283   2.328   4.454  13.624  0.8264 -0.0418 -1.7771
 7608SOL    HW234284   2.224   4.357  13.672 -1.1592  0.8548 -0.0925
 7609SOL     OW34285   1.073   1.789   0.717  0.0317 -0.3794  0.0623
 7609SOL    HW134286   1.114   1.875   0.727 -0.8157  0.1604 -1.0862
 7609SOL    HW234287   0.981   1.793   0.744 -0.0558  1.8563 -0.5402
 7610SOL     OW34288   2.426   3.015   2.548  0.0923 -0.3253 -0.6061
 7610SOL    HW134289   2.515   3.014   2.582 -0.2141  1.4148  0.2450
 7610SOL    HW234290   2.408   2.926   2.518  0.4031 -1.0913  1.5229
 7611SOL     OW34291   0.152   3.215  10.329  0.2542  0.0706  0.8356
 7611SOL    HW134292   0.116   3.240  10.414 -0.4276  0.3003  0.4776
 7611SOL    HW234293   0.247   3.215  10.338  0.0931  0.0813  2.5085
 7612SOL     OW34294   1.558   1.259  12.893 -0.0824  0.3254  0.1969
 7612SOL    HW134295   1.547   1.315  12.971 -0.8783  0.7406 -0.2136
 7612SOL    HW234296   1.466   1.257  12.867 -0.2489  0.3268  0.7832
 7613SOL     OW34297   1.510   2.915   2.723  0.7363  0.0741  0.4024
 7613SOL    HW134298   1.485   2.823   2.708  1.5889 -0.1857  0.5676
 7613SOL    HW234299   1.569   2.910   2.798  1.7740  1.3948 -0.3363
 7614SOL     OW34300   4.312   3.265   7.801  0.1871  0.1754 -0.4551
 7614SOL    HW134301   4.308   3.354   7.835 -2.0222 -0.8203  1.8710
 7614SOL    HW234302   4.307   3.209   7.879 -2.0091  0.5771 -0.3171
 7615SOL     OW34303   2.012   4.219   6.262 -0.4224 -0.5376 -0.3726
 7615SOL    HW134304   2.014   4.170   6.180  2.7687 -0.9933 -0.0186
 7615SOL    HW234305   2.006   4.136   6.310  2.9062 -0.0711  0.8423
 7616SOL     OW34306   2.536   4.335  15.810 -0.2348  0.1102 -0.4301
 7616SOL    HW134307   2.528   4.345  15.715 -1.4433  0.2540 -0.3202
 7616SOL    HW234308   2.612   4.391  15.827 -0.9640  1.0417 -0.2250
 7617SOL     OW34309   2.494   1.021  16.922  0.4813 -0.4539  0.4787
 7617SOL    HW134310   2.575   0.973  16.937  1.0085  0.9282  1.9445
 7617SOL    HW234311   2.535   1.097  16.881 -0.2363  0.3734  1.2883
 7618SOL     OW34312   0.585   3.506   7.786  0.2799 -0.0139 -0.3216
 7618SOL    HW134313   0.621   3.419   7.803  0.7921  0.6567  2.0586
 7618SOL    HW234314   0.637   3.537   7.712  0.1560  0.1895 -0.3240
 7619SOL     OW34315   0.125   4.104   8.398  0.3888  0.3728  0.2899
 7619SOL    HW134316   0.085   4.131   8.315 -1.7176 -1.2025  0.7929
 7619SOL    HW234317   0.089   4.169   8.459  0.3545 -0.3131  0.9958
 7620SOL     OW34318   1.822   3.673  12.155  0.0174 -0.0290 -0.5360
 7620SOL    HW134319   1.847   3.600  12.212  2.2556 -0.4070 -2.0049
 7620SOL    HW234320   1.902   3.725  12.158  1.1482 -1.7749 -0.6039
 7621SOL     OW34321   4.052   3.474   4.799 -0.6317 -0.1373  0.5263
 7621SOL    HW134322   3.989   3.456   4.730 -1.9105 -3.5984  2.6272
 7621SOL    HW234323   4.088   3.556   4.764  1.1184 -1.7158 -1.4082
 7622SOL     OW34324   0.288   0.073   8.882  0.0181  0.2315 -0.8313
 7622SOL    HW134325   0.274   0.121   8.801  0.1012 -0.9556 -1.5447
 7622SOL    HW234326   0.317   0.139   8.945 -0.2392 -1.0034  0.5810
 7623SOL     OW34327   4.193   3.826   2.596  0.0156  0.1423 -0.4655
 7623SOL    HW134328   4.160   3.773   2.669 -0.9942 -1.4923 -2.1076
 7623SOL    HW234329   4.105   3.854   2.569  0.9874  1.2931 -2.4233
 7624SOL     OW34330   0.617   1.085   1.208  0.6894 -0.6507  0.5429
 7624SOL    HW134331   0.569   1.019   1.158  1.7726 -1.5367  0.6651
 7624SOL    HW234332   0.611   1.053   1.299 -0.5896 -3.2417 -0.4330
 7625SOL     OW34333   0.170   2.671  16.021  0.1880 -0.5385  0.3305
 7625SOL    HW134334   0.223   2.745  16.049 -2.4615  1.0374  1.2048
 7625SOL    HW234335   0.105   2.655  16.090 -0.4747  0.8786  0.0398
 7626SOL     OW34336   2.168   4.150   7.727 -0.1167  0.3078  0.3320
 7626SOL    HW134337   2.090   4.135   7.779  0.7472  0.9571  1.8044
 7626SOL    HW234338   2.136   4.209   7.657 -1.0415  1.5659  1.8159
 7627SOL     OW34339   1.684   2.554  17.147 -0.1615 -0.0315  0.0110
 7627SOL    HW134340   1.610   2.547  17.207 -1.4177  1.9573 -1.2765
 7627SOL    HW234341   1.687   2.464  17.116  2.3635  1.3935 -3.9146
 7628SOL     OW34342   0.074   4.383  15.001 -0.5498  0.2927 -0.1292
 7628SOL    HW134343   0.054   4.341  15.085 -0.9418  0.7677  0.0203
 7628SOL    HW234344   0.081   4.473  15.034 -0.7502  0.5193 -0.7089
 7629SOL     OW34345   3.336   0.475   3.981  0.8560  0.4415 -0.2090
 7629SOL    HW134346   3.275   0.547   3.964 -1.9999 -1.5548  1.6254
 7629SOL    HW234347   3.366   0.459   3.891  0.8702  3.1571 -0.7073
 7630SOL     OW34348   0.003   2.293   9.026 -0.1988  0.0847 -0.8987
 7630SOL    HW134349   0.031   2.214   9.072 -0.0252 -0.0323 -1.2072
 7630SOL    HW234350   4.646   2.321   9.078  1.0850  0.4384  0.8005
 7631SOL     OW34351   0.082   3.590   8.926 -0.4069  0.4040  0.2564
 7631SOL    HW134352   0.083   3.588   8.831  0.8643 -1.2579  0.3040
 7631SOL    HW234353   0.032   3.669   8.946 -0.3037  0.5739 -0.1699
 7632SOL     OW34354   2.823   1.016   8.554 -0.2593 -0.6004 -0.4681
 7632SOL    HW134355   2.846   0.947   8.492  1.4048  0.2940 -0.8657
 7632SOL    HW234356   2.751   1.055   8.505 -0.0514 -0.0868 -0.3669
 7633SOL     OW34357   2.655   3.021   4.704 -0.3751  0.6827  0.4355
 7633SOL    HW134358   2.742   3.049   4.734  0.4695 -1.4016 -0.0217
 7633SOL    HW234359   2.595   3.053   4.771 -2.1347 -2.1988  0.2327
 7634SOL     OW34360   4.235   3.750   3.377  0.2422 -0.3319  0.1881
 7634SOL    HW134361   4.305   3.688   3.358  0.7515  0.1358  0.5010
 7634SOL    HW234362   4.186   3.703   3.444 -2.0247  0.2450 -1.0844
 7635SOL     OW34363   1.178   2.513   3.105 -0.1311  0.0884  0.1908
 7635SOL    HW134364   1.147   2.495   3.194  1.7006 -1.9748  0.4051
 7635SOL    HW234365   1.216   2.600   3.119 -2.3793  0.5530  3.6184
 7636SOL     OW34366   2.014   0.531   4.244  0.1233  0.5596 -0.9965
 7636SOL    HW134367   1.941   0.469   4.246  0.2849  0.3659 -1.1187
 7636SOL    HW234368   2.091   0.477   4.223  0.3794  0.3431  0.5017
 7637SOL     OW34369   4.446   2.076   0.146 -0.1944  0.5684 -0.1014
 7637SOL    HW134370   4.383   2.148   0.145  0.4484  1.0948 -1.4122
 7637SOL    HW234371   4.528   2.124   0.135 -1.6054  2.2301 -3.2418
 7638SOL     OW34372   1.233   1.381   3.765  0.6760 -0.7387 -0.6671
 7638SOL    HW134373   1.168   1.443   3.733  1.2324  0.5524  0.7307
 7638SOL    HW234374   1.181   1.301   3.755 -0.9079  0.0382  1.5605
 7639SOL     OW34375   0.105   1.027   8.564  0.1925  0.2396  0.3214
 7639SOL    HW134376   0.108   1.017   8.659 -0.4083  0.3063  0.3537
 7639SOL    HW234377   0.122   0.939   8.532  1.2377  1.1869 -1.7351
 7640SOL     OW34378   1.700   4.013   9.130 -0.2753  0.2396 -0.4046
 7640SOL    HW134379   1.757   4.038   9.058  0.2092 -1.8426 -0.7436
 7640SOL    HW234380   1.634   3.957   9.090 -0.4103 -0.5240  0.8717
 7641SOL     OW34381   3.762   2.150   4.491  0.1523 -0.5124  0.0202
 7641SOL    HW134382   3.806   2.076   4.449  1.4933  0.0097  0.4889
 7641SOL    HW234383   3.823   2.218   4.463 -0.0980  0.4351  1.7276
 7642SOL     OW34384   1.932   2.576  10.701  0.2152  0.1971 -0.2087
 7642SOL    HW134385   2.019   2.550  10.670 -0.6205 -0.5420 -1.8957
 7642SOL    HW234386   1.964   2.624  10.778  0.6859  0.7436 -0.7425
 7643SOL     OW34387   2.294   2.556   7.510  0.4708 -0.1959  0.7618
 7643SOL    HW134388   2.284   2.476   7.458 -1.8613 -0.4654  1.6180
 7643SOL    HW234389   2.302   2.515   7.596  0.2020  2.7853  2.2156
 7644SOL     OW34390   1.662   0.223   4.782  0.1499 -0.0588  0.1201
 7644SOL    HW134391   1.740   0.183   4.742  0.0083 -2.8111  2.6465
 7644SOL    HW234392   1.640   0.283   4.711 -0.5172 -1.5970 -0.9978
 7645SOL     OW34393   3.916   2.619   1.113  0.7062 -0.4544  0.4961
 7645SOL    HW134394   3.988   2.671   1.146 -0.5653  0.5218  1.7488
 7645SOL    HW234395   3.889   2.582   1.197  0.4587  1.0539  1.0726
 7646SOL     OW34396   3.287   2.129   4.612 -0.0295  0.2602 -0.3304
 7646SOL    HW134397   3.193   2.122   4.594 -0.4347  2.1939  1.1538
 7646SOL    HW234398   3.309   2.055   4.555  1.3118  1.8071 -1.8112
 7647SOL     OW34399   1.016   2.661  11.431  0.3032 -0.3796  0.0631
 7647SOL    HW134400   1.101   2.702  11.445  0.1769  0.1196 -0.6415
 7647SOL    HW234401   0.967   2.738  11.402 -0.0090 -0.8280 -0.6115
 7648SOL     OW34402   3.685   1.303  10.635  0.0038 -0.9881  0.5579
 7648SOL    HW134403   3.733   1.221  10.624 -2.4895 -2.3513 -0.0910
 7648SOL    HW234404   3.741   1.365  10.589 -0.6301  0.7727  2.1789
 7649SOL     OW34405   4.245   0.775   6.934 -0.4076  0.3547 -0.0399
 7649SOL    HW134406   4.195   0.856   6.947  1.3739  1.6179 -1.0383
 7649SOL    HW234407   4.261   0.759   6.841  1.0825 -0.8455  0.4271
 7650SOL     OW34408   0.310   3.967   5.898 -0.3661 -0.0708 -0.6102
 7650SOL    HW134409   0.274   3.975   5.986 -2.4537 -2.1381 -1.2729
 7650SOL    HW234410   0.225   3.980   5.856  0.0701 -1.1845 -1.8698
 7651SOL     OW34411   1.677   0.881  17.498  0.8100  0.2262  0.0933
 7651SOL    HW134412   1.688   0.881  17.402 -1.7276  0.9540 -0.2083
 7651SOL    HW234413   1.768   0.879  17.529  0.2154  0.8149  1.8605
 7652SOL     OW34414   4.547   4.283  10.898 -0.0460 -0.6376  0.3957
 7652SOL    HW134415   4.566   4.197  10.936 -1.2671 -0.0405  2.3501
 7652SOL    HW234416   4.494   4.317  10.971 -1.0043 -0.9405 -0.1565
 7653SOL     OW34417   3.801   3.547   8.078  0.1962 -0.0280  0.5515
 7653SOL    HW134418   3.796   3.641   8.093  2.3557  0.1536  0.1935
 7653SOL    HW234419   3.893   3.530   8.059 -0.0589  0.1305 -0.8540
 7654SOL     OW34420   4.426   4.069  11.937 -0.0526 -0.2716 -0.1183
 7654SOL    HW134421   4.369   4.027  11.873 -0.0129  2.6056 -2.0408
 7654SOL    HW234422   4.381   4.054  12.020 -0.3758  0.5351 -0.1482
 7655SOL     OW34423   2.378   1.899   7.132  0.7573  0.1175  0.3832
 7655SOL    HW134424   2.409   1.848   7.057 -1.3413 -0.7305  0.0686
 7655SOL    HW234425   2.308   1.836   7.154  1.6705 -0.8312  0.5864
 7656SOL     OW34426   2.269   2.024  16.151 -0.3633 -0.2788 -0.8905
 7656SOL    HW134427   2.208   1.958  16.117 -0.0645  0.1517 -2.2191
 7656SOL    HW234428   2.255   2.101  16.097  0.2582 -0.8154 -1.8096
 7657SOL     OW34429   2.644   1.503  12.106 -0.5725 -0.0812  0.4055
 7657SOL    HW134430   2.658   1.552  12.025  1.8001  1.2294  1.6092
 7657SOL    HW234431   2.736   1.487  12.130 -0.2852  0.8529 -0.0476
 7658SOL     OW34432   2.993   4.706   6.959  0.9147  0.2516 -0.1460
 7658SOL    HW134433   2.992   0.082   6.970  1.1563  0.2530 -0.1456
 7658SOL    HW234434   3.020   4.702   6.867 -1.5394  0.8944 -0.9109
 7659SOL     OW34435   3.141   2.250   8.336  0.5541  0.1161 -0.2526
 7659SOL    HW134436   3.140   2.197   8.257 -1.0391 -1.8239  1.0506
 7659SOL    HW234437   3.231   2.244   8.369 -0.5171 -0.8917  2.4887
 7660SOL     OW34438   3.562   2.004   0.757  0.0446  0.0744  0.1161
 7660SOL    HW134439   3.594   1.975   0.842  0.1419  1.8759  0.6823
 7660SOL    HW234440   3.623   1.957   0.700  0.1602  1.2391 -0.7352
 7661SOL     OW34441   3.836   4.027   2.959 -0.2910 -0.1730  0.4522
 7661SOL    HW134442   3.768   4.002   2.896 -2.4468 -0.7078  3.0486
 7661SOL    HW234443   3.812   4.120   2.962  1.4813  0.3097  0.1890
 7662SOL     OW34444   4.091   3.995  11.031  0.0710 -0.1479  0.8081
 7662SOL    HW134445   4.082   4.048  10.953 -1.1577 -2.3254 -0.5552
 7662SOL    HW234446   4.037   4.042  11.095  2.6328  1.0372  2.1023
 7663SOL     OW34447   3.792   1.096   3.421 -0.1291 -0.3969 -0.0476
 7663SOL    HW134448   3.819   1.017   3.374  0.4290 -1.5885  2.2423
 7663SOL    HW234449   3.805   1.165   3.356 -1.5789 -0.5929 -0.5353
 7664SOL     OW34450   1.983   1.081  10.969  0.5198 -0.0340 -0.0813
 7664SOL    HW134451   2.056   1.134  10.937 -1.7201  1.7791 -2.1824
 7664SOL    HW234452   1.925   1.115  10.901 -1.1046 -1.2602  0.6787
 7665SOL     OW34453   1.419   3.807   5.882  0.3393 -0.4927  0.0742
 7665SOL    HW134454   1.489   3.763   5.833  1.8083 -0.2549  1.9758
 7665SOL    HW234455   1.375   3.756   5.950 -0.0678 -1.3225 -0.8081
 7666SOL     OW34456   1.335   3.018   3.450 -0.1637  0.4220  0.0290
 7666SOL    HW134457   1.262   3.039   3.509  0.0727 -1.9101  1.1498
 7666SOL    HW234458   1.341   3.109   3.420  0.4338  0.5724  0.6090
 7667SOL     OW34459   4.325   0.580   7.098 -0.1918 -0.0800  0.5651
 7667SOL    HW134460   4.284   0.648   7.043  0.8028  1.5164  1.8146
 7667SOL    HW234461   4.386   0.548   7.032 -1.0599  2.0406 -1.2991
 7668SOL     OW34462   2.617   0.925  14.550 -0.0775 -0.0744 -0.0535
 7668SOL    HW134463   2.588   0.942  14.640  1.4138  3.5539 -0.2521
 7668SOL    HW234464   2.654   0.837  14.559 -0.6896 -0.3250 -0.0150
 7669SOL     OW34465   0.841   0.635   3.622 -0.5757 -0.2301  0.2776
 7669SOL    HW134466   0.762   0.688   3.618 -1.1237 -1.0214  0.5092
 7669SOL    HW234467   0.912   0.697   3.637 -0.5682 -1.0528  3.7641
 7670SOL     OW34468   0.608   3.908   8.479 -0.2153 -0.6368 -0.0446
 7670SOL    HW134469   0.515   3.908   8.456  0.0590 -4.3287 -1.2891
 7670SOL    HW234470   0.610   3.904   8.574 -2.7459 -0.8562 -0.0033
 7671SOL     OW34471   2.976   1.025  10.694  0.3428 -0.1541 -0.3382
 7671SOL    HW134472   3.008   1.045  10.782 -0.7757  0.1902 -0.0051
 7671SOL    HW234473   2.924   1.104  10.677  0.5156 -0.2656 -1.3659
 7672SOL     OW34474   3.930   1.219   4.985 -0.0293  0.1588  0.3478
 7672SOL    HW134475   4.003   1.236   5.044 -0.3118  0.2233  0.6826
 7672SOL    HW234476   3.971   1.169   4.914 -0.3337 -0.1982  0.4216
 7673SOL     OW34477   3.580   2.676   5.567  0.0380 -0.8264  0.2750
 7673SOL    HW134478   3.532   2.758   5.558  0.3609 -0.8855 -1.9385
 7673SOL    HW234479   3.524   2.625   5.626 -0.9362  0.2703  0.2914
 7674SOL     OW34480   3.346   3.010   4.281  0.5199  0.0811  0.3371
 7674SOL    HW134481   3.357   3.050   4.195  1.5308 -2.2633 -0.6168
 7674SOL    HW234482   3.261   2.972   4.263  1.7817 -2.2435 -0.7122
 7675SOL     OW34483   1.055   0.275  16.147 -0.2780 -0.1697  0.3638
 7675SOL    HW134484   1.045   0.273  16.242  0.0758 -0.9860  0.3806
 7675SOL    HW234485   1.117   0.348  16.141 -0.6385 -0.1202 -2.6971
 7676SOL     OW34486   4.531   2.863   9.024  1.0424 -0.0960  0.2017
 7676SOL    HW134487   4.441   2.895   9.023  1.2715  0.5253 -0.6941
 7676SOL    HW234488   4.573   2.947   9.004  1.2480 -0.4902 -0.9796
 7677SOL     OW34489   4.490   2.248   9.751  0.0193  0.8808  0.5936
 7677SOL    HW134490   4.556   2.184   9.778 -0.9515 -0.7944 -1.0630
 7677SOL    HW234491   4.542   2.283   9.678 -1.8280 -2.1861 -2.1736
 7678SOL     OW34492   0.976   1.997  15.565  0.0805  0.3088 -0.4912
 7678SOL    HW134493   1.066   1.970  15.585 -0.7366 -1.3015  1.0692
 7678SOL    HW234494   0.982   2.090  15.589  0.7702  0.6011 -1.8467
 7679SOL     OW34495   0.599   2.736   5.301 -0.2827 -0.4004  0.6162
 7679SOL    HW134496   0.552   2.819   5.314  1.4203  0.2557  2.6998
 7679SOL    HW234497   0.525   2.676   5.295  1.0043 -1.9292  0.2447
 7680SOL     OW34498   0.777   2.147   4.406  0.0714 -0.0690 -0.0784
 7680SOL    HW134499   0.840   2.074   4.402  1.0872  0.6484  2.4824
 7680SOL    HW234500   0.708   2.108   4.353  1.0816 -0.5623 -1.0430
 7681SOL     OW34501   4.648   1.604  14.454  0.8321  0.3196 -0.1835
 7681SOL    HW134502   4.671   1.554  14.532 -0.6295 -1.7649 -1.0895
 7681SOL    HW234503   4.629   1.687  14.498 -1.7643 -0.9736  1.1704
 7682SOL     OW34504   3.645   2.756   7.758  0.4240  0.8004  0.2839
 7682SOL    HW134505   3.586   2.794   7.693 -0.3604 -0.8960  0.0078
 7682SOL    HW234506   3.703   2.700   7.707  0.6351 -1.0036  2.4831
 7683SOL     OW34507   2.600   0.886   3.746  0.7492  0.4870  0.5654
 7683SOL    HW134508   2.597   0.826   3.672  0.0605  0.8345  0.3120
 7683SOL    HW234509   2.663   0.949   3.710  1.6326 -1.2702 -0.9418
 7684SOL     OW34510   0.290   2.669   7.716 -0.0702 -0.4752  0.1110
 7684SOL    HW134511   0.237   2.591   7.699  0.4466 -0.8594  0.2539
 7684SOL    HW234512   0.226   2.738   7.701  1.7127  1.1097 -0.1018
 7685SOL     OW34513   3.520   2.536  13.787 -0.2765  0.0547  0.0145
 7685SOL    HW134514   3.586   2.519  13.720 -0.0128 -0.8572  0.5105
 7685SOL    HW234515   3.559   2.610  13.833 -0.4270 -0.4115  0.8833
 7686SOL     OW34516   3.674   1.945   8.876  0.1652  0.0330 -0.0861
 7686SOL    HW134517   3.652   1.878   8.940 -0.3389  1.6752  1.4487
 7686SOL    HW234518   3.763   1.917   8.853  0.4182 -0.3262  1.3842
 7687SOL     OW34519   3.949   4.264   2.651 -0.0643 -0.0587 -0.2679
 7687SOL    HW134520   3.907   4.223   2.726 -1.1881  2.8661  0.7085
 7687SOL    HW234521   3.889   4.251   2.577 -0.4890  0.6526 -0.0471
 7688SOL     OW34522   0.415   4.662  14.888 -0.4768  0.0167 -0.4725
 7688SOL    HW134523   0.476   4.708  14.945  1.3133 -1.5254 -1.1597
 7688SOL    HW234524   0.387   0.018  14.836  1.4035 -0.8741 -2.7725
 7689SOL     OW34525   4.686   0.809   4.763  0.1026  0.2986 -0.6357
 7689SOL    HW134526   0.025   0.746   4.805  1.3118  2.7800  1.3830
 7689SOL    HW234527   4.597   0.778   4.782 -0.2218  0.2630 -2.2627
 7690SOL     OW34528   4.188   1.629   9.169 -0.7244 -0.2244 -0.2588
 7690SOL    HW134529   4.218   1.538   9.175 -0.3646 -0.0184  1.0088
 7690SOL    HW234530   4.093   1.619   9.166 -0.7271  0.4055 -2.4293
 7691SOL     OW34531   4.217   0.379  13.139  0.1432 -0.4832 -0.2433
 7691SOL    HW134532   4.311   0.395  13.144  0.2753 -0.8490 -1.4672
 7691SOL    HW234533   4.185   0.434  13.210  0.2323 -2.4410  1.2985
 7692SOL     OW34534   3.274   2.604   6.881 -0.0462  0.5907 -0.0237
 7692SOL    HW134535   3.247   2.691   6.850  0.2304  0.8410  0.4467
 7692SOL    HW234536   3.270   2.628   6.974 -0.5323  1.0893 -0.1726
 7693SOL     OW34537   3.789   0.967   8.585 -0.2930  0.0742  0.2652
 7693SOL    HW134538   3.865   1.023   8.568 -0.6868  0.3685 -0.5352
 7693SOL    HW234539   3.750   1.004   8.664 -1.4298  2.4061 -1.3871
 7694SOL     OW34540   3.426   2.300   8.312 -0.2624  0.3946  0.1714
 7694SOL    HW134541   3.409   2.394   8.315 -0.7554  0.3282 -0.5429
 7694SOL    HW234542   3.521   2.295   8.325 -0.5534 -1.7972  1.4656
 7695SOL     OW34543   0.860   0.686  17.547 -0.0797 -0.3964  0.0001
 7695SOL    HW134544   0.805   0.612  17.521 -1.4192  0.6636 -0.1725
 7695SOL    HW234545   0.804   0.756  17.512 -0.2263 -1.2050 -1.3644
 7696SOL     OW34546   1.521   2.540  17.357 -0.2428  0.0350  0.0306
 7696SOL    HW134547   1.426   2.552  17.369 -0.0660 -0.2698  1.7380
 7696SOL    HW234548   1.527   2.447  17.379 -1.1262 -0.6083 -2.4414
 7697SOL     OW34549   1.154   4.162  16.409  0.1643  0.0864 -0.0727
 7697SOL    HW134550   1.179   4.071  16.393  1.9552  1.4229 -4.9901
 7697SOL    HW234551   1.109   4.163  16.493  0.2557 -0.0598 -0.0207
 7698SOL     OW34552   2.077   0.823   5.841 -0.1249  0.5824 -0.3715
 7698SOL    HW134553   2.081   0.727   5.843  0.3866  0.6740  2.7140
 7698SOL    HW234554   2.016   0.835   5.768 -0.0720  1.0963 -0.3287
 7699SOL     OW34555   3.153   2.804   9.416 -0.7341  0.1303  0.8958
 7699SOL    HW134556   3.123   2.834   9.330 -1.1314  0.0655  1.0125
 7699SOL    HW234557   3.187   2.882   9.459 -0.5475  0.0617  0.8722
 7700SOL     OW34558   1.187   3.498  10.946  0.3078  0.6322 -0.3505
 7700SOL    HW134559   1.161   3.556  10.875  0.3537  0.2937 -0.6407
 7700SOL    HW234560   1.123   3.514  11.015 -0.0516  2.1937 -1.0465
 7701SOL     OW34561   0.227   2.591   2.972 -0.1551 -0.3257  0.3257
 7701SOL    HW134562   0.181   2.661   3.017  0.0542 -0.5958  0.9543
 7701SOL    HW234563   0.215   2.520   3.034  1.8474 -2.6837 -1.9863
 7702SOL     OW34564   4.171   0.114   5.925  0.0967 -0.6320  0.3206
 7702SOL    HW134565   4.191   0.155   6.009  0.9396  0.9888 -0.6727
 7702SOL    HW234566   4.257   0.080   5.900 -0.7942 -0.7596 -2.4804
 7703SOL     OW34567   3.344   1.509   5.450  0.2599  0.4634  0.7719
 7703SOL    HW134568   3.436   1.531   5.435  0.1518 -0.5773 -1.4283
 7703SOL    HW234569   3.334   1.531   5.542 -0.5657  2.0195  0.3101
 7704SOL     OW34570   2.533   1.481   4.511 -0.0179 -0.4301  0.4476
 7704SOL    HW134571   2.561   1.501   4.421  1.9873 -0.5138  1.0663
 7704SOL    HW234572   2.441   1.461   4.493  0.1757 -0.3867 -0.6094
 7705SOL     OW34573   0.859   0.048   5.886  0.2148  0.3089 -0.0821
 7705SOL    HW134574   0.923   0.040   5.957 -1.9870 -2.8882  1.5037
 7705SOL    HW234575   0.787   0.098   5.925  0.7436  0.7585  0.3216
 7706SOL     OW34576   4.104   1.944   2.153 -0.0018 -0.4662  0.1093
 7706SOL    HW134577   4.166   1.946   2.226  2.7225  1.4464 -2.2887
 7706SOL    HW234578   4.144   1.878   2.096  1.8950 -1.0291  2.0976
 7707SOL     OW34579   2.432   4.270   3.526  0.4195  0.1772 -0.1822
 7707SOL    HW134580   2.379   4.206   3.573 -0.3002  1.3172  0.5663
 7707SOL    HW234581   2.367   4.313   3.471  0.2627  0.4280  0.1994
 7708SOL     OW34582   0.153   4.641   7.080 -0.1352  0.0239  0.5685
 7708SOL    HW134583   0.158   4.627   6.985  2.6264 -0.6599  0.8076
 7708SOL    HW234584   0.214   4.714   7.089  0.5321 -0.5732  0.9468
 7709SOL     OW34585   0.801   0.423   7.268 -0.6947  0.3638  0.3305
 7709SOL    HW134586   0.822   0.467   7.350 -0.4016  1.5962 -0.4054
 7709SOL    HW234587   0.706   0.421   7.279 -0.4855  1.9829  2.2585
 7710SOL     OW34588   4.639   4.441   9.094 -0.0009 -0.5267  0.0109
 7710SOL    HW134589   4.692   4.372   9.135 -2.2468 -1.0740  1.9315
 7710SOL    HW234590   4.618   4.494   9.170  1.8008  0.9616 -0.5154
 7711SOL     OW34591   0.141   0.834  11.309 -0.6119 -0.2998 -0.0572
 7711SOL    HW134592   0.132   0.835  11.405 -2.3236  1.1035 -0.2242
 7711SOL    HW234593   0.223   0.788  11.292  0.0382  0.9987 -0.4198
 7712SOL     OW34594   3.018   4.237   9.394 -0.5390 -0.1129 -0.2614
 7712SOL    HW134595   3.097   4.290   9.411  0.1352 -1.0912 -0.3152
 7712SOL    HW234596   3.016   4.244   9.299 -1.4174  0.0388 -0.2232
 7713SOL     OW34597   4.534   0.283   5.906 -0.2709  0.5412  0.1579
 7713SOL    HW134598   4.523   0.313   5.997  0.3979  0.9008  0.1214
 7713SOL    HW234599   4.475   0.342   5.859 -1.3060  0.6423  1.5752
 7714SOL     OW34600   2.379   2.156   4.930  0.1497 -0.0205 -0.4886
 7714SOL    HW134601   2.288   2.139   4.955  0.3284  0.5591  0.5830
 7714SOL    HW234602   2.381   2.214   4.854 -4.4375  0.7831  0.0352
 7715SOL     OW34603   2.900   1.447   5.065  0.7335  0.7801 -0.4048
 7715SOL    HW134604   2.960   1.373   5.076 -1.5948 -0.8493  1.4575
 7715SOL    HW234605   2.817   1.401   5.068  1.1184 -0.0177 -2.0768
 7716SOL     OW34606   4.400   0.098   8.903 -0.7664 -0.2506 -0.6878
 7716SOL    HW134607   4.487   0.137   8.894 -0.2743 -1.5054 -1.4254
 7716SOL    HW234608   4.344   0.173   8.886 -1.7740 -0.8076  0.1529
 7717SOL     OW34609   1.172   0.264  15.310  0.2261  0.0946  0.3309
 7717SOL    HW134610   1.100   0.204  15.324 -0.2707  0.7640  0.6712
 7717SOL    HW234611   1.141   0.306  15.230 -0.3289  0.7710  0.9032
 7718SOL     OW34612   3.869   2.852  17.520  0.0252 -0.1748  0.5217
 7718SOL    HW134613   3.895   2.846  17.428  1.6596  2.8621  0.8004
 7718SOL    HW234614   3.776   2.868  17.503 -0.2438 -1.1034  1.0773
 7719SOL     OW34615   1.453   4.592   4.255 -0.2706  0.0437  0.2927
 7719SOL    HW134616   1.432   4.628   4.170  0.6012  0.2511  0.1621
 7719SOL    HW234617   1.524   4.646   4.291 -0.4310  0.9485 -0.7659
 7720SOL     OW34618   0.941   2.063   8.331 -0.0436 -0.1815  0.2658
 7720SOL    HW134619   0.986   2.125   8.389  0.9716 -0.2681 -0.4259
 7720SOL    HW234620   0.954   1.982   8.379 -1.2272  0.7110  2.1113
 7721SOL     OW34621   2.427   0.171  15.381  0.5756 -0.1913  0.0211
 7721SOL    HW134622   2.427   0.086  15.426  2.1056 -0.7424 -1.0314
 7721SOL    HW234623   2.410   0.227  15.456 -1.3321 -1.3216  0.4566
 7722SOL     OW34624   3.525   3.906   7.572  0.6752 -0.2509 -0.0239
 7722SOL    HW134625   3.439   3.947   7.583 -0.3471 -2.4869  0.2155
 7722SOL    HW234626   3.583   3.982   7.575 -1.0337  1.1077 -1.0462
 7723SOL     OW34627   3.547   3.088  12.732  0.4499  0.3486  0.3023
 7723SOL    HW134628   3.483   3.018  12.744 -1.3697  1.9184 -0.3015
 7723SOL    HW234629   3.573   3.115  12.820  0.4459 -0.2280  0.4833
 7724SOL     OW34630   0.294   3.315   7.998  0.2401  0.1597 -0.1723
 7724SOL    HW134631   0.347   3.238   8.016 -2.4618 -1.1694  2.0405
 7724SOL    HW234632   0.318   3.384   8.060 -0.1800 -0.4549  0.6742
 7725SOL     OW34633   4.128   2.894   2.035  0.3094 -0.1257  0.2979
 7725SOL    HW134634   4.035   2.916   2.039 -0.0259 -1.4060 -0.2794
 7725SOL    HW234635   4.150   2.987   2.033  0.6909 -0.1726  2.2281
 7726SOL     OW34636   3.977   4.519  13.967  0.2999 -0.4781  0.0697
 7726SOL    HW134637   3.928   4.552  13.891 -0.2793 -1.2519  0.1010
 7726SOL    HW234638   3.916   4.543  14.038  0.3408  0.9243 -0.3646
 7727SOL     OW34639   4.363   4.473   4.155  0.4008  0.1800  0.1537
 7727SOL    HW134640   4.393   4.516   4.074  0.6984 -2.0317 -0.9170
 7727SOL    HW234641   4.272   4.456   4.130  0.0343  0.3397  1.3901
 7728SOL     OW34642   4.013   2.085   8.001 -0.0866  0.8733 -0.1660
 7728SOL    HW134643   3.942   2.047   7.950 -1.2763  0.5987  1.6745
 7728SOL    HW234644   3.968   2.141   8.065 -1.6931  1.8267 -2.1598
 7729SOL     OW34645   1.592   3.955   5.130 -0.1361 -0.3627 -0.2803
 7729SOL    HW134646   1.642   4.036   5.136 -0.7774 -0.0417  0.9198
 7729SOL    HW234647   1.650   3.902   5.075  0.2165  1.2934 -1.4704
 7730SOL     OW34648   0.315   3.465   7.773 -0.0663 -0.8806  0.0900
 7730SOL    HW134649   0.410   3.480   7.766 -0.3495  0.0909 -1.5764
 7730SOL    HW234650   0.304   3.424   7.859  1.1178  1.4956  1.3919
 7731SOL     OW34651   0.260   1.953   5.513 -0.2501 -0.0933 -0.6580
 7731SOL    HW134652   0.192   1.892   5.541  0.0283 -0.7808 -1.4933
 7731SOL    HW234653   0.300   1.892   5.451  0.1859  1.0528 -1.4991
 7732SOL     OW34654   4.113   3.879   6.417 -0.1497  0.3445  0.5153
 7732SOL    HW134655   4.067   3.938   6.477  1.1275  1.7731  0.0870
 7732SOL    HW234656   4.135   3.806   6.475 -0.4327 -0.2930 -0.1849
 7733SOL     OW34657   1.918   1.613  17.386  0.2657 -0.7806  0.7195
 7733SOL    HW134658   1.924   1.678  17.456  1.9249 -0.8381  0.6319
 7733SOL    HW234659   1.971   1.544  17.426  0.4070 -2.4261 -2.3093
 7734SOL     OW34660   1.845   2.116   1.392 -0.4121  0.0259  0.2299
 7734SOL    HW134661   1.784   2.097   1.321 -1.3041  1.0934  0.7064
 7734SOL    HW234662   1.893   2.191   1.358 -0.5082 -0.5181 -1.0875
 7735SOL     OW34663   1.532   2.791  12.139 -0.2825 -0.6689 -0.2511
 7735SOL    HW134664   1.510   2.761  12.227  0.6960 -1.1355 -0.1704
 7735SOL    HW234665   1.461   2.748  12.089 -0.8568 -0.1499  0.1194
 7736SOL     OW34666   0.125   2.801   7.220 -0.2795 -0.0864 -0.1394
 7736SOL    HW134667   0.084   2.734   7.273 -0.5598  0.4935  0.3767
 7736SOL    HW234668   0.073   2.815   7.141  2.0198  0.9227 -1.5037
 7737SOL     OW34669   0.962   3.436   6.223  0.3068 -0.5788  0.5026
 7737SOL    HW134670   0.911   3.505   6.181  0.3528  0.5243  2.2489
 7737SOL    HW234671   0.915   3.356   6.199 -0.6837  1.4802 -4.4406
 7738SOL     OW34672   3.307   0.627   2.738 -0.9673  0.1770  0.0902
 7738SOL    HW134673   3.362   0.576   2.678 -0.2389 -0.7858  1.5732
 7738SOL    HW234674   3.218   0.611   2.708 -1.4988 -0.6423  2.1316
 7739SOL     OW34675   1.717   1.899   2.326  0.0975  0.5908 -0.4290
 7739SOL    HW134676   1.689   1.808   2.313 -2.6119  1.0505  2.3091
 7739SOL    HW234677   1.810   1.886   2.347  0.2110  0.0128 -1.2660
 7740SOL     OW34678   0.275   0.639   4.449 -0.4343 -0.4571  0.2511
 7740SOL    HW134679   0.237   0.721   4.480  1.9915  0.9838 -0.5615
 7740SOL    HW234680   0.214   0.620   4.378 -0.8300 -0.6742  0.6550
 7741SOL     OW34681   2.041   0.944   1.068 -0.3058 -0.0526  0.2129
 7741SOL    HW134682   2.028   0.868   1.012  0.4975 -0.4526  0.5698
 7741SOL    HW234683   2.025   0.898   1.150  1.0894 -0.2793  0.3594
 7742SOL     OW34684   1.518   4.611   6.797  0.1983 -0.0328 -0.6764
 7742SOL    HW134685   1.527   4.583   6.888 -0.4157 -1.8180 -1.1683
 7742SOL    HW234686   1.560   4.697   6.791  1.3288 -0.6348 -1.4083
 7743SOL     OW34687   2.463   0.743  15.924  0.5141 -0.3553 -0.1686
 7743SOL    HW134688   2.423   0.737  16.011  1.3348  0.2417  0.2552
 7743SOL    HW234689   2.454   0.835  15.902  0.9027 -0.3465 -0.2894
 7744SOL     OW34690   0.399   0.978  17.359  0.2982  0.2861  0.1018
 7744SOL    HW134691   0.429   1.025  17.437 -0.3721  1.7991 -0.5432
 7744SOL    HW234692   0.450   1.025  17.292  1.8415  0.2083  1.2141
 7745SOL     OW34693   3.186   4.513  12.405  0.1493  0.0467 -0.1091
 7745SOL    HW134694   3.190   4.608  12.391  0.1675 -0.2693 -2.2720
 7745SOL    HW234695   3.111   4.510  12.465 -0.2373 -1.8473 -0.6742
 7746SOL     OW34696   0.117   2.636   9.570  0.1099  0.3114 -0.2285
 7746SOL    HW134697   0.173   2.706   9.536  1.3106 -1.5603 -2.0494
 7746SOL    HW234698   0.110   2.576   9.496 -2.3714  1.2265 -0.7290
 7747SOL     OW34699   3.709   3.110  14.468  0.1556 -0.4291  0.0868
 7747SOL    HW134700   3.624   3.074  14.440  1.7151 -3.2697 -0.9886
 7747SOL    HW234701   3.690   3.154  14.551 -1.6934 -0.9189 -0.0776
 7748SOL     OW34702   1.574   1.082   5.233  0.3073  0.1552  0.1004
 7748SOL    HW134703   1.658   1.038   5.243 -0.6301 -1.7584 -0.3135
 7748SOL    HW234704   1.605   1.163   5.193  1.3199 -0.7134 -0.8915
 7749SOL     OW34705   3.444   4.533   8.207  0.0409 -0.5662 -0.2106
 7749SOL    HW134706   3.433   4.585   8.127 -0.2336  1.6671  1.2733
 7749SOL    HW234707   3.394   4.581   8.274 -0.1369  0.8908 -1.3814
 7750SOL     OW34708   4.220   3.163   1.115  0.4742  0.5131  0.0049
 7750SOL    HW134709   4.144   3.143   1.170 -0.3175  0.1206 -1.2388
 7750SOL    HW234710   4.271   3.082   1.117 -2.6302 -1.4545  0.1194
 7751SOL     OW34711   0.887   1.649   3.998  0.2147 -0.2182 -0.0114
 7751SOL    HW134712   0.897   1.614   3.910  1.4602 -0.4367  0.2202
 7751SOL    HW234713   0.796   1.677   3.989 -0.1218 -1.2478  0.1853
 7752SOL     OW34714   3.095   3.836  12.628  0.2515  0.4019 -0.1156
 7752SOL    HW134715   3.051   3.781  12.693 -2.4810  2.3891 -0.2966
 7752SOL    HW234716   3.055   3.793  12.552  1.7277  1.0940 -1.2946
 7753SOL     OW34717   1.404   1.147   3.107 -0.1482  0.3494  0.1918
 7753SOL    HW134718   1.475   1.193   3.151 -0.7308  2.8915 -1.5713
 7753SOL    HW234719   1.413   1.174   3.016  1.3765 -0.0423  0.2263
 7754SOL     OW34720   1.071   3.563   0.626  0.0434 -0.0982 -0.1575
 7754SOL    HW134721   1.102   3.541   0.714  0.5206 -0.3963 -0.4015
 7754SOL    HW234722   1.115   3.647   0.613  0.7001 -0.4381 -0.1280
 7755SOL     OW34723   0.331   0.336   3.886  0.4620 -0.6413 -0.1020
 7755SOL    HW134724   0.327   0.407   3.950 -4.5961 -2.3132  1.4035
 7755SOL    HW234725   0.288   0.383   3.814 -1.1211  0.2494  1.4050
 7756SOL     OW34726   0.641   1.799  12.197 -0.1432  0.6562  0.2927
 7756SOL    HW134727   0.694   1.728  12.234 -0.4157 -0.6605 -1.8576
 7756SOL    HW234728   0.696   1.824  12.122  1.3623  2.3282  1.9382
 7757SOL     OW34729   3.777   2.311   7.478  0.5169 -0.2686 -0.5152
 7757SOL    HW134730   3.810   2.322   7.388 -1.3870  0.9251 -1.0544
 7757SOL    HW234731   3.705   2.251   7.458 -0.1852  1.2938 -2.7194
 7758SOL     OW34732   3.606   1.792   0.956 -0.2557  0.1926 -0.4522
 7758SOL    HW134733   3.671   1.739   0.910  0.0068  0.6885 -0.6548
 7758SOL    HW234734   3.592   1.730   1.027  1.2226 -0.7277 -0.9727
 7759SOL     OW34735   0.635   4.381  13.592  0.0300 -0.4313 -0.8203
 7759SOL    HW134736   0.658   4.471  13.568 -0.4239  0.3368  1.6761
 7759SOL    HW234737   0.548   4.400  13.628  0.3238 -0.9300  0.1526
 7760SOL     OW34738   3.763   3.105  11.152  0.0632 -0.5270 -0.3982
 7760SOL    HW134739   3.820   3.078  11.079 -1.4370  0.6403 -1.9994
 7760SOL    HW234740   3.672   3.092  11.127 -0.9172  0.4207  2.6769
 7761SOL     OW34741   1.013   0.908   9.989 -1.1764  0.5470 -0.5534
 7761SOL    HW134742   0.950   0.909  10.061  1.7170  0.3646  1.9996
 7761SOL    HW234743   0.999   0.819   9.958  1.2345  0.6496 -1.9490
 7762SOL     OW34744   1.992   1.376  16.474 -0.3242 -0.5158 -0.0276
 7762SOL    HW134745   2.042   1.316  16.419 -0.0935 -1.2426  0.9774
 7762SOL    HW234746   1.904   1.337  16.474 -0.4649 -0.1948 -0.2380
 7763SOL     OW34747   2.259   1.230   8.792 -0.1955 -0.2710  0.1366
 7763SOL    HW134748   2.233   1.158   8.850 -0.7359 -1.7809 -1.9928
 7763SOL    HW234749   2.216   1.200   8.712 -2.1609 -0.0478  1.1075
 7764SOL     OW34750   3.283   0.572   5.496 -0.6590 -0.2085 -0.0480
 7764SOL    HW134751   3.251   0.515   5.566 -0.2188 -1.5385 -0.9318
 7764SOL    HW234752   3.235   0.651   5.520 -0.2293  0.1855 -0.5076
 7765SOL     OW34753   0.124   3.899  14.689 -0.3497  0.3992  0.5987
 7765SOL    HW134754   0.121   3.879  14.596  1.0381 -1.2380  0.9239
 7765SOL    HW234755   0.148   3.992  14.689  0.2743  0.2377  0.6164
 7766SOL     OW34756   0.196   3.118   3.824 -0.3747 -0.1920  0.6006
 7766SOL    HW134757   0.107   3.083   3.827 -0.3953 -0.1618  0.3605
 7766SOL    HW234758   0.247   3.047   3.863  0.2015 -0.6270 -0.9016
 7767SOL     OW34759   3.263   3.597   6.530  0.2534  0.1839  0.3825
 7767SOL    HW134760   3.167   3.597   6.528  0.2646  0.0491 -0.3676
 7767SOL    HW234761   3.270   3.640   6.615 -2.7221 -0.2248  0.8226
 7768SOL     OW34762   3.682   4.695   2.869  0.1293 -0.2088 -0.0507
 7768SOL    HW134763   3.764   4.668   2.911  0.2891 -2.5693 -1.8916
 7768SOL    HW234764   3.706   0.002   2.781 -0.1944 -3.1001 -1.0152
 7769SOL     OW34765   3.736   0.288   1.439  0.7728 -0.5535  0.1033
 7769SOL    HW134766   3.815   0.341   1.432 -0.0192  0.5764 -0.1872
 7769SOL    HW234767   3.706   0.297   1.529 -2.8888  0.3370 -1.2006
 7770SOL     OW34768   0.212   0.392   7.849  0.4133 -0.5036 -0.6093
 7770SOL    HW134769   0.302   0.413   7.823 -0.4737  0.2516 -3.1010
 7770SOL    HW234770   0.217   0.299   7.874  0.6232 -0.4985 -0.6261
 7771SOL     OW34771   2.807   4.530   0.733 -0.4801 -0.2981 -0.3672
 7771SOL    HW134772   2.861   4.608   0.718  1.8834 -1.9775 -0.5435
 7771SOL    HW234773   2.738   4.571   0.785  1.1196 -2.0918  3.1292
 7772SOL     OW34774   0.625   2.787   5.027 -0.2965 -0.6735  0.0170
 7772SOL    HW134775   0.684   2.860   5.009 -1.2644  0.2399  0.5742
 7772SOL    HW234776   0.633   2.781   5.122  1.1527 -1.4848 -0.1458
 7773SOL     OW34777   4.444   0.268  12.789 -0.1765 -0.4407  0.1377
 7773SOL    HW134778   4.494   0.302  12.714  1.1245  0.7806  1.5450
 7773SOL    HW234779   4.478   0.179  12.799 -0.1040 -0.6170 -1.6298
 7774SOL     OW34780   0.228   2.310   8.438 -0.2968 -0.9306  0.7384
 7774SOL    HW134781   0.283   2.271   8.370  0.0644 -0.0164  0.5047
 7774SOL    HW234782   0.147   2.267   8.410 -0.6531  0.2264 -0.0125
 7775SOL     OW34783   0.169   2.282   4.709  0.2343  0.7305  0.8570
 7775SOL    HW134784   0.107   2.210   4.695  1.5107 -0.1649 -0.1610
 7775SOL    HW234785   0.113   2.331   4.769 -0.0009  0.3313  0.9616
 7776SOL     OW34786   4.107   0.661   7.260 -0.4249 -0.4146  0.6243
 7776SOL    HW134787   4.116   0.584   7.316  0.9029 -1.4939 -1.0995
 7776SOL    HW234788   4.188   0.648   7.211 -1.0184 -0.0914 -0.4499
 7777SOL     OW34789   2.007   0.951   2.253  0.5922 -0.9486 -0.1732
 7777SOL    HW134790   2.045   0.921   2.170  1.4107  1.0485 -0.5138
 7777SOL    HW234791   2.073   0.918   2.313  1.7112  0.9961 -0.3527
 7778SOL     OW34792   1.967   2.791  12.476  0.2535 -0.1234 -0.0390
 7778SOL    HW134793   1.950   2.812  12.568  0.9581 -0.7114  0.2246
 7778SOL    HW234794   2.012   2.872  12.452 -2.7946  2.0759  1.6704
 7779SOL     OW34795   4.126   2.067   5.711 -0.2960  0.2315 -0.4813
 7779SOL    HW134796   4.066   2.002   5.748  0.5706 -0.5207 -0.4067
 7779SOL    HW234797   4.185   2.010   5.661  0.5797 -0.7819  1.6956
 7780SOL     OW34798   3.668   3.022   8.206  0.0210 -0.1311  0.3556
 7780SOL    HW134799   3.757   3.056   8.205 -0.3041  0.5850 -3.0145
 7780SOL    HW234800   3.664   2.975   8.123 -2.4302 -1.3710  1.1792
 7781SOL     OW34801   3.850   4.629   2.534  0.2901 -0.5788 -0.3775
 7781SOL    HW134802   3.770   4.619   2.585  0.6641 -0.1428  0.2897
 7781SOL    HW234803   3.888   4.710   2.567  0.6831 -0.1101 -1.9951
 7782SOL     OW34804   0.165   0.863   8.164 -0.6590  0.0328  0.0917
 7782SOL    HW134805   0.104   0.842   8.235 -2.4657 -1.0097 -1.7691
 7782SOL    HW234806   0.166   0.774   8.130 -2.9185 -0.0291  0.2073
 7783SOL     OW34807   0.497   3.361  10.879  0.6825  0.1114 -0.2558
 7783SOL    HW134808   0.555   3.430  10.911  0.2915  0.0361  0.6290
 7783SOL    HW234809   0.427   3.412  10.839 -1.6410 -2.5920  0.3325
 7784SOL     OW34810   1.611   4.097   2.162 -0.4193  0.1316 -0.8132
 7784SOL    HW134811   1.567   4.013   2.176  0.7650  0.0061  2.1021
 7784SOL    HW234812   1.659   4.080   2.081  0.9918 -0.3751  0.1359
 7785SOL     OW34813   0.992   1.949  12.299 -0.0134 -0.2158  0.4197
 7785SOL    HW134814   0.954   1.977  12.216 -2.1192 -2.5663  0.5934
 7785SOL    HW234815   0.959   1.861  12.315  1.6851 -0.9177  0.0301
 7786SOL     OW34816   1.779   4.543   5.575 -0.0760  0.0626  0.3816
 7786SOL    HW134817   1.732   4.569   5.495  0.7462 -0.5580 -0.2973
 7786SOL    HW234818   1.711   4.543   5.643 -0.5813 -0.7661 -0.1222
 7787SOL     OW34819   3.337   2.018  16.871  0.3245  0.3011 -0.2567
 7787SOL    HW134820   3.303   1.950  16.929  0.2674  0.1359 -0.4879
 7787SOL    HW234821   3.413   2.045  16.924  0.0262 -0.6545  0.6766
 7788SOL     OW34822   0.331   1.177   8.934  0.1102 -0.0093 -0.0741
 7788SOL    HW134823   0.376   1.118   8.873 -0.4949  0.7863 -1.3029
 7788SOL    HW234824   0.361   1.145   9.018  0.4225 -2.5807 -1.1628
 7789SOL     OW34825   3.582   0.059   1.500  0.3602 -0.7485  0.3966
 7789SOL    HW134826   3.616   0.126   1.440 -0.6102  0.1643  0.8650
 7789SOL    HW234827   3.598   0.100   1.585  0.9456  2.0143 -1.0270
 7790SOL     OW34828   0.967   3.250   1.757 -0.2446  0.8729 -0.1136
 7790SOL    HW134829   0.969   3.267   1.851 -0.4590 -2.1645  0.4492
 7790SOL    HW234830   0.925   3.164   1.759  2.1070 -0.3026 -0.7426
 7791SOL     OW34831   0.035   1.380   6.381  0.1430  0.0142 -0.5825
 7791SOL    HW134832   0.099   1.391   6.452 -1.7567  0.6257  1.0050
 7791SOL    HW234833   4.678   1.423   6.419  0.3319  0.9040 -1.2099
 7792SOL     OW34834   2.048   0.273   6.939  0.1308  0.2292 -0.6694
 7792SOL    HW134835   2.000   0.293   7.019 -0.1712 -0.2216 -0.7381
 7792SOL    HW234836   1.977   0.253   6.878 -0.6283 -0.3183  0.3933
 7793SOL     OW34837   3.611   0.108   7.675 -0.3481 -0.0082 -0.0180
 7793SOL    HW134838   3.640   0.027   7.717 -1.1337 -0.2474  0.0631
 7793SOL    HW234839   3.525   0.078   7.645 -1.0028 -0.4027  2.2094
 7794SOL     OW34840   0.684   0.895  12.481 -0.3389 -0.7201  0.2719
 7794SOL    HW134841   0.663   0.844  12.559 -0.1064 -2.2577 -0.6593
 7794SOL    HW234842   0.593   0.921  12.472 -0.0267  0.7150  1.2714
 7795SOL     OW34843   4.506   3.974   4.411 -0.1963 -0.5635  0.4724
 7795SOL    HW134844   4.520   3.961   4.317 -4.2707  0.0131 -0.2150
 7795SOL    HW234845   4.464   4.060   4.408 -2.4510 -1.6683 -0.0533
 7796SOL     OW34846   2.477   1.856   6.437 -0.1957 -0.8819 -0.0480
 7796SOL    HW134847   2.531   1.799   6.383  0.7994 -1.2311  1.3214
 7796SOL    HW234848   2.432   1.910   6.372  2.4047  0.2104 -0.9186
 7797SOL     OW34849   4.672   1.876   3.902 -0.0010 -0.5851  0.2343
 7797SOL    HW134850   4.587   1.832   3.911 -1.2910  1.3113 -2.6592
 7797SOL    HW234851   4.664   1.923   3.819  0.3836 -2.1194 -0.6573
 7798SOL     OW34852   3.671   2.741   0.150  0.5095 -0.0230 -0.0079
 7798SOL    HW134853   3.735   2.671   0.139 -0.7521 -1.1462 -0.1787
 7798SOL    HW234854   3.666   2.767   0.058 -0.9225 -2.0122 -0.4984
 7799SOL     OW34855   2.833   3.869   2.366  0.4589 -0.0533  0.2316
 7799SOL    HW134856   2.908   3.812   2.350 -1.2487 -1.6945 -1.9195
 7799SOL    HW234857   2.866   3.944   2.318  1.5102 -0.3878  0.4442
 7800SOL     OW34858   3.072   3.198  10.832 -0.5171  0.6107 -0.3376
 7800SOL    HW134859   3.079   3.258  10.906 -1.4693  1.2104 -0.7356
 7800SOL    HW234860   2.994   3.154  10.864 -1.3032  2.1661 -0.1106
 7801SOL     OW34861   0.667   0.704   8.914  0.4071  0.1658  0.7259
 7801SOL    HW134862   0.664   0.776   8.976  2.7135  1.3195 -0.4856
 7801SOL    HW234863   0.586   0.718   8.864  0.4237  1.2054  0.9945
 7802SOL     OW34864   1.158   2.539   8.682  0.1364  0.1623 -0.5275
 7802SOL    HW134865   1.067   2.568   8.680  0.7786  2.2274  0.0073
 7802SOL    HW234866   1.153   2.450   8.718 -0.3206  0.1108 -0.7137
 7803SOL     OW34867   3.168   3.439   2.923 -0.3621 -0.0559  0.3576
 7803SOL    HW134868   3.203   3.419   2.836 -3.4466  1.1739 -1.1813
 7803SOL    HW234869   3.249   3.415   2.967  0.2607 -0.3126 -0.9314
 7804SOL     OW34870   3.124   0.301   2.926 -0.3841  0.6754 -0.2467
 7804SOL    HW134871   3.202   0.304   2.981 -3.0821  0.4392  3.6526
 7804SOL    HW234872   3.104   0.207   2.924  0.0623  0.5163  2.7292
 7805SOL     OW34873   1.610   4.417   3.616 -0.1115  0.2388  0.0981
 7805SOL    HW134874   1.523   4.389   3.587 -0.0401 -1.2010  1.2949
 7805SOL    HW234875   1.606   4.510   3.594  0.7690 -0.0903 -1.4599
 7806SOL     OW34876   4.322   0.298   2.230 -0.2571 -0.0844 -0.1816
 7806SOL    HW134877   4.243   0.352   2.222 -0.6910 -0.9856 -2.1482
 7806SOL    HW234878   4.382   0.363   2.267 -0.8932  0.9836 -1.0146
 7807SOL     OW34879   4.524   0.788  11.429  1.2958 -0.5104 -0.1680
 7807SOL    HW134880   4.433   0.786  11.459  1.4463 -2.2222  0.1549
 7807SOL    HW234881   4.536   0.707  11.380 -0.6393  0.1020 -1.6466
 7808SOL     OW34882   0.346   3.692  10.588  0.3387 -0.1666 -0.2825
 7808SOL    HW134883   0.337   3.783  10.561 -2.0928  0.1639  1.5920
 7808SOL    HW234884   0.306   3.649  10.512 -0.7579 -1.6379  1.1376
 7809SOL     OW34885   2.434   2.861   4.141  0.0750  0.4872 -0.4869
 7809SOL    HW134886   2.433   2.885   4.049  0.9287  1.6358 -0.1968
 7809SOL    HW234887   2.435   2.766   4.144  1.8432  0.5192 -0.4405
 7810SOL     OW34888   0.060   3.883  10.681 -0.5685 -0.1839  0.0936
 7810SOL    HW134889   0.109   3.905  10.602 -1.6617 -0.0537 -0.5546
 7810SOL    HW234890   4.700   3.835  10.657 -1.3164  1.1368 -0.0734
 7811SOL     OW34891   3.166   3.904  15.593  0.2854  0.2947  0.1499
 7811SOL    HW134892   3.184   3.892  15.500  1.9711 -0.2901  0.5489
 7811SOL    HW234893   3.254   3.880  15.623 -0.9034  0.8652  4.1266
 7812SOL     OW34894   1.818   4.481   0.513  0.4724 -0.0763  0.3688
 7812SOL    HW134895   1.833   4.557   0.457  2.4907 -0.4681  0.3565
 7812SOL    HW234896   1.851   4.511   0.598  1.4314  0.5941 -0.2425
 7813SOL     OW34897   1.821   0.591   2.507 -0.0584  0.2651 -0.2933
 7813SOL    HW134898   1.867   0.545   2.437  2.0388  1.2399  0.4703
 7813SOL    HW234899   1.893   0.614   2.565 -1.1274  2.1659  0.2912
 7814SOL     OW34900   2.570   0.566  13.503  0.1582 -0.2365  0.2279
 7814SOL    HW134901   2.538   0.613  13.427  1.0265  2.9107  1.7914
 7814SOL    HW234902   2.559   0.628  13.575 -1.4899  0.8173 -0.9345
 7815SOL     OW34903   3.672   1.253  13.955 -0.0208 -0.1411  0.7464
 7815SOL    HW134904   3.609   1.289  14.018  0.2232  1.7748 -0.1166
 7815SOL    HW234905   3.739   1.321  13.952  0.9745 -1.1791 -0.4277
 7816SOL     OW34906   1.984   4.450  11.328 -0.8113 -0.4525 -0.2785
 7816SOL    HW134907   1.988   4.505  11.250  0.4277 -1.7578 -1.1516
 7816SOL    HW234908   2.020   4.514  11.389  0.2343 -1.4577  0.1580
 7817SOL     OW34909   1.597   2.821  15.423  0.5796 -0.2723 -0.1698
 7817SOL    HW134910   1.656   2.896  15.411 -0.0412  0.2153 -0.1930
 7817SOL    HW234911   1.516   2.871  15.432  0.2544 -0.5134 -1.6491
 7818SOL     OW34912   4.029   2.986   5.464  0.4407 -0.1106 -0.7995
 7818SOL    HW134913   3.990   3.050   5.524  0.0441  0.2012 -1.3980
 7818SOL    HW234914   3.983   2.906   5.492  0.1840 -0.0346 -1.0034
 7819SOL     OW34915   2.218   0.815   4.469  0.6580 -0.0914 -0.6449
 7819SOL    HW134916   2.187   0.826   4.379  0.5506  2.0693 -0.3303
 7819SOL    HW234917   2.297   0.869   4.471  0.7374 -0.1346 -2.8801
 7820SOL     OW34918   1.935   4.333   5.736 -0.3295  0.1962  0.1357
 7820SOL    HW134919   1.910   4.335   5.644  1.6617  3.8074 -0.3297
 7820SOL    HW234920   1.870   4.277   5.778  0.0033  0.5396  1.1027
 7821SOL     OW34921   1.865   0.297  16.347  0.3883  0.8665  0.2550
 7821SOL    HW134922   1.838   0.380  16.387 -1.5773  0.5688 -0.4694
 7821SOL    HW234923   1.908   0.327  16.267  1.3322 -1.9861 -0.3040
 7822SOL     OW34924   4.081   0.901  13.774 -0.5144 -0.1517  0.3713
 7822SOL    HW134925   4.055   0.971  13.834  0.0919  0.4996 -0.1163
 7822SOL    HW234926   4.122   0.846  13.841 -0.2067  0.0227  0.3282
 7823SOL     OW34927   4.294   3.591  11.938  0.0656 -0.2041  0.2443
 7823SOL    HW134928   4.323   3.536  12.010 -0.2924  1.5352  1.7063
 7823SOL    HW234929   4.373   3.591  11.884 -1.5773  2.5586 -2.1326
 7824SOL     OW34930   1.650   0.505  10.102  0.1981  0.5152  0.2433
 7824SOL    HW134931   1.744   0.507  10.081  0.7371  2.0218  2.7802
 7824SOL    HW234932   1.615   0.426  10.060 -0.5527  1.8414 -1.5654
 7825SOL     OW34933   2.794   0.908  17.619  0.2051 -0.3948 -0.6302
 7825SOL    HW134934   2.750   0.935   0.019 -1.1604 -1.9825 -0.8402
 7825SOL    HW234935   2.873   0.962  17.616 -0.3469  0.5374  1.5294
 7826SOL     OW34936   1.119   2.696   5.926 -0.1482  0.1265 -0.2183
 7826SOL    HW134937   1.029   2.703   5.895 -0.1312 -0.8543 -0.4848
 7826SOL    HW234938   1.161   2.757   5.866 -0.7903  0.3788 -0.4140
 7827SOL     OW34939   1.250   4.657   5.141  0.1553 -0.1932  0.4269
 7827SOL    HW134940   1.182   4.668   5.075  0.5139 -0.5686 -0.0085
 7827SOL    HW234941   1.265   4.563   5.134 -0.7368 -0.3638  0.8698
 7828SOL     OW34942   2.659   2.958   3.771 -0.8225 -0.0414 -0.6277
 7828SOL    HW134943   2.658   2.950   3.676 -1.4022 -0.7396 -0.5641
 7828SOL    HW234944   2.566   2.952   3.794 -1.3276  0.7960 -2.5244
 7829SOL     OW34945   4.661   4.329   1.072 -0.4011  0.0884 -0.1818
 7829SOL    HW134946   0.008   4.370   1.126  0.2100 -0.7630 -0.2741
 7829SOL    HW234947   4.685   4.326   0.979 -2.6130  2.8514 -0.8372
 7830SOL     OW34948   0.657   3.440   3.071 -0.1009  0.0979 -0.4386
 7830SOL    HW134949   0.590   3.401   3.015  1.0494 -1.7467 -0.5136
 7830SOL    HW234950   0.737   3.428   3.019  1.1669 -1.1891  1.8321
 7831SOL     OW34951   0.599   4.448  10.029  0.3604 -0.4448 -0.2053
 7831SOL    HW134952   0.659   4.460   9.956  1.8206  0.5614  1.1460
 7831SOL    HW234953   0.654   4.447  10.108  3.3320  1.8606 -2.2429
 7832SOL     OW34954   0.181   0.704   2.226  0.7948 -0.2926  0.0335
 7832SOL    HW134955   0.195   0.747   2.310 -1.6459  0.8863 -0.1651
 7832SOL    HW234956   0.213   0.777   2.172  0.2332  0.3499  0.5740
 7833SOL     OW34957   4.502   2.368   9.165  0.4284 -0.0898  0.3715
 7833SOL    HW134958   4.426   2.317   9.192  0.5257  0.0327  0.8805
 7833SOL    HW234959   4.478   2.459   9.180 -0.7622 -0.6213  1.6238
 7834SOL     OW34960   1.315   4.486   6.305  0.1171 -0.0803 -0.0889
 7834SOL    HW134961   1.347   4.576   6.301  1.7352 -0.6966 -0.9406
 7834SOL    HW234962   1.344   4.447   6.387  1.6123  0.8563 -0.1710
 7835SOL     OW34963   1.424   3.035  10.825 -0.2416 -0.4254 -0.2256
 7835SOL    HW134964   1.372   3.074  10.896  0.7614 -2.3149  1.5452
 7835SOL    HW234965   1.456   2.951  10.859 -2.2409 -1.4918 -1.0099
 7836SOL     OW34966   2.015   4.346  17.121 -0.2779  0.3835 -0.4366
 7836SOL    HW134967   1.929   4.307  17.136  0.2042  0.2077  1.9268
 7836SOL    HW234968   2.058   4.292  17.054 -0.2456  2.4834 -2.1228
 7837SOL     OW34969   3.047   3.330   5.973  0.0934 -0.5012 -0.0058
 7837SOL    HW134970   3.086   3.373   5.897  1.8295 -2.3138 -0.1538
 7837SOL    HW234971   3.095   3.248   5.959 -0.7935 -0.9373 -0.5248
 7838SOL     OW34972   0.755   2.744  12.104 -0.2279  0.3749 -0.5773
 7838SOL    HW134973   0.810   2.671  12.134 -2.9003 -1.5397 -0.3740
 7838SOL    HW234974   0.676   2.693  12.086  1.8061 -2.5612 -1.2143
 7839SOL     OW34975   0.455   2.740   8.927  0.2923  0.1662  0.2364
 7839SOL    HW134976   0.439   2.648   8.949 -0.7463  0.5436  1.0321
 7839SOL    HW234977   0.425   2.793   9.000 -0.7317 -0.2319  0.1079
 7840SOL     OW34978   3.583   0.065   4.549  0.1717  0.3370 -0.1649
 7840SOL    HW134979   3.585   4.697   4.509 -0.1716  0.5540 -0.6502
 7840SOL    HW234980   3.551   0.123   4.480 -0.4508  1.0439  0.7321
 7841SOL     OW34981   4.313   2.726  12.682 -0.1161 -0.4427 -0.4103
 7841SOL    HW134982   4.228   2.708  12.644 -1.7909  2.0874  2.1276
 7841SOL    HW234983   4.287   2.789  12.750 -0.5830 -1.5116  0.4006
 7842SOL     OW34984   1.599   1.481   9.269 -0.4766  0.4267  0.3093
 7842SOL    HW134985   1.671   1.453   9.326 -1.4867 -2.5416  0.1543
 7842SOL    HW234986   1.570   1.399   9.228  2.7884 -0.2127 -0.7242
 7843SOL     OW34987   0.050   3.165   7.676 -0.4907  0.5477  0.4089
 7843SOL    HW134988   0.053   3.232   7.745 -0.9287  1.7008 -0.6964
 7843SOL    HW234989   4.682   3.185   7.644 -1.0487  0.0348  1.5943
 7844SOL     OW34990   3.257   0.819   7.451  0.4663 -0.0692  0.4391
 7844SOL    HW134991   3.298   0.763   7.516 -1.6418 -1.7517  0.3433
 7844SOL    HW234992   3.177   0.768   7.433 -1.2609  2.1816  1.7353
 7845SOL     OW34993   2.880   1.687   5.423 -0.1770  0.1906  0.4577
 7845SOL    HW134994   2.940   1.620   5.454 -0.1892 -0.8814 -1.8218
 7845SOL    HW234995   2.926   1.717   5.344  0.2381 -1.8799 -0.0776
 7846SOL     OW34996   2.896   3.747  10.355 -0.2301  0.4609 -0.5737
 7846SOL    HW134997   2.960   3.803  10.310  1.6703 -1.1192  0.1490
 7846SOL    HW234998   2.887   3.693  10.277 -1.2009  1.5848 -1.2251
 7847SOL     OW34999   2.527   0.082  16.327  0.1542 -0.3115  0.0003
 7847SOL    HW135000   2.506   4.712  16.352 -1.0696 -0.0790 -0.1853
 7847SOL    HW235001   2.609   0.098  16.374 -1.1372  1.9730  1.5134
 7848SOL     OW35002   3.411   0.445   4.235 -0.0196 -0.5153  0.3296
 7848SOL    HW135003   3.362   0.476   4.311  1.0732 -3.5428  2.2778
 7848SOL    HW235004   3.396   0.508   4.165 -0.4662  1.2108  1.9967
 7849SOL     OW35005   2.062   3.061  13.719 -1.1364  0.4711  0.5480
 7849SOL    HW135006   2.023   2.996  13.662  1.7646 -0.5202 -0.2989
 7849SOL    HW235007   2.053   3.020  13.805  1.1132  0.3079  0.7159
 7850SOL     OW35008   4.182   3.505   3.148 -0.1236 -0.5685  0.3116
 7850SOL    HW135009   4.247   3.542   3.087 -0.7629 -0.5723 -0.3765
 7850SOL    HW235010   4.248   3.494   3.216 -1.2199  2.1958  1.7805
 7851SOL     OW35011   1.549   0.658   6.452  0.1428 -0.2601 -0.4950
 7851SOL    HW135012   1.611   0.719   6.414  0.6994  0.1749  1.1254
 7851SOL    HW235013   1.500   0.626   6.375  0.9356 -0.3757 -0.9477
 7852SOL     OW35014   2.181   3.879   2.275  0.8026  0.1866 -0.3962
 7852SOL    HW135015   2.103   3.926   2.304 -0.6864 -2.9627  0.6408
 7852SOL    HW235016   2.161   3.856   2.185  0.7851 -1.0195 -0.0817
 7853SOL     OW35017   1.320   2.551   6.368  0.3827  0.4068 -0.5906
 7853SOL    HW135018   1.244   2.563   6.425  1.4655 -2.1256  1.3900
 7853SOL    HW235019   1.298   2.603   6.290 -0.5962  0.9986  0.0878
 7854SOL     OW35020   4.047   0.175   1.050 -0.2047 -0.0390  0.4098
 7854SOL    HW135021   4.017   0.097   1.004  0.7178 -0.1132 -0.0688
 7854SOL    HW235022   3.989   0.172   1.127  1.7772  0.3196  1.9265
 7855SOL     OW35023   2.106   0.993   0.608 -0.6461  0.0014 -0.0808
 7855SOL    HW135024   2.033   1.033   0.654 -1.3687 -0.5204 -0.7844
 7855SOL    HW235025   2.161   0.960   0.679 -0.1476 -0.4031 -0.6556
 7856SOL     OW35026   3.540   4.600   4.320  0.6229 -0.3817  0.1091
 7856SOL    HW135027   3.509   4.516   4.285  2.5614 -0.8415 -0.5320
 7856SOL    HW235028   3.580   4.634   4.239 -0.9653 -0.8155 -0.8665
 7857SOL     OW35029   1.446   1.419   3.621 -0.2356 -0.5866 -0.6825
 7857SOL    HW135030   1.384   1.401   3.692  1.0385 -1.0570  0.3065
 7857SOL    HW235031   1.451   1.514   3.625  1.2801 -0.7120  0.4284
 7858SOL     OW35032   4.613   0.189   7.227  0.2331  0.0568 -0.2031
 7858SOL    HW135033   4.585   0.113   7.177 -1.9576  0.2276  0.7344
 7858SOL    HW235034   4.681   0.226   7.170  0.9053  0.5764  0.9267
 7859SOL     OW35035   3.986   0.358   8.123  0.0960 -0.2863  1.2314
 7859SOL    HW135036   4.029   0.340   8.207 -0.6014 -1.5173  1.3224
 7859SOL    HW235037   3.971   0.450   8.141  2.1701  0.5870 -1.5301
 7860SOL     OW35038   4.125   1.905  14.611 -0.1313 -0.1989  0.8642
 7860SOL    HW135039   4.170   1.822  14.594 -2.6577 -1.8221  2.1404
 7860SOL    HW235040   4.149   1.952  14.531 -0.5627  1.3861  1.6553
 7861SOL     OW35041   2.546   3.821   6.643  0.2939  0.1403 -0.3940
 7861SOL    HW135042   2.502   3.754   6.592 -1.0762 -0.3548  1.4193
 7861SOL    HW235043   2.483   3.838   6.714  0.0115  1.2025 -0.9027
 7862SOL     OW35044   0.969   3.413   9.076 -0.4146  0.1741  0.2417
 7862SOL    HW135045   0.896   3.383   9.021 -1.8314  1.8153  1.2559
 7862SOL    HW235046   1.003   3.325   9.096 -0.5809  0.5492  2.1968
 7863SOL     OW35047   4.156   1.897   9.630  0.0883 -0.1815 -0.1722
 7863SOL    HW135048   4.085   1.892   9.693  0.9088  1.3539  0.8643
 7863SOL    HW235049   4.114   1.901   9.544  1.2699 -0.7554 -0.7772
 7864SOL     OW35050   2.279   3.448   7.408  0.3809  0.2240  0.5813
 7864SOL    HW135051   2.241   3.390   7.474 -1.1334  1.1819  0.5480
 7864SOL    HW235052   2.306   3.384   7.341  2.5785  0.2595  1.4405
 7865SOL     OW35053   0.628   2.226   9.204  0.7609  0.0453  0.6914
 7865SOL    HW135054   0.604   2.319   9.195  0.2478 -0.2626 -1.0889
 7865SOL    HW235055   0.567   2.183   9.264  1.5771 -0.2208  1.3308
 7866SOL     OW35056   0.947   2.973   2.372 -0.4658 -0.2716 -0.6943
 7866SOL    HW135057   1.009   2.902   2.386  0.2762  0.2985 -1.0875
 7866SOL    HW235058   0.960   2.989   2.278  1.7890 -1.1918 -0.5312
 7867SOL     OW35059   2.215   0.823   2.364 -0.0393  0.6356 -0.4717
 7867SOL    HW135060   2.241   0.793   2.451  0.6960 -2.4618 -1.7390
 7867SOL    HW235061   2.240   0.752   2.304  1.8759  0.8891  0.0372
 7868SOL     OW35062   1.930   3.420   6.860  0.0029  0.4352 -0.0271
 7868SOL    HW135063   2.015   3.463   6.869  0.7405 -0.8384 -0.9679
 7868SOL    HW235064   1.875   3.457   6.929 -1.5478 -2.9667  0.5975
 7869SOL     OW35065   3.261   2.005  17.193  0.0918 -0.3373 -0.4129
 7869SOL    HW135066   3.297   1.958  17.268  0.6408  2.2038  0.9105
 7869SOL    HW235067   3.273   1.940  17.124  1.2759 -0.4512 -0.0879
 7870SOL     OW35068   4.175   4.338  14.246 -0.0102 -0.0981  0.4159
 7870SOL    HW135069   4.228   4.350  14.324  2.7863 -1.0855 -1.3306
 7870SOL    HW235070   4.169   4.429  14.219 -1.6800 -0.4052 -0.2692
 7871SOL     OW35071   3.003   0.166   6.095 -0.0733 -0.2486 -0.2649
 7871SOL    HW135072   2.966   0.162   6.007 -0.3185 -0.2638 -0.1609
 7871SOL    HW235073   3.002   0.070   6.094  4.4181 -0.3052  1.1459
 7872SOL     OW35074   2.158   0.680  13.886 -0.0673  0.0023 -0.1771
 7872SOL    HW135075   2.144   0.586  13.880  1.6086 -0.3128  0.9596
 7872SOL    HW235076   2.067   0.704  13.906  0.1453 -0.1345  0.9655
 7873SOL     OW35077   3.197   0.487  13.608  0.4177  0.1555  0.1158
 7873SOL    HW135078   3.134   0.464  13.676  1.1448  1.2094  1.1504
 7873SOL    HW235079   3.246   0.407  13.591  1.0724  0.1423  2.0412
 7874SOL     OW35080   1.651   4.032   0.277  0.7245 -0.1767 -0.8001
 7874SOL    HW135081   1.731   4.078   0.302 -2.4337  4.3988  0.8257
 7874SOL    HW235082   1.590   4.065   0.342  2.1952  1.9593 -0.4965
 7875SOL     OW35083   1.120   1.145  11.513 -0.5869  0.3331 -0.0240
 7875SOL    HW135084   1.106   1.085  11.439 -1.8648 -1.1583  1.4305
 7875SOL    HW235085   1.036   1.191  11.511  0.3503  2.0290  0.4631
 7876SOL     OW35086   0.921   3.478   6.890  0.3737  0.6822  0.3615
 7876SOL    HW135087   0.898   3.465   6.982 -1.7583  0.5596 -0.1916
 7876SOL    HW235088   0.960   3.391   6.887 -0.7878  0.1437  0.7419
 7877SOL     OW35089   4.460   1.248   7.383 -0.6937 -0.5264 -0.1095
 7877SOL    HW135090   4.478   1.242   7.290 -1.0789 -0.7318 -0.1701
 7877SOL    HW235091   4.369   1.277   7.387 -0.7423 -0.7497  0.5657
 7878SOL     OW35092   0.116   4.438   5.477  0.5034  0.4102  0.6030
 7878SOL    HW135093   0.146   4.519   5.436 -0.4655  1.4161  1.8997
 7878SOL    HW235094   0.068   4.458   5.557  0.6677  1.9107  0.3165
 7879SOL     OW35095   2.215   4.254  13.852  0.5281 -0.0049 -0.6678
 7879SOL    HW135096   2.219   4.299  13.936  1.7365  0.1980 -0.8415
 7879SOL    HW235097   2.207   4.168  13.893  1.6308  1.0648  1.8112
 7880SOL     OW35098   2.474   0.759   4.632  0.3731  0.4432 -0.5331
 7880SOL    HW135099   2.509   0.820   4.696 -0.3893 -0.4216  0.7117
 7880SOL    HW235100   2.484   0.805   4.549 -1.4408  1.2967 -0.2837
 7881SOL     OW35101   3.434   0.007   5.625 -0.9282  0.3206  0.1652
 7881SOL    HW135102   3.342   0.018   5.647 -0.8443  3.1596 -0.9154
 7881SOL    HW235103   3.421   4.644   5.578  0.6719  0.6301 -0.8678
 7882SOL     OW35104   3.875   2.027   3.637 -0.1662  0.0121  0.2756
 7882SOL    HW135105   3.803   1.966   3.653 -1.7303  1.3855 -1.5507
 7882SOL    HW235106   3.878   2.019   3.542 -1.0548  1.6345  0.1068
 7883SOL     OW35107   4.567   0.399   5.486  0.1055  0.0984  0.6715
 7883SOL    HW135108   4.563   0.309   5.453  0.0795  0.1016  0.6660
 7883SOL    HW235109   4.659   0.413   5.466  0.1339 -1.8713 -0.5918
 7884SOL     OW35110   0.002   3.840   8.432  0.0299  0.3402 -0.3166
 7884SOL    HW135111   0.064   3.907   8.403  1.2899  0.9057  3.6909
 7884SOL    HW235112   0.031   3.762   8.384 -0.3477 -0.4799  0.7888
 7885SOL     OW35113   2.950   0.875  10.467  0.0059  0.5833 -0.2433
 7885SOL    HW135114   2.972   0.924  10.546  1.1060  0.0676 -0.2338
 7885SOL    HW235115   2.916   0.792  10.499  0.7061  0.6948  0.7942
 7886SOL     OW35116   1.619   0.926   8.655 -0.8021  0.0227  0.0262
 7886SOL    HW135117   1.682   0.875   8.705 -0.3569  1.0078  0.4660
 7886SOL    HW235118   1.607   1.006   8.706 -1.3651 -0.6211  0.8868
 7887SOL     OW35119   3.899   1.165   6.014 -0.1825  0.4290 -0.3469
 7887SOL    HW135120   3.837   1.225   6.055  0.7633  1.4612 -0.4204
 7887SOL    HW235121   3.980   1.215   6.022  0.4219 -0.7416  0.7093
 7888SOL     OW35122   2.032   0.379  11.652  0.1511  0.0646 -0.4479
 7888SOL    HW135123   1.989   0.426  11.724  0.3907 -0.9813  0.3904
 7888SOL    HW235124   2.055   0.457  11.601 -1.1839  2.0228  1.9292
 7889SOL     OW35125   1.050   2.564   7.221  0.2604  0.5809 -0.4884
 7889SOL    HW135126   1.111   2.517   7.277  1.6903  3.1322  0.0888
 7889SOL    HW235127   0.997   2.620   7.278 -1.1932  0.4330 -1.6816
 7890SOL     OW35128   1.937   2.649   5.748  0.4658 -0.5267 -0.6499
 7890SOL    HW135129   1.982   2.601   5.817 -0.0511 -0.4549 -0.2638
 7890SOL    HW235130   2.007   2.709   5.718  0.8288 -0.7616 -0.2728
 7891SOL     OW35131   0.811   0.661   5.109 -0.1424 -0.1756 -0.5412
 7891SOL    HW135132   0.794   0.573   5.076 -0.3936 -0.5337  0.5472
 7891SOL    HW235133   0.897   0.659   5.151  0.0658  0.3543 -0.9427
 7892SOL     OW35134   0.142   0.824  13.049  0.7989 -0.4895  0.1308
 7892SOL    HW135135   0.123   0.916  13.068 -2.7473 -1.0477 -0.6999
 7892SOL    HW235136   0.155   0.822  12.954 -0.6738  0.6365 -0.1028
 7893SOL     OW35137   4.434   4.483  17.562 -0.2072 -0.2709  0.1882
 7893SOL    HW135138   4.355   4.441  17.595 -1.4389  0.8851 -1.2918
 7893SOL    HW235139   4.502   4.424  17.595 -1.8223 -3.5068 -2.3027
 7894SOL     OW35140   1.010   3.615   8.520  0.0660  0.2166 -0.0905
 7894SOL    HW135141   1.081   3.588   8.578  1.5664 -1.1956 -2.6235
 7894SOL    HW235142   0.947   3.559   8.566  0.8803 -1.1671 -0.6710
 7895SOL     OW35143   4.613   3.855  15.325 -0.2495  0.1059  0.5553
 7895SOL    HW135144   4.608   3.946  15.295  1.5002  0.9335  2.7328
 7895SOL    HW235145   4.707   3.860  15.340 -0.1967 -0.3672  0.3913
 7896SOL     OW35146   3.070   0.204  15.003  0.3934 -0.3969 -0.0659
 7896SOL    HW135147   3.058   0.289  15.045  2.4632 -0.2157  0.1339
 7896SOL    HW235148   2.981   0.182  14.974  1.6975 -2.3419 -2.6655
 7897SOL     OW35149   1.925   1.121  10.687  0.5017  0.5323  0.1612
 7897SOL    HW135150   1.860   1.138  10.618  1.1226  2.6520  0.0968
 7897SOL    HW235151   2.006   1.139  10.639  0.7945  0.8899  0.7955
 7898SOL     OW35152   1.573   0.229  16.497  0.0846  0.2291 -0.0214
 7898SOL    HW135153   1.560   0.187  16.581  1.9658  0.3423  0.3310
 7898SOL    HW235154   1.635   0.168  16.457 -1.8168 -0.7739 -1.4387
 7899SOL     OW35155   3.329   1.439   8.969 -0.4592  0.0257 -0.2105
 7899SOL    HW135156   3.290   1.354   8.990 -0.1077 -0.4612 -1.5056
 7899SOL    HW235157   3.268   1.499   9.011 -2.1234 -0.8514 -1.3698
 7900SOL     OW35158   2.371   0.286  17.571  0.3384  0.5690 -0.0989
 7900SOL    HW135159   2.364   0.262  17.478  2.3926 -0.5258  0.0415
 7900SOL    HW235160   2.312   0.221  17.608  1.6207 -1.6506 -1.9166
 7901SOL     OW35161   2.271   0.535  17.505 -0.6810 -0.2132  0.2806
 7901SOL    HW135162   2.219   0.480  17.446 -2.4357  0.7001  0.9532
 7901SOL    HW235163   2.337   0.472  17.533  0.3141  0.2566 -1.0150
 7902SOL     OW35164   1.870   1.774   7.735  0.5414 -0.2002 -0.3558
 7902SOL    HW135165   1.913   1.859   7.721 -1.2923  0.7528 -0.2737
 7902SOL    HW235166   1.806   1.781   7.664  0.5127 -1.1790 -0.4175
 7903SOL     OW35167   4.129   1.077  16.262 -0.1507  0.4175 -0.0993
 7903SOL    HW135168   4.135   1.158  16.312  0.7493  0.5464 -0.4177
 7903SOL    HW235169   4.080   1.020  16.322 -0.2496  0.0564 -0.5241
 7904SOL     OW35170   3.519   0.272   0.113 -0.0330  0.3707  0.1418
 7904SOL    HW135171   3.429   0.269   0.145  0.4909 -0.8323  1.5202
 7904SOL    HW235172   3.522   0.356   0.067 -0.9315  0.6789  0.6410
 7905SOL     OW35173   1.660   1.989   0.143 -0.2414  0.3669 -0.3631
 7905SOL    HW135174   1.703   2.044   0.078  1.3146 -0.4710 -0.0627
 7905SOL    HW235175   1.688   2.030   0.225 -1.2509 -0.8880  0.6046
 7906SOL     OW35176   3.829   0.935  17.108  0.2106 -0.2729 -0.1943
 7906SOL    HW135177   3.862   0.848  17.085  1.0563 -0.1601  0.6279
 7906SOL    HW235178   3.881   0.968  17.181  1.0870  0.5382 -1.1799
 7907SOL     OW35179   2.421   0.225   7.753  0.2197  0.9504  0.2516
 7907SOL    HW135180   2.459   0.241   7.839 -1.4948  0.2568  1.1477
 7907SOL    HW235181   2.500   0.193   7.709 -0.7366 -0.0982 -0.6939
 7908SOL     OW35182   0.065   1.205   8.975 -0.4900 -0.5685 -0.3409
 7908SOL    HW135183   0.160   1.208   8.963 -0.4269 -2.7196 -0.3266
 7908SOL    HW235184   0.043   1.298   8.979  0.0423 -0.3581 -2.3483
 7909SOL     OW35185   0.914   3.560   1.799 -0.2133 -0.3533 -0.2458
 7909SOL    HW135186   1.001   3.541   1.832  0.9161  1.6855 -2.0180
 7909SOL    HW235187   0.900   3.639   1.851  1.6624  0.4419 -0.9425
 7910SOL     OW35188   3.104   3.849   3.837 -0.2095  0.3637  0.0184
 7910SOL    HW135189   3.196   3.842   3.859 -0.0626 -1.2827 -1.0804
 7910SOL    HW235190   3.112   3.901   3.758 -1.7899  1.9011  0.8562
 7911SOL     OW35191   0.347   1.520   8.536 -0.1844 -0.4227  0.0596
 7911SOL    HW135192   0.359   1.502   8.630  2.2093  0.7477 -0.0255
 7911SOL    HW235193   0.391   1.605   8.525 -0.4830 -0.5944 -2.3085
 7912SOL     OW35194   0.422   1.272   3.206 -0.3727 -0.0234  0.0806
 7912SOL    HW135195   0.428   1.343   3.270 -0.4747  0.7143 -0.7399
 7912SOL    HW235196   0.344   1.309   3.166 -0.4183  0.6394  0.7759
 7913SOL     OW35197   4.331   3.791  15.348  0.2685  0.2369  0.0054
 7913SOL    HW135198   4.285   3.874  15.335 -2.4185 -1.4514 -1.4794
 7913SOL    HW235199   4.424   3.809  15.353  0.4834 -0.5969 -1.0521
 7914SOL     OW35200   3.482   1.125   4.249 -0.4195 -0.1963  0.3107
 7914SOL    HW135201   3.487   1.220   4.248  1.8316 -0.3192 -0.9423
 7914SOL    HW235202   3.502   1.096   4.160 -0.9201  1.3177 -0.2918
 7915SOL     OW35203   0.757   0.171   5.660  0.2776  0.0383  0.1713
 7915SOL    HW135204   0.810   0.161   5.739  2.2646 -1.8952 -1.4070
 7915SOL    HW235205   0.823   0.199   5.596  0.0737  0.7610  0.2757
 7916SOL     OW35206   0.870   3.371   7.161 -1.1048 -0.4021 -0.6885
 7916SOL    HW135207   0.797   3.335   7.211 -0.5201 -0.4083  0.1679
 7916SOL    HW235208   0.931   3.297   7.163 -0.7526 -0.0868  0.0587
 7917SOL     OW35209   3.183   3.655  15.154  0.1946 -0.4494 -0.0335
 7917SOL    HW135210   3.208   3.695  15.071 -1.0411 -3.4728 -1.8957
 7917SOL    HW235211   3.238   3.578  15.168  1.5653  0.3765 -0.9716
 7918SOL     OW35212   0.260   4.271   6.890 -0.0849 -0.1714 -0.2772
 7918SOL    HW135213   0.293   4.285   6.979 -0.5604 -0.2524 -0.0838
 7918SOL    HW235214   0.310   4.196   6.859 -1.0206 -0.2679 -1.5389
 7919SOL     OW35215   2.853   3.146   4.855  0.5440 -0.5325 -0.1066
 7919SOL    HW135216   2.928   3.203   4.873 -0.5529  1.0695 -0.6348
 7919SOL    HW235217   2.878   3.071   4.909 -0.3623  0.8093  2.1517
 7920SOL     OW35218   2.864   0.541   5.296  0.7465  0.4424 -0.6097
 7920SOL    HW135219   2.926   0.514   5.364  0.8200  2.6805  0.2153
 7920SOL    HW235220   2.805   0.605   5.335 -0.5478 -1.5515  0.6770
 7921SOL     OW35221   4.342   2.590   9.575  0.5150 -0.1289  0.0853
 7921SOL    HW135222   4.366   2.561   9.664 -2.7835 -2.0284  0.3758
 7921SOL    HW235223   4.247   2.599   9.579  0.6446  1.0086  0.4894
 7922SOL     OW35224   3.870   0.659   5.313  0.0025 -0.2355 -0.1281
 7922SOL    HW135225   3.962   0.634   5.328  0.5537  1.4443 -0.7496
 7922SOL    HW235226   3.842   0.570   5.334  0.5266 -0.5680 -0.8244
 7923SOL     OW35227   3.595   0.195   3.041 -0.1997 -0.0976 -0.1699
 7923SOL    HW135228   3.630   0.278   3.010  1.0790 -0.4285  0.3968
 7923SOL    HW235229   3.616   0.133   2.971 -0.3043 -0.2983 -0.0215
 7924SOL     OW35230   4.005   0.222   7.124  0.1054 -0.5978  0.3337
 7924SOL    HW135231   3.920   0.247   7.159  0.4899 -0.6836  1.3386
 7924SOL    HW235232   4.018   0.144   7.179 -1.0005 -2.0888 -1.5611
 7925SOL     OW35233   3.604   0.152   9.427  0.3688  0.1455 -0.5984
 7925SOL    HW135234   3.615   0.151   9.522 -1.2969  0.2905 -0.4021
 7925SOL    HW235235   3.595   0.243   9.400 -0.0930  1.0738  2.6482
 7926SOL     OW35236   3.020   4.017  16.355  0.0421 -0.3966  0.4455
 7926SOL    HW135237   3.114   4.024  16.337  0.3435 -1.2240  1.7381
 7926SOL    HW235238   2.982   4.038  16.270 -0.7675 -1.1988  0.6164
 7927SOL     OW35239   2.582   3.071   6.129 -0.1053  0.9137  0.3524
 7927SOL    HW135240   2.621   3.017   6.060 -1.8610 -0.5868  0.5529
 7927SOL    HW235241   2.651   3.123   6.170  0.9855  0.9936 -1.5392
 7928SOL     OW35242   2.835   4.077  16.176 -0.0052 -0.4123  0.1084
 7928SOL    HW135243   2.779   4.008  16.210 -0.2625 -0.1444  0.2310
 7928SOL    HW235244   2.836   4.052  16.084  1.1159  2.3494 -0.6308
 7929SOL     OW35245   0.611   1.071   3.775  0.5809 -0.0550 -0.1192
 7929SOL    HW135246   0.677   1.071   3.844  0.5057 -0.0061 -0.0462
 7929SOL    HW235247   0.540   1.114   3.822 -1.4574 -2.2998 -1.1352
 7930SOL     OW35248   1.666   2.863  14.262  0.4415 -0.1262 -0.4578
 7930SOL    HW135249   1.582   2.835  14.226  0.1992 -1.6712  1.3088
 7930SOL    HW235250   1.650   2.855  14.356  2.6926 -0.6346 -0.1242
 7931SOL     OW35251   3.174   1.450   8.669 -0.0622 -0.2454  0.3745
 7931SOL    HW135252   3.143   1.518   8.729 -1.7992  0.3571 -1.1697
 7931SOL    HW235253   3.101   1.390   8.687 -0.1451  0.2128  1.5484
 7932SOL     OW35254   2.938   0.027  15.536 -0.2670  0.5678 -0.1600
 7932SOL    HW135255   2.976   0.041  15.449  0.8928 -1.3579  0.0265
 7932SOL    HW235256   2.871   4.679  15.519  0.7961 -1.0914  2.1467
 7933SOL     OW35257   2.131   3.202  11.091 -0.6155 -0.1226  0.3196
 7933SOL    HW135258   2.042   3.168  11.101 -0.6670  0.0649  0.4930
 7933SOL    HW235259   2.189   3.146  11.142  2.5005  1.9028 -0.9950
 7934SOL     OW35260   3.936   2.394  14.319  0.0728 -0.0731 -0.5804
 7934SOL    HW135261   3.912   2.308  14.284 -1.8119  0.8828 -1.6187
 7934SOL    HW235262   3.886   2.395  14.401 -2.0066 -0.2583 -1.8637
 7935SOL     OW35263   1.762   3.699   6.567  0.2140 -0.2252  0.0382
 7935SOL    HW135264   1.807   3.747   6.636 -1.4360 -0.5687  1.3525
 7935SOL    HW235265   1.702   3.651   6.624  0.0964 -1.6630 -1.2957
 7936SOL     OW35266   2.385   0.508   7.942  0.2527 -0.1751 -0.0849
 7936SOL    HW135267   2.442   0.432   7.945  1.0074  0.4269  0.8841
 7936SOL    HW235268   2.396   0.539   8.032 -0.7580  0.0712 -0.0435
 7937SOL     OW35269   3.170   1.338   2.507 -0.4526  0.1375  0.0286
 7937SOL    HW135270   3.246   1.285   2.532  0.6173  0.8642 -1.6923
 7937SOL    HW235271   3.214   1.388   2.438 -2.0095  0.7318 -0.5372
 7938SOL     OW35272   1.070   1.898   2.874 -0.3267  0.6433  0.8426
 7938SOL    HW135273   1.092   1.807   2.850  1.0583  0.8419  1.3399
 7938SOL    HW235274   1.072   1.940   2.788  1.3814  0.9648  1.0260
 7939SOL     OW35275   2.836   4.387   5.616  0.6555 -0.4529  0.4092
 7939SOL    HW135276   2.807   4.323   5.681 -1.4174  0.3445  0.2627
 7939SOL    HW235277   2.794   4.360   5.534  1.8612  0.2217 -0.4318
 7940SOL     OW35278   2.073   4.483   3.741  0.7768 -0.7267  0.8903
 7940SOL    HW135279   2.038   4.503   3.654 -1.1234 -1.1040  1.5926
 7940SOL    HW235280   1.995   4.502   3.792  1.9842  2.8179  1.4153
 7941SOL     OW35281   1.240   2.731  11.277 -0.4212 -0.0840 -0.3612
 7941SOL    HW135282   1.187   2.780  11.214  0.3069 -1.3948 -2.0225
 7941SOL    HW235283   1.271   2.663  11.217  1.9282  1.8019 -1.2850
 7942SOL     OW35284   0.485   1.012   2.373 -0.1380 -0.1401 -0.0924
 7942SOL    HW135285   0.578   0.991   2.362 -0.4367 -0.6864 -1.6399
 7942SOL    HW235286   0.469   0.972   2.459  0.1082  1.1209  0.5358
 7943SOL     OW35287   2.397   2.556   6.971 -0.0029  0.6454 -0.5413
 7943SOL    HW135288   2.316   2.605   6.957 -0.0510  0.7019 -0.0584
 7943SOL    HW235289   2.455   2.588   6.902  1.9122  0.4818  0.9841
 7944SOL     OW35290   0.545   4.655   4.227  0.1142 -0.4113 -0.1702
 7944SOL    HW135291   0.460   4.690   4.255 -0.2843 -0.8086 -0.8812
 7944SOL    HW235292   0.559   4.716   4.155  1.4930 -1.4188 -0.7442
 7945SOL     OW35293   2.124   3.068   8.062 -0.1623 -0.5407 -0.3630
 7945SOL    HW135294   2.139   3.139   8.000 -0.0061 -0.8947 -0.7319
 7945SOL    HW235295   2.132   3.117   8.144 -0.6283 -0.6500 -0.2508
 7946SOL     OW35296   1.177   4.171  14.072 -0.3892 -0.5943  0.4076
 7946SOL    HW135297   1.137   4.084  14.069  1.0615 -1.3024  1.4882
 7946SOL    HW235298   1.268   4.144  14.063  0.2301  1.1061  1.5597
 7947SOL     OW35299   0.716   1.796   0.489  0.0270  0.2042  0.0357
 7947SOL    HW135300   0.749   1.776   0.576 -0.4482 -0.3194  0.0945
 7947SOL    HW235301   0.664   1.874   0.509  0.4855  0.7734 -0.9772
 7948SOL     OW35302   4.246   1.273   4.143 -0.0634  0.8008  0.0116
 7948SOL    HW135303   4.310   1.215   4.184  2.1254  1.9159 -1.8317
 7948SOL    HW235304   4.287   1.358   4.158  1.2184 -0.2666  2.5596
 7949SOL     OW35305   2.438   0.256   3.876 -0.1040 -0.3011  0.5499
 7949SOL    HW135306   2.448   0.294   3.789  0.6880  1.9205  1.6161
 7949SOL    HW235307   2.378   0.313   3.923  2.5892  1.7990  1.4376
 7950SOL     OW35308   2.967   2.070   2.152  1.0120 -0.3781  0.3081
 7950SOL    HW135309   3.013   2.101   2.230  1.4231  0.8279 -0.4198
 7950SOL    HW235310   3.016   2.116   2.084  0.6408 -3.2347 -1.9102
 7951SOL     OW35311   3.131   4.220   2.728  0.7688  0.1239  0.2876
 7951SOL    HW135312   3.169   4.294   2.681 -2.5711  1.1702 -0.8091
 7951SOL    HW235313   3.111   4.167   2.651 -1.3514 -2.4494  2.5753
 7952SOL     OW35314   0.389   4.154  14.593  0.6050 -0.4351 -0.0114
 7952SOL    HW135315   0.311   4.191  14.635 -0.2102  1.0539 -2.8225
 7952SOL    HW235316   0.413   4.227  14.536  1.6382 -1.9466 -1.5132
 7953SOL     OW35317   3.744   2.261   3.791  0.0179  0.3309 -0.3566
 7953SOL    HW135318   3.805   2.330   3.764 -1.9487  1.6344 -1.4035
 7953SOL    HW235319   3.787   2.192   3.740 -0.5585 -0.3183  0.0365
 7954SOL     OW35320   0.715   0.870   3.350 -0.0413  0.0439  0.3474
 7954SOL    HW135321   0.627   0.900   3.327  0.2878  1.0447  0.3569
 7954SOL    HW235322   0.752   0.847   3.264 -1.1328 -0.5920  0.0429
 7955SOL     OW35323   1.376   3.506   7.673  0.0919 -0.1745  0.2620
 7955SOL    HW135324   1.280   3.513   7.672  0.3119  2.8486 -0.7253
 7955SOL    HW235325   1.388   3.440   7.605 -2.4418  0.4664 -0.8091
 7956SOL     OW35326   0.248   0.603  10.232 -0.3301 -0.0339  0.0468
 7956SOL    HW135327   0.252   0.648  10.148 -1.8753 -2.0881 -1.1153
 7956SOL    HW235328   0.279   0.672  10.290  0.5946 -0.9671  0.6620
 7957SOL     OW35329   3.849   3.977  10.696  0.5777  0.6023  0.3170
 7957SOL    HW135330   3.819   4.004  10.609  0.0717 -1.2842 -0.0926
 7957SOL    HW235331   3.772   4.001  10.747 -0.4948 -1.0859 -0.5272
 7958SOL     OW35332   1.164   4.528   2.794 -0.3916 -0.2465 -0.2181
 7958SOL    HW135333   1.139   4.459   2.734  2.1480  0.3460 -1.9362
 7958SOL    HW235334   1.249   4.558   2.764 -0.6172 -0.1286 -0.7363
 7959SOL     OW35335   0.034   4.590   8.054 -0.4924 -0.7012 -0.0296
 7959SOL    HW135336   4.672   4.553   8.021  0.3858 -2.7756  0.0854
 7959SOL    HW235337   0.090   4.550   7.987  0.7265 -0.5107  0.8580
 7960SOL     OW35338   0.710   3.363   6.453 -0.1294 -0.3050 -0.0662
 7960SOL    HW135339   0.689   3.388   6.543 -1.6096 -0.7637 -0.2778
 7960SOL    HW235340   0.692   3.269   6.445  2.3359 -0.8191  0.6533
 7961SOL     OW35341   1.249   0.343   6.267 -0.0213 -0.0984 -0.4042
 7961SOL    HW135342   1.317   0.346   6.200 -0.2920  1.1576 -0.6218
 7961SOL    HW235343   1.271   0.259   6.308 -2.6442 -1.2871 -1.4683
 7962SOL     OW35344   1.800   0.923   5.326  0.4476 -0.0993 -0.1561
 7962SOL    HW135345   1.754   0.932   5.409 -0.8624  1.5670 -1.0581
 7962SOL    HW235346   1.787   0.831   5.306  1.4402 -0.4290  0.6959
 7963SOL     OW35347   3.428   3.166   6.111  0.1798 -0.5811 -0.4493
 7963SOL    HW135348   3.438   3.075   6.137 -3.2784 -1.1181 -1.0952
 7963SOL    HW235349   3.367   3.163   6.037  1.0574 -4.0422 -1.0266
 7964SOL     OW35350   1.904   0.311   3.943  0.1200 -0.5774  0.1831
 7964SOL    HW135351   1.831   0.249   3.935  0.2111 -0.6346 -0.2279
 7964SOL    HW235352   1.968   0.273   3.882  0.4990 -0.5893  0.5927
 7965SOL     OW35353   0.643   0.247   7.027 -0.5234  0.0489 -0.3274
 7965SOL    HW135354   0.597   0.189   7.087  1.5639 -1.4226 -0.1244
 7965SOL    HW235355   0.602   0.321   7.070  0.5781 -0.1510  1.0726
 7966SOL     OW35356   3.280   2.048   1.726 -0.7457  0.7469  0.6484
 7966SOL    HW135357   3.229   2.110   1.779 -2.5394  0.0152 -0.2282
 7966SOL    HW235358   3.312   1.990   1.795 -0.2646 -1.9540 -1.8816
 7967SOL     OW35359   1.812   1.328   6.765 -0.2661  0.3240  0.1727
 7967SOL    HW135360   1.756   1.335   6.842  0.4056 -0.8538  0.7694
 7967SOL    HW235361   1.773   1.255   6.717 -0.3110  0.7623 -0.4536
 7968SOL     OW35362   0.187   0.080   1.844  0.3270  0.6579  0.8695
 7968SOL    HW135363   0.278   0.056   1.825 -0.1756 -1.1768  0.8252
 7968SOL    HW235364   0.192   0.102   1.937 -1.2155 -1.2776  1.3882
 7969SOL     OW35365   4.632   4.346   5.924 -0.4536 -0.6407 -0.1726
 7969SOL    HW135366   4.637   4.347   6.019 -0.4610 -2.6728 -0.1427
 7969SOL    HW235367   4.539   4.330   5.912 -0.2549 -2.1693  0.2930
 7970SOL     OW35368   1.699   0.081  16.287  0.0695  0.7111 -0.5506
 7970SOL    HW135369   1.679   0.092  16.194 -2.7148 -0.8354 -0.1309
 7970SOL    HW235370   1.753   0.158  16.302  0.7380  0.2012 -0.2865
 7971SOL     OW35371   1.041   1.935   6.258  0.4042  0.0632  0.5704
 7971SOL    HW135372   0.963   1.960   6.209 -0.8070  3.0793  4.0076
 7971SOL    HW235373   1.077   2.023   6.271 -0.8269  0.8526 -1.2324
 7972SOL     OW35374   4.512   0.800   4.279 -0.1251  0.3500  0.4081
 7972SOL    HW135375   4.586   0.821   4.335  0.6073 -0.6862 -0.1526
 7972SOL    HW235376   4.555   0.811   4.193 -0.6331 -0.0624  0.1034
 7973SOL     OW35377   1.861   2.100  14.915 -0.1726 -0.5454 -0.0663
 7973SOL    HW135378   1.943   2.054  14.928  0.3798 -0.0128 -1.5974
 7973SOL    HW235379   1.877   2.188  14.949  0.6280 -0.0857 -1.6244
 7974SOL     OW35380   3.521   2.958   1.413  0.2774 -0.1369 -0.0773
 7974SOL    HW135381   3.465   2.901   1.359 -0.5940 -0.6602  1.3671
 7974SOL    HW235382   3.551   3.031   1.359 -0.3457  1.1978  1.3793
 7975SOL     OW35383   1.481   0.545  11.754 -0.7167  0.0533 -0.0362
 7975SOL    HW135384   1.551   0.610  11.746 -1.2994  1.0444  2.9118
 7975SOL    HW235385   1.518   0.464  11.718  0.3214  0.8511 -0.7400
 7976SOL     OW35386   2.467   3.877   5.556 -0.4007 -0.1288 -0.3150
 7976SOL    HW135387   2.468   3.913   5.645 -0.0629 -0.6594 -0.1072
 7976SOL    HW235388   2.396   3.815   5.570 -1.3985  1.0623 -0.0339
 7977SOL     OW35389   1.097   4.581  14.982  0.4200 -0.0325  0.0189
 7977SOL    HW135390   1.065   4.498  14.946 -0.1460 -0.2718  1.0655
 7977SOL    HW235391   1.190   4.560  14.973  0.4476  0.0483  0.1164
 7978SOL     OW35392   1.648   4.187   3.290  0.2148  0.1657  0.0749
 7978SOL    HW135393   1.662   4.252   3.221 -1.6066  0.2813 -0.1718
 7978SOL    HW235394   1.625   4.243   3.364 -0.0159 -0.5676  0.5563
 7979SOL     OW35395   0.012   2.411   7.791 -0.0543 -0.4966  0.2318
 7979SOL    HW135396   0.040   2.484   7.846  0.5073 -1.5730  1.3633
 7979SOL    HW235397   4.663   2.373   7.846  2.2519 -2.0053  2.0624
 7980SOL     OW35398   2.472   0.370  13.033  0.6789 -0.2647  0.1647
 7980SOL    HW135399   2.430   0.394  12.951 -0.4070 -1.0976  0.4764
 7980SOL    HW235400   2.495   0.278  13.018  1.3383  0.1135 -1.1263
 7981SOL     OW35401   1.201   0.320  11.991  0.1400 -0.1844 -0.5007
 7981SOL    HW135402   1.118   0.366  11.973  0.2847 -0.7325 -2.6602
 7981SOL    HW235403   1.183   0.242  11.939  2.9558 -1.1987  0.0619
 7982SOL     OW35404   0.086   4.564   9.400 -0.4788  0.1535  0.0959
 7982SOL    HW135405   0.052   4.481   9.434 -1.5962  0.2596 -0.7746
 7982SOL    HW235406   0.009   4.596   9.354  0.0320  0.1914 -0.7370
 7983SOL     OW35407   3.472   1.453  14.690 -0.4516  0.4459  0.0693
 7983SOL    HW135408   3.408   1.448  14.761 -0.2434  0.4684  0.2595
 7983SOL    HW235409   3.491   1.360  14.681 -1.1984  0.2517  0.4820
 7984SOL     OW35410   3.647   1.927   4.693  0.1680  0.6423 -0.0473
 7984SOL    HW135411   3.671   2.007   4.646 -2.3773 -0.1422 -2.7123
 7984SOL    HW235412   3.586   1.961   4.759  0.4368 -0.1495  0.6150
 7985SOL     OW35413   0.521   1.670   5.497 -0.2884 -1.1012  0.1923
 7985SOL    HW135414   0.514   1.592   5.442 -0.7422 -0.1166 -1.1772
 7985SOL    HW235415   0.434   1.660   5.535 -1.2527 -2.9748 -2.4865
 7986SOL     OW35416   2.600   0.628   3.645 -0.1989  0.3992  0.0571
 7986SOL    HW135417   2.661   0.555   3.635 -0.5447  0.1581 -0.2693
 7986SOL    HW235418   2.561   0.612   3.730  0.3405 -0.3351  0.1683
 7987SOL     OW35419   2.178   4.323   4.002 -0.6406 -0.6227 -0.0266
 7987SOL    HW135420   2.087   4.343   3.976 -0.8195 -0.8959  0.3912
 7987SOL    HW235421   2.218   4.410   4.003 -1.9406 -0.0161 -0.1410
 7988SOL     OW35422   1.634   3.854  12.257 -0.0830  0.8737 -0.1882
 7988SOL    HW135423   1.674   3.939  12.236 -1.0045  1.5845  0.9137
 7988SOL    HW235424   1.705   3.792  12.244 -0.9097 -0.0519 -0.2474
 7989SOL     OW35425   0.496   3.903  14.689  0.2110 -0.1937  0.0938
 7989SOL    HW135426   0.431   3.859  14.744 -0.5960 -2.2245 -2.5225
 7989SOL    HW235427   0.447   3.982  14.663 -1.4079 -1.3651 -0.4411
 7990SOL     OW35428   4.411   0.440   0.878 -0.4098  0.1215  0.3206
 7990SOL    HW135429   4.400   0.455   0.972  1.1031 -1.4056  0.7415
 7990SOL    HW235430   4.454   0.355   0.888  0.4756  0.6133  0.7491
 7991SOL     OW35431   1.998   4.095  14.281  0.3030  0.3358  0.3748
 7991SOL    HW135432   1.962   4.162  14.223 -0.6548  0.6427  1.3326
 7991SOL    HW235433   2.044   4.145  14.348  1.9495 -1.7250  0.7551
 7992SOL     OW35434   1.307   4.099   6.296  0.6627 -0.1469  0.4017
 7992SOL    HW135435   1.344   4.013   6.317 -0.3795 -0.7382 -0.1659
 7992SOL    HW235436   1.345   4.163   6.356 -0.2626  0.3992  0.3886
 7993SOL     OW35437   1.205   2.415   4.646  0.0059  0.0965  0.1104
 7993SOL    HW135438   1.227   2.508   4.639 -0.0653  0.0708 -0.4945
 7993SOL    HW235439   1.212   2.379   4.557  0.0970  2.5336 -0.8527
 7994SOL     OW35440   3.494   0.598   9.600  0.2911 -0.0213 -0.1017
 7994SOL    HW135441   3.425   0.545   9.639 -1.2647  1.3452 -0.9956
 7994SOL    HW235442   3.564   0.582   9.662  0.8880  2.0142 -0.2292
 7995SOL     OW35443   4.043   2.863   3.698 -0.1496  0.7314  0.0587
 7995SOL    HW135444   4.078   2.933   3.644 -0.2217  0.3117 -0.5349
 7995SOL    HW235445   4.047   2.911   3.781 -0.6365  0.4214  0.2672
 7996SOL     OW35446   3.603   2.534   8.556  0.0096  0.4068 -0.1727
 7996SOL    HW135447   3.530   2.593   8.571 -0.1512  0.3949 -0.9361
 7996SOL    HW235448   3.598   2.533   8.461  1.9302  1.1121 -0.2793
 7997SOL     OW35449   1.211   2.711   4.641  0.2363 -0.0601 -0.3115
 7997SOL    HW135450   1.158   2.683   4.567  1.6730  0.3481 -1.4751
 7997SOL    HW235451   1.154   2.773   4.687  0.6909 -1.1661  1.7515
 7998SOL     OW35452   2.409   0.585   8.206  0.3730  0.3611  0.0961
 7998SOL    HW135453   2.456   0.553   8.283  0.9865 -0.5807 -0.6697
 7998SOL    HW235454   2.317   0.572   8.229  0.0510  0.1341 -1.3130
 7999SOL     OW35455   2.811   2.810   5.358  0.1144  0.5023  0.3962
 7999SOL    HW135456   2.831   2.805   5.451 -0.7984  1.3455  0.6336
 7999SOL    HW235457   2.792   2.904   5.351  1.4534  0.7491  0.1274
 8000SOL     OW35458   3.734   1.152   9.954  0.3648 -0.2405 -0.2498
 8000SOL    HW135459   3.697   1.239   9.943  3.0183  1.0467  1.0367
 8000SOL    HW235460   3.785   1.169  10.033 -0.5284 -0.8251  0.4560
 8001SOL     OW35461   1.403   3.030   4.865  0.2743  0.6017 -0.3379
 8001SOL    HW135462   1.387   2.936   4.874 -1.0397  0.8948  0.4397
 8001SOL    HW235463   1.357   3.068   4.940  0.8374  0.2524  0.1958
 8002SOL     OW35464   2.113   0.339  17.384  0.5572  0.2115 -0.3044
 8002SOL    HW135465   2.140   0.259  17.340 -0.3710  1.0015 -2.3329
 8002SOL    HW235466   2.048   0.375  17.323 -1.9282 -2.2807  0.8536
 8003SOL     OW35467   3.608   1.105   5.913 -0.3936 -0.3997  0.0569
 8003SOL    HW135468   3.672   1.099   5.843  1.2115  0.9810  1.3952
 8003SOL    HW235469   3.670   1.079   5.982 -0.9767 -1.3285  0.2312
 8004SOL     OW35470   0.575   4.628   3.742  0.6664 -0.9800 -0.1217
 8004SOL    HW135471   0.526   4.698   3.786  1.5054 -1.3368  1.3354
 8004SOL    HW235472   0.521   4.550   3.755 -1.4587  0.5168  0.1163
 8005SOL     OW35473   2.753   1.046   3.305 -0.4498 -0.1823 -0.3091
 8005SOL    HW135474   2.759   1.004   3.391 -0.7462  0.7362  0.1615
 8005SOL    HW235475   2.783   1.134   3.328 -1.7424 -0.3032  1.8578
 8006SOL     OW35476   2.502   0.307   5.378 -0.1305 -0.4283  0.5811
 8006SOL    HW135477   2.490   0.401   5.391  0.3954 -0.1752 -0.7661
 8006SOL    HW235478   2.431   0.260   5.421 -0.4498  1.5879  2.2229
 8007SOL     OW35479   0.718   0.843   2.510  0.3031  0.3309  0.4082
 8007SOL    HW135480   0.748   0.755   2.534  1.2086  0.6217  0.3617
 8007SOL    HW235481   0.773   0.860   2.434 -0.4687 -1.0268 -0.4459
 8008SOL     OW35482   2.370   2.579  14.065 -0.7670  1.1339 -0.1551
 8008SOL    HW135483   2.379   2.612  13.975  2.4131  2.3835  0.5986
 8008SOL    HW235484   2.353   2.487  14.046 -1.1479  1.7275 -2.8045
 8009SOL     OW35485   0.287   2.572   5.560  0.3197  0.1253 -0.1232
 8009SOL    HW135486   0.213   2.516   5.583  0.2910  0.0748 -0.3378
 8009SOL    HW235487   0.271   2.644   5.622  1.1800 -0.2111  0.4903
 8010SOL     OW35488   4.472   3.577   4.726 -0.5332  0.2508 -0.2048
 8010SOL    HW135489   4.476   3.545   4.817  1.3030  0.1586 -0.3106
 8010SOL    HW235490   4.460   3.671   4.739  2.5620  0.2779  2.4058
 8011SOL     OW35491   0.251   1.923   6.543 -0.1342 -0.2896 -0.2701
 8011SOL    HW135492   0.171   1.913   6.595 -0.1544 -0.5169 -0.3443
 8011SOL    HW235493   0.235   2.014   6.518  1.1939  0.0867  0.2454
 8012SOL     OW35494   2.325   4.084   0.146  0.0529 -0.0294 -0.4197
 8012SOL    HW135495   2.309   4.072   0.240 -0.3170  2.9400 -0.1106
 8012SOL    HW235496   2.353   3.998   0.117 -1.0049  0.3072 -2.4731
 8013SOL     OW35497   2.339   4.251   2.263 -0.2964 -0.0065 -0.7943
 8013SOL    HW135498   2.247   4.234   2.281 -0.3829  1.3134  0.0632
 8013SOL    HW235499   2.341   4.330   2.209 -1.5271  0.3724 -0.2919
 8014SOL     OW35500   3.534   1.074   6.480 -0.3091  0.4557  0.9635
 8014SOL    HW135501   3.565   1.054   6.392  0.6807  1.9661  0.9602
 8014SOL    HW235502   3.566   0.994   6.522  0.0562 -0.2841 -0.7465
 8015SOL     OW35503   0.053   4.089   6.857  0.0392 -0.1361  0.3020
 8015SOL    HW135504   0.108   4.017   6.888  2.9932  1.6399 -0.8154
 8015SOL    HW235505   0.096   4.173   6.876 -0.0580  0.4731 -2.1552
 8016SOL     OW35506   1.932   2.726   7.252  0.7765 -0.4498  0.6266
 8016SOL    HW135507   1.897   2.679   7.328 -1.5735 -1.5727 -1.1292
 8016SOL    HW235508   1.989   2.794   7.288  2.0153 -2.6443  2.7903
 8017SOL     OW35509   3.186   0.509  10.595  0.1131  0.1991  0.2571
 8017SOL    HW135510   3.188   0.605  10.593  0.4646  0.1833 -0.2933
 8017SOL    HW235511   3.155   0.477  10.510  0.5680 -2.0461  0.9407
 8018SOL     OW35512   4.414   2.987   6.900  0.7985  0.5353  0.4948
 8018SOL    HW135513   4.434   3.080   6.893 -0.5073  0.6635 -1.5442
 8018SOL    HW235514   4.319   2.987   6.905  0.8065 -0.1097  0.6420
 8019SOL     OW35515   0.034   0.158   7.471 -0.3347  0.4994  0.7354
 8019SOL    HW135516   4.713   0.200   7.547  0.3380 -1.7006  2.3131
 8019SOL    HW235517   4.696   0.180   7.397  3.0947  2.0377 -1.4770
 8020SOL     OW35518   3.210   2.957   5.180 -0.1274  0.1240  0.3642
 8020SOL    HW135519   3.285   2.912   5.140  0.0218  1.0573 -0.4199
 8020SOL    HW235520   3.237   3.049   5.173  0.7679 -0.0202  2.0039
 8021SOL     OW35521   0.006   4.076   0.826 -0.0884  0.1207  0.1100
 8021SOL    HW135522   0.067   4.148   0.840 -1.1203  0.8798  0.6496
 8021SOL    HW235523   4.641   4.121   0.821 -0.0593  0.3447  1.6426
 8022SOL     OW35524   0.452   0.407   0.559  0.5047 -0.2854 -0.0683
 8022SOL    HW135525   0.451   0.490   0.608 -0.1476  0.8942 -2.0815
 8022SOL    HW235526   0.377   0.361   0.598  0.7877 -0.4121  0.3258
 8023SOL     OW35527   2.511   3.651   2.571  0.5583  0.1279  0.0569
 8023SOL    HW135528   2.537   3.727   2.519  0.9855  1.4207  2.2021
 8023SOL    HW235529   2.492   3.594   2.496  1.1016  0.5594 -0.4085
 8024SOL     OW35530   1.664   0.883  10.861  0.1799  0.1123  0.4342
 8024SOL    HW135531   1.655   0.860  10.953 -1.1893 -1.2854 -0.0262
 8024SOL    HW235532   1.662   0.975  10.887 -0.4394  0.5008 -1.0001
 8025SOL     OW35533   2.595   2.337   7.403  0.6682  0.4384  0.5391
 8025SOL    HW135534   2.564   2.369   7.318  0.6404  1.2656  0.8539
 8025SOL    HW235535   2.669   2.282   7.380 -0.4971 -1.4692  1.3711
 8026SOL     OW35536   3.014   2.790   7.436  0.4260  0.4428  0.2517
 8026SOL    HW135537   3.069   2.711   7.431  1.2543  0.9112  2.2230
 8026SOL    HW235538   3.017   2.816   7.528 -0.1985 -0.0082  0.4038
 8027SOL     OW35539   4.098   3.027   4.598  0.3584 -0.4354 -0.4989
 8027SOL    HW135540   4.138   3.083   4.665 -0.9628 -0.3257  0.1885
 8027SOL    HW235541   4.113   2.941   4.636  0.1505  0.1252  0.8288
 8028SOL     OW35542   0.051   1.299   3.617  0.2952 -0.1771  0.3616
 8028SOL    HW135543   0.057   1.393   3.637 -0.0313  0.2354 -1.4364
 8028SOL    HW235544   0.028   1.258   3.700 -0.7845  0.5380  0.4266
 8029SOL     OW35545   0.767   1.029   6.765 -0.1104  0.0561 -0.0952
 8029SOL    HW135546   0.684   1.013   6.720 -0.3147  0.2571  0.2061
 8029SOL    HW235547   0.793   0.942   6.795  1.6659  0.2670 -1.0740
 8030SOL     OW35548   3.441   3.254   1.047 -0.7058 -0.1833  0.0905
 8030SOL    HW135549   3.381   3.299   1.107  0.4839 -1.0473  1.9386
 8030SOL    HW235550   3.382   3.240   0.974  1.3446 -2.1968 -1.1955
 8031SOL     OW35551   3.109   0.274   3.307 -0.0737 -0.1907  0.0023
 8031SOL    HW135552   3.084   0.183   3.292  0.2704 -0.4495  1.0037
 8031SOL    HW235553   3.183   0.276   3.246 -1.6053 -0.8160 -1.8755
 8032SOL     OW35554   0.455   4.198  11.063  0.5485  0.1155 -0.3930
 8032SOL    HW135555   0.443   4.130  11.130 -2.7866  0.2529 -0.8682
 8032SOL    HW235556   0.376   4.252  11.070 -0.3551 -1.5446  2.1592
 8033SOL     OW35557   3.598   0.407   5.735 -0.1186  0.5788 -0.0436
 8033SOL    HW135558   3.586   0.501   5.724  0.1242  0.3686 -1.9910
 8033SOL    HW235559   3.506   0.382   5.724 -0.0289 -0.0626  0.6510
 8034SOL     OW35560   4.668   4.189  11.446 -0.1588  0.5861  0.0497
 8034SOL    HW135561   4.585   4.188  11.495  0.5876  1.1520  1.3115
 8034SOL    HW235562   0.007   4.131  11.495 -1.2551 -0.2639  0.3528
 8035SOL     OW35563   1.563   0.653   2.454  0.9151 -0.0434  0.6936
 8035SOL    HW135564   1.529   0.564   2.451  1.3795 -0.3333  3.2530
 8035SOL    HW235565   1.652   0.635   2.484  1.6458  2.9407  0.4101
 8036SOL     OW35566   1.877   4.167  17.292  0.3265 -0.4806  0.0648
 8036SOL    HW135567   1.847   4.249  17.332  0.2762  0.0568 -1.0637
 8036SOL    HW235568   1.973   4.175  17.294  0.2908  0.7354 -2.9550
 8037SOL     OW35569   1.806   4.383   7.692 -0.0837  0.1352 -0.1075
 8037SOL    HW135570   1.832   4.440   7.764 -0.4922 -1.5994  1.4018
 8037SOL    HW235571   1.724   4.425   7.668 -0.2875  0.9034  1.9589
 8038SOL     OW35572   3.165   4.183   3.870  0.9787  0.5007 -0.2165
 8038SOL    HW135573   3.183   4.145   3.784 -1.7974 -0.3025 -0.4185
 8038SOL    HW235574   3.103   4.252   3.849  0.1212  0.3433  1.7317
 8039SOL     OW35575   0.461   3.292   2.915 -0.1951  0.1004  0.4251
 8039SOL    HW135576   0.515   3.214   2.902 -1.3942 -0.6119 -0.2137
 8039SOL    HW235577   0.381   3.270   2.868 -1.0371 -0.6040  2.1927
 8040SOL     OW35578   0.442   3.484   7.491 -0.4672 -0.0900  0.3454
 8040SOL    HW135579   0.398   3.429   7.426 -0.6872  0.2651  0.1935
 8040SOL    HW235580   0.436   3.424   7.566 -2.1170  0.7267  0.8452
 8041SOL     OW35581   4.473   3.025   9.330  0.5127  0.8061  0.0467
 8041SOL    HW135582   4.471   3.097   9.267  0.4055  0.2716 -0.5620
 8041SOL    HW235583   4.386   3.037   9.369 -0.2322  0.5545 -1.5533
 8042SOL     OW35584   1.666   2.600  14.056 -0.8408 -0.0183 -0.6290
 8042SOL    HW135585   1.596   2.534  14.051  0.5810 -1.6248  0.5679
 8042SOL    HW235586   1.685   2.588  14.149 -2.7282 -0.4883 -0.3025
 8043SOL     OW35587   1.579   3.161   1.620  0.1691 -0.0390 -0.5290
 8043SOL    HW135588   1.534   3.229   1.671  2.6679  1.9500 -1.0207
 8043SOL    HW235589   1.640   3.127   1.686  1.5013 -0.5854 -2.0511
 8044SOL     OW35590   4.673   4.363  11.255 -0.1641 -0.2026 -0.2835
 8044SOL    HW135591   4.596   4.419  11.265 -0.2478 -0.9907  3.3494
 8044SOL    HW235592   4.666   4.301  11.328 -0.9002 -0.9701 -1.0089
 8045SOL     OW35593   4.042   3.443   5.184  0.4937 -0.6518 -0.4841
 8045SOL    HW135594   4.051   3.362   5.234 -1.9322  1.1743  2.9465
 8045SOL    HW235595   4.109   3.423   5.119  0.8874 -2.2354  0.3987
 8046SOL     OW35596   2.957   1.772   2.499 -0.0027  0.9996  0.2708
 8046SOL    HW135597   3.001   1.796   2.417 -0.3452 -0.1362 -0.2399
 8046SOL    HW235598   3.037   1.730   2.531 -0.0983 -0.5063 -1.4859
 8047SOL     OW35599   1.658   1.710   1.128 -0.6078 -0.0425  0.2106
 8047SOL    HW135600   1.694   1.764   1.198 -0.8672 -0.6936  0.8382
 8047SOL    HW235601   1.565   1.721   1.145 -0.2380  0.3731  1.9896
 8048SOL     OW35602   3.347   1.135  10.698  0.5510  0.3049 -0.0075
 8048SOL    HW135603   3.314   1.060  10.649 -0.4134  0.0574  1.0248
 8048SOL    HW235604   3.388   1.082  10.766 -0.4006 -0.6209 -0.1742
 8049SOL     OW35605   0.008   3.251   4.829 -0.1416 -0.5282 -0.1708
 8049SOL    HW135606   0.098   3.270   4.855  0.2654 -2.5766 -0.1298
 8049SOL    HW235607   4.716   3.162   4.861 -1.5970 -1.2962 -2.8328
 8050SOL     OW35608   2.963   2.963   7.919 -0.1731  0.0604 -0.1689
 8050SOL    HW135609   2.954   2.868   7.919  0.3248  0.0134  1.1918
 8050SOL    HW235610   2.897   2.986   7.984  0.4414  0.0883  0.4439
 8051SOL     OW35611   1.177   0.773   0.863 -0.2119 -0.3313  0.1534
 8051SOL    HW135612   1.124   0.849   0.838  0.2575  0.3369  1.1991
 8051SOL    HW235613   1.186   0.791   0.956  0.9867 -1.9497  0.3553
 8052SOL     OW35614   3.629   4.251   5.727  0.3754  0.4807  0.0674
 8052SOL    HW135615   3.714   4.222   5.762  0.0847  0.1880  0.5362
 8052SOL    HW235616   3.562   4.249   5.796  2.5249 -2.3375  2.0917
 8053SOL     OW35617   3.911   0.464   7.412 -0.0187  0.2443 -0.0472
 8053SOL    HW135618   3.863   0.418   7.482 -2.7710 -0.3556 -2.3585
 8053SOL    HW235619   3.979   0.491   7.473  0.6360 -2.2012  0.3217
 8054SOL     OW35620   1.623   3.415  13.314 -0.6617 -0.0723 -0.1523
 8054SOL    HW135621   1.685   3.469  13.365 -0.6727 -0.6784  0.5003
 8054SOL    HW235622   1.552   3.403  13.376  1.3590  0.7015  2.3250
 8055SOL     OW35623   3.503   1.151  14.753  0.0024  0.2820  0.2607
 8055SOL    HW135624   3.584   1.102  14.749  1.4993  2.9545 -2.5073
 8055SOL    HW235625   3.471   1.138  14.842  2.8448 -0.3059  1.1725
 8056SOL     OW35626   1.039   2.884   5.204 -0.1447  0.5270 -0.0090
 8056SOL    HW135627   1.027   2.812   5.141 -0.0831  0.3974  0.1273
 8056SOL    HW235628   0.951   2.915   5.225 -0.2175 -0.4256  1.0842
 8057SOL     OW35629   0.913   2.463   3.882  0.1329 -0.5995  0.0274
 8057SOL    HW135630   0.869   2.534   3.928  3.5606  0.7589  1.2266
 8057SOL    HW235631   1.003   2.495   3.873 -0.5630  0.5560 -2.8801
 8058SOL     OW35632   3.227   1.476   3.366  0.5627 -0.0036  1.0127
 8058SOL    HW135633   3.273   1.532   3.304  2.7131 -0.1549  2.4358
 8058SOL    HW235634   3.196   1.541   3.430 -0.7290  0.1877  0.1822
 8059SOL     OW35635   0.126   1.436   5.846 -0.7155 -0.0178 -0.7815
 8059SOL    HW135636   0.111   1.378   5.921 -1.7327 -1.0216 -1.7698
 8059SOL    HW235637   0.165   1.517   5.880 -1.6780 -0.7589  2.0577
 8060SOL     OW35638   3.483   4.684  17.606 -0.1644  0.0112 -0.3442
 8060SOL    HW135639   3.401   0.003  17.637 -0.1996 -0.1713 -0.2092
 8060SOL    HW235640   3.542   0.039  17.602  2.1177 -1.6378  1.9486
 8061SOL     OW35641   2.814   3.337   4.138 -0.2108  0.2487  0.0625
 8061SOL    HW135642   2.780   3.254   4.106 -0.4313  1.3849 -2.6404
 8061SOL    HW235643   2.746   3.400   4.113 -0.1006  0.5962  0.6424
 8062SOL     OW35644   1.795   4.615  12.481  0.3275  0.4196  0.1078
 8062SOL    HW135645   1.826   4.577  12.563 -1.3277  1.1895  1.0819
 8062SOL    HW235646   1.840   4.553  12.424  0.3614  1.1055 -0.6174
 8063SOL     OW35647   0.184   2.640   4.298 -0.1308  0.1902 -0.7638
 8063SOL    HW135648   0.155   2.731   4.311 -0.3353  0.0484 -0.2321
 8063SOL    HW235649   0.118   2.602   4.240  0.6179  1.8671 -2.7340
 8064SOL     OW35650   1.172   1.871   9.054 -0.0621 -0.2028 -0.6733
 8064SOL    HW135651   1.123   1.804   9.007 -0.2852 -0.5430  0.0349
 8064SOL    HW235652   1.240   1.821   9.100  0.8288  1.8114  0.1918
 8065SOL     OW35653   0.106   4.703  12.476 -0.6640 -0.3873  0.1379
 8065SOL    HW135654   0.195   4.685  12.507 -0.8604  0.9700  1.4812
 8065SOL    HW235655   0.116   4.687  12.382 -0.6469 -0.2962  0.1242
 8066SOL     OW35656   3.540   0.893  10.542 -0.8252 -0.1254  0.5611
 8066SOL    HW135657   3.556   0.808  10.585  0.7872 -0.6177 -1.0237
 8066SOL    HW235658   3.445   0.899  10.547 -0.9517 -1.1641 -0.3499
 8067SOL     OW35659   3.302   3.570   3.596  0.1098  0.1273 -0.2998
 8067SOL    HW135660   3.357   3.593   3.521 -0.0277  1.3696 -0.0131
 8067SOL    HW235661   3.223   3.618   3.570 -1.0611 -1.6230 -0.0245
 8068SOL     OW35662   2.967   1.940   5.619 -0.1945 -0.0605  0.1142
 8068SOL    HW135663   2.900   1.875   5.598  0.0527  0.6601 -2.9092
 8068SOL    HW235664   3.034   1.883   5.656 -0.9735 -0.8078  0.3596
 8069SOL     OW35665   3.068   4.584  10.369 -0.0984  0.0344 -0.6082
 8069SOL    HW135666   3.074   4.520  10.439  0.3020  1.4131  0.6218
 8069SOL    HW235667   3.058   4.529  10.291  0.2129  1.0935 -1.3958
 8070SOL     OW35668   3.697   1.171  16.170 -0.4923  0.3991  0.5552
 8070SOL    HW135669   3.749   1.246  16.142 -0.8048  0.7354  0.8760
 8070SOL    HW235670   3.616   1.191  16.123 -0.1019 -0.0049 -0.2855
 8071SOL     OW35671   2.743   3.273   1.778  0.1803  0.2204  0.4401
 8071SOL    HW135672   2.761   3.311   1.864  0.6531  0.5381  0.1966
 8071SOL    HW235673   2.756   3.184   1.811  1.6260 -0.0157 -0.7488
 8072SOL     OW35674   2.404   1.498   2.031  0.1637  0.3767 -0.1938
 8072SOL    HW135675   2.332   1.440   2.055  0.5803  0.4329  1.2070
 8072SOL    HW235676   2.447   1.458   1.955 -1.8154  0.1074 -1.1559
 8073SOL     OW35677   0.235   1.649  17.032 -0.1393  0.5996  0.1298
 8073SOL    HW135678   0.163   1.712  17.027 -1.3500 -0.8888 -1.0894
 8073SOL    HW235679   0.308   1.711  17.028  0.4770  0.0111  2.4589
 8074SOL     OW35680   4.115   0.293   6.868 -1.2818  0.2903 -0.5505
 8074SOL    HW135681   4.098   0.377   6.825  1.4920 -0.3781 -2.8671
 8074SOL    HW235682   4.043   0.293   6.931 -0.0715  3.2668  0.8608
 8075SOL     OW35683   3.511   1.978   7.141  0.3952 -0.3045 -0.0967
 8075SOL    HW135684   3.442   1.918   7.112  0.5484 -0.0206 -1.0364
 8075SOL    HW235685   3.495   2.062   7.100  1.5338 -0.3013 -0.5431
 8076SOL     OW35686   4.430   0.958   1.949  0.4588  0.2688  0.4341
 8076SOL    HW135687   4.419   1.021   2.020 -2.8553 -0.7644  0.8489
 8076SOL    HW235688   4.467   0.886   1.999  1.8091 -1.3392 -2.8801
 8077SOL     OW35689   4.469   0.491   3.182 -0.5294  0.2116  0.3046
 8077SOL    HW135690   4.460   0.584   3.163 -2.4128 -0.4400 -1.9864
 8077SOL    HW235691   4.500   0.468   3.095 -2.2000 -0.5085 -0.0916
 8078SOL     OW35692   4.359   0.512   7.385  0.3622 -0.0134  0.4317
 8078SOL    HW135693   4.438   0.564   7.401 -0.0430  0.3669  1.2101
 8078SOL    HW235694   4.357   0.528   7.290  0.6078 -1.1001  0.2423
 8079SOL     OW35695   2.317   3.138   3.081  0.4649 -0.2396  0.3309
 8079SOL    HW135696   2.337   3.165   2.991 -0.3785 -2.0139 -0.3722
 8079SOL    HW235697   2.283   3.051   3.060  1.4445 -0.3942 -0.6638
 8080SOL     OW35698   4.505   0.326   6.185 -0.0702  0.1143 -0.2002
 8080SOL    HW135699   4.537   0.245   6.225  0.5121  0.0623 -0.7597
 8080SOL    HW235700   4.554   0.393   6.234 -0.4492  1.0666 -1.1034
 8081SOL     OW35701   3.972   0.653   7.964 -0.5063 -0.1111 -0.0164
 8081SOL    HW135702   4.060   0.638   8.000 -0.8860  0.9881  1.3575
 8081SOL    HW235703   4.003   0.718   7.901 -1.7262  0.8760  0.4113
 8082SOL     OW35704   4.017   4.672   7.251  0.3201  0.6283 -0.4932
 8082SOL    HW135705   4.112   4.660   7.239  0.2969  1.2288 -1.2598
 8082SOL    HW235706   3.998   4.677   7.345 -0.6628  0.1532 -0.6701
 8083SOL     OW35707   0.377   0.126   9.259 -0.2554  0.1363  0.1038
 8083SOL    HW135708   0.304   0.186   9.273  0.4612  1.0346 -0.0261
 8083SOL    HW235709   0.384   0.083   9.344  0.3508 -1.7900 -0.9202
 8084SOL     OW35710   4.155   4.521   5.574 -0.1514 -1.1277  0.4553
 8084SOL    HW135711   4.145   4.468   5.653  1.2571 -0.6767  0.9362
 8084SOL    HW235712   4.120   4.608   5.593 -1.5217 -1.3799 -0.9133
 8085SOL     OW35713   2.411   1.434   2.873 -0.2330  0.4042  0.0358
 8085SOL    HW135714   2.359   1.357   2.849  0.5884 -0.0057 -0.4389
 8085SOL    HW235715   2.368   1.451   2.956  0.0193  0.1792  0.2125
 8086SOL     OW35716   2.863   1.427   7.150 -0.6887 -0.0293 -0.6759
 8086SOL    HW135717   2.782   1.455   7.194  0.5001  0.6607  1.0645
 8086SOL    HW235718   2.915   1.504   7.129 -1.9326  1.1767  0.6313
 8087SOL     OW35719   1.132   1.122  10.087 -0.3928 -0.2012 -0.1527
 8087SOL    HW135720   1.107   1.047  10.032  2.2276 -0.1085 -1.4303
 8087SOL    HW235721   1.089   1.196  10.045  0.6452  0.8790  0.6888
 8088SOL     OW35722   1.781   2.453   4.998  0.0513 -0.0636 -0.1377
 8088SOL    HW135723   1.752   2.490   5.081  2.7035  2.0287 -0.1671
 8088SOL    HW235724   1.702   2.405   4.973  0.4727 -1.6265  1.5563
 8089SOL     OW35725   2.718   1.910  13.085 -0.5644 -0.0072  0.1482
 8089SOL    HW135726   2.810   1.929  13.105  0.0806 -3.8041  0.8451
 8089SOL    HW235727   2.684   1.879  13.169  1.3298  1.5097  1.4759
 8090SOL     OW35728   1.481   4.320   4.192  0.4173 -0.2858 -0.1583
 8090SOL    HW135729   1.485   4.323   4.096 -1.1504  0.4918 -0.2013
 8090SOL    HW235730   1.465   4.414   4.204  2.2271  0.0731 -0.6098
 8091SOL     OW35731   2.987   3.286   3.098 -0.2615 -0.0553 -0.1988
 8091SOL    HW135732   3.027   3.337   3.027 -3.5405  1.8648 -0.6725
 8091SOL    HW235733   2.992   3.356   3.162 -0.7285 -0.0357 -0.1838
 8092SOL     OW35734   1.725   3.280   5.804  0.5226 -0.3022  0.3937
 8092SOL    HW135735   1.798   3.218   5.803  1.5547  0.9353 -0.1174
 8092SOL    HW235736   1.675   3.246   5.878  2.1439  1.8134  2.4379
 8093SOL     OW35737   1.852   1.836  14.803  0.3170 -0.3051 -0.2456
 8093SOL    HW135738   1.946   1.833  14.819  0.0350 -0.2991  1.4342
 8093SOL    HW235739   1.819   1.920  14.835 -0.4867 -1.6866  2.5635
 8094SOL     OW35740   2.290   2.305   6.929 -0.6462 -0.7789  0.3535
 8094SOL    HW135741   2.300   2.392   6.967 -0.5804 -0.0290 -1.4026
 8094SOL    HW235742   2.352   2.316   6.857  0.1002  0.6157  1.2019
 8095SOL     OW35743   2.785   2.124   7.345  0.2210 -0.1282  0.2475
 8095SOL    HW135744   2.817   2.190   7.283 -0.2005 -0.9870 -0.8940
 8095SOL    HW235745   2.859   2.099   7.399 -0.9789 -1.1360  1.4228
 8096SOL     OW35746   3.514   1.841  13.495 -0.2470 -0.1209  0.0717
 8096SOL    HW135747   3.465   1.767  13.529 -2.4668  1.8562  1.2199
 8096SOL    HW235748   3.581   1.795  13.444 -2.3611 -0.6076 -2.2491
 8097SOL     OW35749   0.346   0.753   3.709 -0.0427 -0.5785 -0.7088
 8097SOL    HW135750   0.335   0.804   3.629  2.2822  0.1139 -0.6017
 8097SOL    HW235751   0.256   0.743   3.741  0.4200 -2.3228  0.0828
 8098SOL     OW35752   0.164   0.033   3.794 -0.1281 -0.3404  0.1187
 8098SOL    HW135753   0.173   4.696   3.718 -1.6566 -2.0480  1.2150
 8098SOL    HW235754   0.127   4.693   3.859  0.2326  1.2401  1.7788
 8099SOL     OW35755   2.334   3.809   2.842 -0.4628  0.0181 -0.0695
 8099SOL    HW135756   2.373   3.779   2.925  0.7575  1.7263 -0.0393
 8099SOL    HW235757   2.262   3.863   2.876 -0.0248 -0.5112  1.7495
 8100SOL     OW35758   2.004   0.238   8.582  0.0115 -0.0210 -0.2971
 8100SOL    HW135759   2.000   0.223   8.677 -1.0603 -1.7228 -0.6179
 8100SOL    HW235760   2.025   0.331   8.588 -2.5930  0.4196  1.8363
 8101SOL     OW35761   4.653   4.490   7.699 -0.3807  0.5595  0.0231
 8101SOL    HW135762   4.627   4.539   7.621 -0.5017 -1.0958 -0.9887
 8101SOL    HW235763   4.580   4.428   7.703  0.3346 -0.2677  0.2997
 8102SOL     OW35764   2.120   2.447   2.637 -0.1668 -0.6285  0.6881
 8102SOL    HW135765   2.038   2.449   2.589  0.2550  1.2699  0.0459
 8102SOL    HW235766   2.097   2.380   2.701 -2.8494 -1.2431 -0.9380
 8103SOL     OW35767   0.744   1.980   2.732  0.1913  0.1595 -0.7122
 8103SOL    HW135768   0.655   2.005   2.704 -1.1291 -0.7983  2.5893
 8103SOL    HW235769   0.787   2.065   2.730 -0.9207  0.7251 -0.6224
 8104SOL     OW35770   3.978   3.137   6.112 -0.0086 -0.1006  0.3487
 8104SOL    HW135771   3.963   3.225   6.076 -1.1514  0.0008  1.1024
 8104SOL    HW235772   3.891   3.101   6.125 -0.1956 -0.0261 -0.6631
 8105SOL     OW35773   3.979   3.646   2.705 -0.0672 -0.1450  0.5181
 8105SOL    HW135774   3.897   3.694   2.695 -1.2962 -1.9233  2.1055
 8105SOL    HW235775   3.954   3.554   2.698 -1.7288  0.5452 -2.7106
 8106SOL     OW35776   0.051   3.003   0.875  0.2235 -0.0248  0.3826
 8106SOL    HW135777   0.061   3.092   0.843 -3.5440  0.6801  1.1639
 8106SOL    HW235778   0.052   2.951   0.794  1.5956  0.5930  0.0074
 8107SOL     OW35779   2.561   4.234   8.475  0.2642 -0.3249 -0.2142
 8107SOL    HW135780   2.561   4.259   8.383  1.9933  1.8612  0.3961
 8107SOL    HW235781   2.504   4.306   8.501 -0.0615  0.3565 -2.8479
 8108SOL     OW35782   2.085   2.401   6.117 -0.1111  0.6874  0.1289
 8108SOL    HW135783   2.053   2.365   6.035 -0.7591 -2.3098  1.7135
 8108SOL    HW235784   2.069   2.494   6.100  0.0596  0.5729 -0.6595
 8109SOL     OW35785   1.149   1.182   4.949 -0.1205  0.2591  0.5376
 8109SOL    HW135786   1.128   1.248   5.015  0.0355  0.8313  0.0103
 8109SOL    HW235787   1.102   1.106   4.984 -0.1045  0.7545  1.6292
 8110SOL     OW35788   3.146   1.014  16.552  0.1917 -0.1360  0.1357
 8110SOL    HW135789   3.131   1.014  16.457  3.1786 -0.8953 -0.3126
 8110SOL    HW235790   3.173   0.923  16.560  0.3511  0.0030  1.1119
 8111SOL     OW35791   3.476   3.237   5.426  0.1126  0.1290  0.2186
 8111SOL    HW135792   3.558   3.188   5.416 -1.0654 -1.8526  0.2604
 8111SOL    HW235793   3.502   3.320   5.466 -0.0257  1.1602 -1.8521
 8112SOL     OW35794   0.639   3.374   5.632  0.0424 -0.2622  0.5122
 8112SOL    HW135795   0.579   3.448   5.626  0.6308  0.2434  0.8788
 8112SOL    HW235796   0.586   3.307   5.675 -2.3314  1.7679  0.7749
 8113SOL     OW35797   4.281   4.516  14.028 -0.2063 -0.0887 -0.1634
 8113SOL    HW135798   4.186   4.509  14.031 -0.2607  1.6296  2.0017
 8113SOL    HW235799   4.291   4.511  13.933  2.4189 -1.8711  0.2159
 8114SOL     OW35800   0.968   1.157   6.912  0.0641 -0.6440  0.0733
 8114SOL    HW135801   0.913   1.113   6.848 -1.8681  0.7278  0.7994
 8114SOL    HW235802   0.911   1.227   6.943 -0.8795 -1.8747  1.1142
 8115SOL     OW35803   1.899   1.461   4.484  0.2721 -0.2308 -0.5342
 8115SOL    HW135804   1.830   1.528   4.487  0.7768  0.3869 -2.9554
 8115SOL    HW235805   1.965   1.486   4.548  0.5045 -2.2944  0.0231
 8116SOL     OW35806   0.738   2.966   3.113  0.8876  0.3349 -0.5067
 8116SOL    HW135807   0.820   3.015   3.117  1.5856 -0.8658 -0.0958
 8116SOL    HW235808   0.772   2.888   3.157  0.5998  0.0439 -0.7998
 8117SOL     OW35809   4.239   1.333  15.878  0.9053  0.1561 -0.1058
 8117SOL    HW135810   4.202   1.252  15.912  1.9316 -0.7426 -1.1438
 8117SOL    HW235811   4.269   1.296  15.795 -0.9174 -0.0774 -0.6435
 8118SOL     OW35812   0.313   3.422   7.021 -0.0462 -0.5871 -0.9243
 8118SOL    HW135813   0.330   3.365   7.096 -2.2903  1.6744  1.3460
 8118SOL    HW235814   0.218   3.421   7.010  0.1435 -0.8561 -2.5730
 8119SOL     OW35815   4.381   0.091  16.044  0.1486  0.6516  0.2557
 8119SOL    HW135816   4.408   0.002  16.067  0.5487  0.5481 -0.6072
 8119SOL    HW235817   4.447   0.111  15.977  1.1195 -0.2633  0.9311
 8120SOL     OW35818   1.541   2.403   2.370  0.1340 -0.0743 -0.3598
 8120SOL    HW135819   1.473   2.417   2.435 -0.5736  0.1618 -1.1536
 8120SOL    HW235820   1.615   2.456   2.400 -2.4317  2.1612  1.9823
 8121SOL     OW35821   2.023   0.036   5.277 -0.5337  0.0233 -0.0830
 8121SOL    HW135822   1.993   4.684   5.333 -0.3483 -0.5013 -0.6502
 8121SOL    HW235823   2.054   0.101   5.340 -2.7692  2.4030 -1.4469
 8122SOL     OW35824   0.076   0.682  14.230 -0.0765  0.2871 -0.4948
 8122SOL    HW135825   0.043   0.712  14.314 -0.5692  1.5381 -1.1388
 8122SOL    HW235826   0.168   0.702  14.248 -0.4762 -0.9579  2.9347
 8123SOL     OW35827   3.204   2.713   5.497 -0.5688  0.5018  0.2907
 8123SOL    HW135828   3.200   2.680   5.408  1.7291  0.3905  0.2266
 8123SOL    HW235829   3.246   2.799   5.500 -0.2262  0.2882  1.7967
 8124SOL     OW35830   3.462   2.267   3.480  0.0914  0.6813 -0.3344
 8124SOL    HW135831   3.459   2.190   3.537  1.7613  1.8457  1.3280
 8124SOL    HW235832   3.465   2.235   3.390  0.2576 -1.9933  0.6062
 8125SOL     OW35833   4.203   0.402  12.157  0.1257  0.1463  0.3543
 8125SOL    HW135834   4.115   0.383  12.188  0.0929  0.6971  0.5938
 8125SOL    HW235835   4.185   0.417  12.064  2.0709 -2.1767 -0.4012
 8126SOL     OW35836   2.732   4.371  12.364 -0.0624  0.4139  0.1489
 8126SOL    HW135837   2.648   4.406  12.394  1.0794  4.0533 -0.9219
 8126SOL    HW235838   2.738   4.286  12.409 -2.2724 -0.6599 -1.5705
 8127SOL     OW35839   2.784   0.938   6.345 -0.6347 -0.2675  0.1777
 8127SOL    HW135840   2.822   1.026   6.344 -0.6570 -0.2584  0.1022
 8127SOL    HW235841   2.729   0.941   6.423 -0.7865 -1.4258  0.1137
 8128SOL     OW35842   3.174   2.179  15.369  0.5049  0.2870  0.2251
 8128SOL    HW135843   3.183   2.127  15.290  0.3678  1.2109 -0.4023
 8128SOL    HW235844   3.082   2.206  15.368  1.0925  2.2601 -2.2032
 8129SOL     OW35845   2.057   2.430   7.200  0.1291  0.4031 -0.5730
 8129SOL    HW135846   2.077   2.396   7.288  0.0760 -0.1363 -0.7666
 8129SOL    HW235847   2.068   2.348   7.152  0.0413  0.9561 -1.5387
 8130SOL     OW35848   0.208   0.869  17.207  0.3902 -0.4188 -0.0675
 8130SOL    HW135849   0.264   0.908  17.273  0.7057 -0.4015 -0.3469
 8130SOL    HW235850   0.233   0.777  17.200 -2.8013 -1.5393  2.8535
 8131SOL     OW35851   1.088   2.907   4.805 -0.0518 -0.2155  0.0921
 8131SOL    HW135852   1.114   2.965   4.876 -3.1004  0.3598  0.7205
 8131SOL    HW235853   1.018   2.959   4.766 -0.9100 -2.1822 -1.0004
 8132SOL     OW35854   3.755   0.640   2.373 -0.1478  0.3348 -0.5304
 8132SOL    HW135855   3.847   0.630   2.347 -0.1777  1.9870 -1.2832
 8132SOL    HW235856   3.725   0.572   2.312 -1.5433  1.3709 -0.9905
 8133SOL     OW35857   1.650   3.212   6.042 -0.2964  0.0360 -0.3131
 8133SOL    HW135858   1.603   3.183   6.120  1.0675 -1.8803 -0.1798
 8133SOL    HW235859   1.714   3.275   6.077 -1.4334  0.5162  0.8848
 8134SOL     OW35860   2.778   3.770   9.960  0.9591  0.4835 -0.3676
 8134SOL    HW135861   2.805   3.809   9.877  1.1620  0.1220 -0.4723
 8134SOL    HW235862   2.744   3.841  10.014 -1.0195 -1.2952  0.7385
 8135SOL     OW35863   1.174   3.894  13.846  0.1194  0.1734 -1.3055
 8135SOL    HW135864   1.132   3.870  13.928 -1.0539  1.6864 -1.4627
 8135SOL    HW235865   1.093   3.921  13.803 -1.3383 -2.0773  0.0321
 8136SOL     OW35866   3.276   2.354   5.255 -0.1418  0.0769 -0.0673
 8136SOL    HW135867   3.336   2.298   5.205  0.1635 -0.7196  1.1877
 8136SOL    HW235868   3.331   2.410   5.310 -2.1758 -0.2315  2.2493
 8137SOL     OW35869   4.438   1.900   9.672  0.2995  0.7822 -0.0930
 8137SOL    HW135870   4.350   1.862   9.673  1.0585 -0.9947  0.1442
 8137SOL    HW235871   4.428   1.994   9.686  2.2756  0.8326  0.9171
 8138SOL     OW35872   3.652   1.675  15.856  0.1649  0.0415 -0.0727
 8138SOL    HW135873   3.588   1.691  15.787  2.1105  1.7152 -1.4902
 8138SOL    HW235874   3.628   1.734  15.927 -2.2484  0.2612 -1.0604
 8139SOL     OW35875   3.288   3.546   3.282  0.1388 -0.0582 -0.2215
 8139SOL    HW135876   3.248   3.622   3.240 -0.2917  1.4276  2.8183
 8139SOL    HW235877   3.369   3.584   3.314 -0.2334  1.1480 -0.6948
 8140SOL     OW35878   1.873   4.384   2.834  0.1155  0.1047  0.0946
 8140SOL    HW135879   1.810   4.456   2.840  2.9622  2.7662 -1.7088
 8140SOL    HW235880   1.870   4.351   2.924 -1.8022 -0.3127 -0.1142
 8141SOL     OW35881   0.391   1.687   1.818 -0.1918  0.2739  0.8132
 8141SOL    HW135882   0.337   1.620   1.776  0.8962 -0.6367  0.8935
 8141SOL    HW235883   0.474   1.644   1.835 -0.0659  0.0830 -0.3036
 8142SOL     OW35884   1.609   2.292   6.800 -0.7121  0.1637 -0.0485
 8142SOL    HW135885   1.624   2.353   6.872 -0.7880  2.8526 -2.2687
 8142SOL    HW235886   1.570   2.354   6.738  0.9626  1.3407  0.0778
 8143SOL     OW35887   4.471   2.420   3.154 -0.2098  0.1404 -0.5451
 8143SOL    HW135888   4.424   2.504   3.153  1.0592  0.8708  0.4176
 8143SOL    HW235889   4.553   2.457   3.122  1.6589 -4.1911 -0.7293
 8144SOL     OW35890   2.110   0.298   0.471 -0.1783 -0.5091 -0.3624
 8144SOL    HW135891   2.068   0.329   0.391 -4.2534 -1.5560  1.3402
 8144SOL    HW235892   2.136   0.211   0.442  3.4067  0.4692 -0.1136
 8145SOL     OW35893   2.390   0.275  16.481 -0.5358  0.3053 -0.4456
 8145SOL    HW135894   2.296   0.268  16.462 -0.8970  0.9576  0.9978
 8145SOL    HW235895   2.443   0.237  16.412  0.4010 -0.3545  0.6488
 8146SOL     OW35896   4.602   4.128   8.902  0.4101  0.1464  0.3677
 8146SOL    HW135897   4.694   4.154   8.908  0.6991 -0.6631 -0.5646
 8146SOL    HW235898   4.565   4.175   8.976  0.0082 -0.7754  0.7523
 8147SOL     OW35899   3.795   2.667   3.721  0.3052  0.1217  0.0776
 8147SOL    HW135900   3.828   2.687   3.808 -1.4428  1.6711  0.3732
 8147SOL    HW235901   3.829   2.578   3.710  2.7862  1.2132 -1.1367
 8148SOL     OW35902   1.083   4.493   3.488 -0.3695 -0.4585 -0.6249
 8148SOL    HW135903   0.994   4.528   3.477  0.1137  0.4967 -1.5482
 8148SOL    HW235904   1.138   4.565   3.456  0.7660 -0.8125  0.5728
 8149SOL     OW35905   2.374   1.117   4.634 -0.1074 -0.1113  0.1523
 8149SOL    HW135906   2.326   1.139   4.713  0.4161 -0.7849  0.6640
 8149SOL    HW235907   2.458   1.088   4.670  0.9119  2.5993 -0.0472
 8150SOL     OW35908   3.770   4.559  13.022 -0.3663 -0.4068 -0.2068
 8150SOL    HW135909   3.726   4.475  13.008 -1.1449  0.3087 -2.1202
 8150SOL    HW235910   3.859   4.525  13.012  0.2237  1.4525 -1.3732
 8151SOL     OW35911   0.560   1.078   8.731  0.2071 -0.1629  0.0397
 8151SOL    HW135912   0.512   0.999   8.710  0.5231  0.2559 -2.2115
 8151SOL    HW235913   0.576   1.105   8.641  0.8976  1.3425  0.6119
 8152SOL     OW35914   3.422   1.353  16.363  0.1016 -0.4123 -0.0367
 8152SOL    HW135915   3.393   1.367  16.453  0.3672 -2.6621  0.3966
 8152SOL    HW235916   3.469   1.271  16.376  0.0082 -0.7602 -1.9105
 8153SOL     OW35917   2.236   0.407   5.743 -0.0318 -0.0074 -0.0951
 8153SOL    HW135918   2.266   0.408   5.652 -1.5674 -1.1585 -0.6162
 8153SOL    HW235919   2.264   0.320   5.770  0.6964 -0.1419 -1.2809
 8154SOL     OW35920   1.708   3.006   6.466 -0.3721 -0.3382 -0.2612
 8154SOL    HW135921   1.733   2.923   6.508 -2.1758  0.3667  2.1638
 8154SOL    HW235922   1.790   3.055   6.454  1.0971 -2.8762 -0.6935
 8155SOL     OW35923   0.311   2.382  11.504 -0.0533  0.0170  0.5375
 8155SOL    HW135924   0.397   2.399  11.542  0.9107 -2.5218 -0.5509
 8155SOL    HW235925   0.273   2.469  11.519  2.1332  0.8237  1.3033
 8156SOL     OW35926   1.099   3.677   6.826  0.2343 -0.1535  0.0350
 8156SOL    HW135927   1.039   3.749   6.849 -0.0320  0.3859 -2.3961
 8156SOL    HW235928   1.049   3.600   6.852 -0.9467  1.6649  3.1961
 8157SOL     OW35929   2.311   0.749   6.035  0.3097 -0.6541 -0.6590
 8157SOL    HW135930   2.283   0.836   6.007  0.9186  0.3477  1.8686
 8157SOL    HW235931   2.387   0.767   6.090  0.0038  1.4659 -0.9396
 8158SOL     OW35932   4.062   3.572   7.202 -0.3884 -0.2645  0.3219
 8158SOL    HW135933   4.104   3.634   7.143  0.8729  0.0540  1.5707
 8158SOL    HW235934   4.040   3.640   7.265 -0.6742  0.4929 -0.5888
 8159SOL     OW35935   0.493   2.184   6.318  0.1670 -0.4246 -0.4464
 8159SOL    HW135936   0.548   2.107   6.303 -1.2860 -1.3347 -1.1351
 8159SOL    HW235937   0.514   2.210   6.407 -1.5801  0.1374 -0.1885
 8160SOL     OW35938   2.712   0.959  11.207 -0.2609 -0.2209 -0.0577
 8160SOL    HW135939   2.629   0.982  11.249 -0.8838 -0.3682 -1.2334
 8160SOL    HW235940   2.769   0.940  11.282  0.1730 -1.7292 -0.7805
 8161SOL     OW35941   4.222   3.858  11.928 -0.4004 -0.0936  0.0945
 8161SOL    HW135942   4.240   3.764  11.927 -0.0374  0.0060 -1.4428
 8161SOL    HW235943   4.161   3.868  12.002 -0.2551 -2.6566  0.5701
 8162SOL     OW35944   0.954   0.947   6.195  0.2019  0.1961  0.0295
 8162SOL    HW135945   1.018   1.018   6.186 -0.5905  1.0249  0.9660
 8162SOL    HW235946   1.011   0.869   6.192  1.2569  0.9646  0.1960
 8163SOL     OW35947   0.663   4.634  13.580  0.3850 -0.3224 -0.1145
 8163SOL    HW135948   0.609   4.692  13.633 -0.6252  0.0892 -1.6070
 8163SOL    HW235949   0.703   4.693  13.515 -1.8671 -0.3437 -1.5244
 8164SOL     OW35950   4.264   1.003   8.066 -0.6196 -0.2608 -0.0634
 8164SOL    HW135951   4.265   0.998   7.971  2.1290 -0.1698 -0.0398
 8164SOL    HW235952   4.354   1.033   8.078 -0.1285 -1.5085 -0.5716
 8165SOL     OW35953   2.168   2.415   2.126  0.3287  0.2856 -0.2830
 8165SOL    HW135954   2.160   2.323   2.151 -0.6471  0.5789  0.5134
 8165SOL    HW235955   2.073   2.430   2.119 -0.2525 -3.3003  0.0452
 8166SOL     OW35956   1.812   0.884   3.059 -0.6145 -0.0099  0.0008
 8166SOL    HW135957   1.767   0.839   3.130  0.9624  1.0006  1.6364
 8166SOL    HW235958   1.766   0.859   2.979  0.7713  0.3679 -0.9178
 8167SOL     OW35959   1.090   2.339   6.834  0.5634  0.1503 -0.3196
 8167SOL    HW135960   1.078   2.246   6.855  0.6955 -0.1890 -1.7495
 8167SOL    HW235961   1.151   2.344   6.760  2.3266  2.1982  1.2771
 8168SOL     OW35962   3.596   1.654  15.554 -0.5626 -0.1303 -0.0017
 8168SOL    HW135963   3.557   1.737  15.527 -1.9747 -0.8594 -0.1789
 8168SOL    HW235964   3.583   1.593  15.481 -0.4736  0.7480 -0.7586
 8169SOL     OW35965   3.464   3.461   6.086 -0.0716  0.2708 -0.4179
 8169SOL    HW135966   3.464   3.366   6.078  2.1855  0.3219 -1.0091
 8169SOL    HW235967   3.369   3.474   6.091 -0.2411 -2.0245  2.1464
 8170SOL     OW35968   3.646   0.976  11.403 -0.2249  0.5475 -0.7160
 8170SOL    HW135969   3.593   1.054  11.385 -0.0441  0.7436 -0.4015
 8170SOL    HW235970   3.590   0.913  11.358 -2.4444  0.0228  2.7547
 8171SOL     OW35971   3.698   4.010   3.705  0.2551  0.0983  0.1219
 8171SOL    HW135972   3.710   3.962   3.787  2.2851 -1.8576 -1.2883
 8171SOL    HW235973   3.777   4.063   3.695  2.0045 -2.3832  0.8360
 8172SOL     OW35974   0.537   3.423   9.239 -0.3597 -0.7927 -0.5243
 8172SOL    HW135975   0.600   3.489   9.268  1.7523 -1.6434 -3.1492
 8172SOL    HW235976   0.570   3.341   9.275 -0.0200 -0.6778 -0.5690
 8173SOL     OW35977   4.669   1.461   8.988  0.4937  0.0833  0.5789
 8173SOL    HW135978   4.693   1.501   9.071 -0.2453  0.3835  0.6525
 8173SOL    HW235979   4.592   1.516   8.971  1.2573  0.5233 -1.4641
 8174SOL     OW35980   2.460   0.753  13.354 -0.2722  0.3305 -0.4771
 8174SOL    HW135981   2.474   0.832  13.406 -0.3799 -0.1661  0.2962
 8174SOL    HW235982   2.380   0.723  13.396  1.9543 -1.2036  2.6018
 8175SOL     OW35983   1.798   1.490   1.938  0.5238 -0.1167 -0.0366
 8175SOL    HW135984   1.877   1.521   1.894 -0.3309 -0.5335 -1.8925
 8175SOL    HW235985   1.799   1.561   2.003  1.2292 -1.7909  1.7637
 8176SOL     OW35986   0.872   0.893   2.289  0.1093  0.6099 -0.0705
 8176SOL    HW135987   0.906   0.849   2.211 -0.8576  0.5726 -0.4808
 8176SOL    HW235988   0.857   0.982   2.257  2.5719  2.1343  3.0413
 8177SOL     OW35989   1.872   0.955   6.833  0.1364 -0.0713  0.2051
 8177SOL    HW135990   1.840   1.029   6.781 -0.9824 -1.3322 -0.8886
 8177SOL    HW235991   1.819   0.956   6.913  1.4295  0.6341  1.0575
 8178SOL     OW35992   2.085   2.923  16.468  0.4074  0.0008  0.4839
 8178SOL    HW135993   2.161   2.873  16.499  1.2130  1.5294  0.9533
 8178SOL    HW235994   2.127   2.998  16.426 -2.2326  2.4156  2.1890
 8179SOL     OW35995   1.844   1.377   0.262 -0.2632 -0.2153 -0.0990
 8179SOL    HW135996   1.852   1.459   0.214  2.5583 -0.9534 -0.8826
 8179SOL    HW235997   1.765   1.390   0.314  0.1812  0.6983  0.3379
 8180SOL     OW35998   0.335   0.064  13.604 -0.3088 -0.3731  0.2941
 8180SOL    HW135999   0.301   0.037  13.519 -1.0405 -1.5236  0.9560
 8180SOL    HW236000   0.402   0.126  13.577  0.5650 -1.2113  0.5326
 8181SOL     OW36001   0.466   0.382   8.482 -0.0996  0.7193  0.1723
 8181SOL    HW136002   0.450   0.299   8.437  0.0811  2.3170 -2.8494
 8181SOL    HW236003   0.560   0.378   8.503 -0.4360 -4.8893  0.5491
 8182SOL     OW36004   1.075   4.052   7.578 -0.1947  0.0175  0.1729
 8182SOL    HW136005   1.168   4.065   7.592 -0.1956  0.6577 -0.4376
 8182SOL    HW236006   1.031   4.137   7.589  0.4879  0.2519  1.1444
 8183SOL     OW36007   3.885   3.577   4.989  0.7974 -0.2470 -0.1408
 8183SOL    HW136008   3.900   3.519   5.064  0.7641  1.0693  0.9008
 8183SOL    HW236009   3.950   3.542   4.928  0.6849 -0.1498 -0.3146
 8184SOL     OW36010   1.709   4.220  17.529  0.2697  0.7650  0.2051
 8184SOL    HW136011   1.744   4.131  17.521  1.5165  1.2274  0.4440
 8184SOL    HW236012   1.616   4.203  17.514  0.2428  1.1330 -0.0309
 8185SOL     OW36013   4.357   4.138   9.098 -0.4211  0.2124  0.4471
 8185SOL    HW136014   4.404   4.085   9.163 -0.0093  0.2102  0.1507
 8185SOL    HW236015   4.320   4.214   9.143  0.0139  0.3434  0.5845
 8186SOL     OW36016   3.397   1.883   4.081  0.0952  0.2934 -1.2170
 8186SOL    HW136017   3.304   1.906   4.080  0.3226  1.1834 -1.9654
 8186SOL    HW236018   3.434   1.951   4.137 -0.8122  0.2944 -0.6112
 8187SOL     OW36019   2.031   4.690   7.392 -0.1497  0.1741  0.3610
 8187SOL    HW136020   1.943   4.687   7.429  0.0712  1.0184  0.9538
 8187SOL    HW236021   2.074   0.029   7.456  1.9614 -0.4984 -0.4266
 8188SOL     OW36022   0.532   4.172  10.015  0.4402  0.4889 -0.1115
 8188SOL    HW136023   0.446   4.138   9.990  0.1898  1.8923 -1.1419
 8188SOL    HW236024   0.524   4.267  10.007 -3.5053  0.0144 -1.5004
 8189SOL     OW36025   0.786   3.854   5.091  0.0491 -0.2546 -0.3547
 8189SOL    HW136026   0.729   3.901   5.030 -0.3478 -0.6840 -0.3122
 8189SOL    HW236027   0.858   3.835   5.031  1.4453 -0.5413  1.4224
 8190SOL     OW36028   1.656   0.197   8.738  0.8087  0.4843  0.4769
 8190SOL    HW136029   1.681   0.161   8.823  0.6561 -0.3602  0.1636
 8190SOL    HW236030   1.672   0.125   8.678 -2.9556  1.4659 -1.7364
 8191SOL     OW36031   1.532   0.732  11.485 -0.0288 -0.3633  0.2057
 8191SOL    HW136032   1.457   0.676  11.503  0.5871 -1.2888 -0.0799
 8191SOL    HW236033   1.566   0.764  11.568 -2.0386  0.8196  0.5678
 8192SOL     OW36034   3.110   3.823  10.877  0.5012  0.4073  0.8301
 8192SOL    HW136035   3.047   3.777  10.931 -0.8824  0.8503 -0.3933
 8192SOL    HW236036   3.051   3.889  10.841 -0.0435  0.9207  2.6786
 8193SOL     OW36037   1.057   3.178   7.129  0.2240  0.3600  0.0868
 8193SOL    HW136038   1.075   3.085   7.143  0.3183  0.4205  0.3616
 8193SOL    HW236039   1.088   3.182   7.038  0.8718 -0.7561  0.2505
 8194SOL     OW36040   4.592   1.832  14.596  0.3763 -0.2615 -0.0710
 8194SOL    HW136041   4.657   1.867  14.657 -0.8670  2.4162 -0.3073
 8194SOL    HW236042   4.574   1.905  14.537  1.7713 -0.4234 -0.7054
 8195SOL     OW36043   1.027   2.714   6.635 -0.8632 -0.1898 -0.4910
 8195SOL    HW136044   1.105   2.752   6.595 -0.0101 -0.1588  1.2115
 8195SOL    HW236045   1.044   2.726   6.729  0.3125 -2.3498 -0.4410
 8196SOL     OW36046   4.385   0.393  17.310  0.5880 -0.1610 -0.1854
 8196SOL    HW136047   4.410   0.483  17.334 -0.9564  0.9441 -2.7351
 8196SOL    HW236048   4.445   0.341  17.364 -2.3760 -0.1967  3.1106
 8197SOL     OW36049   2.421   0.273   8.455  0.1572  0.1710  0.2794
 8197SOL    HW136050   2.405   0.327   8.532  0.4677 -0.8075  1.0293
 8197SOL    HW236051   2.343   0.298   8.406  0.1398 -0.0879  0.1711
 8198SOL     OW36052   3.218   3.402   4.306 -0.1640  0.3727  0.2065
 8198SOL    HW136053   3.305   3.375   4.279 -0.1908  0.0141  0.4872
 8198SOL    HW236054   3.220   3.366   4.394 -0.0708 -0.3079 -0.0767
 8199SOL     OW36055   2.602   0.028   4.109 -0.7395  0.1710 -0.4505
 8199SOL    HW136056   2.591   0.079   4.190 -3.4556  0.3864 -0.9425
 8199SOL    HW236057   2.681   4.699   4.133 -1.0776 -1.2067 -2.1260
 8200SOL     OW36058   3.418   1.154  14.476 -0.4892  0.2881 -0.0893
 8200SOL    HW136059   3.345   1.099  14.505  0.7073 -0.4869  1.4851
 8200SOL    HW236060   3.456   1.164  14.563  0.6418  1.4939 -0.7203
 8201SOL     OW36061   2.453   3.687  13.754 -0.1937 -0.1221  0.1741
 8201SOL    HW136062   2.362   3.669  13.733  0.0115 -1.3918  0.4038
 8201SOL    HW236063   2.462   3.777  13.722 -1.2270 -0.1201 -0.1015
 8202SOL     OW36064   2.278   0.104  11.358  0.3388 -0.0795  0.8902
 8202SOL    HW136065   2.355   0.160  11.365 -0.9660  1.8263  0.1426
 8202SOL    HW236066   2.297   0.067  11.272  1.7122  0.1703  1.0798
 8203SOL     OW36067   4.648   4.244   5.373 -0.5729  0.5666 -0.2651
 8203SOL    HW136068   0.004   4.302   5.379 -0.1741  0.0463 -0.3132
 8203SOL    HW236069   4.678   4.179   5.436 -1.4600  1.6255  1.2663
 8204SOL     OW36070   1.861   0.144  15.047  0.2709 -0.4491 -0.2284
 8204SOL    HW136071   1.952   0.169  15.064  0.7217 -2.3367  0.1056
 8204SOL    HW236072   1.856   0.152  14.952 -0.2238  0.5699 -0.1190
 8205SOL     OW36073   0.165   2.705   5.875  0.8065 -0.0909 -0.1581
 8205SOL    HW136074   0.196   2.734   5.961  4.0344 -1.3074 -0.9166
 8205SOL    HW236075   0.146   2.612   5.883 -1.7284  0.5219  1.2321
 8206SOL     OW36076   1.700   3.791   4.280  0.3346  0.0324 -0.3066
 8206SOL    HW136077   1.718   3.877   4.242 -2.5510 -0.3709 -2.5732
 8206SOL    HW236078   1.604   3.784   4.272  0.4693 -2.2330  0.1521
 8207SOL     OW36079   3.630   3.420   7.583 -0.4091 -0.6338  0.4943
 8207SOL    HW136080   3.656   3.511   7.593 -0.2130 -0.3735 -2.4159
 8207SOL    HW236081   3.550   3.406   7.635 -1.5604 -2.5082 -1.7436
 8208SOL     OW36082   0.725   4.649  17.529  0.4728  0.1279  0.3566
 8208SOL    HW136083   0.747   0.017  17.561 -1.2797  0.1147  1.6199
 8208SOL    HW236084   0.666   4.624  17.601  1.0269  0.7239  1.0158
 8209SOL     OW36085   3.651   4.416   2.671  0.4791  0.4557 -0.2143
 8209SOL    HW136086   3.625   4.502   2.639 -0.4664  1.4584  3.2836
 8209SOL    HW236087   3.679   4.379   2.587  1.9874 -0.7136  0.7940
 8210SOL     OW36088   0.537   4.244   8.550  0.4760 -0.3603  0.2362
 8210SOL    HW136089   0.482   4.202   8.616  0.9344 -0.9859  0.2216
 8210SOL    HW236090   0.600   4.289   8.607  0.1634 -1.2366  1.2797
 8211SOL     OW36091   1.338   1.455   8.529 -0.4551  0.2539 -0.0504
 8211SOL    HW136092   1.352   1.491   8.617  1.8686  0.7820 -0.6374
 8211SOL    HW236093   1.389   1.375   8.525  0.1046  0.4724  2.5152
 8212SOL     OW36094   0.398   1.886   1.976 -0.0801  0.3201  0.1207
 8212SOL    HW136095   0.382   1.808   1.922 -2.1057 -0.6229  2.0719
 8212SOL    HW236096   0.337   1.865   2.047  1.7011 -2.6378  0.7733
 8213SOL     OW36097   1.068   1.416   2.088 -0.7715  0.1915  0.4989
 8213SOL    HW136098   1.080   1.341   2.147 -2.1505 -1.1619 -0.9474
 8213SOL    HW236099   0.986   1.389   2.048 -0.1207 -0.5081 -0.3529
 8214SOL     OW36100   0.241   3.953  10.165  0.2755 -0.5507 -0.2759
 8214SOL    HW136101   0.243   3.986  10.075 -1.6823  0.6028  0.1014
 8214SOL    HW236102   0.178   3.883  10.149 -1.7010  0.9722  1.0216
 8215SOL     OW36103   0.156   2.173  12.570 -0.3813 -0.3429  0.3385
 8215SOL    HW136104   0.175   2.117  12.645  2.5905 -0.3594 -0.4281
 8215SOL    HW236105   0.207   2.126  12.504 -1.2668  0.4757 -0.9511
 8216SOL     OW36106   0.449   2.729   1.571  0.5704 -0.2521 -0.3359
 8216SOL    HW136107   0.457   2.822   1.548  0.5199 -0.8311 -2.7151
 8216SOL    HW236108   0.407   2.697   1.491  0.1715  1.5189 -0.8410
 8217SOL     OW36109   2.255   4.010  15.729 -0.5049 -0.7080  0.2185
 8217SOL    HW136110   2.258   4.099  15.694 -1.6871 -0.7520  0.0003
 8217SOL    HW236111   2.304   4.017  15.811 -2.4085  0.1719  1.2541
 8218SOL     OW36112   3.402   2.835   7.581  0.4644  0.3065 -0.0479
 8218SOL    HW136113   3.364   2.751   7.555  0.4205  0.5577 -0.7909
 8218SOL    HW236114   3.362   2.887   7.511  0.6729  1.2292  0.5271
 8219SOL     OW36115   2.396   0.943   9.744  0.2093 -0.0536 -0.5578
 8219SOL    HW136116   2.474   0.893   9.772  0.8481 -1.4973 -4.8826
 8219SOL    HW236117   2.382   0.911   9.655 -2.3564  3.9580 -1.5855
 8220SOL     OW36118   3.947   4.590   9.081  0.1612  0.3784  0.4808
 8220SOL    HW136119   3.896   4.667   9.108 -0.4063  0.1867 -0.0694
 8220SOL    HW236120   4.033   4.609   9.118  0.3780  0.7648 -0.2356
 8221SOL     OW36121   0.977   4.542   2.184  0.5158  1.0557 -0.1784
 8221SOL    HW136122   1.036   4.480   2.141  1.6737  2.0276  0.0240
 8221SOL    HW236123   0.903   4.499   2.141 -0.0111  0.7912  0.9797
 8222SOL     OW36124   3.780   0.572   6.356  0.9815 -0.5465 -0.3389
 8222SOL    HW136125   3.844   0.608   6.295 -2.5137  0.8536 -3.1620
 8222SOL    HW236126   3.839   0.515   6.407 -1.5570 -2.3748  0.5887
 8223SOL     OW36127   3.502   0.651   4.716 -0.2274  0.1616  0.1057
 8223SOL    HW136128   3.501   0.620   4.625  0.7763  3.5443 -1.0656
 8223SOL    HW236129   3.488   0.745   4.700 -0.4292  0.1553  0.2436
 8224SOL     OW36130   4.481   4.290   7.620  0.1051 -0.3016 -0.3969
 8224SOL    HW136131   4.531   4.322   7.545  1.1278  1.3470  0.9812
 8224SOL    HW236132   4.396   4.316   7.584 -0.1854 -1.1284 -0.2957
 8225SOL     OW36133   4.623   4.635   8.916  0.2253 -0.6820 -0.2029
 8225SOL    HW136134   4.609   4.584   8.995  1.0550 -0.7250 -0.0762
 8225SOL    HW236135   4.546   4.692   8.918 -0.8905 -2.1949 -0.1316
 8226SOL     OW36136   4.540   1.979   6.505  0.1910  0.1615 -0.3944
 8226SOL    HW136137   4.453   2.018   6.505  1.1363  2.2900 -1.0514
 8226SOL    HW236138   4.589   2.048   6.460  2.6565 -1.0332  0.4118
 8227SOL     OW36139   2.402   2.644   4.769  0.0313 -0.3485  0.5499
 8227SOL    HW136140   2.408   2.699   4.848 -0.7573 -1.7317  1.5785
 8227SOL    HW236141   2.486   2.641   4.724 -0.8033  0.9683 -1.0841
 8228SOL     OW36142   4.636   1.835  16.678 -0.6469  0.3299  0.6721
 8228SOL    HW136143   4.540   1.829  16.676 -0.5297 -1.9959  1.7140
 8228SOL    HW236144   4.647   1.910  16.620 -0.6166 -1.5776 -1.8244
 8229SOL     OW36145   0.305   0.616   8.382  0.0214  0.0129  0.1634
 8229SOL    HW136146   0.259   0.576   8.308 -0.5635  2.7369 -0.9600
 8229SOL    HW236147   0.378   0.554   8.387 -0.3476 -0.3485  1.1235
 8230SOL     OW36148   3.451   2.599   8.305  0.4381  0.3342  0.1976
 8230SOL    HW136149   3.476   2.610   8.213 -2.7355 -0.8668 -0.7821
 8230SOL    HW236150   3.488   2.682   8.336  0.3623  1.2996 -2.3085
 8231SOL     OW36151   0.729   4.058  10.477  0.4792 -0.3375 -0.1543
 8231SOL    HW136152   0.641   4.096  10.480  1.2407  1.2053  2.5374
 8231SOL    HW236153   0.757   4.099  10.559  3.2317 -2.5532  0.0023
 8232SOL     OW36154   3.460   4.458  14.440  0.0104  0.4051 -0.5555
 8232SOL    HW136155   3.446   4.553  14.450  1.6329  0.2634  3.1153
 8232SOL    HW236156   3.553   4.465  14.418  0.0902 -1.4656 -0.7762
 8233SOL     OW36157   2.234   1.913   4.121  0.2241  0.3840  0.3331
 8233SOL    HW136158   2.247   1.948   4.033  1.0605  1.0064  0.7052
 8233SOL    HW236159   2.284   1.834   4.099 -0.8153 -0.8232  2.2777
 8234SOL     OW36160   2.013   1.912  16.585  0.6270 -0.1557 -0.9348
 8234SOL    HW136161   2.102   1.906  16.620  0.5259 -1.2789 -0.8642
 8234SOL    HW236162   2.036   1.943  16.498  2.9409  0.0610 -0.2535
 8235SOL     OW36163   0.526   0.230   5.096 -0.2773 -0.0137 -0.5219
 8235SOL    HW136164   0.553   0.311   5.052 -1.6986  0.7773  0.0450
 8235SOL    HW236165   0.578   0.172   5.041  0.0749  1.6156 -1.9074
 8236SOL     OW36166   3.240   0.527  11.584 -0.9374 -0.4806  0.1777
 8236SOL    HW136167   3.263   0.618  11.570  1.8093 -1.2111  0.0090
 8236SOL    HW236168   3.145   0.530  11.573 -1.1301  2.2124  2.5588
 8237SOL     OW36169   0.195   3.987   2.830 -0.0179 -0.3072  0.2895
 8237SOL    HW136170   0.164   3.917   2.888 -0.7487 -0.4910 -0.3177
 8237SOL    HW236171   0.271   3.945   2.791  1.3665  1.8401  0.6910
 8238SOL     OW36172   4.002   0.451   6.443  0.2578  0.0381  0.2893
 8238SOL    HW136173   4.084   0.402   6.444  0.9536  1.2706  1.8286
 8238SOL    HW236174   3.937   0.385   6.467  0.7847  0.1121  1.9087
 8239SOL     OW36175   1.614   3.614   4.954 -0.2804 -0.1413 -0.7664
 8239SOL    HW136176   1.642   3.527   4.927  0.5682 -0.2252  0.3772
 8239SOL    HW236177   1.645   3.621   5.044  0.5357  0.8244 -1.1235
 8240SOL     OW36178   2.035   0.747   0.590 -0.1287 -0.0863  0.5381
 8240SOL    HW136179   1.995   0.740   0.503  0.3470  1.6657  0.1850
 8240SOL    HW236180   2.065   0.838   0.587  1.6387 -0.6367  2.1061
 8241SOL     OW36181   1.773   1.438   1.314 -0.2779  0.2079 -0.3674
 8241SOL    HW136182   1.826   1.482   1.247  3.3514 -2.2655  0.9143
 8241SOL    HW236183   1.833   1.440   1.388  0.0781 -1.5624 -0.6026
 8242SOL     OW36184   3.067   2.112   9.152 -0.0433  0.4991  0.4502
 8242SOL    HW136185   3.071   2.108   9.056  1.5525 -0.6399  0.5660
 8242SOL    HW236186   3.022   2.192   9.181  1.9454  3.1266 -3.6311
 8243SOL     OW36187   2.732   4.567   7.754 -0.0388 -0.3627  0.2586
 8243SOL    HW136188   2.742   4.478   7.719  0.2689 -0.6240  1.0007
 8243SOL    HW236189   2.663   4.547   7.817 -2.0227 -0.8498 -2.0891
 8244SOL     OW36190   2.707   3.551   8.797 -0.0120 -0.4224 -0.3180
 8244SOL    HW136191   2.724   3.622   8.735 -0.1163  0.1573  0.3217
 8244SOL    HW236192   2.614   3.557   8.820  0.0761  1.1750 -0.3683
 8245SOL     OW36193   3.899   3.054   4.156  0.3345 -0.5724 -0.4301
 8245SOL    HW136194   3.854   3.132   4.190 -1.3356 -2.0184  0.6473
 8245SOL    HW236195   3.905   3.005   4.237 -2.2030 -1.9543 -1.0613
 8246SOL     OW36196   0.197   2.326   8.109 -0.0545  0.2306  0.1575
 8246SOL    HW136197   0.288   2.314   8.136  0.5377  2.0924 -1.0354
 8246SOL    HW236198   0.207   2.383   8.033 -1.9057  0.7400  0.3063
 8247SOL     OW36199   1.840   1.910   6.593 -0.5172  0.3595  0.2198
 8247SOL    HW136200   1.744   1.906   6.597 -0.4216 -0.7465  1.3503
 8247SOL    HW236201   1.858   1.925   6.686  0.1511  2.2390 -0.2215
 8248SOL     OW36202   3.144   0.739  10.697  0.1393 -0.4272  0.0513
 8248SOL    HW136203   3.094   0.663  10.727 -0.7560  0.0382 -0.2765
 8248SOL    HW236204   3.164   0.777  10.783  1.3223 -0.4167 -0.2229
 8249SOL     OW36205   1.518   2.546   9.034  0.2776  0.0386 -0.2712
 8249SOL    HW136206   1.434   2.552   8.988  0.8633  3.4033 -0.8621
 8249SOL    HW236207   1.511   2.628   9.083 -0.4136  0.2349 -0.6974
 8250SOL     OW36208   1.924   0.224   2.999  0.2307 -0.2874  0.1437
 8250SOL    HW136209   1.908   0.300   2.943  0.4749 -0.4448 -0.1346
 8250SOL    HW236210   1.955   0.157   2.938  1.1938  1.7780 -1.6397
 8251SOL     OW36211   4.581   3.524   7.764 -0.0844  1.1219 -0.2058
 8251SOL    HW136212   4.640   3.555   7.695  1.1184 -1.5193 -0.3836
 8251SOL    HW236213   4.616   3.436   7.780  2.2134  2.0029 -0.3888
 8252SOL     OW36214   4.601   4.322   4.435  0.0938 -0.3758  0.1694
 8252SOL    HW136215   4.585   4.414   4.417  0.2919 -0.4992 -0.6499
 8252SOL    HW236216   4.630   4.309   4.526 -1.7181 -2.8378  0.4006
 8253SOL     OW36217   3.955   4.478   9.846  0.1427 -0.6356 -0.2852
 8253SOL    HW136218   3.941   4.572   9.833  0.6559 -0.7618 -1.6771
 8253SOL    HW236219   4.009   4.456   9.771  2.2101 -0.1064  1.0331
 8254SOL     OW36220   0.314   0.315   5.261 -0.1165  0.0086  0.1619
 8254SOL    HW136221   0.277   0.229   5.281 -0.3143 -0.1179 -0.7740
 8254SOL    HW236222   0.382   0.286   5.201 -1.7004  1.4761 -2.3365
 8255SOL     OW36223   0.981   2.301   2.623 -0.1490  0.4440  0.4078
 8255SOL    HW136224   0.913   2.359   2.657 -0.8209 -0.5684  0.8281
 8255SOL    HW236225   1.058   2.347   2.656  0.4144  0.0460 -0.3296
 8256SOL     OW36226   2.170   4.143  17.430  0.1096  0.0519 -0.5786
 8256SOL    HW136227   2.130   4.209  17.486  1.7401  0.3563  0.2051
 8256SOL    HW236228   2.193   4.069  17.486 -1.0183 -0.7610 -1.1889
 8257SOL     OW36229   3.261   4.615   7.116 -0.5564 -0.6389 -0.0358
 8257SOL    HW136230   3.313   4.677   7.166 -0.9805 -0.6532  0.4234
 8257SOL    HW236231   3.256   4.656   7.029 -0.8490  0.5032  0.5224
 8258SOL     OW36232   3.559   0.755  11.686 -0.3481  0.6651  0.0885
 8258SOL    HW136233   3.579   0.745  11.779 -1.8157  1.5419  0.4960
 8258SOL    HW236234   3.645   0.775  11.649  1.4410  0.1858  4.0256
 8259SOL     OW36235   1.202   3.048  15.600  0.5535 -0.1421  0.3380
 8259SOL    HW136236   1.250   2.967  15.583 -0.1081 -0.3624 -0.4690
 8259SOL    HW236237   1.120   3.017  15.639 -0.2221 -0.5182 -1.6147
 8260SOL     OW36238   0.589   1.254   0.817 -0.0093  0.6614  0.3632
 8260SOL    HW136239   0.536   1.299   0.883 -0.3004  1.3820 -0.3746
 8260SOL    HW236240   0.512   1.210   0.782  0.6659 -1.3196  1.3792
 8261SOL     OW36241   4.050   0.492   5.161  0.3021  0.3661  0.6326
 8261SOL    HW136242   4.024   0.409   5.122  1.9192  0.3669 -0.4877
 8261SOL    HW236243   4.121   0.463   5.218 -1.9115 -1.3737  2.4787
 8262SOL     OW36244   3.909   1.942   4.373 -0.4902 -0.4215 -0.2894
 8262SOL    HW136245   3.953   1.971   4.293 -1.3554 -1.4133 -1.1188
 8262SOL    HW236246   3.858   1.872   4.333  0.3569 -1.0114 -0.3360
 8263SOL     OW36247   3.065   4.268   8.636 -0.1464  0.2615 -0.3153
 8263SOL    HW136248   3.016   4.243   8.557 -0.1834 -1.1331  0.1377
 8263SOL    HW236249   3.026   4.355   8.644 -0.2850 -0.0028  2.0320
 8264SOL     OW36250   1.787   4.533  16.436 -0.4780  0.0274 -0.2137
 8264SOL    HW136251   1.750   4.470  16.374 -1.2965 -1.9394  2.2698
 8264SOL    HW236252   1.771   4.615  16.389  3.6476  0.9414 -0.0087
 8265SOL     OW36253   2.640   3.567  16.973  0.1379 -0.1559  0.1477
 8265SOL    HW136254   2.731   3.578  16.945  0.2896  1.2993  1.2385
 8265SOL    HW236255   2.614   3.490  16.922  1.5741 -0.4972 -0.0671
 8266SOL     OW36256   2.096   0.465   3.251 -0.3888  0.2475  0.6054
 8266SOL    HW136257   2.107   0.441   3.159  0.8553  1.4638  0.4415
 8266SOL    HW236258   2.132   0.552   3.265 -1.3528  0.1939  3.3175
 8267SOL     OW36259   3.082   2.407  11.784  0.1972  0.1240  0.1079
 8267SOL    HW136260   2.992   2.388  11.810  0.1575 -1.8416 -1.4392
 8267SOL    HW236261   3.075   2.498  11.754  0.3957  0.1094  0.0137
 8268SOL     OW36262   3.781   3.527   6.124  0.5012  0.2796 -0.0894
 8268SOL    HW136263   3.822   3.563   6.202 -0.9417  0.4882  0.5857
 8268SOL    HW236264   3.726   3.460   6.165  2.6311 -0.5486  1.3941
 8269SOL     OW36265   3.230   1.661   4.525 -0.2438  0.3024 -0.5304
 8269SOL    HW136266   3.262   1.607   4.453  3.3404 -1.4955  2.4161
 8269SOL    HW236267   3.285   1.738   4.509  1.5516 -0.9984 -0.5189
 8270SOL     OW36268   4.652   1.296   4.987 -0.1097 -0.5201  0.3343
 8270SOL    HW136269   4.634   1.265   5.076 -1.6167  1.3113  0.6731
 8270SOL    HW236270   4.614   1.224   4.936  1.3795 -0.6061 -0.6575
 8271SOL     OW36271   3.831   1.029   6.550  0.0218  0.1105  0.4647
 8271SOL    HW136272   3.764   0.963   6.570 -0.8615  0.6631 -0.7212
 8271SOL    HW236273   3.808   1.104   6.606  1.0079  1.3551 -0.7950
 8272SOL     OW36274   3.284   4.521   5.122  0.0351 -0.2404 -0.2095
 8272SOL    HW136275   3.245   4.443   5.082 -1.2686  0.3531 -0.1076
 8272SOL    HW236276   3.364   4.486   5.160  0.2710  0.4288 -0.0888
 8273SOL     OW36277   1.922   1.498   5.289 -0.3443 -0.0894  0.1883
 8273SOL    HW136278   1.995   1.464   5.238  0.1516  0.8042  0.3060
 8273SOL    HW236279   1.938   1.591   5.276 -2.3208 -0.1444 -2.4740
 8274SOL     OW36280   2.057   0.763  13.550  0.2769 -0.9536 -0.5814
 8274SOL    HW136281   2.131   0.737  13.605  2.6376 -0.3994 -3.4391
 8274SOL    HW236282   1.997   0.688  13.551 -2.4309  1.2436  0.5096
 8275SOL     OW36283   4.205   2.740  11.163  0.4546 -0.1768 -0.5302
 8275SOL    HW136284   4.260   2.818  11.168  0.1474 -0.0746  1.1437
 8275SOL    HW236285   4.262   2.665  11.144 -1.4549 -1.4564 -1.2474
 8276SOL     OW36286   3.570   0.908  17.064 -0.0291  0.1397 -0.1896
 8276SOL    HW136287   3.665   0.914  17.074  0.4655 -0.5975 -4.4133
 8276SOL    HW236288   3.533   0.966  17.131 -1.1966  1.3333 -1.8685
 8277SOL     OW36289   3.259   0.038   7.905  0.3146  1.1752  0.4559
 8277SOL    HW136290   3.295   4.670   7.892  0.8416  1.7064 -1.6931
 8277SOL    HW236291   3.186   0.020   7.964 -0.4092  2.9732  0.1097
 8278SOL     OW36292   1.674   3.819   6.076 -0.0544  0.2207 -0.7641
 8278SOL    HW136293   1.704   3.733   6.046 -1.3775 -1.2119  1.9673
 8278SOL    HW236294   1.660   3.857   5.989 -0.7272 -0.1464 -0.8126
 8279SOL     OW36295   2.548   4.520  16.318  0.1157 -0.4754 -0.0083
 8279SOL    HW136296   2.629   4.509  16.369 -1.5961 -0.5838  2.6515
 8279SOL    HW236297   2.528   4.429  16.296  1.0275 -0.4328 -1.0111
 8280SOL     OW36298   4.319   0.473  12.377  0.3174 -0.1309  0.1160
 8280SOL    HW136299   4.273   0.435  12.302 -1.3029  1.2433  0.4187
 8280SOL    HW236300   4.300   0.566  12.363  0.2366 -0.0683  0.6386
 8281SOL     OW36301   4.553   3.366   9.843  0.0452 -0.1432 -0.1154
 8281SOL    HW136302   4.577   3.274   9.853 -2.4453 -0.4266  3.3181
 8281SOL    HW236303   4.603   3.394   9.766  1.4368  0.0564  0.8655
 8282SOL     OW36304   0.382   0.912  10.567 -0.1748 -0.0923  1.0741
 8282SOL    HW136305   0.351   0.827  10.597  0.2880 -0.7902 -0.4224
 8282SOL    HW236306   0.323   0.976  10.606 -0.7715  0.7537 -1.2078
 8283SOL     OW36307   1.541   3.275   8.090 -0.1171  0.1914  0.2131
 8283SOL    HW136308   1.579   3.246   8.173  2.7391 -0.3297 -1.2534
 8283SOL    HW236309   1.474   3.339   8.114 -0.1917 -0.4720  1.7672
 8284SOL     OW36310   3.506   4.110   4.999  0.5609 -0.0256  0.4354
 8284SOL    HW136311   3.436   4.174   5.008  0.3427 -0.1840 -0.1604
 8284SOL    HW236312   3.568   4.170   4.956 -0.3775  0.1369 -0.6836
 8285SOL     OW36313   1.923   1.133   4.034  0.4381 -0.0025 -0.1811
 8285SOL    HW136314   2.006   1.114   4.079  0.1643 -1.9834 -0.5111
 8285SOL    HW236315   1.897   1.042   4.025  0.4518  0.0817 -1.1026
 8286SOL     OW36316   2.612   2.725  14.191  0.0290 -0.9265 -0.6942
 8286SOL    HW136317   2.541   2.666  14.166 -0.1727 -1.4555  1.1658
 8286SOL    HW236318   2.667   2.721  14.113  0.5850  0.5912 -0.3753
 8287SOL     OW36319   2.325   1.471   8.929 -0.2200  0.1733  0.4783
 8287SOL    HW136320   2.273   1.416   8.870  0.2820 -1.2285  1.3407
 8287SOL    HW236321   2.395   1.414   8.960  0.2122  0.9978  1.0129
 8288SOL     OW36322   2.578   1.042   4.774  0.0160  0.2870  0.4765
 8288SOL    HW136323   2.643   0.990   4.727 -1.1821  1.0239 -1.9969
 8288SOL    HW236324   2.642   1.106   4.806  0.1518  1.1722 -1.5894
 8289SOL     OW36325   2.928   4.355  10.839  0.0741  0.7130 -0.0127
 8289SOL    HW136326   2.912   4.393  10.926 -2.2226 -3.7146  1.4764
 8289SOL    HW236327   2.840   4.337  10.806 -0.3134  1.6307  0.5067
 8290SOL     OW36328   0.557   2.773  14.628 -0.5610 -0.0590 -0.1542
 8290SOL    HW136329   0.576   2.708  14.560 -2.2862  0.4344 -1.1125
 8290SOL    HW236330   0.488   2.828  14.590 -0.6923 -0.7835 -0.9763
 8291SOL     OW36331   3.075   0.443   3.515 -0.7635 -0.0362 -0.0750
 8291SOL    HW136332   3.149   0.481   3.467  0.1085 -0.6398  0.7921
 8291SOL    HW236333   3.066   0.367   3.457 -1.6267 -0.4869  0.6566
 8292SOL     OW36334   1.273   1.222   7.380  0.0271  0.3013  0.3803
 8292SOL    HW136335   1.247   1.295   7.436  0.1902  0.0711  0.7503
 8292SOL    HW236336   1.202   1.215   7.315 -0.9414  2.7530  1.1926
 8293SOL     OW36337   0.365   1.026  14.287 -0.1132 -0.0830  0.2529
 8293SOL    HW136338   0.322   1.107  14.261 -0.3392 -0.3420 -0.1803
 8293SOL    HW236339   0.457   1.055  14.283 -0.1807  0.2043  0.7911
 8294SOL     OW36340   3.529   3.142   7.604 -0.3638  0.0912 -0.0923
 8294SOL    HW136341   3.591   3.092   7.657  0.9297 -0.2784 -1.9751
 8294SOL    HW236342   3.579   3.142   7.523  1.4582  3.8192  1.0267
 8295SOL     OW36343   1.914   2.829   2.356 -0.3775 -0.8209 -0.7427
 8295SOL    HW136344   2.004   2.818   2.387 -0.4983 -1.5822 -0.6750
 8295SOL    HW236345   1.911   2.802   2.264 -2.1611  1.8578 -1.4835
 8296SOL     OW36346   0.286   4.251  14.012  0.2405  0.3930  0.2518
 8296SOL    HW136347   0.248   4.322  13.962  0.4928 -0.3796 -1.0325
 8296SOL    HW236348   0.225   4.190  13.972  0.7140  0.2993 -0.3238
 8297SOL     OW36349   4.221   3.148   4.845 -0.1594 -0.0362  0.2104
 8297SOL    HW136350   4.240   3.219   4.907  0.5476  0.1106 -0.1731
 8297SOL    HW236351   4.311   3.133   4.817 -1.0229 -2.4819 -1.1707
 8298SOL     OW36352   0.789   4.673  15.402  0.0823 -0.0283  0.1846
 8298SOL    HW136353   0.827   4.590  15.431 -2.5486 -0.9143  1.0458
 8298SOL    HW236354   0.763   4.703  15.489  1.0515  2.7158 -0.4762
 8299SOL     OW36355   2.185   3.782   5.331  0.1692  0.1478  0.0754
 8299SOL    HW136356   2.128   3.723   5.283 -0.7687  1.7768 -0.8099
 8299SOL    HW236357   2.272   3.762   5.295  0.9749  1.3485  1.3734
 8300SOL     OW36358   2.968   3.667   7.974 -0.4742  0.1592 -0.0198
 8300SOL    HW136359   3.004   3.578   7.969  2.1298  1.1925 -0.1027
 8300SOL    HW236360   3.043   3.720   7.945  0.0128 -0.8577 -0.6256
 8301SOL     OW36361   0.232   2.288  10.076  0.0431 -0.7726  0.8335
 8301SOL    HW136362   0.286   2.209  10.086  0.7267 -0.3270  0.6895
 8301SOL    HW236363   0.231   2.305   9.982 -0.8682 -2.4375  0.5314
 8302SOL     OW36364   1.242   1.959   1.278  0.1800 -0.4954  0.7665
 8302SOL    HW136365   1.268   2.034   1.224 -1.5974  1.1780  2.2166
 8302SOL    HW236366   1.274   1.982   1.366 -0.0351 -1.6860  1.1605
 8303SOL     OW36367   2.801   2.342   5.908  0.0905  0.1561  0.0427
 8303SOL    HW136368   2.792   2.424   5.858  0.3980 -0.1892 -0.5732
 8303SOL    HW236369   2.788   2.274   5.842 -1.6908 -0.1749  0.7151
 8304SOL     OW36370   3.724   2.985   4.386 -0.3034  0.3127 -0.1145
 8304SOL    HW136371   3.651   3.011   4.443  0.4023  0.4814  0.7157
 8304SOL    HW236372   3.689   3.026   4.307  1.3709  1.4827 -0.2349
 8305SOL     OW36373   3.466   2.052   2.059  0.2038  0.5657 -0.0993
 8305SOL    HW136374   3.513   2.109   1.998 -0.0152  1.7686  0.8715
 8305SOL    HW236375   3.514   2.065   2.140  0.3765  3.4626 -0.6569
 8306SOL     OW36376   3.142   1.594   2.597 -0.0492  0.1154  0.1920
 8306SOL    HW136377   3.152   1.503   2.569  0.7591 -0.4042  2.1773
 8306SOL    HW236378   3.227   1.628   2.568  0.8839 -2.0455  0.3523
 8307SOL     OW36379   4.262   0.989   3.753 -0.3084  0.3568  0.0790
 8307SOL    HW136380   4.170   0.994   3.726 -0.9594  1.0175  2.3939
 8307SOL    HW236381   4.286   1.081   3.747  0.8193  0.2410  2.7252
 8308SOL     OW36382   0.076   2.327   6.964  0.3943 -0.1290 -0.0944
 8308SOL    HW136383   0.027   2.401   7.001  0.2283  0.5162 -1.5896
 8308SOL    HW236384   0.141   2.315   7.033  0.1462 -0.7177  0.0374
 8309SOL     OW36385   3.524   4.374   7.318  0.1765 -0.2100  0.0880
 8309SOL    HW136386   3.493   4.388   7.229  0.9282  2.5616  0.2525
 8309SOL    HW236387   3.482   4.289   7.333 -1.1218  0.3296 -0.4500
 8310SOL     OW36388   1.652   1.119   0.199 -0.5913  0.1072 -0.6853
 8310SOL    HW136389   1.592   1.194   0.203  0.4035  0.8956 -0.6435
 8310SOL    HW236390   1.688   1.146   0.115 -0.6910  0.4793 -0.6097
 8311SOL     OW36391   0.994   0.734   7.779  0.1876  0.0888  0.3796
 8311SOL    HW136392   1.082   0.701   7.797 -0.0443 -1.2908 -0.9937
 8311SOL    HW236393   0.979   0.725   7.685  0.1641  0.2041  0.3719
 8312SOL     OW36394   1.721   3.713   5.481  0.3303 -0.3052 -0.2053
 8312SOL    HW136395   1.707   3.619   5.494 -0.4302  0.1526  2.4128
 8312SOL    HW236396   1.812   3.726   5.506  0.0328 -1.4957  1.5121
 8313SOL     OW36397   2.649   0.084  16.085 -0.2004  0.1921 -0.3112
 8313SOL    HW136398   2.663   0.179  16.089  0.0508  0.1882 -1.0710
 8313SOL    HW236399   2.631   0.053  16.173 -1.0428  0.1006 -0.5156
 8314SOL     OW36400   2.099   1.555   6.983 -0.1614  0.1172  0.7484
 8314SOL    HW136401   2.129   1.619   6.918  0.9433 -0.3903  0.7454
 8314SOL    HW236402   2.005   1.568   6.990  0.0862  2.0402  0.6708
 8315SOL     OW36403   3.760   4.027   6.338  0.3292 -0.6062 -0.8721
 8315SOL    HW136404   3.798   4.065   6.417 -0.7775 -0.3529 -0.4719
 8315SOL    HW236405   3.751   4.102   6.280 -0.7000 -0.5558 -0.6378
 8316SOL     OW36406   4.303   3.133  13.026  0.2635 -0.0244 -0.2778
 8316SOL    HW136407   4.238   3.082  13.075 -0.4674  1.8187  0.6832
 8316SOL    HW236408   4.240   3.199  12.997 -0.0579  0.0929  0.6886
 8317SOL     OW36409   1.692   3.561   5.943 -0.0667 -0.5264 -0.5668
 8317SOL    HW136410   1.601   3.530   5.947  0.1175 -0.6091  2.4609
 8317SOL    HW236411   1.712   3.536   5.853 -1.3045  0.1443 -1.0316
 8318SOL     OW36412   2.141   1.375   6.110 -0.1461 -0.0802 -0.4784
 8318SOL    HW136413   2.056   1.358   6.069 -0.1198 -0.3676 -0.4141
 8318SOL    HW236414   2.146   1.301   6.171  2.1421 -0.0801 -0.6500
 8319SOL     OW36415   1.716   3.593   3.376 -0.1001 -0.1502  0.0093
 8319SOL    HW136416   1.741   3.532   3.445  3.7877  0.9350 -0.4513
 8319SOL    HW236417   1.780   3.663   3.389  1.6429 -1.3567 -2.1068
 8320SOL     OW36418   3.406   2.518   0.035  0.5496 -0.1811  0.3626
 8320SOL    HW136419   3.389   2.577   0.108 -1.8802 -0.7580  0.2401
 8320SOL    HW236420   3.319   2.501   0.000  0.4722 -1.2527  1.0911
 8321SOL     OW36421   0.037   0.603   3.027 -0.5910  0.5317  0.6826
 8321SOL    HW136422   0.073   0.516   3.044 -0.4752  0.7381  1.5001
 8321SOL    HW236423   0.109   0.638   2.976  1.7014 -1.8925  2.2328
 8322SOL     OW36424   2.019   3.943   0.484  0.0599  0.2720 -0.3966
 8322SOL    HW136425   1.979   3.973   0.566 -0.7383  1.6687 -1.3060
 8322SOL    HW236426   2.113   3.939   0.501 -0.4955 -0.9197  2.4207
 8323SOL     OW36427   3.037   0.208   6.500  0.4491 -0.3725  0.4182
 8323SOL    HW136428   3.118   0.165   6.471  0.0326 -1.5156  0.9780
 8323SOL    HW236429   3.075   0.280   6.550  0.8214 -0.9272  0.9314
 8324SOL     OW36430   3.887   1.162   6.997  0.1657 -0.5206 -0.4388
 8324SOL    HW136431   3.902   1.246   7.039 -0.7880 -0.2564 -0.6263
 8324SOL    HW236432   3.795   1.137   7.004 -0.2570  0.6071 -1.9009
 8325SOL     OW36433   3.341   0.674  11.276 -0.1105  0.5836 -0.4535
 8325SOL    HW136434   3.323   0.713  11.361  1.0330  0.7308 -0.2896
 8325SOL    HW236435   3.318   0.581  11.283 -1.2075  0.8103 -0.9877
 8326SOL     OW36436   2.335   3.424  10.455 -0.1945  0.0420 -0.2631
 8326SOL    HW136437   2.287   3.351  10.416 -0.5528 -0.3732  0.9779
 8326SOL    HW236438   2.369   3.398  10.540 -2.8447 -0.0673  0.7675
 8327SOL     OW36439   4.287   2.996   7.669  0.5339  0.0364 -0.1045
 8327SOL    HW136440   4.336   3.016   7.589 -0.5200 -1.4229 -1.1040
 8327SOL    HW236441   4.242   3.079   7.680 -1.9252 -1.3552  0.2125
 8328SOL     OW36442   3.330   2.558   5.691  0.1445  0.8118 -0.4685
 8328SOL    HW136443   3.272   2.483   5.689 -0.7793  1.5264 -0.3599
 8328SOL    HW236444   3.292   2.606   5.618  0.8887  1.2446 -0.5716
 8329SOL     OW36445   1.829   3.178  12.642  0.2054  0.1595  0.4220
 8329SOL    HW136446   1.846   3.272  12.638  3.8553 -0.5289 -0.2887
 8329SOL    HW236447   1.755   3.171  12.703 -1.8529  1.8612 -1.8862
 8330SOL     OW36448   3.014   3.692   1.732 -0.1847  0.0965  0.5680
 8330SOL    HW136449   3.066   3.745   1.672 -1.3479  0.9827  0.3367
 8330SOL    HW236450   2.959   3.761   1.769 -0.7157  0.1294 -0.2973
 8331SOL     OW36451   1.224   0.410   2.283  0.2432 -0.1034 -0.4929
 8331SOL    HW136452   1.315   0.396   2.309 -0.0806 -0.3569  0.4883
 8331SOL    HW236453   1.190   0.321   2.274  0.1006 -0.0890 -0.1026
 8332SOL     OW36454   4.298   0.095   5.376  0.2665 -0.6335 -0.4951
 8332SOL    HW136455   4.297   0.025   5.311 -0.8967 -0.1755 -0.9569
 8332SOL    HW236456   4.393   0.087   5.389 -0.2219 -2.2252  2.0332
 8333SOL     OW36457   2.717   4.438   7.273 -0.5711  0.0682  0.6218
 8333SOL    HW136458   2.736   4.453   7.180  1.6834 -2.6359  0.6541
 8333SOL    HW236459   2.670   4.517   7.299 -2.1376 -0.1696 -1.5441
 8334SOL     OW36460   3.854   0.229   6.509 -0.5799 -0.3681  0.1030
 8334SOL    HW136461   3.781   0.233   6.571 -0.9576 -0.0518 -0.3621
 8334SOL    HW236462   3.880   0.138   6.493 -1.0276 -0.4855  0.0441
 8335SOL     OW36463   0.112   2.459  16.661 -0.3371 -0.0881  0.8921
 8335SOL    HW136464   0.111   2.473  16.566  3.3563  1.9200  1.1327
 8335SOL    HW236465   0.119   2.549  16.693  0.4118 -0.0158  0.5271
 8336SOL     OW36466   1.059   3.728  16.090  0.7854  0.4246 -0.6465
 8336SOL    HW136467   1.138   3.782  16.099  0.2138  1.2454 -0.5494
 8336SOL    HW236468   1.057   3.708  15.997 -0.3583  1.2616 -0.8058
 8337SOL     OW36469   3.005   4.007   0.847  0.0259  0.0978  0.1061
 8337SOL    HW136470   2.975   4.032   0.759  0.7171  1.4144  0.2569
 8337SOL    HW236471   3.077   4.068   0.860 -0.0846  0.0932  0.7347
 8338SOL     OW36472   0.025   1.505   7.017 -0.1974 -0.2555  0.0245
 8338SOL    HW136473   0.080   1.440   6.974  2.1089  3.1086 -2.0877
 8338SOL    HW236474   0.080   1.538   7.088  0.4738 -1.9689  0.2951
 8339SOL     OW36475   2.173   3.797   5.777  0.1060 -0.2294  0.0687
 8339SOL    HW136476   2.151   3.718   5.827  0.7319  0.2280  1.0518
 8339SOL    HW236477   2.240   3.833   5.835 -0.5830  0.2579  0.5804
 8340SOL     OW36478   3.199   2.871  10.507  0.5221 -0.1211 -0.2487
 8340SOL    HW136479   3.211   2.932  10.579 -3.7888  0.6431 -0.2038
 8340SOL    HW236480   3.287   2.882  10.470  0.6489  0.3821  0.2110
 8341SOL     OW36481   2.458   3.151   0.515  0.0794 -0.0355 -0.5883
 8341SOL    HW136482   2.480   3.147   0.608  1.3962 -3.0668 -1.0408
 8341SOL    HW236483   2.543   3.176   0.479  0.7959 -1.1274  0.3540
 8342SOL     OW36484   3.718   2.400   7.204  0.7289 -0.3455  0.2227
 8342SOL    HW136485   3.751   2.368   7.120 -0.5155 -0.9068 -0.0540
 8342SOL    HW236486   3.625   2.378   7.193  0.5950  0.5356 -0.3896
 8343SOL     OW36487   2.309   4.604   0.751 -0.3066  0.4418  0.8089
 8343SOL    HW136488   2.381   4.637   0.804 -0.2336  0.1720  0.8813
 8343SOL    HW236489   2.286   4.683   0.702  0.1841 -0.1709 -0.4373
 8344SOL     OW36490   0.299   3.932   5.444 -0.5515  0.0021 -0.3787
 8344SOL    HW136491   0.325   3.863   5.384  0.3359 -0.3718  0.4414
 8344SOL    HW236492   0.371   3.942   5.506  0.2438  0.0397 -1.3103
 8345SOL     OW36493   2.719   0.311   2.852  0.0134  0.2479 -0.5779
 8345SOL    HW136494   2.780   0.383   2.869  1.1852 -1.2497  1.4140
 8345SOL    HW236495   2.747   0.282   2.765  0.0828 -0.8535 -0.1756
 8346SOL     OW36496   0.846   0.633   3.312  0.1198  0.5878 -0.7736
 8346SOL    HW136497   0.906   0.590   3.373 -2.6786 -2.1822  0.0428
 8346SOL    HW236498   0.799   0.702   3.359 -0.6138 -0.5465  0.1629
 8347SOL     OW36499   2.061   4.537  17.300 -0.3319  0.4919 -0.5440
 8347SOL    HW136500   2.046   4.472  17.232  0.3295 -0.0811 -0.1495
 8347SOL    HW236501   2.090   4.602  17.236 -1.2428  2.5796  1.1639
 8348SOL     OW36502   0.167   3.217  16.033  0.3559 -0.7541  0.1842
 8348SOL    HW136503   0.235   3.277  16.004  1.8742 -2.4241  0.2520
 8348SOL    HW236504   0.094   3.279  16.029  0.0260 -1.3496 -3.1690
 8349SOL     OW36505   4.208   0.792   7.518  0.1654  0.3840 -0.1487
 8349SOL    HW136506   4.173   0.704   7.505  0.6972  0.0228  0.9212
 8349SOL    HW236507   4.203   0.840   7.435  1.6418  2.2067  0.8248
 8350SOL     OW36508   2.841   2.336   7.197  0.2327  0.2938 -0.2553
 8350SOL    HW136509   2.860   2.356   7.105 -1.1752  2.1821 -0.1305
 8350SOL    HW236510   2.814   2.424   7.223 -2.9120 -1.2469  1.5771
 8351SOL     OW36511   1.558   4.249   2.685  0.2144  0.2598  0.1214
 8351SOL    HW136512   1.559   4.169   2.633  0.9602  1.0894 -1.1374
 8351SOL    HW236513   1.637   4.291   2.652 -0.0102 -0.6682 -1.5793
 8352SOL     OW36514   0.567   0.044   5.496 -0.2115 -0.1726 -0.2236
 8352SOL    HW136515   0.500   0.026   5.562 -0.6014 -1.8616 -1.0950
 8352SOL    HW236516   0.635   0.087   5.547 -0.4081  0.5436 -0.5655
 8353SOL     OW36517   1.910   2.137   4.026 -0.0410 -0.2043  0.5693
 8353SOL    HW136518   1.961   2.107   3.951 -1.7443  0.7299 -0.9940
 8353SOL    HW236519   1.824   2.108   3.993  0.3932 -1.3634  0.4722
 8354SOL     OW36520   2.116   1.534   1.812  0.1426  0.3225 -0.3847
 8354SOL    HW136521   2.156   1.486   1.739 -0.2962 -2.7423  1.3952
 8354SOL    HW236522   2.160   1.617   1.795 -0.4519  0.5173 -0.9557
 8355SOL     OW36523   1.419   1.228   2.046 -0.3493  0.1635  0.3739
 8355SOL    HW136524   1.446   1.177   2.122  0.4203 -0.1144 -0.0832
 8355SOL    HW236525   1.505   1.236   2.004  0.0929  1.3353  1.5208
 8356SOL     OW36526   3.544   3.299   2.683  0.1817 -0.8509 -0.0173
 8356SOL    HW136527   3.493   3.220   2.698 -2.9012  0.8904 -1.2326
 8356SOL    HW236528   3.604   3.298   2.758  0.4216  1.9380 -0.1667
 8357SOL     OW36529   1.356   3.136  14.312 -0.2494  0.5071  0.3141
 8357SOL    HW136530   1.318   3.078  14.246  0.2521  0.3037  0.2040
 8357SOL    HW236531   1.356   3.073  14.384 -1.1566 -2.7967 -2.6105
 8358SOL     OW36532   2.984   1.165   8.888 -0.4194 -0.2470  0.5866
 8358SOL    HW136533   2.969   1.202   8.801 -2.6125 -1.1897  0.5667
 8358SOL    HW236534   3.000   1.073   8.867  1.1197  0.7370 -2.4495
 8359SOL     OW36535   4.579   4.076   1.744  0.0053 -0.1304 -0.2168
 8359SOL    HW136536   4.521   4.001   1.759  1.2172 -0.8234  0.9931
 8359SOL    HW236537   4.517   4.149   1.743 -1.5330 -1.4386 -0.3956
 8360SOL     OW36538   2.755   2.086   5.407  0.1228 -0.4809 -0.0457
 8360SOL    HW136539   2.772   2.084   5.312  1.3829 -0.0629  0.1733
 8360SOL    HW236540   2.736   1.993   5.424  1.8673 -0.5976  1.2694
 8361SOL     OW36541   4.619   0.939   9.596  0.2559  0.1593 -0.0600
 8361SOL    HW136542   4.563   1.015   9.581  0.7103  0.9908  2.4383
 8361SOL    HW236543   4.671   0.971   9.670  2.2626  0.6381 -1.6675
 8362SOL     OW36544   1.073   0.084   6.331  0.2938  0.7195 -0.3736
 8362SOL    HW136545   1.075   4.711   6.358  1.8205  0.4623 -1.3647
 8362SOL    HW236546   1.090   0.132   6.412 -0.6704  0.3854  0.0269
 8363SOL     OW36547   3.933   2.563   0.147  0.0127  0.1489 -0.2561
 8363SOL    HW136548   3.962   2.501   0.215  0.1805 -0.0488 -0.5103
 8363SOL    HW236549   4.016   2.599   0.115  0.7393 -0.2322  1.1527
 8364SOL     OW36550   0.389   0.518   6.300 -0.2269 -0.2816 -0.3108
 8364SOL    HW136551   0.419   0.562   6.380  1.1909 -2.0323  0.1270
 8364SOL    HW236552   0.310   0.475   6.334 -0.3735  0.1937 -0.0536
 8365SOL     OW36553   0.572   0.474   4.474 -0.1964  0.0350  0.4171
 8365SOL    HW136554   0.483   0.488   4.441 -1.3705 -1.5863  2.9136
 8365SOL    HW236555   0.551   0.412   4.544 -1.0431 -0.5088 -0.3091
 8366SOL     OW36556   2.143   1.595   5.697 -0.1381  0.0739 -0.1950
 8366SOL    HW136557   2.103   1.508   5.700 -1.1970  0.6294  1.6635
 8366SOL    HW236558   2.071   1.652   5.726 -0.0134 -0.3751  1.0316
 8367SOL     OW36559   1.010   4.065   8.363  0.0084 -0.1811 -0.7259
 8367SOL    HW136560   0.982   3.999   8.428 -2.0075  2.2814  0.9237
 8367SOL    HW236561   0.957   4.144   8.375 -2.1126 -1.6084 -0.5872
 8368SOL     OW36562   4.453   3.036   8.272 -0.1309 -0.0774  0.2631
 8368SOL    HW136563   4.482   3.087   8.347 -0.6550  2.6473 -1.3892
 8368SOL    HW236564   4.507   2.961   8.297  1.2452  0.2859 -1.6010
 8369SOL     OW36565   4.057   1.626   7.354 -0.5330  0.3445  0.3478
 8369SOL    HW136566   3.964   1.603   7.350 -0.7169  0.9474  1.0298
 8369SOL    HW236567   4.068   1.659   7.265 -1.0952 -1.4706 -0.3806
 8370SOL     OW36568   3.778   3.531   1.125 -0.2726  0.0219 -0.2934
 8370SOL    HW136569   3.820   3.444   1.126  1.8751  1.0690  1.8744
 8370SOL    HW236570   3.813   3.567   1.207  2.1425  0.1331 -1.3730
 8371SOL     OW36571   3.465   3.527   1.170  0.0094 -0.1487 -0.3360
 8371SOL    HW136572   3.484   3.486   1.085  1.2724 -1.1210  0.4079
 8371SOL    HW236573   3.525   3.487   1.233  0.3696  0.4407 -0.3030
 8372SOL     OW36574   0.329   1.877  17.181 -0.6499 -0.4444  0.1177
 8372SOL    HW136575   0.239   1.897  17.207  0.4928  2.0084  2.1856
 8372SOL    HW236576   0.359   1.816  17.248 -0.1155 -0.9501 -0.5802
 8373SOL     OW36577   2.852   1.183   0.541 -0.2993 -0.1716 -0.3149
 8373SOL    HW136578   2.769   1.136   0.534 -1.1191  0.7597  2.8765
 8373SOL    HW236579   2.880   1.189   0.450 -1.5263 -1.8959 -0.8135
 8374SOL     OW36580   3.284   0.589  10.302  0.2246 -0.0359 -0.1213
 8374SOL    HW136581   3.202   0.545  10.322 -1.4652  2.0115 -2.4676
 8374SOL    HW236582   3.249   0.671  10.266  0.7942  0.0797 -0.4193
 8375SOL     OW36583   2.489   0.810   2.058  0.1244 -0.6375  0.0096
 8375SOL    HW136584   2.413   0.755   2.040 -0.8090 -0.2129  2.6482
 8375SOL    HW236585   2.539   0.743   2.104 -0.6717  0.1284  2.0296
 8376SOL     OW36586   4.179   2.376   7.095  0.3668 -0.5925  0.3261
 8376SOL    HW136587   4.107   2.398   7.037 -0.7162 -3.6179  0.5316
 8376SOL    HW236588   4.196   2.466   7.123 -1.3685  0.2551 -1.4147
 8377SOL     OW36589   3.415   2.619   7.885 -0.1799  0.2841  0.5133
 8377SOL    HW136590   3.470   2.660   7.818 -2.4559  0.2323 -1.3938
 8377SOL    HW236591   3.370   2.697   7.916  2.1582  1.5122  0.7775
 8378SOL     OW36592   0.365   4.345  10.274  0.2171 -0.5076 -0.0447
 8378SOL    HW136593   0.383   4.428  10.229 -0.5089  0.7365  1.9675
 8378SOL    HW236594   0.314   4.294  10.210 -0.9673 -0.7020  1.0574
 8379SOL     OW36595   1.058   0.275   5.410 -0.0405  0.0271  0.2220
 8379SOL    HW136596   1.103   0.190   5.410  0.0651  0.0900 -0.7472
 8379SOL    HW236597   0.968   0.243   5.400 -0.5996  1.4750  0.6728
 8380SOL     OW36598   3.744   0.724   3.806  0.0604 -0.4661  0.1592
 8380SOL    HW136599   3.840   0.723   3.801 -0.0345  0.3840 -1.8116
 8380SOL    HW236600   3.727   0.794   3.744 -0.9162  1.1107  2.2221
 8381SOL     OW36601   0.916   3.574   3.168  0.0878  0.2221  0.0888
 8381SOL    HW136602   0.982   3.571   3.099 -1.8193  1.6639 -1.8051
 8381SOL    HW236603   0.884   3.485   3.154 -0.1022  0.4393 -0.8131
 8382SOL     OW36604   4.314   1.529   4.242 -0.4282 -0.1288  0.5187
 8382SOL    HW136605   4.376   1.564   4.178  0.1229  0.8415  1.5899
 8382SOL    HW236606   4.376   1.492   4.305  1.8155  0.6028 -1.2553
 8383SOL     OW36607   4.298   2.222   8.803  0.4725  0.0722 -0.4933
 8383SOL    HW136608   4.280   2.207   8.896  2.4964  0.4424 -0.0319
 8383SOL    HW236609   4.383   2.178   8.801 -0.4310 -1.6037 -1.8405
 8384SOL     OW36610   3.039   2.081   8.816  0.7710  0.6101 -0.1923
 8384SOL    HW136611   3.104   2.043   8.757  0.5456  0.8493 -0.5901
 8384SOL    HW236612   2.986   2.002   8.828 -1.7716  2.0991 -1.5326
 8385SOL     OW36613   3.265   0.809   6.007 -0.0650 -0.1535  0.1639
 8385SOL    HW136614   3.290   0.726   5.967  2.9124  0.4888  0.6777
 8385SOL    HW236615   3.314   0.857   5.940  0.2758 -0.1588  0.4137
 8386SOL     OW36616   1.484   2.960   5.554 -0.2389 -0.3760  0.0079
 8386SOL    HW136617   1.442   2.910   5.483  1.7120 -1.5898 -0.2770
 8386SOL    HW236618   1.430   2.945   5.632 -2.0977  0.5645 -1.1016
 8387SOL     OW36619   3.842   0.979  16.278 -0.3336 -0.6469 -0.8017
 8387SOL    HW136620   3.781   1.036  16.231  2.1824  1.4172 -1.5088
 8387SOL    HW236621   3.850   0.917  16.205 -2.4085 -2.5521  0.5871
 8388SOL     OW36622   2.526   3.391   3.176 -0.0972 -0.0002 -0.3700
 8388SOL    HW136623   2.588   3.350   3.115  0.1336 -0.6218  0.2809
 8388SOL    HW236624   2.546   3.331   3.248 -0.5094  1.3942  0.8968
 8389SOL     OW36625   0.144   1.840   1.511 -0.3558  0.1205  0.4879
 8389SOL    HW136626   0.215   1.776   1.518 -1.5148 -1.4758 -1.9604
 8389SOL    HW236627   0.186   1.910   1.560  2.6011 -1.2381 -0.0874
 8390SOL     OW36628   1.869   0.304   5.737  0.8058  0.0676 -0.3252
 8390SOL    HW136629   1.848   0.228   5.682 -0.9032 -0.5328  1.1452
 8390SOL    HW236630   1.871   0.258   5.821 -0.3994  0.4668 -0.0700
 8391SOL     OW36631   2.146   3.550   3.102  0.1272 -0.1476  0.6531
 8391SOL    HW136632   2.237   3.574   3.085  0.0560 -2.3089 -2.7946
 8391SOL    HW236633   2.115   3.610   3.169  1.0960 -1.5142  2.3434
 8392SOL     OW36634   3.066   3.041   2.405 -0.1603 -0.0910  0.3473
 8392SOL    HW136635   3.034   3.026   2.493 -0.1005 -0.3107  0.3317
 8392SOL    HW236636   3.152   3.082   2.409  0.2019 -1.0098  1.6348
 8393SOL     OW36637   2.946   3.161   2.691  0.6307 -0.3742  0.0124
 8393SOL    HW136638   3.007   3.221   2.649  1.6500 -0.6028  1.1538
 8393SOL    HW236639   3.000   3.113   2.754  0.3167 -2.2066 -1.1320
 8394SOL     OW36640   1.446   3.290   7.105 -0.1750  0.0540  0.4009
 8394SOL    HW136641   1.473   3.315   7.194 -0.1622  2.8647 -0.3947
 8394SOL    HW236642   1.417   3.200   7.116 -0.4317 -0.3374 -3.7711
 8395SOL     OW36643   3.844   0.490   7.697 -0.0667  0.2499  0.1461
 8395SOL    HW136644   3.800   0.429   7.757 -0.2134 -1.5660 -1.8290
 8395SOL    HW236645   3.768   0.539   7.666 -0.9782 -0.7015  0.8577
 8396SOL     OW36646   0.701   0.431   8.927  0.3226  0.2779  0.3032
 8396SOL    HW136647   0.683   0.519   8.958 -1.8410 -0.4548  1.1432
 8396SOL    HW236648   0.705   0.388   9.013  1.1500 -1.1383 -0.4502
 8397SOL     OW36649   2.882   4.017   5.251 -0.0466 -0.5695  0.5839
 8397SOL    HW136650   2.875   3.969   5.169 -1.0738  0.0124  0.3335
 8397SOL    HW236651   2.912   3.947   5.311  0.7945  0.2214  1.0916
 8398SOL     OW36652   2.321   1.395  13.493  0.0088 -0.4909  0.4894
 8398SOL    HW136653   2.242   1.445  13.473 -0.8915 -2.3423 -0.5661
 8398SOL    HW236654   2.388   1.451  13.455 -0.2493 -0.4518  0.0834
 8399SOL     OW36655   1.942   2.045  15.776  0.5104  0.2466  0.0807
 8399SOL    HW136656   2.035   2.035  15.759  0.3732  0.5502 -0.8688
 8399SOL    HW236657   1.915   2.062  15.685  0.0731  0.9634  0.3460
 8400SOL     OW36658   1.404   0.184   5.056 -0.2178 -0.0290  0.3871
 8400SOL    HW136659   1.418   0.144   5.142 -2.2079 -1.4099  0.0774
 8400SOL    HW236660   1.417   0.106   5.003 -1.7165 -0.3421  0.4732
 8401SOL     OW36661   0.779   3.100   8.673 -0.8066  0.1729 -0.3977
 8401SOL    HW136662   0.708   3.162   8.691  0.2531  1.4222 -0.5459
 8401SOL    HW236663   0.715   3.031   8.691  1.1966 -1.3626  0.8408
 8402SOL     OW36664   2.818   0.076   4.792 -0.0100 -0.0503  0.2257
 8402SOL    HW136665   2.725   0.072   4.817 -0.1068  2.8853  0.3744
 8402SOL    HW236666   2.811   0.096   4.698  2.6686 -0.1977 -0.0020
 8403SOL     OW36667   0.739   2.550   3.686  0.2852  0.5772 -0.0324
 8403SOL    HW136668   0.782   2.482   3.737 -2.2145 -0.1798  1.0596
 8403SOL    HW236669   0.790   2.628   3.710  0.4860  0.8318 -1.2863
 8404SOL     OW36670   3.716   1.248   8.158 -0.1437  0.2877 -0.1741
 8404SOL    HW136671   3.647   1.193   8.196 -0.9648  1.8750  0.6003
 8404SOL    HW236672   3.755   1.188   8.093  0.8507  1.0952 -0.3273
 8405SOL     OW36673   2.537   4.413  13.379  0.1827 -0.4345  0.5216
 8405SOL    HW136674   2.501   4.474  13.315 -0.9361  0.3997  1.9647
 8405SOL    HW236675   2.528   4.454  13.465 -0.2202 -1.1101  0.8054
 8406SOL     OW36676   3.576   2.289   5.956 -0.9192  0.4166 -0.0455
 8406SOL    HW136677   3.611   2.372   5.924 -1.7647 -0.2521 -2.6518
 8406SOL    HW236678   3.633   2.223   5.916 -1.7043  0.3625 -1.0661
 8407SOL     OW36679   2.987   3.194   0.937  0.0397 -0.1716 -0.3494
 8407SOL    HW136680   2.943   3.232   0.861 -0.1798 -2.0788 -1.1860
 8407SOL    HW236681   3.080   3.202   0.913  0.1990 -0.5898  0.1326
 8408SOL     OW36682   2.629   4.171  13.309  0.1252  0.7440  0.0731
 8408SOL    HW136683   2.585   4.249  13.344 -0.1025 -0.2250  1.9428
 8408SOL    HW236684   2.720   4.198  13.323  0.4650  0.6996 -2.0027
 8409SOL     OW36685   2.828   1.130   9.491 -0.1232 -0.0909  0.5442
 8409SOL    HW136686   2.792   1.204   9.540 -2.9554 -0.9056 -0.2832
 8409SOL    HW236687   2.863   1.076   9.561  0.1528  1.1999  1.4110
 8410SOL     OW36688   4.124   1.690   5.963  0.3080 -0.3134 -0.0260
 8410SOL    HW136689   4.093   1.652   6.046  1.5192  0.4480  0.7720
 8410SOL    HW236690   4.078   1.774   5.960  2.1155  0.6772  0.3650
 8411SOL     OW36691   1.131   1.233   8.369  0.5171 -0.0008  0.4580
 8411SOL    HW136692   1.103   1.167   8.433  2.0951  0.9575  2.1122
 8411SOL    HW236693   1.076   1.209   8.294  0.4671  0.7415  0.2628
 8412SOL     OW36694   2.694   4.257   4.240 -0.0510 -0.0383  0.1525
 8412SOL    HW136695   2.668   4.251   4.333  2.6223 -2.4657  0.7202
 8412SOL    HW236696   2.770   4.200   4.234 -1.7219 -2.1290 -1.0666
 8413SOL     OW36697   2.120   2.795   5.267 -0.4696  0.2029  0.0336
 8413SOL    HW136698   2.063   2.754   5.202  0.1964 -0.4846 -0.1311
 8413SOL    HW236699   2.065   2.834   5.335  1.2458 -0.0211  1.5767
 8414SOL     OW36700   0.090   0.862   8.807 -0.0904  0.1531 -0.1085
 8414SOL    HW136701   0.038   0.782   8.818 -0.4827  0.4342  0.0698
 8414SOL    HW236702   0.143   0.831   8.733 -0.4831 -0.7900  0.0011
 8415SOL     OW36703   3.314   1.669   3.204 -0.4927  0.5092  0.2083
 8415SOL    HW136704   3.368   1.746   3.220 -0.2902 -0.1024  2.4454
 8415SOL    HW236705   3.358   1.639   3.124 -2.4791 -0.5255 -0.4965
 8416SOL     OW36706   2.612   1.397   0.922  0.2440 -0.3889  0.2778
 8416SOL    HW136707   2.593   1.303   0.932 -0.7742 -0.1531  0.6477
 8416SOL    HW236708   2.654   1.396   0.837  0.5763  0.2281  0.4381
 8417SOL     OW36709   1.614   2.290   6.046 -0.0900  0.0509  0.4044
 8417SOL    HW136710   1.643   2.338   6.124  2.1889 -0.4894 -0.1248
 8417SOL    HW236711   1.564   2.216   6.079 -0.9248  1.4032  2.2070
 8418SOL     OW36712   1.439   2.845   8.863  0.0560 -0.4485 -0.2346
 8418SOL    HW136713   1.512   2.819   8.920  1.6666 -1.9479 -3.0172
 8418SOL    HW236714   1.402   2.756   8.863  0.1153 -0.4708 -0.7150
 8419SOL     OW36715   3.943   0.460   2.955  0.2271 -0.1867 -0.2592
 8419SOL    HW136716   3.976   0.545   2.985  1.5312 -0.5459 -0.6699
 8419SOL    HW236717   3.980   0.411   3.029 -0.2580  0.9704  0.7539
 8420SOL     OW36718   2.266   1.360   3.460 -0.1726 -0.3309  0.5282
 8420SOL    HW136719   2.262   1.266   3.479 -0.8138 -0.4239 -0.0947
 8420SOL    HW236720   2.174   1.362   3.435  0.3579  0.5039 -1.3107
 8421SOL     OW36721   4.280   0.321  16.196 -0.1131 -0.2790 -0.0734
 8421SOL    HW136722   4.360   0.360  16.232 -0.5853  2.1036 -1.6281
 8421SOL    HW236723   4.304   0.235  16.161 -0.8618  0.0859 -1.4667
 8422SOL     OW36724   0.520   3.226  16.299 -0.2873 -0.4354 -0.1449
 8422SOL    HW136725   0.467   3.303  16.278  0.4235  0.0516 -0.1189
 8422SOL    HW236726   0.603   3.273  16.306 -1.0883  0.5249  3.1020
 8423SOL     OW36727   4.457   4.520  10.483 -0.7920  0.1639  0.9472
 8423SOL    HW136728   4.469   4.465  10.561 -0.6315  0.9073  1.4451
 8423SOL    HW236729   4.376   4.478  10.452 -0.2449  1.4377 -2.1511
 8424SOL     OW36730   3.035   3.438   3.843  0.1932  0.5998 -0.1756
 8424SOL    HW136731   2.973   3.386   3.894 -0.5810 -2.4568 -4.2496
 8424SOL    HW236732   3.116   3.387   3.849 -0.8685 -1.2260 -1.2756
 8425SOL     OW36733   0.216   0.475   4.685 -0.3672 -0.0311 -0.8858
 8425SOL    HW136734   0.268   0.527   4.746  1.9564 -2.0985 -1.1144
 8425SOL    HW236735   0.255   0.513   4.606  0.2759  3.2909  1.0109
 8426SOL     OW36736   2.469   0.753   8.692  0.2204 -0.3779  0.8644
 8426SOL    HW136737   2.380   0.719   8.704  0.3985 -1.4192 -0.7615
 8426SOL    HW236738   2.514   0.693   8.751 -0.6930 -1.5397  0.3875
 8427SOL     OW36739   4.018   1.031   7.490  0.5443 -0.1493 -0.0248
 8427SOL    HW136740   3.999   1.111   7.440 -1.6251  0.1406  1.2753
 8427SOL    HW236741   4.105   1.009   7.457  0.4191  0.3410 -0.6771
 8428SOL     OW36742   1.937   0.582   3.987  0.0996 -0.1447 -0.1826
 8428SOL    HW136743   1.914   0.495   3.955  2.3231 -0.0698 -2.0291
 8428SOL    HW236744   1.973   0.568   4.075 -0.3073  0.1034  0.0205
 8429SOL     OW36745   3.537   1.642   7.081 -0.0284  0.8610 -0.1413
 8429SOL    HW136746   3.503   1.562   7.121  0.4129  0.6167 -0.2587
 8429SOL    HW236747   3.456   1.674   7.042 -1.1935 -2.6942 -0.6814
 8430SOL     OW36748   1.035   3.615   2.386  0.0906  0.0336 -0.3899
 8430SOL    HW136749   1.107   3.591   2.444 -0.0528  0.7692  0.0848
 8430SOL    HW236750   0.957   3.572   2.420  0.3738  0.0335  0.2562
 8431SOL     OW36751   2.086   4.194   9.780  0.1068  0.2065  0.1273
 8431SOL    HW136752   2.049   4.144   9.707 -1.1453  2.3752 -0.7160
 8431SOL    HW236753   2.053   4.144   9.855  1.4839 -1.2915 -0.2671
 8432SOL     OW36754   2.370   2.812   4.989 -0.4327 -0.5457 -0.5799
 8432SOL    HW136755   2.347   2.854   5.071 -0.2088 -0.8221 -0.3780
 8432SOL    HW236756   2.404   2.889   4.943 -1.7748  0.6832  0.4930
 8433SOL     OW36757   0.077   4.277  10.553 -0.1456 -0.0628 -0.1354
 8433SOL    HW136758   0.091   4.263  10.646  0.9294 -3.1738 -0.7699
 8433SOL    HW236759   0.007   4.215  10.533  0.0549 -0.1703 -0.5001
 8434SOL     OW36760   4.453   0.129  16.733 -0.4912  0.3915 -0.4959
 8434SOL    HW136761   4.406   0.076  16.797  1.5676 -1.3376 -0.4304
 8434SOL    HW236762   4.506   0.184  16.790 -1.7415 -0.0425  1.0701
 8435SOL     OW36763   1.705   4.185   8.872 -0.0767 -0.5027 -0.0958
 8435SOL    HW136764   1.712   4.140   8.788  2.8958  0.5034 -0.3928
 8435SOL    HW236765   1.618   4.152   8.894 -1.1928  0.9835 -2.2779
 8436SOL     OW36766   1.369   0.737   6.815  0.0366 -0.7049 -0.2467
 8436SOL    HW136767   1.402   0.653   6.785 -0.9816 -0.7332 -1.2768
 8436SOL    HW236768   1.418   0.745   6.897  0.4740  2.5706 -0.7964
 8437SOL     OW36769   4.642   0.028   5.839  0.4331  0.2413  0.0827
 8437SOL    HW136770   4.603   0.114   5.827 -1.5331 -0.5863  0.6973
 8437SOL    HW236771   4.714   0.051   5.898 -0.1243  0.6574  0.5932
 8438SOL     OW36772   3.472   3.263  15.617 -0.0798  0.2085 -0.5538
 8438SOL    HW136773   3.465   3.179  15.571  1.0503 -0.1836  0.0059
 8438SOL    HW236774   3.566   3.263  15.635 -0.5822  2.7993  2.1530
 8439SOL     OW36775   1.411   3.741   3.035  0.2642  0.3750 -0.1392
 8439SOL    HW136776   1.469   3.701   2.970 -1.0250 -0.9035 -0.4971
 8439SOL    HW236777   1.361   3.799   2.978  0.4862  1.5602  0.8782
 8440SOL     OW36778   1.150   3.846   9.431 -0.3085  0.8875  0.2662
 8440SOL    HW136779   1.158   3.859   9.337 -1.2539  0.2173  0.0878
 8440SOL    HW236780   1.111   3.758   9.437 -0.5534  1.0326  0.8931
 8441SOL     OW36781   1.618   1.678   4.810 -0.3211 -0.0026  0.2261
 8441SOL    HW136782   1.577   1.764   4.821 -2.4425 -0.9030 -0.5288
 8441SOL    HW236783   1.646   1.653   4.898 -0.1350 -0.7257 -0.0402
 8442SOL     OW36784   4.512   3.512   5.054 -0.0396 -0.1465 -0.2388
 8442SOL    HW136785   4.603   3.506   5.023  0.2507  0.8551  0.4192
 8442SOL    HW236786   4.517   3.603   5.082 -2.6256 -0.2030  0.3893
 8443SOL     OW36787   2.367   0.397   0.580  0.0544  0.1862  0.2595
 8443SOL    HW136788   2.381   0.312   0.538  0.3081 -0.4222  1.5869
 8443SOL    HW236789   2.393   0.368   0.667 -1.1981 -3.0040 -0.4445
 8444SOL     OW36790   2.591   4.151  11.254 -0.2127  0.2398  0.6422
 8444SOL    HW136791   2.682   4.182  11.266 -0.1918  0.5930 -0.4366
 8444SOL    HW236792   2.543   4.232  11.237  2.5789  1.9912  1.0614
 8445SOL     OW36793   0.472   1.948   9.115 -0.2591 -0.2094 -0.3181
 8445SOL    HW136794   0.411   1.895   9.166 -0.8408 -0.6132 -1.4396
 8445SOL    HW236795   0.465   2.024   9.174 -1.5294 -2.1485  2.0350
 8446SOL     OW36796   2.233   1.053   5.446  0.3341  0.0260  0.1490
 8446SOL    HW136797   2.233   0.957   5.444 -1.4504  0.0398 -0.4882
 8446SOL    HW236798   2.183   1.067   5.366 -0.7001 -0.9786  0.6138
 8447SOL     OW36799   1.120   2.027   3.478  0.6220 -0.1068 -0.0906
 8447SOL    HW136800   1.138   2.092   3.410 -0.1214 -0.0681 -0.2431
 8447SOL    HW236801   1.065   1.967   3.429 -2.4461  1.5864  1.2929
 8448SOL     OW36802   1.044   1.160   2.853 -0.1007 -0.3743 -0.0883
 8448SOL    HW136803   1.012   1.189   2.939  1.0718  0.9979 -0.1191
 8448SOL    HW236804   1.115   1.221   2.835 -0.7501  1.3999  3.3912
 8449SOL     OW36805   0.035   1.973  11.440 -0.8807  0.5039 -0.1748
 8449SOL    HW136806   0.020   2.059  11.401 -0.0351  0.8930  0.3408
 8449SOL    HW236807   0.006   1.911  11.374 -2.0056  0.1592  0.6461
 8450SOL     OW36808   2.861   3.958   8.283 -0.5340 -0.2997 -1.3994
 8450SOL    HW136809   2.955   3.940   8.278 -0.6988 -1.4973  0.1443
 8450SOL    HW236810   2.846   3.958   8.377 -1.4281 -0.2593 -1.5456
 8451SOL     OW36811   3.033   2.310   5.352  0.0024  0.3567  0.2872
 8451SOL    HW136812   3.068   2.228   5.388  2.3650  1.3114  0.2252
 8451SOL    HW236813   3.114   2.340   5.310 -1.1372  1.2963 -1.2243
 8452SOL     OW36814   3.862   3.109   0.532  0.4816  0.1167  0.1980
 8452SOL    HW136815   3.814   3.031   0.504 -0.5916  0.6912  0.4289
 8452SOL    HW236816   3.888   3.156   0.452  1.7071 -0.8688  0.0132
 8453SOL     OW36817   1.048   4.240  11.871  0.5534  0.4027  0.2674
 8453SOL    HW136818   1.117   4.176  11.893  0.4414  0.1509 -0.1207
 8453SOL    HW236819   1.041   4.284  11.956  0.2731 -1.0965  1.0179
 8454SOL     OW36820   1.596   1.396   2.552 -0.1135 -0.1459  0.0426
 8454SOL    HW136821   1.592   1.301   2.536 -1.2333 -0.1130  0.1012
 8454SOL    HW236822   1.666   1.431   2.497  1.1217  0.6962  2.1673
 8455SOL     OW36823   1.161   1.620   0.008 -0.2846  0.3447  0.2268
 8455SOL    HW136824   1.251   1.592  17.670 -0.5788 -0.5435  0.1376
 8455SOL    HW236825   1.130   1.605  17.599 -0.4536  0.0321  0.3380
 8456SOL     OW36826   2.042   4.654   7.130 -0.2042  0.4178  0.2284
 8456SOL    HW136827   2.044   4.656   7.226  1.5592 -2.0600  0.2375
 8456SOL    HW236828   2.022   0.027   7.115 -0.6892  0.3854  0.6392
 8457SOL     OW36829   0.756   4.610  16.723 -0.3160 -0.3351  0.1357
 8457SOL    HW136830   0.818   4.559  16.774 -0.5887 -0.5544  0.2500
 8457SOL    HW236831   0.730   4.530  16.678 -0.8671  0.0367 -0.2173
 8458SOL     OW36832   3.290   4.057   7.580 -0.6024  0.4139  0.0944
 8458SOL    HW136833   3.225   4.119   7.546  0.2460  1.1069 -0.2908
 8458SOL    HW236834   3.244   3.982   7.616 -0.2120  0.8691  1.5522
 8459SOL     OW36835   1.380   2.919  14.490 -0.4498 -0.3105  0.5820
 8459SOL    HW136836   1.470   2.911  14.519 -1.3248 -2.6581  2.6393
 8459SOL    HW236837   1.333   2.928  14.573  0.4318  0.1545  1.0288
 8460SOL     OW36838   3.737   0.176   2.621 -0.1133 -0.4664  0.8300
 8460SOL    HW136839   3.790   0.255   2.613 -0.8572 -0.2490 -1.7706
 8460SOL    HW236840   3.668   0.209   2.679 -1.0828 -2.4539  0.8033
 8461SOL     OW36841   4.251   1.755   8.220  0.1307  0.2286  0.2073
 8461SOL    HW136842   4.211   1.691   8.162 -0.3737  1.0451 -0.3434
 8461SOL    HW236843   4.329   1.705   8.243  0.5305  1.3940  1.4626
 8462SOL     OW36844   1.653   1.276   1.944 -0.7825 -0.2596 -0.1726
 8462SOL    HW136845   1.687   1.218   1.876 -0.9596 -1.2388  0.5696
 8462SOL    HW236846   1.717   1.346   1.940 -0.4958 -0.4141  1.4913
 8463SOL     OW36847   4.539   0.839  17.573  0.0609 -0.3663 -0.2132
 8463SOL    HW136848   4.586   0.897  17.514  1.9172 -0.9994  0.6498
 8463SOL    HW236849   4.550   0.880  17.659  0.6524 -1.8955  0.4244
 8464SOL     OW36850   1.475   0.784  17.660  0.5046 -0.0050  0.4802
 8464SOL    HW136851   1.543   0.831  17.611 -0.4199 -0.7069 -1.4867
 8464SOL    HW236852   1.490   0.692  17.636 -1.3394 -0.0507 -0.4922
 8465SOL     OW36853   1.244   4.020  17.439 -0.4328 -0.4268  0.8997
 8465SOL    HW136854   1.213   3.929  17.437  1.6121 -1.1107  0.0156
 8465SOL    HW236855   1.174   4.060  17.491  0.6008  1.4035  0.8774
 8466SOL     OW36856   1.657   3.002   3.449  0.2392  0.0500  0.1603
 8466SOL    HW136857   1.644   3.087   3.491  0.4530 -0.4310  1.1931
 8466SOL    HW236858   1.707   3.034   3.374 -0.5975  0.7919 -0.0918
 8467SOL     OW36859   3.844   4.055   7.754  0.7584 -0.5402 -0.2173
 8467SOL    HW136860   3.843   4.100   7.669  0.3590  0.2819  0.2320
 8467SOL    HW236861   3.761   4.080   7.794 -0.0485 -2.6586 -0.5387
 8468SOL     OW36862   0.381   1.359   7.667 -0.2755  0.3558 -0.3601
 8468SOL    HW136863   0.298   1.397   7.697 -1.2125  0.0680 -2.5971
 8468SOL    HW236864   0.447   1.425   7.683 -1.5903  1.2750  1.2423
 8469SOL     OW36865   4.274   2.090   6.492 -0.1393 -0.6102  0.6247
 8469SOL    HW136866   4.240   2.178   6.511 -2.7526 -1.1105 -1.8132
 8469SOL    HW236867   4.297   2.093   6.399 -0.7493 -1.2795  0.4533
 8470SOL     OW36868   2.180   3.297   2.820  0.2046  0.0700 -0.1848
 8470SOL    HW136869   2.194   3.389   2.839  0.1893  0.1624 -0.6044
 8470SOL    HW236870   2.141   3.270   2.903 -0.6564 -0.7383 -0.8349
 8471SOL     OW36871   1.739   3.958  17.402  0.4414  0.0124 -0.1201
 8471SOL    HW136872   1.781   4.026  17.349  2.8014 -0.1008  1.6191
 8471SOL    HW236873   1.787   3.882  17.369  2.0980  0.5735  0.9961
 8472SOL     OW36874   1.037   3.078   8.793  0.3433  0.2880  0.4402
 8472SOL    HW136875   1.034   2.995   8.840  0.3450 -0.7087 -1.3231
 8472SOL    HW236876   0.944   3.089   8.771 -0.1233  0.2099  2.3598
 8473SOL     OW36877   0.958   1.393   0.240 -0.1693  0.0448  0.2376
 8473SOL    HW136878   0.866   1.367   0.251 -0.8643  1.7039 -1.7626
 8473SOL    HW236879   0.965   1.469   0.298  0.6927  1.8093 -2.1694
 8474SOL     OW36880   2.568   2.316  17.583 -0.2019 -0.4618  0.2088
 8474SOL    HW136881   2.567   2.310  17.678 -0.6585  1.6362  0.3292
 8474SOL    HW236882   2.645   2.373  17.582  0.5394 -1.4630 -0.9338
 8475SOL     OW36883   0.003   2.857   5.610 -0.7884 -0.5019 -0.5469
 8475SOL    HW136884   4.666   2.934   5.608  0.4120  0.2597 -3.7455
 8475SOL    HW236885   0.086   2.904   5.624 -0.3927 -0.8541 -1.7176
 8476SOL     OW36886   1.434   3.738   7.937 -0.5609  0.4025 -0.8366
 8476SOL    HW136887   1.397   3.684   8.006  2.4088  0.8907  1.1699
 8476SOL    HW236888   1.478   3.670   7.885 -1.8013  0.3653 -1.8305
 8477SOL     OW36889   3.141   0.432   6.579 -0.4434 -0.3980 -0.1899
 8477SOL    HW136890   3.112   0.511   6.532 -0.1422 -1.1988 -1.7322
 8477SOL    HW236891   3.236   0.432   6.582 -0.4227  0.7643 -0.6741
 8478SOL     OW36892   0.631   3.038  12.410 -0.1400 -0.0263 -0.3146
 8478SOL    HW136893   0.686   3.088  12.471 -0.7091  0.9649 -0.6107
 8478SOL    HW236894   0.693   3.018  12.340 -0.5856  0.2703 -0.7925
 8479SOL     OW36895   1.749   2.637   8.300  0.3335  0.0665 -0.2942
 8479SOL    HW136896   1.725   2.691   8.224 -1.1543  0.5355  0.5121
 8479SOL    HW236897   1.807   2.572   8.261 -0.4476 -2.1157  2.1818
 8480SOL     OW36898   4.203   0.139  12.977  0.4627 -0.0776 -0.2489
 8480SOL    HW136899   4.199   0.202  13.050 -0.2726  0.1026 -0.4462
 8480SOL    HW236900   4.253   0.190  12.913  0.4021  0.6549  0.2776
 8481SOL     OW36901   2.133   2.455  16.993  0.1744 -0.0340 -0.1829
 8481SOL    HW136902   2.063   2.505  17.036  0.5773  0.4474 -0.0857
 8481SOL    HW236903   2.191   2.531  16.989 -0.4427  0.6837  3.9804
 8482SOL     OW36904   4.091   4.233   6.118 -0.0730  0.6039 -0.3816
 8482SOL    HW136905   4.083   4.268   6.207  2.1460 -1.0008  0.4573
 8482SOL    HW236906   4.063   4.143   6.134  1.4317  0.1684 -0.1440
 8483SOL     OW36907   3.015   3.474   3.295 -0.1234  0.4873  0.0536
 8483SOL    HW136908   2.976   3.559   3.317 -0.9821  0.1187 -0.0460
 8483SOL    HW236909   3.103   3.500   3.268 -0.5957  1.6194 -0.3703
 8484SOL     OW36910   4.573   4.106   6.396  0.4845  0.7879  0.0729
 8484SOL    HW136911   4.493   4.056   6.382  1.2275 -0.6217  0.7658
 8484SOL    HW236912   4.563   4.123   6.490 -0.5324  0.8343 -0.0499
 8485SOL     OW36913   1.141   2.687   6.203 -0.0415  0.4566  0.0843
 8485SOL    HW136914   1.057   2.713   6.240  0.1027 -0.2870  0.9447
 8485SOL    HW236915   1.135   2.716   6.112  0.5287  1.0301  0.2322
 8486SOL     OW36916   3.079   2.223   2.348 -0.4650  0.5128 -0.7383
 8486SOL    HW136917   3.091   2.317   2.336  0.6441  0.7128  2.0012
 8486SOL    HW236918   3.023   2.218   2.425  1.4546 -1.5054  0.5596
 8487SOL     OW36919   3.514   2.727   1.026 -0.0299 -0.2860 -0.3113
 8487SOL    HW136920   3.543   2.783   0.953  2.3114  0.9141  1.5513
 8487SOL    HW236921   3.431   2.699   0.987  0.1480 -1.4680  0.1671
 8488SOL     OW36922   1.286   1.203   1.794  0.2138  0.9181  0.3560
 8488SOL    HW136923   1.327   1.213   1.880 -0.4983  1.4675  0.6264
 8488SOL    HW236924   1.359   1.227   1.738  0.1885  0.4011  0.0929
 8489SOL     OW36925   0.159   2.224   3.459  0.5737 -0.1872 -0.0764
 8489SOL    HW136926   0.093   2.232   3.390 -2.9400 -2.7566  2.9964
 8489SOL    HW236927   0.230   2.186   3.407 -0.3219 -1.7344 -0.1909
 8490SOL     OW36928   2.608   2.145   3.914  0.1738  0.6739 -0.1567
 8490SOL    HW136929   2.591   2.161   4.007 -1.0035  0.6936 -0.3849
 8490SOL    HW236930   2.638   2.229   3.880 -0.3117  0.7803 -0.3211
 8491SOL     OW36931   4.451   0.643  16.408  0.0323 -0.1131 -0.2022
 8491SOL    HW136932   4.493   0.689  16.335  2.7245  0.1928  1.5225
 8491SOL    HW236933   4.361   0.632  16.379  0.3645 -0.9401 -0.9158
 8492SOL     OW36934   4.198   4.416   4.816  0.0216  0.3815  0.4682
 8492SOL    HW136935   4.202   4.350   4.885 -1.3322  0.2688  0.4305
 8492SOL    HW236936   4.184   4.500   4.861 -1.0683  0.1533  0.5423
 8493SOL     OW36937   0.300   1.508  17.255 -0.0581 -0.3580  0.4310
 8493SOL    HW136938   0.292   1.549  17.169  1.0494  0.0156  0.5027
 8493SOL    HW236939   0.365   1.567  17.293  0.6423 -0.6406 -0.3040
 8494SOL     OW36940   1.718   3.675   9.202 -0.2680 -0.3931  0.4375
 8494SOL    HW136941   1.752   3.762   9.219  1.4891 -1.2870  1.4485
 8494SOL    HW236942   1.632   3.679   9.245 -1.2945 -0.4779 -1.5569
 8495SOL     OW36943   4.717   3.174   1.559 -0.4876  0.5161  0.3031
 8495SOL    HW136944   4.653   3.241   1.584  1.6061  2.6389 -0.0590
 8495SOL    HW236945   0.078   3.226   1.564 -0.8391  1.2360 -1.6311
 8496SOL     OW36946   0.673   4.013   2.163  0.3902  0.3984 -0.3863
 8496SOL    HW136947   0.669   4.100   2.122  0.0951  0.4801 -0.1851
 8496SOL    HW236948   0.649   4.028   2.255  1.9586 -1.3786  0.3135
 8497SOL     OW36949   0.407   3.798  10.925 -0.2461  0.5418 -0.2616
 8497SOL    HW136950   0.472   3.793  10.855  0.1799  1.8098  0.0372
 8497SOL    HW236951   0.454   3.782  11.007  0.1919  0.6670 -0.4859
 8498SOL     OW36952   0.349   2.916   0.562  0.1432 -0.0410 -0.6294
 8498SOL    HW136953   0.339   2.855   0.636  1.7611  0.5955  0.1156
 8498SOL    HW236954   0.257   2.935   0.544  0.0028 -2.6871 -2.5714
 8499SOL     OW36955   3.918   0.790   1.796  0.6852 -0.0857  0.2961
 8499SOL    HW136956   3.828   0.765   1.777  0.9747  0.3644 -1.7599
 8499SOL    HW236957   3.974   0.727   1.750  1.5724  1.7239 -1.1294
 8500SOL     OW36958   0.432   1.698   2.361  0.2419  0.1673  0.3188
 8500SOL    HW136959   0.494   1.668   2.295 -0.1521  1.0492 -0.4525
 8500SOL    HW236960   0.472   1.775   2.401  2.8446  2.0150 -5.7057
 8501SOL     OW36961   2.865   2.045   3.179 -0.1783  0.2001  0.1623
 8501SOL    HW136962   2.874   2.090   3.094  1.2732 -1.6253 -0.6375
 8501SOL    HW236963   2.859   1.951   3.160  0.6026 -0.0039  0.9219
 8502SOL     OW36964   1.935   2.481   6.795  0.2690  0.7615 -0.0917
 8502SOL    HW136965   1.895   2.443   6.873  0.5704  0.2974 -0.1633
 8502SOL    HW236966   1.866   2.542   6.769  0.0162  0.7934  0.6487
 8503SOL     OW36967   1.507   2.348   4.365  0.6071  0.1227 -0.2145
 8503SOL    HW136968   1.592   2.317   4.335  2.0265  3.1156  0.8088
 8503SOL    HW236969   1.499   2.439   4.337 -0.2306 -0.6930 -2.6659
 8504SOL     OW36970   2.024   3.423   5.456 -0.0155  0.3016 -0.0858
 8504SOL    HW136971   2.094   3.443   5.394 -0.7871  0.5699 -0.8578
 8504SOL    HW236972   1.950   3.398   5.401 -1.1316  0.8118  1.1880
 8505SOL     OW36973   3.300   1.039   5.564  0.2133  0.2881  0.3793
 8505SOL    HW136974   3.367   1.090   5.519  0.3767 -0.4634 -0.2157
 8505SOL    HW236975   3.228   1.102   5.559 -0.6216 -0.9260 -2.8078
 8506SOL     OW36976   2.102   4.678  11.514 -0.2445 -0.0446  0.2008
 8506SOL    HW136977   2.167   0.002  11.458  0.2790 -0.6872  0.3069
 8506SOL    HW236978   2.039   0.029  11.528 -1.5206 -1.1656  0.0331
 8507SOL     OW36979   1.709   2.093   4.802 -0.1510 -0.3554  0.1639
 8507SOL    HW136980   1.763   2.126   4.731  0.1640  0.1021  0.6168
 8507SOL    HW236981   1.648   2.165   4.813 -2.3785 -1.9901 -1.6785
 8508SOL     OW36982   0.448   1.086   6.862  0.5189 -0.0477  0.3278
 8508SOL    HW136983   0.385   1.058   6.796  0.5741  0.1982  0.1691
 8508SOL    HW236984   0.400   1.156   6.906  0.2252 -0.6327  0.9238
 8509SOL     OW36985   3.198   1.248  17.266 -0.9115  0.2025 -0.4054
 8509SOL    HW136986   3.162   1.288  17.345  0.1599  0.3193  0.0204
 8509SOL    HW236987   3.185   1.155  17.285  2.4953 -0.2986 -0.4693
 8510SOL     OW36988   2.975   4.579   6.151 -0.0540 -0.1653  0.2765
 8510SOL    HW136989   3.014   4.511   6.206 -1.1519 -0.8313  0.2187
 8510SOL    HW236990   2.923   4.623   6.218 -0.1066  0.3728 -0.1176
 8511SOL     OW36991   2.675   1.346   4.693  0.9230  0.1473 -0.2538
 8511SOL    HW136992   2.633   1.413   4.639 -0.8251 -0.7855 -0.0389
 8511SOL    HW236993   2.768   1.356   4.670  0.4493 -1.3022 -2.7514
 8512SOL     OW36994   4.274   2.354   2.113  0.5416 -0.0027  0.3003
 8512SOL    HW136995   4.194   2.303   2.099 -0.9318  1.9631  1.6218
 8512SOL    HW236996   4.334   2.325   2.045  0.8186 -0.1433  0.6050
 8513SOL     OW36997   1.872   3.428   8.464  0.0521 -0.4697  0.8818
 8513SOL    HW136998   1.861   3.337   8.492  0.8265 -0.7961  0.1321
 8513SOL    HW236999   1.907   3.423   8.375 -1.5659 -1.2215  0.2805
 8514SOL     OW37000   4.581   3.765   6.049  0.1221  0.4890  0.0017
 8514SOL    HW137001   4.582   3.858   6.072  0.5119  0.5381 -0.2103
 8514SOL    HW237002   4.668   3.739   6.077 -0.2618  1.7595  2.4139
 8515SOL     OW37003   1.506   2.395  14.128 -0.3229 -0.0206  0.2319
 8515SOL    HW137004   1.441   2.399  14.197 -0.7985 -2.4938 -0.0796
 8515SOL    HW237005   1.591   2.382  14.169  0.3209  0.7101 -0.8435
 8516SOL     OW37006   0.790   0.959   5.495 -0.6407  0.2251  0.1796
 8516SOL    HW137007   0.834   0.876   5.479  2.2315  1.5688  1.2018
 8516SOL    HW237008   0.727   0.939   5.565 -1.4533 -0.3206 -0.7148
 8517SOL     OW37009   2.746   4.223   9.038  0.0519 -0.5389 -0.3940
 8517SOL    HW137010   2.682   4.184   9.097 -0.6593  0.6978 -0.3342
 8517SOL    HW237011   2.743   4.312   9.073  1.3835 -0.9779  0.8309
 8518SOL     OW37012   1.906   0.277   0.804  0.2694  0.0205 -0.0658
 8518SOL    HW137013   1.953   0.360   0.797  1.5413 -0.6190  0.8788
 8518SOL    HW237014   1.969   0.250   0.871  2.3231  1.5069 -1.3927
 8519SOL     OW37015   3.414   0.985  14.944  0.4843  0.3648  0.3894
 8519SOL    HW137016   3.367   0.940  14.874  2.2257 -1.1517  0.2019
 8519SOL    HW237017   3.422   0.918  15.012 -1.0365 -0.2465 -0.0391
 8520SOL     OW37018   4.161   2.427   6.322  0.0111 -0.3572 -0.0697
 8520SOL    HW137019   4.255   2.434   6.306 -0.1095  1.4049  0.0079
 8520SOL    HW237020   4.124   2.467   6.244 -0.6757 -0.1765  0.3551
 8521SOL     OW37021   3.299   1.297   1.863  1.0955 -0.1548  0.1470
 8521SOL    HW137022   3.251   1.223   1.899 -0.8359  1.2811  0.4941
 8521SOL    HW237023   3.237   1.369   1.874  0.3317 -0.1885 -3.8938
 8522SOL     OW37024   3.533   2.628   9.518 -0.1784  0.1896 -0.1753
 8522SOL    HW137025   3.489   2.628   9.603  0.9885 -1.7808  0.4406
 8522SOL    HW237026   3.458   2.632   9.460  0.0208 -0.9269 -0.5121
 8523SOL     OW37027   2.047   0.494   8.571 -0.4715  0.0259 -0.0067
 8523SOL    HW137028   2.118   0.531   8.624  1.0010  2.0504 -3.3787
 8523SOL    HW237029   2.092   0.498   8.486 -0.7859  2.2488 -0.0819
 8524SOL     OW37030   4.514   4.181   7.865 -0.0826  0.2454  0.4442
 8524SOL    HW137031   4.422   4.161   7.880 -0.1822  1.3993  1.3457
 8524SOL    HW237032   4.504   4.216   7.776  0.3070 -0.8071 -0.0160
 8525SOL     OW37033   2.392   4.072   7.884  0.0114 -0.3199 -0.1038
 8525SOL    HW137034   2.299   4.087   7.864 -0.0820 -1.4123 -0.5090
 8525SOL    HW237035   2.375   4.010   7.955  2.0255 -0.2940  0.3880
 8526SOL     OW37036   0.850   0.382   4.566 -0.4293 -0.9027  0.0344
 8526SOL    HW137037   0.763   0.399   4.529 -0.1596  0.6579  0.1215
 8526SOL    HW237038   0.861   0.470   4.603  0.4151 -0.9322 -0.1570
 8527SOL     OW37039   3.789   0.723   7.303 -0.5238 -0.4488 -0.0020
 8527SOL    HW137040   3.802   0.651   7.365  0.2447  1.9476  2.6533
 8527SOL    HW237041   3.858   0.783   7.331 -2.0164  1.0675  0.4583
 8528SOL     OW37042   1.285   0.153   3.129  0.0215  0.3086  0.0959
 8528SOL    HW137043   1.294   0.240   3.167  1.7114  0.2654 -0.1766
 8528SOL    HW237044   1.349   0.104   3.181  0.6451 -0.4933 -1.4026
 8529SOL     OW37045   2.451   2.390   3.263 -0.1828 -0.1433  0.1396
 8529SOL    HW137046   2.477   2.481   3.270 -0.8308  0.1191 -0.8776
 8529SOL    HW237047   2.439   2.368   3.355  1.3993  1.5432  0.7429
 8530SOL     OW37048   2.758   3.090  11.587 -0.0988  0.3495 -0.0191
 8530SOL    HW137049   2.766   3.149  11.512 -1.5195 -3.0118 -2.7983
 8530SOL    HW237050   2.834   3.104  11.644  0.2198  0.6919 -0.5320
 8531SOL     OW37051   3.031   1.310  15.814 -0.4880  0.2906 -0.2740
 8531SOL    HW137052   2.941   1.285  15.792  0.2305  1.5709 -4.7078
 8531SOL    HW237053   3.010   1.403  15.822  2.0293  0.7304  1.2723
 8532SOL     OW37054   0.083   1.876  16.905 -0.1708  0.9734 -0.6403
 8532SOL    HW137055   0.065   1.961  16.945  2.3033  1.0415  0.3767
 8532SOL    HW237056   0.011   1.860  16.845  1.7114 -1.5824 -2.2268
 8533SOL     OW37057   1.116   1.778   8.632  0.1105  0.0545  0.5181
 8533SOL    HW137058   1.071   1.727   8.699  2.7725 -1.2260  1.3153
 8533SOL    HW237059   1.154   1.846   8.688  0.0550 -0.6764  1.4429
 8534SOL     OW37060   1.163   0.147  13.309  0.1686 -0.3522 -0.4693
 8534SOL    HW137061   1.092   0.211  13.307  0.4449 -0.0153  0.2699
 8534SOL    HW237062   1.228   0.176  13.374  0.7438  1.1891 -1.7299
 8535SOL     OW37063   4.680   4.146  13.219 -0.5857 -0.5454  0.4940
 8535SOL    HW137064   0.008   4.197  13.285  3.7279 -1.5924 -1.8554
 8535SOL    HW237065   4.623   4.217  13.188  0.4664 -0.3040 -0.8851
 8536SOL     OW37066   2.760   3.517   5.717 -0.3055 -0.0021  0.5676
 8536SOL    HW137067   2.837   3.526   5.661  1.7133  0.3328  3.3934
 8536SOL    HW237068   2.730   3.607   5.704 -2.2417 -0.5693  1.0721
 8537SOL     OW37069   0.904   4.074  15.095 -0.3167  0.1275 -0.0391
 8537SOL    HW137070   0.842   4.027  15.040  1.9726 -0.8065 -1.8091
 8537SOL    HW237071   0.843   4.092  15.167 -0.2825  0.6796 -0.1477
 8538SOL     OW37072   1.881   2.781  14.427  0.8658 -0.2474  0.2362
 8538SOL    HW137073   1.914   2.700  14.389 -1.4588 -1.2490  0.4132
 8538SOL    HW237074   1.843   2.824  14.351  1.9979  1.0515  0.3886
 8539SOL     OW37075   1.150   4.526  16.169  0.2250 -0.4817 -0.3923
 8539SOL    HW137076   1.136   4.591  16.100 -0.7192  0.8007  0.9975
 8539SOL    HW237077   1.243   4.536  16.191  0.1886  0.4680 -0.6693
 8540SOL     OW37078   1.118   0.416   1.771 -0.0695 -0.4366 -0.2080
 8540SOL    HW137079   1.040   0.461   1.803 -0.8648 -1.6388 -0.4920
 8540SOL    HW237080   1.121   0.431   1.676 -1.2595 -2.5652 -0.5741
 8541SOL     OW37081   2.063   4.351  15.401  0.3533  0.4768 -0.2741
 8541SOL    HW137082   2.006   4.357  15.324  0.1463 -1.3764 -0.2573
 8541SOL    HW237083   2.011   4.290  15.454  2.4982 -1.0826  0.0064
 8542SOL     OW37084   0.754   4.171   5.970  0.0676  0.0793  0.8858
 8542SOL    HW137085   0.775   4.080   5.991 -0.0350  0.1655  1.3732
 8542SOL    HW237086   0.841   4.207   5.949  0.0806 -0.6939 -0.3857
 8543SOL     OW37087   3.938   3.211   3.736 -0.5733  0.4594  0.4855
 8543SOL    HW137088   3.986   3.194   3.818  0.4277  0.1072 -0.1718
 8543SOL    HW237089   3.895   3.130   3.712 -1.1439  0.8734  0.1276
 8544SOL     OW37090   1.621   4.290   3.014  0.8033  0.6989  0.0725
 8544SOL    HW137091   1.655   4.245   2.937 -4.0942  2.1847 -2.9859
 8544SOL    HW237092   1.530   4.313   2.993  0.3081 -0.8852  0.4274
 8545SOL     OW37093   3.066   4.604   3.628 -0.6374 -0.0857  0.0817
 8545SOL    HW137094   3.065   4.613   3.533 -1.4457  1.4856  0.2296
 8545SOL    HW237095   3.147   4.645   3.659  0.6903 -2.0606 -0.7955
 8546SOL     OW37096   3.845   3.929  17.290  0.3997  0.4114  0.0118
 8546SOL    HW137097   3.843   3.883  17.374 -0.0743  1.5826  0.6361
 8546SOL    HW237098   3.899   4.006  17.305 -1.9108  2.2640 -1.2747
 8547SOL     OW37099   4.210   3.656   6.542 -0.1216 -0.1527  0.4877
 8547SOL    HW137100   4.214   3.567   6.507 -0.9011  0.6795 -1.7264
 8547SOL    HW237101   4.183   3.646   6.633 -3.2788  1.5090 -0.2609
 8548SOL     OW37102   2.438   3.347   2.106 -0.0813 -0.0751  0.4620
 8548SOL    HW137103   2.449   3.290   2.183 -0.3110 -1.3920 -0.4764
 8548SOL    HW237104   2.526   3.334   2.070 -0.3743  0.8651 -0.5767
 8549SOL     OW37105   3.763   3.148   5.400  0.1515 -0.6236 -0.3899
 8549SOL    HW137106   3.774   3.229   5.350  1.9077 -1.4996 -1.4417
 8549SOL    HW237107   3.838   3.156   5.459 -0.4833 -0.1063  0.3512
 8550SOL     OW37108   4.555   2.080  10.472 -0.0171 -0.4639 -0.0046
 8550SOL    HW137109   4.505   2.109  10.548 -0.7762 -0.6148 -0.4499
 8550SOL    HW237110   4.503   2.125  10.407  1.2092  0.7604 -0.1295
 8551SOL     OW37111   3.780   1.597   7.394 -0.3734  0.1132  0.3009
 8551SOL    HW137112   3.823   1.619   7.477  0.8326 -1.1566  0.0135
 8551SOL    HW237113   3.726   1.521   7.415 -2.4572  0.7377 -2.9409
 8552SOL     OW37114   1.614   2.672   4.930 -0.2187  0.1914  0.0724
 8552SOL    HW137115   1.709   2.659   4.932 -0.5871 -2.4253  0.1353
 8552SOL    HW237116   1.592   2.695   5.020  2.2412 -0.7851  0.9158
 8553SOL     OW37117   1.178   3.787   7.763  0.4035 -0.4768 -0.2190
 8553SOL    HW137118   1.268   3.776   7.796  0.3682  2.1651  0.7392
 8553SOL    HW237119   1.165   3.881   7.774  0.4372 -0.4845 -0.1140
 8554SOL     OW37120   1.786   4.233   3.721  0.5159  0.2553  0.2447
 8554SOL    HW137121   1.721   4.295   3.688  1.8963 -0.0817 -3.1447
 8554SOL    HW237122   1.828   4.206   3.639 -1.1672  1.0644 -0.8732
 8555SOL     OW37123   2.735   0.315  12.635 -0.3167  0.1632 -0.4736
 8555SOL    HW137124   2.689   0.269  12.705  1.6013 -0.7311  0.2209
 8555SOL    HW237125   2.813   0.341  12.685  0.4067 -0.4919 -1.2717
 8556SOL     OW37126   4.258   1.459   0.778 -0.0110 -0.1150  0.1162
 8556SOL    HW137127   4.314   1.492   0.849  2.2837 -1.8051 -0.9358
 8556SOL    HW237128   4.243   1.370   0.808 -0.9189  0.1666  0.5133
 8557SOL     OW37129   2.026   0.026  17.130  0.0682  0.5086 -0.2163
 8557SOL    HW137130   1.942   0.030  17.175 -0.6556  0.1350 -1.5140
 8557SOL    HW237131   2.082   0.088  17.176  2.9962 -3.2668  1.3525
 8558SOL     OW37132   0.348   4.685   9.464  0.1154 -0.5855  0.2761
 8558SOL    HW137133   0.342   4.594   9.434 -0.5432  0.4300 -2.6281
 8558SOL    HW237134   0.395   4.699   9.546 -0.9930  1.5916  0.5463
 8559SOL     OW37135   2.165   3.016  10.520 -0.3507  0.6815 -0.4968
 8559SOL    HW137136   2.124   3.021  10.434 -0.2115 -0.4993 -0.6277
 8559SOL    HW237137   2.135   3.100  10.554 -0.9344 -0.7209  2.4168
 8560SOL     OW37138   2.266   1.313   3.895 -0.5194 -0.0305  0.1980
 8560SOL    HW137139   2.308   1.227   3.894 -1.3845 -0.3901 -2.6159
 8560SOL    HW237140   2.340   1.368   3.922  0.5011 -1.2222 -0.1606
 8561SOL     OW37141   0.181   4.651   1.584 -0.3197 -0.1361 -0.3480
 8561SOL    HW137142   0.219   4.701   1.657  0.3737 -0.8468 -0.2242
 8561SOL    HW237143   0.126   4.584   1.625 -1.2025  1.6007  1.3177
 8562SOL     OW37144   0.000   2.043  13.403  0.3479  0.0160 -0.3816
 8562SOL    HW137145   4.652   2.108  13.384 -0.2562 -1.0172 -1.7230
 8562SOL    HW237146   0.056   2.081  13.471 -0.2895 -0.9495  0.6898
 8563SOL     OW37147   3.538   0.778   0.035 -0.2770 -0.1014 -0.6119
 8563SOL    HW137148   3.556   0.833  17.639  2.8881  0.7273  0.7054
 8563SOL    HW237149   3.602   0.804   0.102 -1.6509 -0.2176  0.7278
 8564SOL     OW37150   2.878   1.272   5.359 -0.0287  0.2100 -0.2956
 8564SOL    HW137151   2.892   1.365   5.378  0.3161 -0.0201  0.5493
 8564SOL    HW237152   2.811   1.239   5.419  0.1928  0.2459 -0.0297
 8565SOL     OW37153   0.892   3.942   9.701  0.4269 -0.4795 -0.5363
 8565SOL    HW137154   0.954   4.012   9.723 -1.0514  1.2862 -2.0157
 8565SOL    HW237155   0.837   3.942   9.780 -0.6221 -2.1735 -1.2607
 8566SOL     OW37156   2.547   4.381   5.272  0.2118  0.1919  0.0995
 8566SOL    HW137157   2.493   4.327   5.214 -0.3092  1.4460 -0.5906
 8566SOL    HW237158   2.613   4.313   5.279  0.3566  0.1945 -1.3288
 8567SOL     OW37159   1.301   4.244  12.289 -0.2115  0.2208  0.3044
 8567SOL    HW137160   1.267   4.243  12.199 -1.7240  1.3993  0.8724
 8567SOL    HW237161   1.350   4.162  12.291 -0.2806  0.1383 -0.9595
 8568SOL     OW37162   4.538   1.053   8.038  0.6530  0.4180  0.4356
 8568SOL    HW137163   4.608   1.061   7.974 -0.1073  0.2380 -0.4245
 8568SOL    HW237164   4.565   1.110   8.110 -0.7068  2.9776 -1.0620
 8569SOL     OW37165   2.999   3.290   3.566  0.1928  0.1816  0.0722
 8569SOL    HW137166   3.035   3.357   3.508  0.2374  0.6600  0.6568
 8569SOL    HW237167   2.929   3.330   3.617  0.6192 -0.1900  0.9546
 8570SOL     OW37168   3.925   4.062   0.036  0.3770  0.0480  0.8699
 8570SOL    HW137169   3.971   4.140   0.066 -1.6607  1.6220 -0.1192
 8570SOL    HW237170   3.969   3.995   0.088  3.0450  2.0294  1.1318
 8571SOL     OW37171   0.054   2.515   2.745 -0.2675  0.0578  0.1170
 8571SOL    HW137172   4.713   2.576   2.785  0.9109  2.5905 -1.9905
 8571SOL    HW237173   0.139   2.543   2.779  0.7357 -0.1426 -2.1507
 8572SOL     OW37174   2.344   0.327   5.068 -0.2737  0.0180 -0.8741
 8572SOL    HW137175   2.314   0.337   4.978 -0.5655  0.0177 -0.7769
 8572SOL    HW237176   2.412   0.392   5.089 -0.4131 -0.0395 -0.2351
 8573SOL     OW37177   3.879   4.052  11.234 -0.3250 -0.3108 -0.7841
 8573SOL    HW137178   3.794   4.093  11.252  1.1102  2.2036  0.2435
 8573SOL    HW237179   3.850   3.964  11.209  1.4274 -1.5699  1.6776
 8574SOL     OW37180   1.217   3.898   2.906 -0.1411  0.0765  0.1004
 8574SOL    HW137181   1.162   3.971   2.881  0.1392  0.6048  1.0075
 8574SOL    HW237182   1.299   3.925   2.865  0.2213  0.5013  1.0843
 8575SOL     OW37183   2.822   0.278  14.555 -0.4193 -0.1415  0.0234
 8575SOL    HW137184   2.876   0.273  14.476  0.1386  1.8914  0.2800
 8575SOL    HW237185   2.811   0.185  14.575  0.9065 -0.0063  1.4215
 8576SOL     OW37186   1.504   3.660   2.797 -0.5474  0.6801  0.5679
 8576SOL    HW137187   1.503   3.715   2.719 -2.5268 -0.0180  0.0866
 8576SOL    HW237188   1.489   3.577   2.751  1.2546 -0.0903  1.3748
 8577SOL     OW37189   4.340   0.413   5.740 -0.4574  0.0592 -0.3495
 8577SOL    HW137190   4.250   0.404   5.773 -0.8102 -0.8278 -1.5555
 8577SOL    HW237191   4.323   0.362   5.660  1.1310 -0.6853 -0.2105
 8578SOL     OW37192   1.618   0.427   5.006 -0.0823 -0.1956  0.1017
 8578SOL    HW137193   1.549   0.397   5.065  0.4276 -1.8787 -0.1529
 8578SOL    HW237194   1.626   0.361   4.938 -0.4387  0.5333 -0.6575
 8579SOL     OW37195   0.308   3.586   1.592 -0.4150  0.5771  0.1885
 8579SOL    HW137196   0.364   3.553   1.521 -0.5971 -1.3857  0.9438
 8579SOL    HW237197   0.336   3.677   1.584 -1.1540  0.7120 -0.8171
 8580SOL     OW37198   1.082   4.163   2.974 -0.6166  0.0338  0.0912
 8580SOL    HW137199   1.028   4.238   2.999  1.4129  1.6694 -0.4146
 8580SOL    HW237200   1.044   4.101   3.036  0.2796 -0.2485  0.3535
 8581SOL     OW37201   0.794   4.451   0.780  0.3568  0.5423  0.0441
 8581SOL    HW137202   0.755   4.424   0.697  2.8769  1.1735 -1.3647
 8581SOL    HW237203   0.849   4.523   0.750 -0.9466  0.5710 -2.2637
 8582SOL     OW37204   2.904   0.450   3.217  0.0451  0.2119 -0.2876
 8582SOL    HW137205   2.975   0.390   3.238  0.0488  0.4049  0.2686
 8582SOL    HW237206   2.837   0.382   3.216 -0.0366  0.2689  1.3918
 8583SOL     OW37207   1.129   2.929   1.474 -0.2778  0.3653  0.1508
 8583SOL    HW137208   1.146   2.842   1.511  1.4313  0.7342  0.2225
 8583SOL    HW237209   1.166   2.976   1.549  0.1414 -1.4903  1.1125
 8584SOL     OW37210   3.879   3.987   1.440 -0.3369  0.5301  0.1811
 8584SOL    HW137211   3.835   3.975   1.524 -0.2029 -0.5735  0.0925
 8584SOL    HW237212   3.821   3.938   1.382 -0.1637  1.3568 -0.7037
 8585SOL     OW37213   3.139   1.984   5.042  0.2102  0.0106 -0.1732
 8585SOL    HW137214   3.072   1.934   5.088 -1.3696  0.8944 -1.5382
 8585SOL    HW237215   3.219   1.967   5.093 -0.4540 -0.0422  0.8353
 8586SOL     OW37216   3.413   2.709   6.465  0.7476 -0.1208 -0.1764
 8586SOL    HW137217   3.477   2.659   6.413  2.5828  2.4552 -0.3937
 8586SOL    HW237218   3.466   2.758   6.529 -0.5075  1.8592 -0.6684
 8587SOL     OW37219   0.122   1.144   3.271  0.1298 -0.0311  0.5265
 8587SOL    HW137220   0.206   1.107   3.298  0.4070 -0.6005 -1.1003
 8587SOL    HW237221   0.102   1.080   3.203 -0.4315  1.1822 -0.4432
 8588SOL     OW37222   0.117   0.687   3.400 -0.7288 -0.0239  0.2339
 8588SOL    HW137223   0.178   0.745   3.446  0.1214  0.8526 -1.9801
 8588SOL    HW237224   0.164   0.666   3.319  0.3404  0.7395  0.6525
 8589SOL     OW37225   3.776   2.453   9.161 -0.0576  0.1770  0.0626
 8589SOL    HW137226   3.751   2.369   9.201 -0.4021  0.2908  0.0821
 8589SOL    HW237227   3.866   2.450   9.192 -1.0119 -0.4085  2.7907
 8590SOL     OW37228   4.541   3.928   3.340 -0.3955 -0.0967 -0.4093
 8590SOL    HW137229   4.501   3.927   3.427 -0.7205  2.3956 -0.5180
 8590SOL    HW237230   4.574   3.839   3.352 -0.8910 -0.3594 -0.9793
 8591SOL     OW37231   0.986   4.314  12.129  0.3990 -0.2589 -0.0051
 8591SOL    HW137232   0.904   4.287  12.170 -0.3872  1.8446 -0.1909
 8591SOL    HW237233   1.023   4.366  12.200  1.1420  0.5921 -0.9989
 8592SOL     OW37234   4.705   0.790   8.378  0.0950  0.0347 -0.0318
 8592SOL    HW137235   4.623   0.834   8.397 -0.4314 -0.2372 -1.7081
 8592SOL    HW237236   4.673   0.703   8.353  1.8034  0.1381 -2.5903
 8593SOL     OW37237   2.289   1.326   5.520  0.1068 -0.1962 -0.3956
 8593SOL    HW137238   2.309   1.307   5.612  0.6929  1.9824 -0.0826
 8593SOL    HW237239   2.259   1.237   5.498 -0.1277 -0.5783  1.4220
 8594SOL     OW37240   1.529   4.236   8.572 -0.1781  0.5456 -0.5519
 8594SOL    HW137241   1.605   4.183   8.595 -0.8566 -0.9145 -1.7276
 8594SOL    HW237242   1.484   4.230   8.656 -1.8264  0.2099 -1.4820
 8595SOL     OW37243   4.128   3.670   3.662  0.4982  0.3039  0.0946
 8595SOL    HW137244   4.038   3.680   3.632 -0.7134 -0.6051  3.4645
 8595SOL    HW237245   4.108   3.625   3.744 -0.3232 -2.4889 -1.6071
 8596SOL     OW37246   4.268   3.956  13.353 -0.4619  0.2905  0.3028
 8596SOL    HW137247   4.333   3.974  13.421 -1.7345  1.5208  1.2045
 8596SOL    HW237248   4.323   3.894  13.305  1.5537  2.2706  0.0376
 8597SOL     OW37249   1.598   3.588   7.525  0.2273 -0.2410 -0.5444
 8597SOL    HW137250   1.555   3.574   7.610  1.1263 -1.5567 -0.3176
 8597SOL    HW237251   1.522   3.586   7.466 -0.9765 -3.1048  1.0820
 8598SOL     OW37252   4.094   3.732   5.211 -0.4214 -0.3495  0.2853
 8598SOL    HW137253   4.069   3.641   5.200  1.2197 -0.9012  1.0818
 8598SOL    HW237254   4.006   3.768   5.214  1.0392  3.1806  1.3131
 8599SOL     OW37255   3.306   1.593   7.251  0.3765 -0.0399  0.2739
 8599SOL    HW137256   3.368   1.629   7.315  1.9815  0.5853 -1.6523
 8599SOL    HW237257   3.223   1.633   7.278  0.9163  0.5590  1.0686
 8600SOL     OW37258   2.458   4.433  11.930 -0.5335  0.0793 -0.3278
 8600SOL    HW137259   2.537   4.487  11.926 -0.1773 -0.2367  1.8732
 8600SOL    HW237260   2.483   4.372  12.000 -0.8696  0.7192  0.3467
 8601SOL     OW37261   2.856   2.859   2.839  0.5372 -0.5420  0.2378
 8601SOL    HW137262   2.917   2.933   2.837  1.4907 -1.3524 -0.4786
 8601SOL    HW237263   2.912   2.782   2.835  0.6113 -0.4609 -0.2612
 8602SOL     OW37264   3.418   4.486  16.951 -0.3054 -0.0813 -0.0426
 8602SOL    HW137265   3.462   4.437  17.021 -0.3153 -1.7324 -1.1998
 8602SOL    HW237266   3.354   4.539  16.999  1.6500 -0.2518  2.7570
 8603SOL     OW37267   0.553   2.224   5.636  0.0432 -0.1885 -0.0437
 8603SOL    HW137268   0.575   2.220   5.543 -1.0044  0.3084 -0.3036
 8603SOL    HW237269   0.559   2.318   5.655  1.8671 -0.5287  1.0947
 8604SOL     OW37270   0.952   3.121   5.587 -0.2832 -0.0974  0.5993
 8604SOL    HW137271   0.958   3.196   5.527  3.4966 -0.5462  0.4248
 8604SOL    HW237272   1.035   3.075   5.578 -0.6447 -0.7871  0.8478
 8605SOL     OW37273   3.269   4.626  17.182 -0.2590  0.0823 -0.2216
 8605SOL    HW137274   3.359   4.646  17.206 -0.4712  0.0907  0.5682
 8605SOL    HW237275   3.255   4.660  17.093 -0.0493  2.7883  0.7742
 8606SOL     OW37276   3.170   0.025   2.962 -0.2233 -0.7274 -0.1413
 8606SOL    HW137277   3.185   4.687   3.037 -0.7859 -0.8911 -0.1595
 8606SOL    HW237278   3.188   4.689   2.886  1.1936 -1.1188  0.4661
 8607SOL     OW37279   0.941   0.845   5.801 -0.4380  0.3155 -0.5082
 8607SOL    HW137280   0.889   0.923   5.782 -1.9076 -0.6149 -0.3009
 8607SOL    HW237281   1.027   0.886   5.798 -0.1956 -0.1048  0.7340
 8608SOL     OW37282   3.677   2.835   2.214  0.1523 -0.1198  0.4459
 8608SOL    HW137283   3.680   2.798   2.302  2.6523 -0.3811  0.2596
 8608SOL    HW237284   3.693   2.752   2.169  0.7045  0.0037  0.4149
 8609SOL     OW37285   2.261   2.509   5.245  0.0090 -0.2755  0.3038
 8609SOL    HW137286   2.346   2.552   5.257  0.0127  0.4681 -2.5358
 8609SOL    HW237287   2.211   2.571   5.191  1.4818  1.5127  0.9935
 8610SOL     OW37288   1.376   2.693   2.645 -0.4381  0.1512 -0.0688
 8610SOL    HW137289   1.414   2.607   2.665 -0.2653 -0.1086 -1.5414
 8610SOL    HW237290   1.386   2.704   2.551 -0.5441  0.4662 -0.0442
 8611SOL     OW37291   3.182   4.634   0.893  0.4661  0.2632 -0.0012
 8611SOL    HW137292   3.260   4.581   0.908  1.8875  2.4467  0.3251
 8611SOL    HW237293   3.148   4.643   0.982  1.4717  0.5668  0.3501
 8612SOL     OW37294   3.798   4.350   7.795 -0.3822 -0.2858  0.4589
 8612SOL    HW137295   3.890   4.377   7.791 -0.4981  0.1703  0.9257
 8612SOL    HW237296   3.796   4.335   7.889 -0.1259  0.4116  0.5752
 8613SOL     OW37297   3.330   0.076  12.632 -0.1552  0.2948  0.1723
 8613SOL    HW137298   3.273   0.049  12.559 -2.2584 -0.2499  1.9983
 8613SOL    HW237299   3.327   0.170  12.614 -1.0719 -0.2462 -2.5274
 8614SOL     OW37300   0.703   3.405   8.960  0.3392 -0.6371 -0.2088
 8614SOL    HW137301   0.660   3.320   8.955 -0.5397 -0.2456  0.7126
 8614SOL    HW237302   0.662   3.428   9.043  1.6966  0.7444  0.0748
 8615SOL     OW37303   3.636   1.544   6.468 -0.0438  0.5170  0.5546
 8615SOL    HW137304   3.656   1.603   6.541  0.1809  1.6314 -0.4106
 8615SOL    HW237305   3.634   1.454   6.502  0.8466  0.9475  1.7631
 8616SOL     OW37306   4.073   1.794   1.845 -0.3377 -0.4385 -0.4954
 8616SOL    HW137307   4.118   1.854   1.786 -0.9372 -0.6425 -1.1688
 8616SOL    HW237308   4.135   1.780   1.916 -0.8812 -2.2991 -0.3713
 8617SOL     OW37309   0.355   1.526   6.183 -0.0979 -0.0922 -0.0472
 8617SOL    HW137310   0.392   1.566   6.261 -4.7478  0.8889  1.6720
 8617SOL    HW237311   0.432   1.500   6.133  0.0682  0.0300  0.1469
 8618SOL     OW37312   2.001   0.704  14.432  0.0024 -0.0031  0.0893
 8618SOL    HW137313   1.957   0.746  14.505  0.5610  1.4675 -0.4311
 8618SOL    HW237314   1.995   0.613  14.461  2.2556 -0.2492 -0.2199
 8619SOL     OW37315   4.433   3.986  13.613 -0.5849 -0.1362  0.4244
 8619SOL    HW137316   4.356   4.027  13.652  0.3791  1.6707  0.4464
 8619SOL    HW237317   4.496   4.059  13.620 -0.1515 -0.4778  0.0995
 8620SOL     OW37318   3.105   4.221   5.846  0.2033 -0.2241 -0.2936
 8620SOL    HW137319   3.114   4.264   5.761 -1.1775  2.4118  0.8788
 8620SOL    HW237320   3.013   4.195   5.835 -0.1509  0.6325  0.5628
 8621SOL     OW37321   0.605   2.932   8.305 -0.1945 -0.0630 -0.4944
 8621SOL    HW137322   0.564   2.863   8.357 -0.7377  1.1821  0.7187
 8621SOL    HW237323   0.661   2.877   8.250 -1.1212 -1.2607 -0.2245
 8622SOL     OW37324   2.200   2.742   2.390 -0.6499  0.2243 -0.1565
 8622SOL    HW137325   2.186   2.784   2.305 -1.1113  1.1486  0.3654
 8622SOL    HW237326   2.270   2.684   2.361  1.3253  1.4185  2.1268
 8623SOL     OW37327   4.611   2.401   4.377 -0.0130  0.5776  0.0908
 8623SOL    HW137328   4.695   2.405   4.424  0.0651  1.4676 -0.1407
 8623SOL    HW237329   4.597   2.307   4.390 -1.4485  0.7401 -0.3765
 8624SOL     OW37330   2.470   1.335   5.321  0.3991  0.3599  0.3087
 8624SOL    HW137331   2.389   1.360   5.366 -0.7731 -0.0588 -1.5673
 8624SOL    HW237332   2.520   1.319   5.401  2.3602  0.7841 -0.8273
 8625SOL     OW37333   3.877   2.879   6.668 -0.2101 -0.4793  0.5492
 8625SOL    HW137334   3.923   2.936   6.606  0.7613 -0.4245  1.3145
 8625SOL    HW237335   3.947   2.867   6.732  0.3973 -3.3785 -0.6334
 8626SOL     OW37336   3.424   1.899  15.766 -0.4809 -0.0582 -0.7427
 8626SOL    HW137337   3.432   1.977  15.711 -0.0542 -0.3494 -1.0921
 8626SOL    HW237338   3.419   1.943  15.851 -0.0623  0.2737 -0.8893
 8627SOL     OW37339   4.527   2.412   6.545 -0.4605  0.1682 -0.6858
 8627SOL    HW137340   4.614   2.374   6.557 -1.4671 -2.2458 -1.0924
 8627SOL    HW237341   4.483   2.377   6.622 -1.1476 -0.9747 -1.6052
 8628SOL     OW37342   1.501   0.646  16.177  0.3310  0.3364 -0.0413
 8628SOL    HW137343   1.468   0.590  16.247 -1.3192  0.5632 -0.6458
 8628SOL    HW237344   1.468   0.727  16.215  0.0871  0.5597 -0.7304
 8629SOL     OW37345   3.068   3.414   7.887 -0.2292  0.0267  0.1773
 8629SOL    HW137346   3.100   3.468   7.814  0.9036  0.9507  1.3633
 8629SOL    HW237347   2.982   3.404   7.845 -1.1236  2.4468  1.4243
 8630SOL     OW37348   1.020   0.268  16.422 -0.5202  0.0215 -0.3477
 8630SOL    HW137349   1.025   0.351  16.470 -1.2893 -1.1325  1.6935
 8630SOL    HW237350   0.989   0.213  16.493  0.0908  1.0606  0.7279
 8631SOL     OW37351   0.943   3.379  13.575  0.4932  0.0809  0.0503
 8631SOL    HW137352   1.035   3.400  13.591  0.7233 -0.3260 -0.7217
 8631SOL    HW237353   0.904   3.466  13.586  0.1942  0.0232 -0.5191
 8632SOL     OW37354   0.593   1.605   1.578  0.4417  0.0705  0.3633
 8632SOL    HW137355   0.671   1.657   1.558 -0.4633  1.7697  1.2493
 8632SOL    HW237356   0.594   1.610   1.673  3.8668 -2.3805  0.4630
 8633SOL     OW37357   2.700   2.512   4.388 -0.2938  0.1980 -0.1836
 8633SOL    HW137358   2.685   2.483   4.478 -0.7966  0.7892 -0.0695
 8633SOL    HW237359   2.722   2.605   4.391  2.2676 -0.5037  2.1496
 8634SOL     OW37360   2.724   0.533   6.109 -0.9946  0.1803 -0.1152
 8634SOL    HW137361   2.636   0.517   6.143 -0.0082 -1.9506  1.3842
 8634SOL    HW237362   2.709   0.568   6.021 -3.0980  2.1665  1.0208
 8635SOL     OW37363   0.525   1.735   8.942 -0.5703  0.0094 -0.2117
 8635SOL    HW137364   0.443   1.755   8.899 -0.4679 -0.7190 -0.7581
 8635SOL    HW237365   0.535   1.810   9.001  2.1841  1.3142 -2.3515
 8636SOL     OW37366   0.107   4.247   9.216 -0.0584 -0.1698  0.2618
 8636SOL    HW137367   0.070   4.246   9.304 -2.0564  1.8786 -0.5403
 8636SOL    HW237368   0.181   4.189   9.231  0.3319  0.0224 -0.8877
 8637SOL     OW37369   0.043   1.822  10.935 -0.2301 -0.1695 -0.0223
 8637SOL    HW137370   0.085   1.819  10.849  0.6481 -0.1945  0.4158
 8637SOL    HW237371   4.674   1.787  10.919  0.4622 -2.0741  0.3487
 8638SOL     OW37372   1.351   2.016   0.915 -0.1754 -0.4667  0.1934
 8638SOL    HW137373   1.395   1.940   0.876  2.3983  1.4451 -0.6049
 8638SOL    HW237374   1.326   1.985   1.002 -0.8497 -0.8755 -0.1511
 8639SOL     OW37375   1.079   2.573  16.807 -0.0113  0.0895 -0.1065
 8639SOL    HW137376   1.153   2.576  16.745  0.5144  0.6478  0.5432
 8639SOL    HW237377   1.123   2.515  16.869 -1.7079 -1.0666 -0.0054
 8640SOL     OW37378   3.364   2.781   1.264 -0.3559  0.3448 -0.3364
 8640SOL    HW137379   3.406   2.730   1.194  1.1515  0.6587  0.3556
 8640SOL    HW237380   3.295   2.721   1.294  1.8699 -1.9173  0.2435
 8641SOL     OW37381   2.140   0.232  15.059  0.3558 -0.3911  0.5864
 8641SOL    HW137382   2.222   0.197  15.025  0.7469  2.3227 -1.2425
 8641SOL    HW237383   2.167   0.287  15.131  1.5378 -0.7226  0.3960
 8642SOL     OW37384   2.787   1.126  17.161 -0.3059  0.0048 -0.4646
 8642SOL    HW137385   2.739   1.062  17.109 -1.1559  2.6244 -2.8783
 8642SOL    HW237386   2.726   1.145  17.232 -1.5730 -0.3768 -1.4494
 8643SOL     OW37387   1.971   1.489   3.458 -0.4559  0.2411  0.2170
 8643SOL    HW137388   1.999   1.421   3.397 -0.2205 -0.2247  0.8523
 8643SOL    HW237389   2.017   1.565   3.422  0.1658 -0.4261 -0.3818
 8644SOL     OW37390   0.350   1.293   6.987  0.1073  0.2503  0.6929
 8644SOL    HW137391   0.385   1.372   7.028  1.1188 -0.2353  0.7522
 8644SOL    HW237392   0.273   1.297   7.043 -0.7312  0.7712 -0.4929
 8645SOL     OW37393   3.311   1.458   3.713  0.2727 -0.0028  0.4903
 8645SOL    HW137394   3.273   1.504   3.638  0.6142  0.0558  0.3551
 8645SOL    HW237395   3.270   1.501   3.788  1.8406 -0.0490  1.3791
 8646SOL     OW37396   4.106   2.077  11.933 -0.1709  0.7573 -0.1045
 8646SOL    HW137397   4.113   1.990  11.973  2.2663  1.7074  1.5205
 8646SOL    HW237398   4.194   2.109  11.953  0.6081 -2.2964  1.3981
 8647SOL     OW37399   2.316   2.057   8.797  0.1668  0.4800  0.2210
 8647SOL    HW137400   2.329   1.989   8.863  0.2587 -0.9883 -1.3276
 8647SOL    HW237401   2.386   2.036   8.735  0.6654 -0.2664  1.0276
 8648SOL     OW37402   0.726   4.067  10.902 -0.4268  0.2433  0.3159
 8648SOL    HW137403   0.758   3.994  10.955  1.0986  1.1513  0.6539
 8648SOL    HW237404   0.658   4.095  10.963 -2.1820 -0.0751 -1.4991
 8649SOL     OW37405   0.081   0.246   3.973  0.6060  0.2037  0.5869
 8649SOL    HW137406   0.142   0.319   3.965  1.0968 -0.2970 -0.2544
 8649SOL    HW237407   0.132   0.184   3.922  0.1200 -0.4071  0.8398
 8650SOL     OW37408   4.417   2.294   6.761  0.6201 -0.2339 -0.1503
 8650SOL    HW137409   4.336   2.247   6.781  0.8768 -0.8456 -0.5462
 8650SOL    HW237410   4.472   2.248   6.824 -1.4029 -0.5563  1.4027
 8651SOL     OW37411   0.458   2.457   8.915  0.0242 -0.3794  0.5412
 8651SOL    HW137412   0.459   2.436   9.009 -0.4869  0.4729  0.7314
 8651SOL    HW237413   0.374   2.426   8.881 -0.9789  2.8460  0.0768
 8652SOL     OW37414   0.338   3.786   2.721  0.0265 -0.5757  0.0146
 8652SOL    HW137415   0.404   3.744   2.777 -0.6912  0.3797  1.6001
 8652SOL    HW237416   0.385   3.795   2.638  0.6003  0.4835  0.4560
 8653SOL     OW37417   1.007   1.151   2.519 -0.0504 -0.0177 -0.1550
 8653SOL    HW137418   1.033   1.193   2.437 -0.7460  0.8419  0.0611
 8653SOL    HW237419   1.078   1.089   2.532 -0.0548  0.2285  1.0628
 8654SOL     OW37420   1.747   2.959   5.985  0.6246 -0.1830 -0.0378
 8654SOL    HW137421   1.835   2.979   6.017  0.2816 -0.8186  1.2981
 8654SOL    HW237422   1.710   3.040   6.017 -1.7875 -0.2473 -2.6660
 8655SOL     OW37423   2.260   0.481  14.536 -0.1325 -0.0072  0.3310
 8655SOL    HW137424   2.280   0.418  14.467  1.1040  0.9372 -0.1703
 8655SOL    HW237425   2.165   0.469  14.529  0.0433 -1.2477  0.1007
 8656SOL     OW37426   4.255   2.775   2.767  0.1542 -0.4226  0.4479
 8656SOL    HW137427   4.197   2.827   2.712 -0.2371 -0.8424  0.4587
 8656SOL    HW237428   4.241   2.687   2.732 -0.5483  0.0992 -0.5750
 8657SOL     OW37429   3.785   0.139   8.953  0.1418  0.3734  0.5354
 8657SOL    HW137430   3.765   0.073   8.886  0.2112 -1.6489  2.5130
 8657SOL    HW237431   3.786   0.086   9.032 -0.5336  0.8304  0.8448
 8658SOL     OW37432   3.709   4.298   2.424  0.1203 -0.0989 -0.4523
 8658SOL    HW137433   3.709   4.362   2.353  2.3319 -0.3574 -0.6806
 8658SOL    HW237434   3.791   4.256   2.399 -0.5701 -1.1430 -0.9975
 8659SOL     OW37435   2.044   4.165   3.119 -0.0075  0.4746 -0.1627
 8659SOL    HW137436   2.027   4.247   3.166 -0.3485  0.4217 -0.1997
 8659SOL    HW237437   1.954   4.146   3.096 -0.1416 -0.4783  1.1379
 8660SOL     OW37438   2.150   3.351  11.837 -0.1544  0.5785  0.3057
 8660SOL    HW137439   2.203   3.409  11.783  0.2207  0.3292  0.4023
 8660SOL    HW237440   2.086   3.410  11.876  0.6139  2.1824 -0.8523
 8661SOL     OW37441   3.852   2.021   9.177 -0.1341  0.0551  0.2438
 8661SOL    HW137442   3.894   2.087   9.122 -0.8040 -2.1593 -2.9166
 8661SOL    HW237443   3.787   2.076   9.221 -0.7606 -1.6160  1.3986
 8662SOL     OW37444   0.637   3.118  11.954 -0.1734 -0.2958 -0.3266
 8662SOL    HW137445   0.662   3.025  11.959  1.6236  0.1723 -0.8236
 8662SOL    HW237446   0.568   3.129  12.020  0.8827 -1.7313  1.0235
 8663SOL     OW37447   4.331   2.334   0.088 -0.3616  0.2201 -0.3017
 8663SOL    HW137448   4.278   2.358   0.012 -3.0454 -1.2706  1.0710
 8663SOL    HW237449   4.397   2.402   0.083 -0.5400  0.4957  0.9470
 8664SOL     OW37450   1.393   1.150   8.607 -0.0373  0.1963  0.2390
 8664SOL    HW137451   1.304   1.152   8.572 -1.0013  0.1752  2.6413
 8664SOL    HW237452   1.419   1.068   8.566 -2.3287 -0.6032  0.3802
 8665SOL     OW37453   2.784   4.582  10.611 -0.0105 -0.0887  0.2846
 8665SOL    HW137454   2.860   4.530  10.586 -1.8731 -2.3640 -0.5805
 8665SOL    HW237455   2.815   4.615  10.696  0.0304  0.6473 -0.0120
 8666SOL     OW37456   2.421   1.417   8.604  0.3254  0.2609  0.5754
 8666SOL    HW137457   2.349   1.478   8.620 -2.0939 -2.6527  0.7842
 8666SOL    HW237458   2.396   1.351   8.668 -1.7671 -1.0471 -1.5834
 8667SOL     OW37459   3.151   0.872   4.770  0.0397 -0.3449 -0.0987
 8667SOL    HW137460   3.214   0.927   4.817 -0.1640  1.2844 -1.7472
 8667SOL    HW237461   3.104   0.829   4.841 -1.0010 -0.5183 -0.8900
 8668SOL     OW37462   3.865   3.134   4.555 -0.3084 -0.0916  0.4905
 8668SOL    HW137463   3.948   3.091   4.577  0.1237  1.7603  2.3842
 8668SOL    HW237464   3.826   3.064   4.502  1.7950 -1.2200  0.4341
 8669SOL     OW37465   3.122   0.524  13.258 -0.3212  0.3576 -0.0816
 8669SOL    HW137466   3.119   0.613  13.223  1.9021 -0.4067 -2.2813
 8669SOL    HW237467   3.167   0.548  13.339  0.7357 -0.9235 -0.2805
 8670SOL     OW37468   0.112   4.415  10.114  0.1487 -0.0579  0.2390
 8670SOL    HW137469   0.189   4.467  10.094 -0.6113  1.0415  0.1538
 8670SOL    HW237470   0.068   4.459  10.187  1.6556 -0.4308  1.3731
 8671SOL     OW37471   0.125   2.883   4.071 -0.7940  0.1103  0.0421
 8671SOL    HW137472   0.133   2.910   4.162 -0.2711  2.4570 -0.7187
 8671SOL    HW237473   0.215   2.860   4.047  0.5424  2.0274  3.2717
 8672SOL     OW37474   1.294   1.306   5.557  0.6263  0.0431 -0.5829
 8672SOL    HW137475   1.207   1.272   5.539  0.4697  0.4205 -0.5309
 8672SOL    HW237476   1.295   1.395   5.522 -0.3326  0.3613  0.2072
 8673SOL     OW37477   0.708   1.296   2.469  0.3788  0.0081 -0.0809
 8673SOL    HW137478   0.796   1.288   2.504 -0.2365 -0.5999  1.3478
 8673SOL    HW237479   0.712   1.367   2.405 -0.4757 -0.1436 -0.3062
 8674SOL     OW37480   3.647   1.789   3.025 -0.0076  0.0399  0.0255
 8674SOL    HW137481   3.704   1.754   2.958 -0.3199 -1.4174  0.5261
 8674SOL    HW237482   3.578   1.724   3.008 -0.3147  0.7886 -1.5627
 8675SOL     OW37483   0.741   1.453   1.343  0.2203  0.3155  0.4053
 8675SOL    HW137484   0.660   1.501   1.359 -0.3062 -0.0055 -1.3258
 8675SOL    HW237485   0.729   1.427   1.251 -0.1367  0.1683  0.4917
 8676SOL     OW37486   3.104   0.496   6.870 -0.2877 -0.3599  0.1306
 8676SOL    HW137487   3.112   0.479   6.777 -1.4488  1.8101 -0.3885
 8676SOL    HW237488   3.042   0.569   6.863  2.9911  2.3754 -0.3143
 8677SOL     OW37489   1.017   4.478   0.487 -0.1676 -0.8048  0.2956
 8677SOL    HW137490   1.011   4.547   0.553  0.5511  1.0312 -1.5760
 8677SOL    HW237491   0.943   4.429   0.524  0.8751 -1.0037  2.1418
 8678SOL     OW37492   2.823   3.704   3.485  1.0794 -0.2613 -0.0149
 8678SOL    HW137493   2.836   3.653   3.565 -3.8243 -0.0507  0.8986
 8678SOL    HW237494   2.737   3.667   3.466  1.3431 -0.5152 -0.7283
 8679SOL     OW37495   3.708   3.504   6.773 -0.2564  0.0580  0.0207
 8679SOL    HW137496   3.621   3.493   6.733 -0.1340 -1.0701  0.0659
 8679SOL    HW237497   3.701   3.501   6.868 -1.6113 -2.1493 -0.1434
 8680SOL     OW37498   3.018   1.849   4.770  0.0868  0.1742 -0.5720
 8680SOL    HW137499   3.041   1.891   4.853 -1.4445  0.9375 -0.5402
 8680SOL    HW237500   3.059   1.763   4.778 -0.8191 -0.2313 -0.2950
 8681SOL     OW37501   2.986   2.931   6.906  0.6012 -0.5185 -0.3383
 8681SOL    HW137502   2.926   2.899   6.838 -3.0674  2.8154  1.3626
 8681SOL    HW237503   2.978   2.861   6.971  0.0400 -1.6362 -1.5890
 8682SOL     OW37504   1.528   0.787   3.881  0.0531 -0.3829 -0.2221
 8682SOL    HW137505   1.519   0.827   3.967 -1.2506 -1.2962  0.0507
 8682SOL    HW237506   1.436   0.786   3.854 -0.0751  2.3607  0.1449
 8683SOL     OW37507   0.545   1.318  12.085  0.8573  0.4798  0.2993
 8683SOL    HW137508   0.490   1.246  12.115  1.3433  0.1148  0.3068
 8683SOL    HW237509   0.512   1.312  11.995 -1.8266 -0.3246  1.3563
 8684SOL     OW37510   1.478   3.431   2.995  0.5313 -0.6964 -0.0975
 8684SOL    HW137511   1.473   3.477   2.911 -0.0067 -0.8319 -0.1429
 8684SOL    HW237512   1.568   3.452   3.019  1.6672 -2.5733 -2.6683
 8685SOL     OW37513   0.391   3.687   7.011 -0.3543  0.2793  0.2533
 8685SOL    HW137514   0.411   3.673   7.104 -0.0826  0.3209  0.1996
 8685SOL    HW237515   0.359   3.598   6.999 -0.2922  0.2287  0.4680
 8686SOL     OW37516   3.336   0.258   8.941  0.3568  0.2766 -0.5091
 8686SOL    HW137517   3.384   0.176   8.951 -0.0227  0.0182 -0.8183
 8686SOL    HW237518   3.273   0.255   9.013 -0.9174 -1.2030 -1.6700
 8687SOL     OW37519   0.612   0.080  16.886 -0.0319 -0.1245  0.2480
 8687SOL    HW137520   0.548   0.120  16.828  1.2116  0.6392 -0.6012
 8687SOL    HW237521   0.651   0.014  16.828 -1.0701  1.2079 -1.9431
 8688SOL     OW37522   0.180   3.856   3.292  0.8628 -0.1050 -0.2552
 8688SOL    HW137523   0.209   3.915   3.361  0.5843  0.2469 -0.4383
 8688SOL    HW237524   0.111   3.816   3.345  0.7386  0.1458 -0.2284
 8689SOL     OW37525   1.316   3.639   3.280  0.2433 -0.0484  0.4261
 8689SOL    HW137526   1.345   3.681   3.199 -1.4390 -1.0104 -0.6627
 8689SOL    HW237527   1.385   3.665   3.341  0.2057 -0.0386  0.4638
 8690SOL     OW37528   4.409   1.826  12.226  0.2616 -0.2927 -0.6014
 8690SOL    HW137529   4.471   1.861  12.162  3.0565  1.1994  2.9120
 8690SOL    HW237530   4.451   1.849  12.309  0.3051  1.4630 -1.0965
 8691SOL     OW37531   3.973   0.884   3.760  0.3117 -0.2638 -0.5326
 8691SOL    HW137532   4.027   0.824   3.709 -0.1947 -0.9417 -0.2662
 8691SOL    HW237533   4.002   0.869   3.850  1.3648 -0.8739 -0.9659
 8692SOL     OW37534   0.409   3.191  10.394 -0.1491  0.1793 -0.2920
 8692SOL    HW137535   0.481   3.157  10.447 -0.2736  1.8936  0.9761
 8692SOL    HW237536   0.419   3.285  10.408 -1.6901  0.4130 -0.7259
 8693SOL     OW37537   0.067   2.624   1.697  0.7514 -0.9126  0.1273
 8693SOL    HW137538   0.157   2.592   1.702  0.6048 -0.9001  2.9362
 8693SOL    HW237539   0.045   2.628   1.604 -0.6110  2.3448  0.5824
 8694SOL     OW37540   3.153   1.226   6.864 -0.6262  0.1120  0.3226
 8694SOL    HW137541   3.071   1.222   6.814  0.9380 -1.0175 -2.1234
 8694SOL    HW237542   3.216   1.262   6.802 -2.1132  0.8406 -0.7720
 8695SOL     OW37543   0.490   4.415   4.889  0.3245 -0.0149  0.4917
 8695SOL    HW137544   0.496   4.397   4.796  1.2734  0.9871  0.3630
 8695SOL    HW237545   0.400   4.385   4.904 -0.2027  0.9194 -0.8576
 8696SOL     OW37546   3.297   0.016   1.486 -0.4260 -0.1019  0.3917
 8696SOL    HW137547   3.392   0.012   1.483 -0.3450  2.2929  0.1583
 8696SOL    HW237548   3.286   0.098   1.534  1.5723 -1.0343  2.4362
 8697SOL     OW37549   1.046   3.656   3.672  0.0950 -0.6067  0.2496
 8697SOL    HW137550   1.101   3.592   3.627  0.4227  0.5184 -0.9276
 8697SOL    HW237551   0.976   3.641   3.609 -1.4405  0.3508  1.7245
 8698SOL     OW37552   0.138   2.546   3.321  0.0221  0.3449 -0.0136
 8698SOL    HW137553   0.133   2.473   3.260 -1.0991 -0.6307  1.2397
 8698SOL    HW237554   0.233   2.557   3.314  0.2272 -2.0232 -0.9098
 8699SOL     OW37555   2.934   3.846   1.398  0.0594 -0.1113  0.4089
 8699SOL    HW137556   2.987   3.769   1.416  0.9231  0.4381  0.2319
 8699SOL    HW237557   2.988   3.917   1.432  0.2434  0.6302 -1.4514
 8700SOL     OW37558   2.480   4.441   7.719  0.6367 -0.1492  0.4229
 8700SOL    HW137559   2.404   4.492   7.692 -0.2985 -0.1404  3.0467
 8700SOL    HW237560   2.460   4.355   7.683  1.0453  0.0292 -0.2323
 8701SOL     OW37561   0.509   0.394   7.824 -0.2282  0.2835 -0.0315
 8701SOL    HW137562   0.534   0.405   7.915 -0.8505  0.5412  0.1075
 8701SOL    HW237563   0.574   0.441   7.772 -0.2863  0.1384 -0.2348
 8702SOL     OW37564   1.034   1.441   8.570 -0.1185 -0.5374  0.1780
 8702SOL    HW137565   1.107   1.426   8.630  0.5935 -1.3461 -0.8771
 8702SOL    HW237566   1.084   1.456   8.489  0.3068 -2.4485  0.0863
 8703SOL     OW37567   4.330   3.548   2.757 -0.0167 -0.4269  0.0753
 8703SOL    HW137568   4.280   3.476   2.796  1.3686 -0.3986  1.8744
 8703SOL    HW237569   4.272   3.614   2.796  0.5345 -0.1067  0.3575
 8704SOL     OW37570   2.725   4.673   8.960  0.2405  0.4240  0.0482
 8704SOL    HW137571   2.656   4.649   8.898  0.5293  2.7748 -1.1717
 8704SOL    HW237572   2.690   4.617   9.029  1.0370 -0.8419 -0.5681
 8705SOL     OW37573   3.983   0.977   6.795  0.3747  0.6641 -0.1194
 8705SOL    HW137574   4.062   1.026   6.769  0.1042  1.5607  0.7443
 8705SOL    HW237575   3.913   1.043   6.797 -1.8641 -1.6705 -1.1974
 8706SOL     OW37576   3.675   1.784   9.081  0.3396  0.2295  0.2470
 8706SOL    HW137577   3.725   1.854   9.123  0.6433 -0.7367  1.4953
 8706SOL    HW237578   3.651   1.729   9.155  0.2502  0.2583  0.2400
 8707SOL     OW37579   1.599   2.258  12.092 -0.0771  0.5075  0.1840
 8707SOL    HW137580   1.635   2.209  12.166 -1.2317  0.4215  0.6788
 8707SOL    HW237581   1.529   2.198  12.068  1.2082 -0.8734 -0.1351
 8708SOL     OW37582   4.652   2.864   9.418  0.0234  0.0847  0.1458
 8708SOL    HW137583   4.582   2.925   9.393 -0.9124 -1.8132 -1.8672
 8708SOL    HW237584   0.007   2.883   9.362 -0.1409 -3.0112 -1.1325
 8709SOL     OW37585   0.157   1.065  16.226 -0.2159 -0.4432 -0.3005
 8709SOL    HW137586   0.071   1.105  16.234 -0.8965 -1.6078 -1.8153
 8709SOL    HW237587   0.199   1.101  16.304  1.0768 -2.1443 -0.2119
 8710SOL     OW37588   3.094   4.072   2.508 -0.3562 -0.1425  0.0565
 8710SOL    HW137589   3.145   4.076   2.427  1.0948  1.0084  1.0333
 8710SOL    HW237590   3.133   3.995   2.550  0.3846  0.1380 -0.1267
 8711SOL     OW37591   1.463   4.592  11.035 -0.1439 -0.7157  0.1353
 8711SOL    HW137592   1.518   4.638  11.099  0.3781  0.1186 -0.9129
 8711SOL    HW237593   1.449   4.662  10.971 -0.5062 -0.1342  0.8466
 8712SOL     OW37594   3.215   4.221   6.135 -0.7479  0.8957 -0.1903
 8712SOL    HW137595   3.174   4.137   6.152 -1.4077  1.4844  1.1471
 8712SOL    HW237596   3.215   4.213   6.040 -0.2219  1.7018 -0.2621
 8713SOL     OW37597   3.614   1.088  16.691 -0.1887  0.3258  0.3158
 8713SOL    HW137598   3.581   1.103  16.603  1.0263 -0.0394 -0.2089
 8713SOL    HW237599   3.709   1.098  16.687 -0.2961  0.8860 -0.8481
 8714SOL     OW37600   2.144   2.247   6.358 -0.5124 -0.2321  0.1504
 8714SOL    HW137601   2.087   2.270   6.285  1.2725 -0.2994 -1.2603
 8714SOL    HW237602   2.219   2.303   6.338 -0.4437 -0.5375 -0.4385
 8715SOL     OW37603   2.016   1.134   4.509  0.1186 -0.0879 -0.3325
 8715SOL    HW137604   2.044   1.077   4.581  1.6557  1.2770  0.1508
 8715SOL    HW237605   2.082   1.203   4.513  0.9815 -0.9054 -0.5573
 8716SOL     OW37606   3.767   3.130  16.239  0.1197  0.0790 -0.6621
 8716SOL    HW137607   3.771   3.151  16.146  0.3922  0.8795 -0.4654
 8716SOL    HW237608   3.857   3.137  16.271  0.3598 -1.6494 -0.9787
 8717SOL     OW37609   2.924   4.695  12.184  0.0259  0.1282  1.1582
 8717SOL    HW137610   2.838   0.016  12.182  1.0621  2.2304 -0.8793
 8717SOL    HW237611   2.927   4.675  12.277 -2.0156 -2.5333  0.6565
 8718SOL     OW37612   3.533   2.299  14.495 -0.1503 -0.3361 -0.2015
 8718SOL    HW137613   3.588   2.377  14.489 -3.4724  2.0927  0.5473
 8718SOL    HW237614   3.445   2.329  14.471 -0.3206 -0.6485  0.0436
 8719SOL     OW37615   1.576   0.335   5.393 -0.0827 -0.6235  0.1702
 8719SOL    HW137616   1.511   0.366   5.331 -1.0804  1.1873  2.1401
 8719SOL    HW237617   1.636   0.287   5.336  2.8728  0.5880  2.2539
 8720SOL     OW37618   4.622   1.814   0.067  0.0628 -0.1837  0.5516
 8720SOL    HW137619   4.614   1.775   0.154 -2.6387  0.0594  0.3882
 8720SOL    HW237620   4.596   1.902   0.096  3.3584  0.9571  0.1075
 8721SOL     OW37621   0.592   4.656   4.846  0.1327  0.3580  0.3549
 8721SOL    HW137622   0.562   4.576   4.889  2.7841 -1.4165 -1.0723
 8721SOL    HW237623   0.559   4.651   4.757 -0.8182  0.5835  0.6933
 8722SOL     OW37624   3.091   1.964   7.009  0.3471 -0.1913 -0.0886
 8722SOL    HW137625   3.101   2.057   6.990  0.0822  0.2584  1.8796
 8722SOL    HW237626   3.011   1.963   6.957  0.8541  0.1794 -0.8611
 8723SOL     OW37627   0.581   2.512   7.310  0.0123 -0.2699  0.2670
 8723SOL    HW137628   0.568   2.546   7.398  1.6453  0.4678  0.2180
 8723SOL    HW237629   0.594   2.419   7.326  0.6390 -0.2994 -0.4377
 8724SOL     OW37630   1.566   2.177   9.455  0.5150  0.3960 -0.1230
 8724SOL    HW137631   1.551   2.103   9.396  2.4795  1.0813 -1.4684
 8724SOL    HW237632   1.560   2.247   9.390  1.5676 -0.1470 -0.8133
 8725SOL     OW37633   4.382   0.942  13.691 -0.3006 -0.1847  0.0937
 8725SOL    HW137634   4.391   0.906  13.603 -1.1047  2.3354 -1.0140
 8725SOL    HW237635   4.471   0.970  13.709  0.0412 -0.3255 -1.3728
 8726SOL     OW37636   1.761   4.603  16.879  0.3240 -0.0727 -0.9072
 8726SOL    HW137637   1.724   4.555  16.952  3.1837 -0.9788 -0.0626
 8726SOL    HW237638   1.761   4.690  16.919 -0.8673  0.0174 -1.1029
 8727SOL     OW37639   2.395   1.779  13.066 -0.2044 -0.0255 -0.7786
 8727SOL    HW137640   2.383   1.822  13.151  3.9237 -0.8411  0.2015
 8727SOL    HW237641   2.416   1.853  13.010 -0.0166  1.5997  1.4011
 8728SOL     OW37642   3.342   2.198  12.372  0.5052  0.5872 -0.2163
 8728SOL    HW137643   3.276   2.142  12.412 -1.2353  2.9855  0.3092
 8728SOL    HW237644   3.404   2.128  12.351  1.1672  1.3066 -0.6600
 8729SOL     OW37645   3.478   2.236   5.118 -0.4631 -0.3286  0.5189
 8729SOL    HW137646   3.452   2.202   5.032  0.5993  2.4941 -0.8816
 8729SOL    HW237647   3.551   2.179   5.141 -0.7527 -1.6566 -1.8256
 8730SOL     OW37648   1.236   1.212  13.552  0.4464 -0.1742 -0.3467
 8730SOL    HW137649   1.153   1.167  13.565  0.2345  0.5331  0.7690
 8730SOL    HW237650   1.260   1.178  13.466  2.2094 -0.3176  0.1855
 8731SOL     OW37651   3.097   0.942  15.000 -0.5737 -0.2616  0.1176
 8731SOL    HW137652   3.117   1.017  14.945  0.0513 -2.2038 -2.2894
 8731SOL    HW237653   3.003   0.927  14.993 -0.6944  0.9161 -0.7552
 8732SOL     OW37654   3.128   3.107   7.463 -0.2790 -0.0778 -0.4768
 8732SOL    HW137655   3.056   3.062   7.420 -0.0214 -0.7299 -0.2324
 8732SOL    HW237656   3.110   3.095   7.556  1.2029 -0.3138 -0.2112
 8733SOL     OW37657   2.393   3.155   6.762 -0.1574  0.3701  0.4153
 8733SOL    HW137658   2.349   3.096   6.700 -2.0059  1.3138  0.8251
 8733SOL    HW237659   2.474   3.175   6.716  0.2865 -0.9943  0.6088
 8734SOL     OW37660   4.671   2.208  14.062  0.2350  0.4032  0.0441
 8734SOL    HW137661   0.008   2.212  14.139  1.9615 -0.6616 -1.1807
 8734SOL    HW237662   0.016   2.202  13.992 -0.1274  0.8016 -0.3218
 8735SOL     OW37663   3.422   0.877   2.635  0.3773 -0.0599  0.0276
 8735SOL    HW137664   3.426   0.786   2.665 -1.6241 -0.8670 -2.1964
 8735SOL    HW237665   3.472   0.870   2.554 -0.3827 -1.3928 -0.3190
 8736SOL     OW37666   2.805   0.402   6.467  0.7599 -0.2451 -0.5140
 8736SOL    HW137667   2.799   0.307   6.475 -3.2029  0.0250 -0.2116
 8736SOL    HW237668   2.837   0.410   6.556 -1.7605  2.1359  0.2136
 8737SOL     OW37669   3.424   3.014   5.743 -0.1838  0.0540 -0.3255
 8737SOL    HW137670   3.391   2.998   5.654 -0.4528  1.4271 -0.4776
 8737SOL    HW237671   3.419   3.107   5.765 -1.3584  0.3289 -1.7359
 8738SOL     OW37672   2.645   4.609   1.400  0.0068  1.0880 -0.0587
 8738SOL    HW137673   2.588   4.540   1.434  1.3007 -0.3963 -0.9520
 8738SOL    HW237674   2.682   4.655   1.476 -1.3651  0.5121  0.9571
 8739SOL     OW37675   1.158   0.183   6.568  0.1864  0.3009  0.2002
 8739SOL    HW137676   1.131   0.255   6.626  2.6332  0.6981  0.8263
 8739SOL    HW237677   1.253   0.179   6.576 -0.1389  0.2214  4.0848
 8740SOL     OW37678   4.429   0.571   6.502  0.1483  0.2268 -0.0403
 8740SOL    HW137679   4.385   0.539   6.423  0.6066 -1.5153  0.4158
 8740SOL    HW237680   4.402   0.512   6.572 -0.2396 -2.8249 -2.7858
 8741SOL     OW37681   0.498   2.220  15.214  0.3644 -0.4408 -0.6813
 8741SOL    HW137682   0.425   2.273  15.182 -0.1553 -1.4824 -1.2270
 8741SOL    HW237683   0.468   2.202  15.303  0.5685  0.9026 -0.3322
 8742SOL     OW37684   1.333   0.352   6.860  0.2910  0.5295 -0.6068
 8742SOL    HW137685   1.288   0.274   6.892 -2.7464  2.6297  0.2330
 8742SOL    HW237686   1.253   0.390   6.823 -1.6134 -0.8940  2.0678
 8743SOL     OW37687   3.674   3.890   6.869 -0.5758 -0.0468  0.5026
 8743SOL    HW137688   3.659   3.860   6.959 -0.3807  0.5599  0.7391
 8743SOL    HW237689   3.770   3.884   6.867 -0.5759 -0.3938  1.2370
 8744SOL     OW37690   1.700   4.698  11.899  0.6568 -0.6889 -0.4112
 8744SOL    HW137691   1.704   4.621  11.843 -1.5134 -1.4630  0.4972
 8744SOL    HW237692   1.706   0.048  11.833 -0.3434  0.6731  0.9136
 8745SOL     OW37693   1.719   0.287   7.985 -0.1744 -0.6495 -0.2728
 8745SOL    HW137694   1.799   0.301   7.934  0.3357  0.6229  0.8756
 8745SOL    HW237695   1.707   0.373   8.024  2.0466 -1.2740  1.7840
 8746SOL     OW37696   2.955   4.115   1.158  0.1639 -0.3505  0.1142
 8746SOL    HW137697   2.967   4.190   1.099  1.9611 -0.0713  0.8503
 8746SOL    HW237698   3.045   4.085   1.163  0.6041  1.0190  0.5321
 8747SOL     OW37699   1.405   0.635   3.174  0.7285  0.4073  0.0299
 8747SOL    HW137700   1.357   0.566   3.127 -1.6099  0.9571  1.6112
 8747SOL    HW237701   1.341   0.705   3.183  1.1732  0.8186 -0.0459
 8748SOL     OW37702   1.155   3.823   5.412 -0.2157  0.1492 -0.0008
 8748SOL    HW137703   1.113   3.902   5.378  0.0630 -0.0678 -0.8637
 8748SOL    HW237704   1.115   3.760   5.351 -2.8346  1.3432  0.4962
 8749SOL     OW37705   0.795   1.142  11.940  0.2691 -0.0360  0.0927
 8749SOL    HW137706   0.809   1.220  11.887  0.0508 -0.3882 -0.4710
 8749SOL    HW237707   0.876   1.094  11.923  0.7452  0.1170  1.8286
 8750SOL     OW37708   3.686   0.694   4.445 -0.1108 -0.1927  0.3999
 8750SOL    HW137709   3.673   0.619   4.386 -1.5229  0.3791 -0.0076
 8750SOL    HW237710   3.690   0.763   4.378 -0.5264 -1.4149 -0.8989
 8751SOL     OW37711   4.476   2.452   7.322  0.0372 -0.2355  0.3260
 8751SOL    HW137712   4.487   2.409   7.407  3.5053  0.0720  0.0344
 8751SOL    HW237713   4.426   2.530   7.345 -0.7154 -0.2913 -1.1550
 8752SOL     OW37714   2.144   1.093   8.281 -0.5755 -1.1879  0.9114
 8752SOL    HW137715   2.084   1.130   8.216  0.8272 -2.8946 -1.3736
 8752SOL    HW237716   2.092   1.016   8.304 -3.9976  0.4204 -1.3703
 8753SOL     OW37717   1.188   0.841  12.800  0.0604 -0.6035  0.3031
 8753SOL    HW137718   1.279   0.812  12.805  0.7087  1.5127  0.7484
 8753SOL    HW237719   1.141   0.765  12.834 -0.5042  0.3692  1.6808
 8754SOL     OW37720   1.727   3.631  16.204 -0.1753  0.3821  0.5376
 8754SOL    HW137721   1.767   3.614  16.118 -1.5648  0.5952 -0.1536
 8754SOL    HW237722   1.641   3.591  16.191  0.4792 -1.1328  0.8214
 8755SOL     OW37723   2.931   2.845   3.613 -0.6341  0.4907  0.4324
 8755SOL    HW137724   3.015   2.878   3.583  0.1313 -1.0971  0.8398
 8755SOL    HW237725   2.868   2.899   3.564 -0.8161 -0.2716 -0.1731
 8756SOL     OW37726   1.958   1.978   8.837 -0.1114 -0.5471  0.2958
 8756SOL    HW137727   2.016   1.952   8.765 -0.8514 -1.1730 -0.0693
 8756SOL    HW237728   1.974   1.905   8.895 -2.1214 -2.3190 -1.3774
 8757SOL     OW37729   0.195   3.390   7.352  0.1866  0.0003 -0.2467
 8757SOL    HW137730   0.149   3.468   7.322 -1.8681 -1.3433 -0.6354
 8757SOL    HW237731   0.120   3.331   7.358  0.7917 -0.7199  0.3371
 8758SOL     OW37732   1.103   3.915   4.428 -0.5689  0.0592 -0.2977
 8758SOL    HW137733   1.041   3.913   4.355 -0.9743  1.3308  0.0132
 8758SOL    HW237734   1.132   3.825   4.442  0.0135  0.0723 -1.3881
 8759SOL     OW37735   0.450   2.926   4.617 -0.1813 -0.2378  0.3662
 8759SOL    HW137736   0.522   2.864   4.613  0.0991  0.2069 -1.5503
 8759SOL    HW237737   0.425   2.907   4.707 -1.1277 -0.5006  0.0473
 8760SOL     OW37738   0.415   1.743   4.092 -0.1119  0.0414  0.4441
 8760SOL    HW137739   0.381   1.762   4.005  1.7254 -0.0865 -0.2970
 8760SOL    HW237740   0.334   1.727   4.140  0.4065  2.8351  2.2142
 8761SOL     OW37741   0.450   3.225   7.593 -0.4084 -0.3888  0.2985
 8761SOL    HW137742   0.364   3.198   7.627  0.4205 -1.1574  1.7949
 8761SOL    HW237743   0.490   3.139   7.601  0.8304  0.1744  0.1822
 8762SOL     OW37744   3.263   2.971  10.131  0.1818 -0.2021  0.3642
 8762SOL    HW137745   3.214   3.013  10.061  0.4964 -0.8550 -0.2560
 8762SOL    HW237746   3.309   2.898  10.090 -2.5230 -1.7347  0.0459
 8763SOL     OW37747   2.826   0.920   5.086 -0.7131  0.0562 -0.3978
 8763SOL    HW137748   2.770   0.884   5.154 -0.2206  1.2003  0.6309
 8763SOL    HW237749   2.857   0.837   5.049 -2.0110  0.1125 -1.5963
 8764SOL     OW37750   2.477   1.990   9.054  0.1775  0.3741 -0.5377
 8764SOL    HW137751   2.520   1.966   9.136  1.1125 -1.2714 -1.5102
 8764SOL    HW237752   2.522   1.939   8.987 -0.4864 -2.6219  1.2706
 8765SOL     OW37753   1.575   4.712   4.864 -0.2320 -0.2033  0.1786
 8765SOL    HW137754   1.584   4.653   4.789  3.1124  0.4671  0.0548
 8765SOL    HW237755   1.612   0.076   4.836 -1.1749  0.8103  1.9747
 8766SOL     OW37756   3.967   1.404  12.186 -0.2912  0.2816 -0.9042
 8766SOL    HW137757   3.899   1.405  12.118  0.1852  1.6053 -1.3647
 8766SOL    HW237758   3.939   1.488  12.222  0.6336  0.0236  0.3836
 8767SOL     OW37759   1.700   3.844   0.062 -0.2157 -0.1665  0.7207
 8767SOL    HW137760   1.706   3.760   0.107 -1.4466 -0.5572  0.1583
 8767SOL    HW237761   1.682   3.897   0.140  0.2596 -1.1044  1.4731
 8768SOL     OW37762   2.410   2.578  13.229 -0.1161  0.1324 -0.2450
 8768SOL    HW137763   2.490   2.591  13.280 -0.2564  0.7525 -0.1814
 8768SOL    HW237764   2.450   2.545  13.149 -1.1439 -0.9072 -0.3221
 8769SOL     OW37765   0.077   2.101   6.754  0.7710  0.4317 -0.4818
 8769SOL    HW137766   0.057   2.012   6.725 -0.7371  1.2971 -2.0921
 8769SOL    HW237767   0.143   2.077   6.819 -0.5272  2.1199  1.4629
 8770SOL     OW37768   2.007   1.362  12.425  0.2973 -0.1099 -0.4511
 8770SOL    HW137769   2.021   1.448  12.384  1.9988 -0.7289 -1.1838
 8770SOL    HW237770   2.099   1.336  12.426  0.3814 -0.0321 -3.7808
 8771SOL     OW37771   0.867   4.430   9.175  0.4005  0.2170  0.2173
 8771SOL    HW137772   0.777   4.414   9.204  0.9608 -2.3281  0.4800
 8771SOL    HW237773   0.902   4.348   9.209  1.8672  1.2444  1.1863
 8772SOL     OW37774   4.115   1.218   3.660  0.0040 -0.0289 -0.3203
 8772SOL    HW137775   4.133   1.243   3.569 -3.7296 -3.8698 -2.1031
 8772SOL    HW237776   4.020   1.210   3.659 -0.0837  1.1135 -0.7003
 8773SOL     OW37777   3.931   1.892   6.151  0.3900 -0.7425 -0.2625
 8773SOL    HW137778   3.942   1.987   6.141 -2.4066 -0.3015  0.7711
 8773SOL    HW237779   3.844   1.884   6.190  0.1558 -3.5703 -1.3970
 8774SOL     OW37780   3.189   2.354   3.586  0.3832  0.0963 -0.2928
 8774SOL    HW137781   3.109   2.305   3.603  1.7099 -1.7544  0.6443
 8774SOL    HW237782   3.156   2.423   3.528  0.8358  0.8998  0.4050
 8775SOL     OW37783   4.429   1.338   5.577 -0.0005 -0.7075  0.1275
 8775SOL    HW137784   4.399   1.252   5.549 -0.3840 -1.1525  1.9213
 8775SOL    HW237785   4.517   1.316   5.607 -0.2786 -1.3722  0.4411
 8776SOL     OW37786   2.653   0.749   2.498 -0.1553  0.3818 -0.2786
 8776SOL    HW137787   2.629   0.842   2.503 -1.1174  0.1517 -0.5752
 8776SOL    HW237788   2.748   0.759   2.494 -0.1427  0.1186 -0.5946
 8777SOL     OW37789   3.534   4.309   3.864  0.1714 -0.5693  0.0193
 8777SOL    HW137790   3.484   4.264   3.931  0.1387 -1.9878 -0.9650
 8777SOL    HW237791   3.497   4.271   3.785 -0.8860  1.4914 -0.4755
 8778SOL     OW37792   3.852   4.072  15.871  0.5449 -0.6705 -0.3717
 8778SOL    HW137793   3.940   4.102  15.848  1.6561  0.1187  4.8683
 8778SOL    HW237794   3.814   4.148  15.914  0.8703 -0.3398 -0.6653
 8779SOL     OW37795   0.442   0.457   2.515 -0.2080  0.8675  0.0183
 8779SOL    HW137796   0.457   0.372   2.557 -0.2610  0.8533  0.0078
 8779SOL    HW237797   0.387   0.432   2.441  0.6861 -0.9263 -0.0555
 8780SOL     OW37798   3.539   4.306   9.396  0.3595 -0.0517 -0.0961
 8780SOL    HW137799   3.514   4.244   9.465 -0.1319  0.1382 -0.1019
 8780SOL    HW237800   3.450   4.315   9.361  0.6830 -0.1771 -0.9617
 8781SOL     OW37801   2.092   3.634   6.660  0.0022 -0.1329  0.5797
 8781SOL    HW137802   2.169   3.658   6.610  0.2810  0.1429  1.1374
 8781SOL    HW237803   2.132   3.620   6.746 -1.5566 -1.3428  1.1221
 8782SOL     OW37804   2.211   3.136   0.047  0.3124  0.9623 -0.2228
 8782SOL    HW137805   2.269   3.080   0.099 -0.2533 -0.6438 -1.3310
 8782SOL    HW237806   2.145   3.070   0.026  0.2263  0.4098  1.7926
 8783SOL     OW37807   2.822   0.051   6.453 -0.1124 -0.0003 -0.0003
 8783SOL    HW137808   2.906   0.098   6.449 -0.6571  1.1866  2.6197
 8783SOL    HW237809   2.867   4.688   6.471  1.3431  0.7784 -0.0522
 8784SOL     OW37810   4.387   0.763   4.956  0.1872  0.4521 -0.3994
 8784SOL    HW137811   4.312   0.769   4.897 -0.8592  0.6222  0.9581
 8784SOL    HW237812   4.424   0.678   4.933  0.2027  0.2422  0.4114
 8785SOL     OW37813   1.393   4.065   9.181  0.0702 -0.3345 -0.8427
 8785SOL    HW137814   1.439   4.101   9.257  0.1032 -2.6477  0.2562
 8785SOL    HW237815   1.319   4.126   9.184 -0.6003 -1.1471 -0.9098
 8786SOL     OW37816   3.186   0.286   5.372 -0.1350  0.5051  0.1604
 8786SOL    HW137817   3.149   0.202   5.344  2.1599  0.3232 -2.3367
 8786SOL    HW237818   3.274   0.277   5.335 -0.6501  0.3194 -1.0194
 8787SOL     OW37819   1.685   0.964   7.080 -0.1136 -0.0421  0.1081
 8787SOL    HW137820   1.605   0.912   7.075 -0.6945  1.1110 -2.2993
 8787SOL    HW237821   1.679   0.987   7.172 -0.0763 -1.4343  0.4660
 8788SOL     OW37822   0.076   2.535   9.322  0.7185 -0.1957  0.1052
 8788SOL    HW137823   0.066   2.563   9.231  2.6576  1.1391  0.3128
 8788SOL    HW237824   4.712   2.565   9.358  0.4860  1.4868 -1.8937
 8789SOL     OW37825   0.118   3.680   7.962 -0.4218  0.1639  0.2733
 8789SOL    HW137826   0.105   3.592   7.928  3.8818  0.0621 -1.1130
 8789SOL    HW237827   0.193   3.704   7.908 -0.3782  1.0098  0.7127
 8790SOL     OW37828   0.805   4.518   1.048  0.4062 -0.0466 -0.3213
 8790SOL    HW137829   0.820   4.496   0.956 -1.3885 -1.1461 -0.3558
 8790SOL    HW237830   0.826   4.444   1.105  0.2835 -0.8701 -1.3562
 8791SOL     OW37831   0.839   2.031   2.371 -0.4527  0.1323 -0.5417
 8791SOL    HW137832   0.829   2.060   2.280 -0.8056 -2.3618 -1.2922
 8791SOL    HW237833   0.920   1.982   2.361 -0.7848 -0.6710  0.7275
 8792SOL     OW37834   1.637   2.756  14.539  0.3090  0.0213 -0.3724
 8792SOL    HW137835   1.731   2.754  14.520  0.4746  2.7474  0.2379
 8792SOL    HW237836   1.627   2.663  14.562  0.2006  0.7645  2.5741
 8793SOL     OW37837   0.521   1.813   5.139 -0.7780 -0.2464 -0.0390
 8793SOL    HW137838   0.524   1.859   5.054  3.0058  0.7903  0.6631
 8793SOL    HW237839   0.528   1.721   5.114  0.4738  0.1689 -1.2362
 8794SOL     OW37840   2.856   3.913   1.828  0.2898  0.1783 -0.1256
 8794SOL    HW137841   2.795   3.940   1.759 -1.4653 -1.5476  0.7471
 8794SOL    HW237842   2.803   3.929   1.905  0.3006 -0.6846  0.0573
 8795SOL     OW37843   0.712   4.266   4.142 -0.4828  0.3641 -0.1139
 8795SOL    HW137844   0.777   4.299   4.080  0.2725 -1.8564 -0.4919
 8795SOL    HW237845   0.644   4.246   4.077  0.0550 -0.5928 -0.3797
 8796SOL     OW37846   2.316   3.633   8.330 -0.2530 -0.3876 -0.8228
 8796SOL    HW137847   2.292   3.661   8.242 -2.1296 -1.0487 -0.5261
 8796SOL    HW237848   2.303   3.712   8.383 -0.6839 -0.6573 -0.5278
 8797SOL     OW37849   1.205   1.305   0.813 -0.0019  0.0472  0.0840
 8797SOL    HW137850   1.226   1.398   0.812 -3.2404  0.7859  0.9672
 8797SOL    HW237851   1.195   1.302   0.908  1.2298 -1.2491  0.1794
 8798SOL     OW37852   2.921   0.738   6.156 -0.3807 -0.0781 -0.0889
 8798SOL    HW137853   2.866   0.660   6.143 -2.5618  1.2883  0.9087
 8798SOL    HW237854   2.867   0.760   6.231 -2.0213  1.0886 -1.6143
 8799SOL     OW37855   1.374   0.903   1.088 -0.4856  0.0691 -0.0825
 8799SOL    HW137856   1.291   0.922   1.133  1.2684  0.2623  3.0135
 8799SOL    HW237857   1.434   0.972   1.116  0.1339 -0.9976  1.2095
 8800SOL     OW37858   3.750   4.050   4.439  0.0097  0.4875  0.3011
 8800SOL    HW137859   3.779   4.019   4.524 -1.2853 -0.2267  0.4807
 8800SOL    HW237860   3.830   4.091   4.405 -0.6452  0.7112 -0.9845
 8801SOL     OW37861   0.906   3.804   1.906  0.0406 -0.4333 -0.4339
 8801SOL    HW137862   0.858   3.806   1.988 -0.4754  2.1900 -0.7999
 8801SOL    HW237863   0.837   3.840   1.850 -1.3348 -0.7715  1.0668
 8802SOL     OW37864   4.513   0.563   2.048 -0.4852  0.2369  0.0467
 8802SOL    HW137865   4.522   0.540   2.140 -1.4533  0.0319  0.0920
 8802SOL    HW237866   4.418   0.571   2.037 -0.8414 -1.3789  2.0569
 8803SOL     OW37867   1.544   4.582   0.254 -0.3974  0.2636 -0.5300
 8803SOL    HW137868   1.584   4.601   0.339  0.7090  0.1541 -1.0343
 8803SOL    HW237869   1.473   4.647   0.256 -1.9667 -1.4064 -2.0050
 8804SOL     OW37870   1.775   3.661   7.939 -0.0806  0.2755 -0.0687
 8804SOL    HW137871   1.728   3.580   7.920 -0.7251  0.9983 -1.5902
 8804SOL    HW237872   1.720   3.689   8.013  0.9811  2.4537 -0.1007
 8805SOL     OW37873   3.082   0.101   4.882  0.0844 -0.3988 -0.3608
 8805SOL    HW137874   3.106   0.193   4.896 -1.1212  0.1500 -1.8913
 8805SOL    HW237875   2.989   0.104   4.862 -0.4295 -0.3824  2.0018
 8806SOL     OW37876   3.999   1.528   8.729 -0.4305 -0.8050  0.2818
 8806SOL    HW137877   4.029   1.448   8.771 -2.5151 -0.7977  1.8111
 8806SOL    HW237878   4.041   1.518   8.644  0.3001  0.9994  0.4209
 8807SOL     OW37879   0.852   0.410   6.853 -0.7484 -0.4079 -1.3351
 8807SOL    HW137880   0.788   0.347   6.886 -1.2319 -0.6491 -2.7261
 8807SOL    HW237881   0.796   0.487   6.856 -0.6200 -0.2666 -2.7046
 8808SOL     OW37882   3.390   4.004   5.930  0.2984  0.3632  0.4279
 8808SOL    HW137883   3.367   4.069   5.864  1.8874 -0.3752 -0.8776
 8808SOL    HW237884   3.320   4.005   5.995 -1.2807  0.2170 -1.2946
 8809SOL     OW37885   3.989   4.629   4.601  0.6605 -0.2056 -0.2952
 8809SOL    HW137886   4.021   4.588   4.521 -1.4299 -2.3234 -0.0292
 8809SOL    HW237887   3.972   4.716   4.563  1.5623  0.4026  0.7067
 8810SOL     OW37888   0.712   0.288   2.316  0.3978 -0.2033  0.7291
 8810SOL    HW137889   0.781   0.227   2.289 -0.2827 -1.6567  2.1860
 8810SOL    HW237890   0.747   0.374   2.295 -0.0671  0.3332  2.1442
 8811SOL     OW37891   0.367   1.111   0.789 -0.0375  0.2943  0.0813
 8811SOL    HW137892   0.304   1.071   0.728 -0.9548 -0.6650  1.6522
 8811SOL    HW237893   0.311   1.127   0.865  0.7828 -1.3399  1.0380
 8812SOL     OW37894   4.293   0.334   7.646 -0.4272  0.3246  0.0989
 8812SOL    HW137895   4.212   0.287   7.625  0.8959 -0.6122 -2.7894
 8812SOL    HW237896   4.304   0.374   7.560 -0.6826  1.8896  0.7932
 8813SOL     OW37897   4.683   4.406   3.389 -0.9718  0.0722 -0.1047
 8813SOL    HW137898   0.032   4.439   3.330 -2.5151  2.1226 -0.7359
 8813SOL    HW237899   0.017   4.364   3.457 -1.5642  0.9311  0.8850
 8814SOL     OW37900   4.616   0.592   0.032  0.1810  0.3768  0.9933
 8814SOL    HW137901   4.656   0.573  17.628 -0.4924  0.2197  0.7056
 8814SOL    HW237902   4.599   0.685   0.022 -0.1373  0.2379  0.2638
 8815SOL     OW37903   3.533   0.050   4.987 -0.5708  0.1222  0.2798
 8815SOL    HW137904   3.464   0.003   4.939  0.0643  0.4298 -0.9523
 8815SOL    HW237905   3.599   0.067   4.920  1.5965 -3.5449  1.4722
 8816SOL     OW37906   4.631   0.285  11.925 -0.2821 -0.0384 -0.0455
 8816SOL    HW137907   4.651   0.215  11.986 -1.3825 -1.1542 -0.9566
 8816SOL    HW237908   4.599   0.339  11.998  0.7622  2.0890 -1.1638
 8817SOL     OW37909   4.266   0.306   5.212 -0.0800 -0.0457  0.4024
 8817SOL    HW137910   4.280   0.268   5.125  3.0295  1.9673  0.0447
 8817SOL    HW237911   4.275   0.227   5.265  1.0588  0.6667  1.2505
 8818SOL     OW37912   0.385   2.203  14.316 -0.1560 -0.6265  0.3634
 8818SOL    HW137913   0.460   2.171  14.366  0.2831  1.5962  1.1137
 8818SOL    HW237914   0.383   2.293  14.350 -0.0330 -0.9018  1.0996
 8819SOL     OW37915   0.924   1.927  13.478  0.5450  0.9644  0.3568
 8819SOL    HW137916   1.015   1.954  13.462  0.3720  0.8620 -0.7428
 8819SOL    HW237917   0.927   1.887  13.392  1.0292  1.0678  0.3215
 8820SOL     OW37918   1.997   4.642   8.610  0.5298  0.1163  0.1356
 8820SOL    HW137919   2.029   4.632   8.700 -1.0777  0.6965  0.7738
 8820SOL    HW237920   2.054   4.711   8.576 -1.4101  1.6753  0.0565
 8821SOL     OW37921   2.009   4.610   4.008  0.6356  0.4040  0.2101
 8821SOL    HW137922   1.950   4.656   4.067 -1.1134 -0.7701 -0.6332
 8821SOL    HW237923   1.964   4.531   3.978  0.2846  0.8822 -0.5422
 8822SOL     OW37924   4.365   3.389   4.540 -0.1616 -0.2634  0.4268
 8822SOL    HW137925   4.400   3.331   4.608  0.3041 -0.3053  0.1509
 8822SOL    HW237926   4.352   3.471   4.587 -1.2517  0.4047 -1.0396
 8823SOL     OW37927   4.604   1.195  13.685 -0.4095 -0.1409 -0.4396
 8823SOL    HW137928   4.618   1.115  13.735  0.5434  3.0409  4.4161
 8823SOL    HW237929   4.642   1.257  13.747 -2.1976  0.7539 -0.2269
 8824SOL     OW37930   0.811   4.371   7.872  0.0397  0.3238 -0.3720
 8824SOL    HW137931   0.835   4.336   7.957 -1.9788  1.5007  0.6881
 8824SOL    HW237932   0.820   4.466   7.881 -2.9842  0.5113  0.6769
 8825SOL     OW37933   0.691   4.431   2.330 -0.5533  0.0811  0.1239
 8825SOL    HW137934   0.606   4.475   2.329 -1.0977 -0.9944 -0.6836
 8825SOL    HW237935   0.705   4.426   2.235 -0.3023  0.0537  0.1611
 8826SOL     OW37936   2.395   2.949   3.880 -0.1748  0.0318 -0.4786
 8826SOL    HW137937   2.341   3.027   3.888 -0.1576  0.0409 -0.4532
 8826SOL    HW237938   2.333   2.877   3.867  1.5285 -2.2722  4.4071
 8827SOL     OW37939   4.692   3.594   4.385 -0.3105  0.4667 -0.0008
 8827SOL    HW137940   0.002   3.517   4.433  0.0273  0.8907  0.4657
 8827SOL    HW237941   4.692   3.664   4.450 -0.1424 -1.9343  2.5639
 8828SOL     OW37942   2.255   1.848   3.663  0.5941 -0.0825  0.1630
 8828SOL    HW137943   2.264   1.851   3.568  1.5923  1.4873  0.2951
 8828SOL    HW237944   2.257   1.757   3.692 -0.4628  0.1125  0.8596
 8829SOL     OW37945   4.625   3.776   4.550  0.0237 -0.3486  0.1239
 8829SOL    HW137946   4.577   3.838   4.496 -0.7017 -0.0881  1.0747
 8829SOL    HW237947   4.585   3.788   4.636  2.6521 -1.1095  1.4564
 8830SOL     OW37948   1.963   3.864  15.028 -0.2776 -0.6202 -0.1326
 8830SOL    HW137949   2.032   3.884  15.091  1.3540  0.6966 -2.2969
 8830SOL    HW237950   1.937   3.782  15.068  1.2250 -2.1829 -2.3117
 8831SOL     OW37951   4.696   1.007   3.024  0.0351  0.5522  0.2901
 8831SOL    HW137952   0.048   0.952   3.057 -0.4925 -0.5287 -0.3385
 8831SOL    HW237953   0.026   1.046   2.952  2.7780 -0.6078  1.5576
 8832SOL     OW37954   2.698   1.025  10.097 -0.1407  0.1343 -0.5083
 8832SOL    HW137955   2.761   1.015  10.168  0.1594  2.8019 -0.3881
 8832SOL    HW237956   2.633   1.085  10.134 -0.8971 -1.5082  0.7846
 8833SOL     OW37957   2.643   0.141   7.195 -0.7020  1.0053 -0.0406
 8833SOL    HW137958   2.551   0.116   7.202 -0.6284  0.9016  0.5242
 8833SOL    HW237959   2.660   0.112   7.105 -0.1549 -1.5944  0.9013
 8834SOL     OW37960   3.039   4.530   7.351  0.3257  0.7522  0.1698
 8834SOL    HW137961   3.009   4.600   7.293  2.3028  1.3478 -0.1366
 8834SOL    HW237962   3.069   4.468   7.284 -0.8892 -1.0777  1.3317
 8835SOL     OW37963   4.559   2.603   9.426 -0.4744 -0.3015  0.1795
 8835SOL    HW137964   4.482   2.612   9.483 -0.3443 -0.3719  0.3673
 8835SOL    HW237965   4.599   2.686   9.453 -1.1250 -0.4529  1.6425
 8836SOL     OW37966   1.895   4.040   7.038  0.1148 -0.6715  0.5548
 8836SOL    HW137967   1.969   4.087   6.999 -1.4426 -0.1827 -1.7617
 8836SOL    HW237968   1.845   4.110   7.080 -0.6517 -1.6089  1.2075
 8837SOL     OW37969   3.935   4.095   6.957 -0.3909  0.0458 -0.2049
 8837SOL    HW137970   3.879   4.173   6.957  0.6756  0.8162 -2.4181
 8837SOL    HW237971   4.024   4.131   6.963 -0.1516 -0.5146 -0.4563
 8838SOL     OW37972   1.024   1.320   3.371  0.0004  0.4586 -0.6863
 8838SOL    HW137973   0.997   1.243   3.421  0.5619  0.1522 -0.8549
 8838SOL    HW237974   0.966   1.312   3.295  0.7416  1.1646 -1.3155
 8839SOL     OW37975   3.027   0.520  15.213  0.3413  0.1618  0.2041
 8839SOL    HW137976   3.109   0.514  15.164  0.4408 -1.7081  0.5736
 8839SOL    HW237977   2.997   0.607  15.189 -0.2101 -0.5172 -1.5376
 8840SOL     OW37978   2.283   0.467  13.191  0.5179 -0.2612 -0.2680
 8840SOL    HW137979   2.336   0.427  13.122 -0.0729  0.3748 -1.0900
 8840SOL    HW237980   2.202   0.488  13.143  0.8683 -2.1971 -1.7079
 8841SOL     OW37981   1.594   2.558   5.956  0.4788  0.3470 -0.1252
 8841SOL    HW137982   1.600   2.463   5.943  2.0294  0.5404 -0.8581
 8841SOL    HW237983   1.499   2.566   5.955  0.6312  1.9462 -1.0214
 8842SOL     OW37984   3.935   4.288   8.321 -0.9059  0.2374 -0.1008
 8842SOL    HW137985   3.886   4.345   8.380  0.2191  0.3971  0.6836
 8842SOL    HW237986   4.011   4.264   8.373 -0.9265 -0.3097 -0.3219
 8843SOL     OW37987   3.458   4.374  10.463  0.4096  0.9018  0.0710
 8843SOL    HW137988   3.543   4.351  10.502  0.2881  0.0187 -0.1858
 8843SOL    HW237989   3.477   4.371  10.369 -3.0574 -0.2217 -0.5987
 8844SOL     OW37990   4.066   1.172   3.976 -0.5579 -0.0234  0.0375
 8844SOL    HW137991   4.099   1.203   3.891  1.0235 -1.4992  0.1125
 8844SOL    HW237992   4.129   1.216   4.033 -0.3993 -1.2436  0.7914
 8845SOL     OW37993   2.226   3.819   4.963 -0.1909  0.6272 -0.5051
 8845SOL    HW137994   2.264   3.826   4.875  1.8709 -2.1456  0.1573
 8845SOL    HW237995   2.164   3.892   4.959 -3.2625 -2.0039 -0.0975
 8846SOL     OW37996   1.277   0.741   2.468 -0.9431 -0.5117  0.2415
 8846SOL    HW137997   1.263   0.649   2.487 -3.8535  0.1608  1.4875
 8846SOL    HW237998   1.366   0.736   2.434 -1.1207  1.3195 -0.5204
 8847SOL     OW37999   2.300   0.530   2.328  0.1826  0.2315  0.2793
 8847SOL    HW138000   2.264   0.563   2.246  3.1176 -1.7708 -1.7779
 8847SOL    HW238001   2.384   0.501   2.295  0.6884 -0.7774  2.4441
 8848SOL     OW38002   1.420   4.253   8.312 -0.0068  0.4112  0.1280
 8848SOL    HW138003   1.466   4.246   8.396 -0.0318  2.9667  0.3648
 8848SOL    HW238004   1.489   4.278   8.251 -0.4332 -1.9302 -1.2981
 8849SOL     OW38005   2.875   3.426   6.660  0.3455 -0.6068 -0.0537
 8849SOL    HW138006   2.911   3.510   6.630 -0.3829 -1.5901 -3.6407
 8849SOL    HW238007   2.960   3.382   6.667  0.5925 -0.4313 -2.0672
 8850SOL     OW38008   0.128   2.990  16.520 -0.1112 -0.6414  0.0279
 8850SOL    HW138009   0.071   2.923  16.482 -0.5672 -1.9586  3.0387
 8850SOL    HW238010   0.180   3.028  16.449  0.7282 -2.7240 -0.4770
 8851SOL     OW38011   1.686   4.391  16.225  0.1043  0.5783 -0.6880
 8851SOL    HW138012   1.779   4.380  16.205 -0.6242 -0.0732 -3.7163
 8851SOL    HW238013   1.668   4.302  16.254  0.9669  1.5841  2.9060
 8852SOL     OW38014   1.699   0.544   6.865  0.4877 -0.8252 -0.1158
 8852SOL    HW138015   1.700   0.543   6.769  1.4159 -0.2216 -0.1154
 8852SOL    HW238016   1.792   0.565   6.876  0.0624  1.4486 -0.9048
 8853SOL     OW38017   2.200   0.157   0.064 -0.5626  0.8216 -0.7341
 8853SOL    HW138018   2.214   0.225   0.130  0.6654 -0.6631  0.5613
 8853SOL    HW238019   2.146   0.099   0.118 -1.7261  0.0825 -2.7328
 8854SOL     OW38020   0.886   2.299   8.770 -0.1404 -0.1261  0.3081
 8854SOL    HW138021   0.818   2.334   8.828  0.7446  1.7001  0.2374
 8854SOL    HW238022   0.949   2.273   8.836  0.1635  0.4733  0.2590
 8855SOL     OW38023   0.447   2.815  17.473 -0.1395 -0.1951 -0.0285
 8855SOL    HW138024   0.406   2.895  17.440  0.3198  0.4465  0.9422
 8855SOL    HW238025   0.472   2.775  17.390  0.7972 -2.2365  1.2190
 8856SOL     OW38026   4.291   4.096   3.165 -0.3885 -0.3274 -0.6301
 8856SOL    HW138027   4.331   4.111   3.250 -2.9580 -0.5376  0.6043
 8856SOL    HW238028   4.359   4.111   3.099  1.2126  0.4180  1.1925
 8857SOL     OW38029   1.076   2.275   8.996 -0.5902 -0.7035  0.0413
 8857SOL    HW138030   1.110   2.337   9.061  4.5944 -1.2057 -2.1539
 8857SOL    HW238031   1.024   2.218   9.053 -2.4386 -2.4158 -3.3714
 8858SOL     OW38032   0.296   3.515  13.559 -0.3521 -0.1642 -0.6275
 8858SOL    HW138033   0.383   3.478  13.540  0.7020  2.0234 -0.1179
 8858SOL    HW238034   0.243   3.502  13.480  3.0711  1.9804 -3.3158
 8859SOL     OW38035   2.793   2.888  14.651  0.1353 -0.3924  0.1478
 8859SOL    HW138036   2.759   2.829  14.584 -1.4606  2.4494 -1.5196
 8859SOL    HW238037   2.850   2.947  14.603 -0.9323  0.2454 -0.3291
 8860SOL     OW38038   3.248   3.279   0.849  0.1845 -0.1386 -0.0603
 8860SOL    HW138039   3.254   3.217   0.777 -0.9754 -0.3417  0.0139
 8860SOL    HW238040   3.245   3.363   0.803  0.4372  1.0422  2.0495
 8861SOL     OW38041   1.743   0.966   2.354 -0.5250 -0.2399  0.2247
 8861SOL    HW138042   1.745   0.953   2.449 -3.0626  1.0232  0.4529
 8861SOL    HW238043   1.828   0.932   2.328  0.6911  2.7079  0.4718
 8862SOL     OW38044   3.798   3.556  11.239 -0.2751 -0.5149 -0.0849
 8862SOL    HW138045   3.751   3.483  11.277 -1.4654  1.5914  2.5178
 8862SOL    HW238046   3.804   3.612  11.317  0.7871  0.2148 -0.6789
 8863SOL     OW38047   0.042   1.982   6.226 -1.0104  0.6464  0.0158
 8863SOL    HW138048   4.717   1.949   6.148 -1.8453  1.5890  0.0930
 8863SOL    HW238049   0.098   1.906   6.241 -1.1816  0.2478 -1.3261
 8864SOL     OW38050   1.133   2.943   3.895 -0.3082 -0.4424  0.3005
 8864SOL    HW138051   1.141   2.893   3.976 -0.4635 -0.1566  0.4938
 8864SOL    HW238052   1.058   2.896   3.858  1.4668 -1.2349 -2.2608
 8865SOL     OW38053   1.215   1.498   0.562 -0.7508  1.1552  0.1144
 8865SOL    HW138054   1.204   1.411   0.524 -1.5641  1.2497  0.1349
 8865SOL    HW238055   1.308   1.499   0.584 -0.2260 -1.1657 -2.0430
 8866SOL     OW38056   4.352   0.943   8.598  0.2186 -0.0745  0.1004
 8866SOL    HW138057   4.393   0.922   8.682  0.6806  1.1606  0.1856
 8866SOL    HW238058   4.305   0.863   8.578  0.3745 -0.1206 -0.0748
 8867SOL     OW38059   0.440   4.047   6.785 -0.0117 -0.2708  0.0932
 8867SOL    HW138060   0.465   3.979   6.722  0.1368  2.2799 -2.6049
 8867SOL    HW238061   0.522   4.063   6.830 -0.1543 -0.5886  0.4700
 8868SOL     OW38062   1.719   0.483  16.115 -0.2441 -0.5259  0.2318
 8868SOL    HW138063   1.719   0.533  16.197 -1.8101  1.0156 -0.7248
 8868SOL    HW238064   1.668   0.543  16.061 -0.7821  1.0077  2.4485
 8869SOL     OW38065   0.249   2.429  12.652  0.1723 -0.2117 -0.1367
 8869SOL    HW138066   0.335   2.403  12.621 -0.2106 -1.7538  0.1106
 8869SOL    HW238067   0.193   2.354  12.630  1.4668 -1.0422 -0.5942
 8870SOL     OW38068   3.557   1.918   7.917 -0.3022 -0.1861  0.0885
 8870SOL    HW138069   3.581   2.001   7.958  2.1243 -1.4986  1.3095
 8870SOL    HW238070   3.547   1.859   7.992  2.1699  0.1734  0.7149
 8871SOL     OW38071   4.313   3.827   7.848  0.5805  0.2941 -0.2707
 8871SOL    HW138072   4.226   3.837   7.811  1.1037 -0.3742 -1.6787
 8871SOL    HW238073   4.302   3.863   7.936  0.8171 -0.6342  0.1354
 8872SOL     OW38074   3.449   0.744   3.589 -0.0238 -0.1525  0.0501
 8872SOL    HW138075   3.459   0.754   3.494 -1.2106 -0.0946 -0.0655
 8872SOL    HW238076   3.500   0.822   3.610 -3.6081  2.0330  0.5556
 8873SOL     OW38077   1.868   0.301   3.249  0.4029 -0.5591 -0.8614
 8873SOL    HW138078   1.877   0.272   3.158 -2.1603 -0.3586 -1.1512
 8873SOL    HW238079   1.936   0.368   3.245 -0.4646  0.3996  0.7867
 8874SOL     OW38080   2.255   3.836   2.531  0.1417  0.4538  0.3208
 8874SOL    HW138081   2.326   3.900   2.536 -0.1269  0.7631  0.1846
 8874SOL    HW238082   2.224   3.846   2.441 -0.1433  1.1410  0.4935
 8875SOL     OW38083   2.662   3.834   0.770  0.1773 -0.4756  0.1570
 8875SOL    HW138084   2.739   3.886   0.793  0.2690 -0.9274  0.8668
 8875SOL    HW238085   2.643   3.797   0.856 -0.4641  2.0299  1.0921
 8876SOL     OW38086   2.979   2.430   6.174  0.6074  0.2828 -0.3876
 8876SOL    HW138087   2.956   2.387   6.257 -0.4416 -0.8739 -1.2695
 8876SOL    HW238088   2.977   2.353   6.117  0.2110 -0.1369  0.1882
 8877SOL     OW38089   1.073   3.102   1.272 -0.6720 -0.3466 -0.3224
 8877SOL    HW138090   1.095   3.038   1.340  0.0061 -1.0564 -1.2080
 8877SOL    HW238091   1.150   3.096   1.215 -1.4918 -2.8654 -1.1802
 8878SOL     OW38092   0.804   1.066   5.790 -0.1967  0.3702  0.5019
 8878SOL    HW138093   0.711   1.063   5.767  0.0646  0.4611 -0.5784
 8878SOL    HW238094   0.819   1.155   5.824  1.1197  0.5743 -0.6262
 8879SOL     OW38095   2.050   2.738   7.656 -0.4119 -0.0843 -0.0410
 8879SOL    HW138096   2.050   2.728   7.751  1.3198 -0.8318 -0.1267
 8879SOL    HW238097   2.129   2.691   7.631 -0.4129 -0.5215  0.8143
 8880SOL     OW38098   1.362   1.014  11.109 -0.2707 -0.6010  0.1406
 8880SOL    HW138099   1.283   1.068  11.103  0.2115  0.0699 -0.1896
 8880SOL    HW238100   1.418   1.076  11.155 -0.0370 -0.1284 -0.7896
 8881SOL     OW38101   2.345   3.247  16.564 -0.2460  0.2977 -1.0034
 8881SOL    HW138102   2.329   3.200  16.482 -0.2639 -0.1467 -0.7465
 8881SOL    HW238103   2.345   3.338  16.533  1.6581  0.1570 -1.4163
 8882SOL     OW38104   2.942   1.593   6.368  0.1760 -0.1884  0.2306
 8882SOL    HW138105   2.916   1.681   6.396  1.5703 -0.4239  2.2094
 8882SOL    HW238106   2.903   1.600   6.281 -2.8286  0.0460  1.5911
 8883SOL     OW38107   1.949   3.534   5.697  0.0421  0.3098 -0.5978
 8883SOL    HW138108   1.862   3.512   5.665  0.3029 -1.4359 -0.1506
 8883SOL    HW238109   2.011   3.480   5.647 -0.8762 -1.3660  0.0631
 8884SOL     OW38110   1.189   0.181   2.601 -0.6600 -0.2259  0.4389
 8884SOL    HW138111   1.177   0.150   2.511 -0.4472 -3.1203  1.4011
 8884SOL    HW238112   1.135   0.259   2.610  1.3348  1.1210  0.7737
 8885SOL     OW38113   3.315   1.854   6.198 -0.2345  0.0137  0.1612
 8885SOL    HW138114   3.246   1.806   6.152 -0.4849  1.0860 -0.5851
 8885SOL    HW238115   3.293   1.845   6.291  1.3323 -1.8040  0.3517
 8886SOL     OW38116   1.228   3.201  12.573  1.1392 -0.3603 -0.2483
 8886SOL    HW138117   1.229   3.228  12.481  0.9590  1.2732  0.2221
 8886SOL    HW238118   1.169   3.274  12.591  2.2793  0.7116 -0.8317
 8887SOL     OW38119   0.485   1.299   2.612 -0.0221  0.3418 -0.9234
 8887SOL    HW138120   0.455   1.379   2.568 -1.5639  0.6858  0.7801
 8887SOL    HW238121   0.565   1.282   2.563  1.3076  2.8648  0.3723
 8888SOL     OW38122   0.719   2.983   5.521 -0.2811  0.5913 -0.1502
 8888SOL    HW138123   0.735   2.966   5.428 -0.1963 -0.4408  0.0590
 8888SOL    HW238124   0.793   3.038   5.545  0.2321  1.0887 -2.8713
 8889SOL     OW38125   3.767   2.649   5.973 -0.0729  0.0571 -0.6542
 8889SOL    HW138126   3.825   2.623   5.902  3.2988  1.6713  1.5196
 8889SOL    HW238127   3.699   2.694   5.923 -0.1651 -1.6416 -2.0791
 8890SOL     OW38128   3.111   2.141  11.989  0.1324 -0.3375 -0.0078
 8890SOL    HW138129   3.188   2.190  12.018 -0.1381 -1.2780  2.3872
 8890SOL    HW238130   3.083   2.126  12.080  0.1796 -0.8533 -0.0770
 8891SOL     OW38131   3.265   0.900   0.112 -0.0359  0.1515  0.0230
 8891SOL    HW138132   3.280   0.902   0.017 -0.9082  0.5051 -0.1082
 8891SOL    HW238133   3.329   0.958   0.151 -0.0345 -1.1843  2.0112
 8892SOL     OW38134   1.621   4.332  17.224  0.6784 -0.3580 -0.2354
 8892SOL    HW138135   1.642   4.335  17.131 -0.7674  0.2134 -0.5551
 8892SOL    HW238136   1.599   4.423  17.244  2.2704 -0.1014  0.3575
 8893SOL     OW38137   0.299   4.252  15.226 -0.4289  0.4114 -0.0694
 8893SOL    HW138138   0.316   4.345  15.213 -0.6289  0.4172 -0.3059
 8893SOL    HW238139   0.221   4.256  15.281  0.1302 -0.9328  0.8150
 8894SOL     OW38140   2.635   4.202   6.275  0.2361  0.2569  0.2441
 8894SOL    HW138141   2.655   4.142   6.347  1.7746 -1.1517 -1.3562
 8894SOL    HW238142   2.550   4.169   6.246 -0.2490  1.2874  0.4781
 8895SOL     OW38143   1.713   1.233  12.408  0.1389 -0.1497 -0.2561
 8895SOL    HW138144   1.652   1.294  12.367 -0.2845 -0.6351 -0.3388
 8895SOL    HW238145   1.653   1.165  12.436 -1.0382  0.8017 -0.4660
 8896SOL     OW38146   4.520   1.739   8.705  0.2701 -0.5625  0.1654
 8896SOL    HW138147   4.507   1.802   8.775  3.1969  0.2811 -0.0433
 8896SOL    HW238148   4.435   1.696   8.709 -0.1668  0.2447 -0.4892
 8897SOL     OW38149   4.589   2.792   8.351 -0.8865  0.0819  0.5864
 8897SOL    HW138150   4.607   2.810   8.443  0.0864 -0.0450  0.4178
 8897SOL    HW238151   4.567   2.699   8.354  2.9419 -0.8310  0.0804
 8898SOL     OW38152   0.099   2.618   6.614 -0.3623 -0.1761 -0.0681
 8898SOL    HW138153   0.188   2.601   6.581 -0.5257 -0.5406 -0.3247
 8898SOL    HW238154   0.079   2.531   6.648 -2.3820  0.9434  1.5769
 8899SOL     OW38155   0.035   0.531  13.154  0.5039 -0.1239 -0.3875
 8899SOL    HW138156   0.015   0.608  13.102  2.6278  0.4557 -0.3447
 8899SOL    HW238157   4.708   0.464  13.104  0.3421 -1.9905  2.2750
 8900SOL     OW38158   2.845   4.153   2.374  0.2155 -0.5100 -0.3387
 8900SOL    HW138159   2.914   4.217   2.353  0.0030 -0.1924 -0.0636
 8900SOL    HW238160   2.880   4.110   2.452 -0.2377  1.3531  0.8882
 8901SOL     OW38161   3.433   2.778  13.169  0.4351  0.2310  0.3909
 8901SOL    HW138162   3.521   2.766  13.133 -0.4447  0.8820 -1.9324
 8901SOL    HW238163   3.444   2.744  13.258  2.3429 -0.6401 -0.1538
 8902SOL     OW38164   0.368   1.857   3.250  0.3208  0.1233  0.2182
 8902SOL    HW138165   0.452   1.837   3.208  0.0078  0.6527 -0.6555
 8902SOL    HW238166   0.321   1.774   3.262  0.0507  0.6911  3.0399
 8903SOL     OW38167   0.368   0.199   7.316 -0.1603  0.0077  0.3410
 8903SOL    HW138168   0.429   0.241   7.377 -0.1489  1.1373 -0.4393
 8903SOL    HW238169   0.287   0.183   7.365 -1.2835 -0.9734 -1.8648
 8904SOL     OW38170   3.011   0.370  13.045 -0.2528  0.0610 -0.9159
 8904SOL    HW138171   3.019   0.434  13.115  0.4084 -0.9331 -0.0871
 8904SOL    HW238172   2.919   0.380  13.022 -0.2629  0.8945 -0.4826
 8905SOL     OW38173   0.893   2.157   6.453 -0.4142  0.5186 -1.0874
 8905SOL    HW138174   0.885   2.141   6.359  1.8475  0.3970 -1.2826
 8905SOL    HW238175   0.979   2.199   6.439  0.3093 -0.4621  0.5308
 8906SOL     OW38176   3.155   2.578   9.114 -0.7661 -0.2879  0.1793
 8906SOL    HW138177   3.088   2.520   9.078 -0.4809  0.1170 -1.0019
 8906SOL    HW238178   3.225   2.519   9.088  0.2880  1.0805 -0.0491
 8907SOL     OW38179   1.328   0.993   3.343 -0.4876 -0.1038  0.5352
 8907SOL    HW138180   1.343   1.057   3.413  0.6234  0.8551 -0.5692
 8907SOL    HW238181   1.350   1.049   3.268  1.4310 -0.8688  0.5384
 8908SOL     OW38182   2.918   0.415   5.913 -0.5040 -0.2249  0.1655
 8908SOL    HW138183   3.002   0.443   5.877  0.4371 -0.5017  2.1669
 8908SOL    HW238184   2.849   0.427   5.848  0.3994  0.5571 -0.6407
 8909SOL     OW38185   0.240   3.454   2.191 -0.5010 -0.4868  0.3016
 8909SOL    HW138186   0.249   3.359   2.198 -1.0494 -0.5736 -0.1599
 8909SOL    HW238187   0.152   3.463   2.228 -1.5157  1.5075 -2.6067
 8910SOL     OW38188   2.093   2.362   1.505  1.2800 -0.6299  0.1032
 8910SOL    HW138189   2.019   2.355   1.444  0.5909 -0.4593  0.9363
 8910SOL    HW238190   2.146   2.282   1.495 -1.0897 -2.3283  1.2107
 8911SOL     OW38191   4.089   4.639   8.804 -0.6864 -0.4775  0.4128
 8911SOL    HW138192   4.133   4.609   8.882  0.2713 -0.4056 -0.1007
 8911SOL    HW238193   4.147   4.636   8.728 -0.1347 -1.7762  0.8989
 8912SOL     OW38194   2.920   3.107  15.821  0.9282 -0.1199  0.1553
 8912SOL    HW138195   2.963   3.095  15.906  0.3915  1.2112  0.6205
 8912SOL    HW238196   2.848   3.046  15.830 -1.5222  2.7959  0.1648
 8913SOL     OW38197   3.191   0.046  12.884 -0.1434 -0.0210 -0.1060
 8913SOL    HW138198   3.217   0.071  12.795 -0.7266  1.5715  0.1678
 8913SOL    HW238199   3.130   4.699  12.850 -1.2583  0.9141  0.0769
 8914SOL     OW38200   0.679   2.531  15.141 -0.0323  0.2160  0.5120
 8914SOL    HW138201   0.749   2.538  15.205  0.1823  1.4438  0.1413
 8914SOL    HW238202   0.686   2.436  15.132  1.7951  0.5404 -1.4859
 8915SOL     OW38203   1.274   0.057   1.292 -0.4321  0.2662 -0.3408
 8915SOL    HW138204   1.183   0.070   1.318 -0.1893  1.7680 -0.1977
 8915SOL    HW238205   1.261   0.019   1.205  0.0271  0.9624 -0.7158
 8916SOL     OW38206   4.477   4.712   7.114 -0.2652 -0.4853 -0.2126
 8916SOL    HW138207   4.415   0.051   7.070  0.1156 -1.0391 -1.4893
 8916SOL    HW238208   4.508   4.655   7.044  1.0327  0.0838 -0.0990
 8917SOL     OW38209   1.974   4.562   5.881  0.0754 -0.3234 -0.5460
 8917SOL    HW138210   1.944   4.482   5.838 -1.5185 -1.1087  2.0015
 8917SOL    HW238211   1.893   4.605   5.907  1.9570  2.5621  0.5038
 8918SOL     OW38212   3.039   1.805  16.114  0.3997 -0.2220 -0.0874
 8918SOL    HW138213   2.959   1.854  16.132 -0.9236 -2.0064 -1.1044
 8918SOL    HW238214   3.069   1.844  16.032 -0.0861 -1.1704 -0.7186
 8919SOL     OW38215   0.427   3.137  17.119  0.1903  0.8002 -0.6746
 8919SOL    HW138216   0.460   3.125  17.030 -0.7657 -0.8508 -0.8087
 8919SOL    HW238217   0.475   3.219  17.131 -0.7708  0.9851  1.8068
 8920SOL     OW38218   0.111   3.715   9.764  0.4886  0.0897  0.3686
 8920SOL    HW138219   0.116   3.621   9.744  0.2510 -0.3702  2.4453
 8920SOL    HW238220   0.123   3.720   9.859  2.2651 -0.6795  0.1898
 8921SOL     OW38221   2.862   0.172   0.721 -0.3053 -0.2929  0.5643
 8921SOL    HW138222   2.780   0.148   0.677  0.3765  0.4382 -1.1081
 8921SOL    HW238223   2.865   0.267   0.706 -0.1198 -0.5393 -0.9887
 8922SOL     OW38224   2.189   3.258   7.595  0.1577 -0.2344  0.4020
 8922SOL    HW138225   2.240   3.177   7.602 -1.5358 -1.5467 -2.3537
 8922SOL    HW238226   2.125   3.226   7.531 -0.8287  0.9691  0.7785
 8923SOL     OW38227   0.811   0.986   4.447 -0.0560  0.1326 -0.0904
 8923SOL    HW138228   0.755   1.016   4.376 -2.2368  0.2314  1.6954
 8923SOL    HW238229   0.789   0.893   4.443  2.7752 -0.6193  1.4304
 8924SOL     OW38230   4.667   0.652   0.843  0.7231  0.2473  0.4978
 8924SOL    HW138231   4.688   0.643   0.936  1.0197  2.7315  0.6697
 8924SOL    HW238232   0.033   0.653   0.798 -0.4876  0.7634 -1.7913
 8925SOL     OW38233   0.518   3.657   0.815  0.3094  0.1953  0.3277
 8925SOL    HW138234   0.511   3.725   0.882 -1.7585 -0.0134  0.3073
 8925SOL    HW238235   0.519   3.713   0.737 -2.4092  1.4725  1.2329
 8926SOL     OW38236   2.803   2.208   6.932 -0.1141 -0.3875 -0.0040
 8926SOL    HW138237   2.728   2.261   6.902 -0.7009 -0.6027  1.0952
 8926SOL    HW238238   2.872   2.274   6.941 -0.7827  0.4780 -1.1467
 8927SOL     OW38239   3.514   2.901   1.858  0.5749  0.1655  0.5795
 8927SOL    HW138240   3.490   2.983   1.901  2.4943  0.9013  0.2821
 8927SOL    HW238241   3.450   2.841   1.895  1.6399 -0.8716  0.7436
 8928SOL     OW38242   3.020   3.976   9.224  0.6503  0.6916 -0.9169
 8928SOL    HW138243   2.934   3.968   9.265 -0.3636  1.7599 -2.8451
 8928SOL    HW238244   3.011   4.067   9.195  0.4257  0.6806 -0.8807
 8929SOL     OW38245   3.241   3.812   7.919  0.0987  0.0548  0.2295
 8929SOL    HW138246   3.328   3.785   7.889 -0.0847  0.4093 -0.6128
 8929SOL    HW238247   3.256   3.840   8.010 -0.8794 -0.3270  0.5083
 8930SOL     OW38248   0.628   1.969   6.265 -0.3503  0.1287 -0.2084
 8930SOL    HW138249   0.643   1.906   6.194 -1.8694  0.8293 -1.1566
 8930SOL    HW238250   0.588   1.922   6.337  0.5091 -1.0866 -0.5147
 8931SOL     OW38251   1.041   0.923   3.359 -0.1129  0.1441 -0.1008
 8931SOL    HW138252   0.981   0.932   3.286 -0.6374 -0.9721  0.1785
 8931SOL    HW238253   1.108   0.977   3.317  0.7454 -0.8100  0.0402
 8932SOL     OW38254   0.187   4.493   7.823  0.1807  0.5636 -0.8058
 8932SOL    HW138255   0.100   4.485   7.785 -0.5746  1.2758  0.7534
 8932SOL    HW238256   0.227   4.565   7.775  0.9649 -0.0582 -1.0975
 8933SOL     OW38257   1.185   3.131   4.991  0.5536 -0.1478  0.6403
 8933SOL    HW138258   1.196   3.220   4.959 -0.3745 -0.3045 -0.1272
 8933SOL    HW238259   1.112   3.144   5.051  0.7638 -1.6421  1.2281
 8934SOL     OW38260   3.436   4.594  15.622  0.1184 -0.6328 -0.4569
 8934SOL    HW138261   3.505   4.528  15.615 -0.3426 -1.1913  0.2690
 8934SOL    HW238262   3.357   4.554  15.658  1.1834 -1.1146  1.3384
 8935SOL     OW38263   2.430   2.318   3.553 -0.2841 -0.1041 -0.2336
 8935SOL    HW138264   2.373   2.382   3.595 -0.3077 -0.9714  1.0474
 8935SOL    HW238265   2.395   2.235   3.586 -0.7582 -0.7682 -2.3965
 8936SOL     OW38266   2.870   1.614   8.199 -0.0401 -0.0066 -0.3778
 8936SOL    HW138267   2.876   1.533   8.148  0.7292 -0.7576  0.9026
 8936SOL    HW238268   2.938   1.601   8.265 -2.0681  0.8771  1.8820
 8937SOL     OW38269   0.018   0.302   2.199  0.8797  0.1668 -0.0730
 8937SOL    HW138270   0.026   0.346   2.114  0.2132 -0.0683 -0.2544
 8937SOL    HW238271   0.051   0.215   2.176  0.7064 -0.3204  1.4896
 8938SOL     OW38272   0.604   1.802   3.107 -0.3035 -0.1747 -0.0499
 8938SOL    HW138273   0.686   1.805   3.057  0.2229 -0.6001  0.7909
 8938SOL    HW238274   0.609   1.706   3.115 -0.8551 -0.5612 -4.0938
 8939SOL     OW38275   3.427   4.363   7.064  0.4749 -0.0631 -0.1120
 8939SOL    HW138276   3.391   4.419   6.995 -0.4463  4.3781  3.9377
 8939SOL    HW238277   3.439   4.280   7.018 -0.3460  0.0589 -0.5427
 8940SOL     OW38278   4.265   0.287  17.003 -0.5312 -0.4131  0.1511
 8940SOL    HW138279   4.290   0.273  17.094 -2.0032 -1.9191  0.3311
 8940SOL    HW238280   4.269   0.198  16.970 -1.1719 -0.4278  0.1079
 8941SOL     OW38281   2.766   2.538   3.166 -0.0148 -0.2592  0.3291
 8941SOL    HW138282   2.781   2.445   3.186  2.0343  0.3796  1.6347
 8941SOL    HW238283   2.692   2.549   3.226 -1.9948 -0.9732 -1.9485
 8942SOL     OW38284   3.774   1.365   6.121  0.5025  0.4516  0.2574
 8942SOL    HW138285   3.688   1.383   6.159  0.4638  0.8024 -0.0023
 8942SOL    HW238286   3.773   1.444   6.068  0.9637  0.2612 -0.0327
 8943SOL     OW38287   0.548   4.525  14.693 -0.4590  0.7283 -0.4071
 8943SOL    HW138288   0.461   4.530  14.653  0.1764 -1.5365 -2.1099
 8943SOL    HW238289   0.511   4.531  14.781 -1.8566 -1.4225 -0.8478
 8944SOL     OW38290   0.242   4.700   7.633 -0.2098 -0.2993  0.3342
 8944SOL    HW138291   0.287   0.040   7.693 -0.6793  0.0542  0.3315
 8944SOL    HW238292   0.158   0.023   7.619  0.0951  0.5543  1.1325
 8945SOL     OW38293   0.162   3.585   2.902  0.2422  0.4856  0.1827
 8945SOL    HW138294   0.246   3.603   2.861  0.3507 -0.3152  0.0526
 8945SOL    HW238295   0.143   3.663   2.955  1.3300  1.6678 -1.1557
 8946SOL     OW38296   0.540   0.936   7.816 -0.4316 -0.1273  0.2141
 8946SOL    HW138297   0.620   0.934   7.868 -0.7989  1.2968  0.8240
 8946SOL    HW238298   0.494   0.996   7.874 -1.0696 -1.8670  1.5185
 8947SOL     OW38299   0.592   2.425  11.532  0.0336 -0.5373  0.5022
 8947SOL    HW138300   0.647   2.466  11.599  0.5302 -1.5947  0.7469
 8947SOL    HW238301   0.649   2.450  11.460 -2.2917  0.0691 -1.0939
 8948SOL     OW38302   2.526   2.639   6.754  0.5256 -0.1066 -0.1389
 8948SOL    HW138303   2.456   2.654   6.691  0.0703  0.2607  0.4452
 8948SOL    HW238304   2.575   2.721   6.745  0.8474 -0.1682  0.9504
 8949SOL     OW38305   2.770   3.902   5.863 -0.5666 -0.1354 -0.0995
 8949SOL    HW138306   2.825   3.838   5.908 -0.1016  1.4906  1.6648
 8949SOL    HW238307   2.693   3.900   5.919  0.0898  1.2308  0.8699
 8950SOL     OW38308   4.400   3.081   0.847 -0.7422  0.3733  0.1405
 8950SOL    HW138309   4.409   3.063   0.941  0.0723  0.1472  0.0183
 8950SOL    HW238310   4.314   3.046   0.826 -0.1175 -2.4320  2.3405
 8951SOL     OW38311   0.477   0.928   6.521 -0.1827 -0.4274  0.0176
 8951SOL    HW138312   0.481   1.021   6.544 -0.7602 -0.8999  2.0519
 8951SOL    HW238313   0.524   0.923   6.438  0.5212  1.2809  0.3252
 8952SOL     OW38314   1.469   4.380   3.923  0.1828  0.1264  0.0061
 8952SOL    HW138315   1.489   4.474   3.918 -1.0358  0.4109  0.5400
 8952SOL    HW238316   1.414   4.377   3.845  1.4603  0.9789 -0.9402
 8953SOL     OW38317   2.176   0.903  17.459 -0.0925  0.4104  0.1088
 8953SOL    HW138318   2.159   0.997  17.461 -0.8147  0.3117 -1.1621
 8953SOL    HW238319   2.270   0.913  17.441  0.2479 -0.9979  1.0610
 8954SOL     OW38320   4.316   2.465  16.623 -0.0102  0.2430 -0.5578
 8954SOL    HW138321   4.321   2.537  16.686  2.8462 -0.5761  0.1530
 8954SOL    HW238322   4.268   2.393  16.663 -0.8320  0.7755 -0.5888
 8955SOL     OW38323   3.873   0.741   5.650 -0.1504  0.4013  0.7706
 8955SOL    HW138324   3.910   0.746   5.738  0.5282  0.1085  0.5017
 8955SOL    HW238325   3.893   0.648   5.635 -1.7328 -0.1763  2.1902
 8956SOL     OW38326   2.380   1.677   5.781  0.6507  0.2843  0.6849
 8956SOL    HW138327   2.405   1.741   5.715  2.1232 -0.1845  0.7944
 8956SOL    HW238328   2.297   1.647   5.744  1.0094 -0.7039  0.6936
 8957SOL     OW38329   0.378   2.962  12.394  0.0696  0.1393  0.4203
 8957SOL    HW138330   0.472   2.982  12.396  0.2678 -0.6263 -1.8420
 8957SOL    HW238331   0.364   2.922  12.308 -1.7209 -0.6177  1.0664
 8958SOL     OW38332   3.030   0.521   3.790 -0.6953 -0.2298  0.3901
 8958SOL    HW138333   2.938   0.500   3.780 -0.1742 -1.9036 -0.8473
 8958SOL    HW238334   3.064   0.478   3.712 -4.0266 -1.1740 -0.5360
 8959SOL     OW38335   0.633   0.040  14.550  1.0655 -0.1553 -0.2211
 8959SOL    HW138336   0.601   4.687  14.604  0.1576 -0.8680 -1.6981
 8959SOL    HW238337   0.602   0.115  14.602  0.6263 -0.4527 -0.0552
 8960SOL     OW38338   0.100   0.109   9.536 -0.4428  0.0057 -0.2687
 8960SOL    HW138339   0.101   0.149   9.449  1.0176 -0.1773 -0.3226
 8960SOL    HW238340   0.148   0.029   9.516 -2.8150 -1.1608 -1.3486
 8961SOL     OW38341   3.297   1.660  15.745 -0.8093 -0.1785 -0.3206
 8961SOL    HW138342   3.361   1.730  15.731 -1.8428  1.6380  4.1556
 8961SOL    HW238343   3.248   1.659  15.662 -0.9029 -0.0847 -0.2667
 8962SOL     OW38344   0.193   1.570  10.242  0.4337  0.3015 -0.3565
 8962SOL    HW138345   0.192   1.493  10.185  1.8826 -0.3053  0.4262
 8962SOL    HW238346   0.255   1.542  10.310  2.2935 -0.7479 -2.4949
 8963SOL     OW38347   3.379   2.929  15.512  0.7064  0.3439 -0.2986
 8963SOL    HW138348   3.413   2.839  15.509  2.6851  1.0740 -0.2938
 8963SOL    HW238349   3.325   2.918  15.590 -0.5484 -2.1627 -1.5148
 8964SOL     OW38350   3.550   0.635  12.149  0.0781  0.0707  0.4216
 8964SOL    HW138351   3.536   0.665  12.238 -0.3418 -1.2760  0.8037
 8964SOL    HW238352   3.465   0.612  12.111  0.7553 -1.7941  0.0775
 8965SOL     OW38353   1.885   4.264   4.922  0.0847 -0.6367  0.3156
 8965SOL    HW138354   1.864   4.312   5.003  1.5399 -2.9178  2.0444
 8965SOL    HW238355   1.797   4.264   4.883  2.0016 -0.2033 -4.0158
 8966SOL     OW38356   3.110   0.939  12.266  0.0220 -0.1380  0.1106
 8966SOL    HW138357   3.015   0.939  12.252 -0.1259 -1.7524  1.1069
 8966SOL    HW238358   3.127   1.032  12.280 -0.8760 -0.2495  2.0132
 8967SOL     OW38359   1.787   0.124   3.665  0.2808  0.1384 -0.2905
 8967SOL    HW138360   1.784   0.154   3.574  0.5499  0.0382 -0.3340
 8967SOL    HW238361   1.881   0.137   3.682  0.0832  0.2717  0.6986
 8968SOL     OW38362   4.577   2.071  12.622  0.4940 -0.4077  0.1457
 8968SOL    HW138363   4.491   2.102  12.649  1.2651  0.5147  1.5551
 8968SOL    HW238364   4.605   2.155  12.587  0.8297 -1.2533 -1.6294
 8969SOL     OW38365   2.302   0.218  15.881 -0.4576 -0.2499 -0.2190
 8969SOL    HW138366   2.352   0.262  15.950 -0.7774  0.1276 -0.2282
 8969SOL    HW238367   2.332   0.268  15.805 -2.5378 -0.6737 -1.3176
 8970SOL     OW38368   3.667   3.396   1.358 -0.1048 -0.3388 -0.6440
 8970SOL    HW138369   3.759   3.390   1.381 -0.0119  0.7110 -0.7412
 8970SOL    HW238370   3.649   3.473   1.412 -0.2477  0.4151 -1.7599
 8971SOL     OW38371   0.634   0.072   7.273  0.4830 -0.0115  0.0398
 8971SOL    HW138372   0.696   0.032   7.333  0.0891 -0.4418  0.1653
 8971SOL    HW238373   0.600   0.129   7.342 -3.1008  0.6792 -2.2806
 8972SOL     OW38374   4.179   2.390   4.479 -0.1091 -0.0989  0.1352
 8972SOL    HW138375   4.147   2.310   4.437 -0.9754 -0.5440  1.6376
 8972SOL    HW238376   4.251   2.351   4.528 -0.1780 -0.5247 -0.1060
 8973SOL     OW38377   0.086   3.195   6.543  0.4880 -0.8800 -0.1439
 8973SOL    HW138378   0.171   3.235   6.524  0.8950 -2.3662 -1.4439
 8973SOL    HW238379   0.107   3.103   6.560  2.6168 -0.5136 -0.7553
 8974SOL     OW38380   2.516   1.279   8.920 -0.0744 -0.1730  0.1910
 8974SOL    HW138381   2.587   1.217   8.941 -0.7339 -1.5491 -1.6608
 8974SOL    HW238382   2.452   1.224   8.875  1.8106 -3.2125  1.1410
 8975SOL     OW38383   4.002   0.091  11.550  0.4058 -0.3070 -0.0740
 8975SOL    HW138384   3.974   0.156  11.486 -0.3398 -0.6588 -0.1141
 8975SOL    HW238385   3.994   0.015  11.492  0.4034 -1.9162  2.0428
 8976SOL     OW38386   1.517   3.063  12.457  0.2741 -0.5797  0.2292
 8976SOL    HW138387   1.484   3.065  12.547  0.3630  0.0746  0.2458
 8976SOL    HW238388   1.581   2.992  12.462  0.7200 -0.1545  0.4954
 8977SOL     OW38389   3.569   3.772   2.517  0.2830  0.4436 -0.4576
 8977SOL    HW138390   3.515   3.799   2.442  1.1867 -0.9800 -1.6257
 8977SOL    HW238391   3.624   3.707   2.474  1.0140  0.4426  0.4951
 8978SOL     OW38392   2.865   3.039   9.256  0.4129 -0.0182 -0.0903
 8978SOL    HW138393   2.959   3.055   9.264  0.4765 -0.4267  0.0027
 8978SOL    HW238394   2.862   2.993   9.172 -2.1984 -0.4295  0.2221
 8979SOL     OW38395   4.093   3.083   8.877  0.3507 -0.0588 -0.1631
 8979SOL    HW138396   4.018   3.033   8.910  1.7020  0.5050  3.7223
 8979SOL    HW238397   4.047   3.145   8.820  1.1219 -1.2663 -2.0906
 8980SOL     OW38398   2.852   0.830  11.004  0.0951 -0.2333  0.7434
 8980SOL    HW138399   2.827   0.895  11.070  1.4578  1.4423 -0.4020
 8980SOL    HW238400   2.805   0.872  10.932  0.9255  0.5311  0.6461
 8981SOL     OW38401   0.406   3.655   5.397 -0.5054  0.4663  0.5454
 8981SOL    HW138402   0.464   3.675   5.470  1.6571  3.8093 -2.1388
 8981SOL    HW238403   0.454   3.685   5.320 -2.1969  0.6905 -0.4181
 8982SOL     OW38404   2.901   1.192  16.395 -0.4224 -0.2385 -0.3751
 8982SOL    HW138405   2.903   1.287  16.391 -2.6697 -0.1623  0.3699
 8982SOL    HW238406   2.927   1.173  16.485  2.8167 -1.7750 -1.6392
 8983SOL     OW38407   1.979   4.037   6.457  0.3181  0.4631  0.1139
 8983SOL    HW138408   1.899   3.986   6.445  0.7305 -0.0867 -0.3134
 8983SOL    HW238409   1.968   4.055   6.551 -4.3722  1.1112 -0.5616
 8984SOL     OW38410   1.466   3.477   4.594 -0.5380  0.6799 -0.5653
 8984SOL    HW138411   1.435   3.388   4.612 -0.0871  1.0629  2.1558
 8984SOL    HW238412   1.442   3.523   4.675  2.7210  0.6795  0.4092
 8985SOL     OW38413   1.182   1.407   7.576  0.3528  0.1204  0.3986
 8985SOL    HW138414   1.115   1.432   7.640  0.0298 -0.3888  0.2628
 8985SOL    HW238415   1.149   1.441   7.493  0.2635  2.0538  1.2325
 8986SOL     OW38416   1.613   3.516   8.733 -0.0787 -0.3890 -0.6147
 8986SOL    HW138417   1.577   3.439   8.689 -2.2612  0.5449 -0.4543
 8986SOL    HW238418   1.535   3.537   8.785  1.3855 -0.2637  1.5080
 8987SOL     OW38419   2.876   4.695   5.198 -0.7860 -0.0642  0.0220
 8987SOL    HW138420   2.929   0.054   5.189  0.6078 -0.4465  5.0120
 8987SOL    HW238421   2.789   0.007   5.226  0.2993  1.2704  1.8939
 8988SOL     OW38422   4.711   4.473  10.358 -0.3229 -0.3447 -0.5454
 8988SOL    HW138423   0.032   4.408  10.415  0.2539 -0.1443 -0.7215
 8988SOL    HW238424   4.620   4.461  10.385  0.0063 -1.0928  0.2172
 8989SOL     OW38425   4.658   2.123   5.010  0.4814  0.8048 -0.2938
 8989SOL    HW138426   4.576   2.094   5.050  1.6138 -0.8096  0.8429
 8989SOL    HW238427   0.002   2.121   5.081  1.2635 -0.6273 -1.0390
 8990SOL     OW38428   2.758   1.971   2.027 -0.2674 -0.1876  0.0914
 8990SOL    HW138429   2.834   2.019   2.059  2.0895 -3.0930 -1.1749
 8990SOL    HW238430   2.748   1.935   2.115  0.3854 -0.4583  0.0551
 8991SOL     OW38431   2.609   0.541   5.002  0.3776  0.0734 -0.0357
 8991SOL    HW138432   2.576   0.470   4.947  1.8723 -1.4877  1.0879
 8991SOL    HW238433   2.704   0.530   5.000  0.4495  0.9084 -1.1380
 8992SOL     OW38434   0.006   0.216   2.844  0.0025  0.1279 -0.0993
 8992SOL    HW138435   4.708   0.131   2.886 -1.4728  0.3301 -0.2775
 8992SOL    HW238436   0.038   0.264   2.920  0.5893  1.5345 -1.2496
 8993SOL     OW38437   0.601   1.581  14.337 -0.3220  0.3629  0.2008
 8993SOL    HW138438   0.626   1.673  14.337  1.9680 -0.2704  1.0623
 8993SOL    HW238439   0.506   1.597  14.340 -0.3130  0.5955 -0.6167
 8994SOL     OW38440   4.055   0.041   6.657 -0.5769 -0.1268 -0.3964
 8994SOL    HW138441   4.049   0.137   6.659  2.4438  0.0776  0.1662
 8994SOL    HW238442   4.150   0.029   6.666 -0.3404  1.5515 -0.6419
 8995SOL     OW38443   4.301   3.454   9.735 -0.2440  0.1184  0.8168
 8995SOL    HW138444   4.265   3.385   9.790 -0.7958 -0.9800 -0.9438
 8995SOL    HW238445   4.395   3.439   9.744 -0.3351  0.1689  1.8718
 8996SOL     OW38446   2.304   3.603   8.046  0.1644 -0.1133  0.8251
 8996SOL    HW138447   2.366   3.545   8.090 -1.3087 -2.1726  0.2006
 8996SOL    HW238448   2.319   3.590   7.953  0.7543  1.1944  0.7434
 8997SOL     OW38449   3.738   3.953  16.262 -0.5050  0.5302  0.2234
 8997SOL    HW138450   3.810   4.013  16.244  0.5702 -1.0007 -0.5129
 8997SOL    HW238451   3.671   4.004  16.308  0.7159  0.8854  1.6003
 8998SOL     OW38452   0.020   0.415   1.944  0.1992 -0.5070  0.1446
 8998SOL    HW138453   4.661   0.468   1.956  1.0060  0.2291  2.1291
 8998SOL    HW238454   0.062   0.468   1.876 -2.1851 -0.2223 -1.1498
 8999SOL     OW38455   0.839   1.848  11.998  0.8437 -0.5478  0.2602
 8999SOL    HW138456   0.889   1.838  11.917  0.9881 -0.3438  0.3272
 8999SOL    HW238457   0.870   1.932  12.031  1.3190  0.4729 -2.8263
 9000SOL     OW38458   2.683   0.241   6.113  0.1978 -0.1139 -0.4175
 9000SOL    HW138459   2.673   0.185   6.190  1.0772  0.3212  0.0128
 9000SOL    HW238460   2.595   0.233   6.076  0.6286  1.0360 -1.7020
 9001SOL     OW38461   1.686   1.030  16.594 -0.2930  0.2301  0.8739
 9001SOL    HW138462   1.646   0.946  16.572  1.4505 -0.4891  0.4825
 9001SOL    HW238463   1.728   1.003  16.676  1.3225 -0.8510 -0.3445
 9002SOL     OW38464   3.408   0.301  14.433  0.6704 -0.1216  0.0683
 9002SOL    HW138465   3.371   0.250  14.360 -1.4764  0.5818  0.6547
 9002SOL    HW238466   3.434   0.382  14.391  0.2980  0.5838  1.2115
 9003SOL     OW38467   4.010   2.493  11.507  0.1189  0.1497 -0.5168
 9003SOL    HW138468   3.979   2.489  11.417  0.6299  0.3463 -0.6990
 9003SOL    HW238469   4.103   2.505  11.490 -0.4440  0.5243 -3.2824
 9004SOL     OW38470   4.488   4.445  16.512 -0.1357 -0.5875 -0.3743
 9004SOL    HW138471   4.498   4.540  16.504  0.2864 -0.6001  0.0367
 9004SOL    HW238472   4.502   4.432  16.606  1.9003  0.1691 -0.5774
 9005SOL     OW38473   0.212   0.136  13.054  0.0551 -0.3781  0.1168
 9005SOL    HW138474   0.217   0.188  12.973  0.0059  0.4346  0.6299
 9005SOL    HW238475   0.118   0.123  13.059 -0.2709  1.9130  0.2497
 9006SOL     OW38476   0.269   1.120   2.536  0.4872  0.2968 -0.7638
 9006SOL    HW138477   0.309   1.207   2.536 -1.2429  1.0948  1.0350
 9006SOL    HW238478   0.318   1.090   2.460  1.2160  1.5933 -0.8158
 9007SOL     OW38479   2.334   2.741   5.484  0.3093 -0.1949 -0.5314
 9007SOL    HW138480   2.245   2.733   5.450 -0.0114  0.9307  0.0438
 9007SOL    HW238481   2.327   2.836   5.500 -1.5911 -0.1179 -1.8076
 9008SOL     OW38482   1.090   1.956   5.897  0.3117  0.0529  0.0579
 9008SOL    HW138483   1.118   1.982   5.809 -1.6151  0.6658 -0.3835
 9008SOL    HW238484   1.138   2.020   5.950 -2.8680  2.4279  0.1458
 9009SOL     OW38485   0.109   2.705  12.917  0.3424 -0.3090  0.1263
 9009SOL    HW138486   0.020   2.713  12.883  0.3548 -0.9754 -0.0549
 9009SOL    HW238487   0.093   2.785  12.966 -1.4932 -0.6447  0.0701
 9010SOL     OW38488   3.065   2.944   8.660 -0.0225  0.3155 -0.1661
 9010SOL    HW138489   3.008   2.882   8.614  1.7796 -1.9765  0.6700
 9010SOL    HW238490   3.100   2.997   8.588 -3.2227  1.0178 -1.2007
 9011SOL     OW38491   2.685   4.198   0.903  0.2020  0.5499 -0.0036
 9011SOL    HW138492   2.774   4.226   0.924 -0.7684  1.0713  3.3841
 9011SOL    HW238493   2.640   4.279   0.925 -0.6983  0.2383 -0.7159
 9012SOL     OW38494   0.786   3.591   6.118  0.6511 -0.1783 -0.3528
 9012SOL    HW138495   0.817   3.661   6.060 -0.5961  1.2663  0.7527
 9012SOL    HW238496   0.746   3.536   6.051  0.6833  0.6020 -1.0085
 9013SOL     OW38497   4.202   0.685  17.261  0.0364  0.1885 -0.4074
 9013SOL    HW138498   4.255   0.668  17.339  1.8434  0.6561 -1.5498
 9013SOL    HW238499   4.247   0.751  17.208 -0.2664 -0.4362 -1.4246
 9014SOL     OW38500   2.904   0.921   7.841 -0.2160 -0.0411 -0.1576
 9014SOL    HW138501   2.962   0.990   7.874 -0.7172  0.5897 -0.6021
 9014SOL    HW238502   2.863   0.964   7.766  0.6560 -1.4524 -1.4399
 9015SOL     OW38503   3.713   3.121   9.481 -0.0150  0.8329 -0.1377
 9015SOL    HW138504   3.655   3.158   9.548 -1.7494 -0.8608 -0.6946
 9015SOL    HW238505   3.643   3.084   9.426 -0.3830  0.9582  0.2458
 9016SOL     OW38506   4.189   2.002   3.247  0.3250 -0.2888  0.5604
 9016SOL    HW138507   4.179   2.083   3.197  0.2619 -1.3830 -1.2026
 9016SOL    HW238508   4.264   1.966   3.199  1.2930  0.0688  1.8095
 9017SOL     OW38509   2.596   2.964   2.978  0.0139  0.0289  0.3774
 9017SOL    HW138510   2.535   3.038   2.984  2.9428  2.5429 -0.5493
 9017SOL    HW238511   2.652   2.995   2.907 -1.3038  0.7053 -0.3615
 9018SOL     OW38512   3.053   3.263   4.955 -0.4869 -0.0759  0.5687
 9018SOL    HW138513   3.118   3.202   4.919 -3.8650 -3.4311  0.0888
 9018SOL    HW238514   3.101   3.295   5.031 -2.4199  0.4792  1.5632
 9019SOL     OW38515   3.472   2.179   0.397  0.2151  0.1015 -0.4405
 9019SOL    HW138516   3.479   2.230   0.316 -0.4364  1.2956  0.2642
 9019SOL    HW238517   3.455   2.247   0.462  1.2092 -0.5566  0.5001
 9020SOL     OW38518   2.497   0.780   0.083 -0.0636  0.7459 -0.3110
 9020SOL    HW138519   2.497   0.855   0.141  1.0440  2.5659 -2.6444
 9020SOL    HW238520   2.404   0.771   0.064  0.2818  0.0815 -1.7251
 9021SOL     OW38521   3.456   4.079   6.180  0.1996  0.3108 -0.2895
 9021SOL    HW138522   3.456   4.068   6.085 -2.6017  1.8897 -0.4817
 9021SOL    HW238523   3.452   4.174   6.185  0.0639  0.1125  3.4556
 9022SOL     OW38524   1.555   2.168  11.685  0.1132  0.2620  0.3186
 9022SOL    HW138525   1.539   2.194  11.594 -1.0910 -1.9365 -0.0943
 9022SOL    HW238526   1.552   2.256  11.724 -2.1940  2.0326 -3.8948
 9023SOL     OW38527   1.601   3.992   7.233 -0.4042 -0.3249 -0.6841
 9023SOL    HW138528   1.553   3.934   7.175 -0.1244 -2.8366  1.5876
 9023SOL    HW238529   1.678   3.938   7.251  0.2886  0.9266  0.1531
 9024SOL     OW38530   3.399   2.632   5.934 -0.0544  0.2152  0.1547
 9024SOL    HW138531   3.367   2.585   5.857  0.4867  2.6351 -1.5682
 9024SOL    HW238532   3.449   2.697   5.884  0.1926 -0.1273 -0.0379
 9025SOL     OW38533   3.231   0.602   3.371 -0.6746 -0.3400  0.0372
 9025SOL    HW138534   3.321   0.634   3.369  0.2245 -3.0144 -1.3530
 9025SOL    HW238535   3.206   0.637   3.285 -0.4449 -0.3465 -0.0312
 9026SOL     OW38536   3.890   0.389   2.696 -0.0685 -0.3162  0.4604
 9026SOL    HW138537   3.956   0.454   2.671 -1.6675  1.0549 -0.1789
 9026SOL    HW238538   3.883   0.401   2.791 -1.6323 -0.4253  0.3585
 9027SOL     OW38539   4.285   3.613   8.161 -0.4768  0.2595  0.0191
 9027SOL    HW138540   4.358   3.622   8.099 -0.5669  0.0513 -0.1149
 9027SOL    HW238541   4.309   3.654   8.244  2.3876 -0.5784 -0.3774
 9028SOL     OW38542   1.040   2.240  11.614  0.0542 -0.3257 -0.6759
 9028SOL    HW138543   1.134   2.227  11.627  0.3328  2.5365  0.2133
 9028SOL    HW238544   1.006   2.224  11.702  1.4078 -0.2231 -0.1274
 9029SOL     OW38545   0.833   4.712   3.000  0.2055  0.5072  0.1732
 9029SOL    HW138546   0.903   0.022   2.941 -0.9523  3.2147  0.1419
 9029SOL    HW238547   0.841   4.617   3.008 -0.9203  0.4489  0.6969
 9030SOL     OW38548   4.595   2.342   9.500  0.9124 -0.4380 -0.4232
 9030SOL    HW138549   4.563   2.279   9.435  3.2203  1.2903 -3.2156
 9030SOL    HW238550   4.579   2.429   9.464 -0.5721 -0.4685  0.1370
 9031SOL     OW38551   0.203   1.839   9.806 -0.1109  0.0571 -0.3040
 9031SOL    HW138552   0.287   1.812   9.844  0.1479  0.4946 -0.5549
 9031SOL    HW238553   0.152   1.886   9.872 -1.1136 -2.2967  0.5942
 9032SOL     OW38554   2.571   2.287   8.041  0.3933  0.0568 -0.0531
 9032SOL    HW138555   2.653   2.240   8.030  0.7293  1.0470 -1.7850
 9032SOL    HW238556   2.563   2.321   7.952 -2.1350  0.2057  0.2203
 9033SOL     OW38557   1.955   3.201   4.324 -0.6301  0.5337  0.2213
 9033SOL    HW138558   1.940   3.217   4.417  1.0549 -1.3071  0.8227
 9033SOL    HW238559   1.873   3.224   4.281 -1.4414 -0.1143  1.4261
 9034SOL     OW38560   1.566   3.220   5.471 -0.4189  0.0339 -0.0742
 9034SOL    HW138561   1.572   3.164   5.548 -0.9538  0.0171 -0.0404
 9034SOL    HW238562   1.526   3.161   5.407  1.0420  1.1364 -1.9970
 9035SOL     OW38563   0.903   1.935   3.885  0.2393 -0.0935 -0.0746
 9035SOL    HW138564   0.984   1.895   3.918 -1.0485 -1.7794  0.9973
 9035SOL    HW238565   0.846   1.875   3.932  2.1457 -3.2275 -1.7859
 9036SOL     OW38566   2.103   0.105  12.594 -0.1673  0.0206  0.1345
 9036SOL    HW138567   2.024   0.158  12.605 -1.9013 -1.9164 -2.5811
 9036SOL    HW238568   2.115   0.102  12.499  0.6530  0.7716  0.2205
 9037SOL     OW38569   4.066   4.365  11.510 -0.4103  0.4583  0.4757
 9037SOL    HW138570   4.048   4.392  11.600 -0.1881 -1.7233  1.1735
 9037SOL    HW238571   4.161   4.353  11.513 -0.8194 -2.7471  1.0950
 9038SOL     OW38572   4.036   2.121   2.937  0.1156 -0.0801  0.0482
 9038SOL    HW138573   4.051   2.212   2.961  0.2125 -0.0737 -0.0352
 9038SOL    HW238574   3.969   2.105   3.003  1.1968  0.2776  1.2273
 9039SOL     OW38575   0.240   4.560   9.028  0.3550  0.0460  0.2275
 9039SOL    HW138576   0.147   4.539   9.022  0.6443 -0.9244 -0.8916
 9039SOL    HW238577   0.239   4.639   8.973  1.4409 -1.2927 -1.7310
 9040SOL     OW38578   4.640   1.165  15.962 -0.6154  0.1838 -0.8428
 9040SOL    HW138579   4.569   1.123  16.010 -0.0124 -3.2109 -3.0151
 9040SOL    HW238580   4.650   1.238  16.024  0.1533  1.4296 -2.4188
 9041SOL     OW38581   2.995   1.910  11.024  0.6224  0.5239  0.1745
 9041SOL    HW138582   3.087   1.889  11.007 -0.2195 -1.6051 -1.7026
 9041SOL    HW238583   2.945   1.839  10.984  3.1615 -1.1928 -0.0117
 9042SOL     OW38584   1.737   1.652   3.287 -0.0464  0.2949 -0.3983
 9042SOL    HW138585   1.820   1.606   3.277 -0.2576  0.2666 -1.9931
 9042SOL    HW238586   1.692   1.619   3.209  0.2493  1.6701 -1.1543
 9043SOL     OW38587   1.006   3.801  17.066  0.4038 -0.2350  0.7280
 9043SOL    HW138588   1.075   3.796  17.132 -1.3342  0.9943  2.6337
 9043SOL    HW238589   0.985   3.894  17.063 -0.8408 -0.6355 -2.4983
 9044SOL     OW38590   2.961   1.174   8.180  0.0113 -0.1120 -0.1060
 9044SOL    HW138591   2.969   1.080   8.164  1.5314 -0.3673  2.0006
 9044SOL    HW238592   3.030   1.201   8.120  1.1223 -1.6920  0.4540
 9045SOL     OW38593   0.445   3.616   2.322  0.0962 -0.2246  0.4264
 9045SOL    HW138594   0.500   3.542   2.297  0.5399  0.0181  0.6988
 9045SOL    HW238595   0.360   3.571   2.320 -0.7132  1.3459 -0.2628
 9046SOL     OW38596   2.369   3.976   3.227 -0.3125 -0.0998 -0.0611
 9046SOL    HW138597   2.430   3.961   3.299  0.6515 -2.9587 -1.4989
 9046SOL    HW238598   2.406   4.057   3.191  0.8843 -0.7735 -0.3399
 9047SOL     OW38599   2.459   0.890   7.489  0.7693 -0.2535  0.0557
 9047SOL    HW138600   2.517   0.891   7.413  1.2234 -1.9153  0.3862
 9047SOL    HW238601   2.502   0.831   7.551 -1.4484 -0.8993  0.9774
 9048SOL     OW38602   1.618   1.206   6.965  0.1404  0.2002  0.1047
 9048SOL    HW138603   1.648   1.246   7.046  0.6340 -0.4934  0.2688
 9048SOL    HW238604   1.632   1.112   6.979 -3.2769 -0.6117 -1.8507
 9049SOL     OW38605   1.687   3.140   7.448 -0.1066 -0.0204 -0.7125
 9049SOL    HW138606   1.641   3.216   7.484  1.1120  0.6878 -0.6132
 9049SOL    HW238607   1.700   3.158   7.354  2.2874  2.5860  0.1185
 9050SOL     OW38608   2.563   1.920   8.276 -0.2343 -0.2008  0.4475
 9050SOL    HW138609   2.607   1.846   8.318  0.3931 -0.2198 -0.2333
 9050SOL    HW238610   2.593   1.994   8.329 -1.1730  0.5470 -0.0730
 9051SOL     OW38611   1.510   3.628  13.575 -0.2839  0.1546  0.3531
 9051SOL    HW138612   1.566   3.554  13.599  0.2943 -0.0576 -1.6847
 9051SOL    HW238613   1.435   3.626  13.635 -1.4027 -1.1405 -1.0954
 9052SOL     OW38614   3.911   0.469   3.476 -0.3037  0.0683 -0.3759
 9052SOL    HW138615   3.875   0.432   3.556 -0.9151  2.6935  0.5475
 9052SOL    HW238616   3.954   0.394   3.434  1.7782  0.3432  1.2498
 9053SOL     OW38617   0.411   3.452  10.298  0.0859  0.1993 -0.2878
 9053SOL    HW138618   0.392   3.389  10.229 -1.1882  0.2676 -0.0151
 9053SOL    HW238619   0.326   3.496  10.309 -0.8609 -2.0095  1.1742
 9054SOL     OW38620   1.153   0.721   6.391  0.6805 -0.5081 -0.8774
 9054SOL    HW138621   1.232   0.774   6.394  0.3652 -0.0423 -0.7307
 9054SOL    HW238622   1.126   0.715   6.300 -0.3916  2.8169 -0.7839
 9055SOL     OW38623   4.183   3.747   2.894 -0.2368  0.1072 -0.2761
 9055SOL    HW138624   4.203   3.796   2.974  0.3643  1.0061 -0.9813
 9055SOL    HW238625   4.089   3.757   2.879  0.0952  1.4028 -1.4506
 9056SOL     OW38626   4.543   1.358   3.453 -0.3950  0.1205 -0.6148
 9056SOL    HW138627   4.619   1.326   3.501 -0.3935 -1.7492 -1.8626
 9056SOL    HW238628   4.542   1.450   3.479 -0.1464 -0.4146  1.2888
 9057SOL     OW38629   1.555   4.010   4.795 -0.0458  0.2992  0.2602
 9057SOL    HW138630   1.517   3.983   4.878  0.8711  1.3185  1.0145
 9057SOL    HW238631   1.586   3.928   4.757  2.2033  0.6497  1.2979
 9058SOL     OW38632   2.820   1.065  15.240  0.4302 -0.0621  0.1459
 9058SOL    HW138633   2.868   1.119  15.177 -0.3363  0.1896 -0.2180
 9058SOL    HW238634   2.741   1.117  15.251  0.5426 -0.2888  2.1304
 9059SOL     OW38635   2.455   0.417   2.850  0.3675  0.2503  0.1650
 9059SOL    HW138636   2.522   0.474   2.812  0.8621 -0.0163  0.6397
 9059SOL    HW238637   2.507   0.337   2.854 -0.4640 -0.3909 -1.6821
 9060SOL     OW38638   2.326   4.541   3.856 -0.5621  0.1134 -0.9067
 9060SOL    HW138639   2.363   4.559   3.770 -2.1991 -0.7641 -1.7827
 9060SOL    HW238640   2.234   4.534   3.829 -0.6158  3.0275 -1.5292
 9061SOL     OW38641   0.752   1.056   0.553  0.0865  0.2979  0.3183
 9061SOL    HW138642   0.765   1.126   0.617 -0.8911 -0.9127  1.8495
 9061SOL    HW238643   0.769   0.974   0.599 -1.6393  0.0079  0.4548
 9062SOL     OW38644   2.132   1.727   3.358  0.1078 -0.3645  0.1387
 9062SOL    HW138645   2.151   1.806   3.307 -2.7419  0.0548 -0.2686
 9062SOL    HW238646   2.210   1.677   3.334  1.6126  0.4708  3.2705
 9063SOL     OW38647   1.976   3.904   3.633 -0.0392 -0.2990 -0.1107
 9063SOL    HW138648   2.057   3.931   3.588 -0.5546 -0.0842 -0.9146
 9063SOL    HW238649   2.003   3.938   3.718  0.3934 -0.6542 -0.1052
 9064SOL     OW38650   0.134   0.074   6.011 -0.3506 -0.2024  0.3856
 9064SOL    HW138651   0.150   0.110   6.098  1.8704  0.5113 -0.3329
 9064SOL    HW238652   0.180   4.711   6.025  1.0080  0.2581 -1.4580
 9065SOL     OW38653   1.653   0.743   3.240  0.1854 -0.1946 -0.3051
 9065SOL    HW138654   1.598   0.694   3.179 -0.4357  0.7479 -0.5088
 9065SOL    HW238655   1.587   0.782   3.298  2.8099  2.3129  0.9289
 9066SOL     OW38656   3.063   3.962   5.655  0.1115 -0.0680  0.0969
 9066SOL    HW138657   2.992   4.022   5.679 -0.3195  0.0161 -1.3721
 9066SOL    HW238658   3.102   4.011   5.583 -0.7852  1.5868  0.7305
 9067SOL     OW38659   0.388   0.554   1.923  0.1380  0.3508 -0.0232
 9067SOL    HW138660   0.468   0.587   1.964 -0.6148  1.2825  0.7072
 9067SOL    HW238661   0.412   0.461   1.919  0.0134  0.2520  1.7667
 9068SOL     OW38662   2.761   1.258  13.027 -0.1231  0.2731  0.5008
 9068SOL    HW138663   2.845   1.228  12.992 -0.2126 -1.8831  2.0795
 9068SOL    HW238664   2.782   1.336  13.077  1.5619 -0.8779  1.5895
 9069SOL     OW38665   0.433   0.967   3.022 -0.3920 -0.0500 -0.0088
 9069SOL    HW138666   0.448   1.043   2.966  1.4977 -0.7313 -0.4237
 9069SOL    HW238667   0.463   0.901   2.960  0.0152  1.4288 -1.3942
 9070SOL     OW38668   1.255   3.088   8.149 -0.3595  0.3028  0.3456
 9070SOL    HW138669   1.217   3.161   8.198 -2.8757 -0.6940 -0.1275
 9070SOL    HW238670   1.288   3.038   8.224  0.0303 -0.4742 -0.3451
 9071SOL     OW38671   2.369   0.422  13.864 -0.0667  0.2221  0.1141
 9071SOL    HW138672   2.318   0.415  13.945  1.0333  1.0758  0.8789
 9071SOL    HW238673   2.432   0.490  13.888  0.5386 -1.1036  2.2403
 9072SOL     OW38674   1.727   1.546  17.243 -0.3359  0.3004  0.3942
 9072SOL    HW138675   1.803   1.569  17.297  1.2597 -0.5947 -1.4610
 9072SOL    HW238676   1.716   1.457  17.274 -0.2231  0.9160  2.1788
 9073SOL     OW38677   2.164   3.003   9.844  0.1164 -0.1283  0.5746
 9073SOL    HW138678   2.129   2.916   9.864  0.4914 -0.0748  1.4588
 9073SOL    HW238679   2.222   2.987   9.770 -1.5835 -2.0475 -0.3363
 9074SOL     OW38680   2.726   4.292   7.735 -0.2853 -0.0572  0.2773
 9074SOL    HW138681   2.749   4.200   7.746  0.1255 -0.2370 -2.0728
 9074SOL    HW238682   2.632   4.281   7.724 -0.2476  0.6024 -0.7225
 9075SOL     OW38683   0.572   3.162   4.727  0.8503  0.2689 -0.4636
 9075SOL    HW138684   0.520   3.158   4.807 -0.0276  0.8686 -0.9945
 9075SOL    HW238685   0.522   3.109   4.664 -2.5187 -0.4150  2.7705
 9076SOL     OW38686   2.919   4.519   6.471 -0.8347  0.0541 -0.1963
 9076SOL    HW138687   2.961   4.507   6.557  1.6166 -0.1355 -1.4244
 9076SOL    HW238688   2.968   4.455   6.421  1.2233 -0.1167  2.0270
 9077SOL     OW38689   0.240   4.053  11.269 -0.0004  0.0526  0.1918
 9077SOL    HW138690   0.233   4.102  11.352  2.9387 -0.2357  0.6115
 9077SOL    HW238691   0.275   3.976  11.312  0.4609  0.2947  0.2448
 9078SOL     OW38692   0.865   2.484  11.902  0.3911  0.3724  0.4386
 9078SOL    HW138693   0.878   2.389  11.902 -0.6073  0.2320  2.6050
 9078SOL    HW238694   0.799   2.495  11.970 -0.2966  0.1686 -0.1998
 9079SOL     OW38695   2.390   1.438  17.502 -0.2838 -0.5328  0.1265
 9079SOL    HW138696   2.377   1.355  17.456  2.3894  0.1348 -1.8582
 9079SOL    HW238697   2.319   1.483  17.457  0.6170 -0.2258 -0.9690
 9080SOL     OW38698   4.694   3.583   3.733  0.5000 -0.0989  0.1182
 9080SOL    HW138699   0.047   3.626   3.779  0.1827  0.5044  0.0639
 9080SOL    HW238700   4.629   3.630   3.785  1.8162  2.8326 -0.8532
 9081SOL     OW38701   0.168   3.164  12.855  0.2149  0.1628 -0.8548
 9081SOL    HW138702   0.223   3.170  12.777 -1.4244 -0.3902 -2.0545
 9081SOL    HW238703   0.104   3.236  12.852 -1.0274 -0.8849  0.6113
 9082SOL     OW38704   0.880   0.892  13.645  0.2491 -0.3137  0.2005
 9082SOL    HW138705   0.930   0.842  13.580  1.9260  1.4079  0.1766
 9082SOL    HW238706   0.908   0.981  13.627  1.3829 -1.3343 -3.0639
 9083SOL     OW38707   3.166   1.811  17.018 -0.1315  0.4572 -0.2373
 9083SOL    HW138708   3.072   1.815  17.031 -0.1570  1.9116 -0.8011
 9083SOL    HW238709   3.193   1.719  17.018 -1.1683  0.1553 -0.1743
 9084SOL     OW38710   3.476   0.503   2.571 -0.1350 -0.4066 -0.0827
 9084SOL    HW138711   3.435   0.498   2.485 -1.4001  0.5388  0.4548
 9084SOL    HW238712   3.569   0.495   2.549  0.1899 -1.9252  1.8859
 9085SOL     OW38713   4.531   0.988   2.693  0.3965  0.7030  0.0366
 9085SOL    HW138714   4.492   1.075   2.682  0.4403  0.9186  1.5990
 9085SOL    HW238715   4.471   0.959   2.762  1.0722 -2.1195 -0.5903
 9086SOL     OW38716   3.841   0.855   6.345  0.1625 -0.4890  0.2595
 9086SOL    HW138717   3.861   0.926   6.406  1.9401 -0.0746 -0.8129
 9086SOL    HW238718   3.823   0.783   6.406  1.5114 -1.2287 -0.2062
 9087SOL     OW38719   1.166   2.652   5.439 -0.3672  0.4409  0.1487
 9087SOL    HW138720   1.078   2.666   5.474 -1.0436 -1.1276 -0.9007
 9087SOL    HW238721   1.191   2.571   5.483 -2.7531 -1.1450 -1.3841
 9088SOL     OW38722   3.423   1.769  17.097 -0.1143  0.7818 -0.6061
 9088SOL    HW138723   3.459   1.717  17.025 -2.0778 -2.5553  0.8100
 9088SOL    HW238724   3.344   1.723  17.124  0.7418 -1.1795 -1.4414
 9089SOL     OW38725   1.703   3.832   3.950 -0.1561  0.8026 -0.1830
 9089SOL    HW138726   1.790   3.872   3.947 -0.3693  1.1165 -2.2210
 9089SOL    HW238727   1.655   3.876   4.019 -0.8090  0.9634 -0.7408
 9090SOL     OW38728   3.118   4.538   3.188  0.0417 -0.1438 -0.0012
 9090SOL    HW138729   3.055   4.491   3.132 -1.8121  1.4424  0.7404
 9090SOL    HW238730   3.191   4.477   3.181  0.7309  0.7953 -0.9507
 9091SOL     OW38731   0.456   0.842   8.412  0.2412 -0.1166 -0.9684
 9091SOL    HW138732   0.405   0.761   8.410  1.6265 -0.9669 -2.2779
 9091SOL    HW238733   0.399   0.909   8.375  0.4281 -0.9418 -2.7734
 9092SOL     OW38734   0.029   1.008   5.372  0.4320 -0.1512 -0.2394
 9092SOL    HW138735   4.707   0.984   5.455 -2.2574 -1.0054 -1.8430
 9092SOL    HW238736   0.055   0.918   5.352  1.4724 -0.2263  1.4219
 9093SOL     OW38737   3.115   4.507  12.793  0.2868  0.6133  0.1796
 9093SOL    HW138738   3.183   4.478  12.853 -0.9327 -0.4122  1.0497
 9093SOL    HW238739   3.063   4.427  12.786  0.6634  0.4217 -0.4828
 9094SOL     OW38740   4.475   2.929   5.280  0.3813  0.5167  0.4532
 9094SOL    HW138741   4.435   2.942   5.366 -1.0862  1.6852 -0.4128
 9094SOL    HW238742   4.442   3.008   5.237 -0.4907  1.0782  2.1748
 9095SOL     OW38743   2.669   1.163   8.371 -0.0429  0.5410 -0.1720
 9095SOL    HW138744   2.702   1.248   8.398 -1.1601  1.4632 -1.7232
 9095SOL    HW238745   2.684   1.162   8.276  2.7400  0.3247  0.2716
 9096SOL     OW38746   0.655   3.903   5.776  0.3412 -1.1745  0.2526
 9096SOL    HW138747   0.607   3.978   5.811 -1.2816 -1.2966 -1.6653
 9096SOL    HW238748   0.749   3.918   5.786  0.0181  1.1540 -0.2786
 9097SOL     OW38749   3.180   3.524   7.674  0.4359  0.1666  0.0911
 9097SOL    HW138750   3.248   3.456   7.675 -0.9034 -1.2265 -2.3750
 9097SOL    HW238751   3.150   3.511   7.584 -0.9185 -0.0944  0.5906
 9098SOL     OW38752   4.229   0.747   4.233 -0.1149  0.1825  0.3667
 9098SOL    HW138753   4.304   0.768   4.288 -0.4222 -0.7362  1.1456
 9098SOL    HW238754   4.251   0.786   4.148  1.7818  0.7406  1.1161
 9099SOL     OW38755   2.622   2.406   5.005  0.3998  0.0556  0.2760
 9099SOL    HW138756   2.540   2.432   5.045  0.8523 -0.8080  1.7850
 9099SOL    HW238757   2.608   2.444   4.919  2.4639  0.8243  0.2723
 9100SOL     OW38758   3.802   3.918   4.654 -0.1579 -0.1055 -0.3554
 9100SOL    HW138759   3.889   3.904   4.691 -0.2493  2.4691  0.7972
 9100SOL    HW238760   3.742   3.913   4.729 -1.5565 -0.0903 -1.4543
 9101SOL     OW38761   2.211   1.879  12.342 -0.6229 -0.3213 -0.2134
 9101SOL    HW138762   2.269   1.825  12.290  0.3409  2.2747 -1.8224
 9101SOL    HW238763   2.125   1.865  12.303 -1.3767 -1.0628  1.6987
 9102SOL     OW38764   2.569   3.380  16.798 -0.3320 -0.1276 -0.0437
 9102SOL    HW138765   2.646   3.326  16.814  0.9599  0.8674 -2.9778
 9102SOL    HW238766   2.578   3.387  16.703  0.9793 -1.2297  0.0027
 9103SOL     OW38767   2.531   1.719   6.714 -0.5670 -0.4716 -0.2039
 9103SOL    HW138768   2.463   1.776   6.679 -0.4591  0.7298  1.5378
 9103SOL    HW238769   2.608   1.759   6.673  1.1738  0.3193  3.7918
 9104SOL     OW38770   4.114   1.797   6.802 -0.1879 -0.3498  0.3828
 9104SOL    HW138771   4.135   1.745   6.724  2.1682 -1.3290  1.6807
 9104SOL    HW238772   4.191   1.771   6.852  0.2628  0.3539  0.0552
 9105SOL     OW38773   1.578   0.514   8.792  0.1139  0.3331 -0.5508
 9105SOL    HW138774   1.653   0.456   8.781  1.0355  1.0175  2.1390
 9105SOL    HW238775   1.524   0.478   8.863  1.2645  0.6423  0.4667
 9106SOL     OW38776   2.185   2.758   3.891 -0.1247  0.1445 -0.1006
 9106SOL    HW138777   2.094   2.788   3.894  0.3642  1.7205 -1.0986
 9106SOL    HW238778   2.166   2.665   3.905 -0.3432  0.0326 -1.1516
 9107SOL     OW38779   3.232   3.314   5.542 -0.2228  0.3832  0.3130
 9107SOL    HW138780   3.306   3.258   5.522  1.0547  2.0058  0.5286
 9107SOL    HW238781   3.166   3.274   5.486  0.1480  0.5970 -0.2738
 9108SOL     OW38782   0.883   3.459   5.572  0.1618  0.0959 -0.5771
 9108SOL    HW138783   0.887   3.493   5.662  2.7484  2.1793 -1.4520
 9108SOL    HW238784   0.800   3.413   5.575  0.4860 -0.6204 -2.9207
 9109SOL     OW38785   1.426   1.554   1.873  0.4152 -0.3464 -0.0516
 9109SOL    HW138786   1.512   1.596   1.869  0.0067  0.5876  0.9753
 9109SOL    HW238787   1.429   1.483   1.809  2.1087 -0.1429 -0.1955
 9110SOL     OW38788   3.145   0.009   9.216  0.0553  0.1551 -0.3391
 9110SOL    HW138789   3.135   0.104   9.212 -0.4473  0.1576  1.1261
 9110SOL    HW238790   3.239   0.005   9.234 -0.1564 -0.0154  0.6948
 9111SOL     OW38791   0.868   4.630   6.801 -0.7504  0.4706  0.5776
 9111SOL    HW138792   0.839   4.657   6.714  3.6717  0.4767 -0.9147
 9111SOL    HW238793   0.862   4.713   6.848 -0.2146  0.7419  0.1686
 9112SOL     OW38794   1.276   2.171  11.723 -0.0894  0.1506 -0.6787
 9112SOL    HW138795   1.354   2.116  11.723  1.8211  2.8672  0.7784
 9112SOL    HW238796   1.320   2.256  11.728 -1.5845  0.9012 -0.3425
 9113SOL     OW38797   3.235   1.596   3.952 -0.3923 -0.4275  0.1048
 9113SOL    HW138798   3.214   1.607   4.045  1.3242  1.5302  0.2651
 9113SOL    HW238799   3.326   1.568   3.965  0.4405  2.0399 -0.4416
 9114SOL     OW38800   1.796   0.670  15.104 -0.2513  0.4282 -0.0735
 9114SOL    HW138801   1.819   0.667  15.197  4.0369 -2.2780 -1.1715
 9114SOL    HW238802   1.882   0.662  15.063 -0.8735 -0.3227 -1.2224
 9115SOL     OW38803   4.410   4.226   5.038 -0.4355  0.0606 -0.1873
 9115SOL    HW138804   4.319   4.249   5.056 -0.4238 -0.7125  0.8915
 9115SOL    HW238805   4.446   4.303   5.083  1.3094  0.9832 -3.1984
 9116SOL     OW38806   1.132   1.821   7.470 -0.0401 -0.0468 -0.2100
 9116SOL    HW138807   1.050   1.827   7.520 -1.4610  0.5770 -2.6119
 9116SOL    HW238808   1.111   1.866   7.388 -0.1289  1.4747  0.6369
 9117SOL     OW38809   1.698   4.575   2.831  0.1489 -0.7567  0.1378
 9117SOL    HW138810   1.642   4.622   2.893  2.4356  2.2913 -0.1229
 9117SOL    HW238811   1.654   4.588   2.747 -2.3536  2.0029  1.8756
 9118SOL     OW38812   1.007   3.326   0.259 -0.1503  0.1605 -0.3897
 9118SOL    HW138813   0.965   3.328   0.345  1.5038 -0.2118  0.4172
 9118SOL    HW238814   1.061   3.405   0.264 -1.6553  1.1688  0.1867
 9119SOL     OW38815   0.684   1.792   6.048  0.0280 -0.0658 -0.1738
 9119SOL    HW138816   0.648   1.742   5.975 -1.1076  0.6819 -0.1376
 9119SOL    HW238817   0.728   1.854   5.990  1.6054 -1.3827 -0.3749
 9120SOL     OW38818   2.672   1.699   4.587  0.1606  0.5182  0.2289
 9120SOL    HW138819   2.704   1.668   4.672 -1.6489 -0.1685  0.6564
 9120SOL    HW238820   2.607   1.631   4.572  0.5970  0.0313  0.5234
 9121SOL     OW38821   3.047   3.806   4.606  0.2162 -0.2926  0.1825
 9121SOL    HW138822   3.046   3.841   4.517 -2.3523  0.8264  0.6517
 9121SOL    HW238823   2.984   3.862   4.652 -0.6935 -0.0965 -1.3293
 9122SOL     OW38824   3.473   1.984   0.011 -0.1318  0.1401  0.1503
 9122SOL    HW138825   3.511   1.897   0.026  0.6034  0.7277  1.7020
 9122SOL    HW238826   3.535   2.045  17.651 -1.7893  1.2969 -0.6284
 9123SOL     OW38827   4.447   4.715   2.206 -0.8400 -0.0438  0.6407
 9123SOL    HW138828   4.423   0.028   2.293 -1.9718  1.1037 -0.0953
 9123SOL    HW238829   4.366   4.673   2.174 -0.6388 -0.4265  0.6339
 9124SOL     OW38830   2.166   3.849  10.144  0.8885  0.2080  0.4565
 9124SOL    HW138831   2.212   3.787  10.200 -0.3213 -0.5903  0.5642
 9124SOL    HW238832   2.107   3.790  10.099  1.5926  0.4614 -0.8072
 9125SOL     OW38833   1.966   3.076   7.739 -0.5065  0.4812 -0.1868
 9125SOL    HW138834   2.026   3.149   7.725 -1.1386  1.2574  1.1355
 9125SOL    HW238835   2.028   3.005   7.755 -0.2626  1.0370  1.3258
 9126SOL     OW38836   2.667   1.189   9.246  0.1420  0.7577 -0.3597
 9126SOL    HW138837   2.762   1.173   9.253  0.0213 -0.0372 -0.5103
 9126SOL    HW238838   2.650   1.145   9.162 -3.9142 -1.6050  1.7143
 9127SOL     OW38839   1.640   1.585   1.681 -0.5122  0.5531 -0.1764
 9127SOL    HW138840   1.714   1.537   1.718 -0.4859  0.2379 -0.6293
 9127SOL    HW238841   1.689   1.656   1.641 -0.6978  0.7735 -0.0084
 9128SOL     OW38842   4.092   2.868   7.915  0.2932  0.0056  0.4121
 9128SOL    HW138843   4.035   2.889   7.841 -0.4736  1.7681  1.4923
 9128SOL    HW238844   4.143   2.825   7.847 -2.6997 -2.0738 -0.5058
 9129SOL     OW38845   1.406   3.310   3.453  0.0253 -0.2815  0.1562
 9129SOL    HW138846   1.413   3.284   3.361 -3.2508 -0.9814  0.1198
 9129SOL    HW238847   1.497   3.300   3.481 -0.3719 -3.0217  0.3946
 9130SOL     OW38848   1.034   2.915  15.781  0.3351  0.0249 -0.0077
 9130SOL    HW138849   1.029   2.907  15.876  3.0285 -3.9695 -0.1974
 9130SOL    HW238850   1.085   2.838  15.756  3.7691  2.5332 -0.8031
 9131SOL     OW38851   2.775   3.925   1.004 -0.3709 -0.1149 -0.7236
 9131SOL    HW138852   2.742   4.006   0.966  1.3890 -0.0022 -2.0104
 9131SOL    HW238853   2.861   3.914   0.964 -0.4685 -0.3982 -0.8545
 9132SOL     OW38854   1.461   0.705   4.278  0.5723 -0.2238 -0.1900
 9132SOL    HW138855   1.373   0.675   4.300  0.1823  2.5257  2.0018
 9132SOL    HW238856   1.440   0.783   4.226  1.7941  1.2687  1.5428
 9133SOL     OW38857   0.763   3.691  16.099 -0.4562 -0.2383 -0.4327
 9133SOL    HW138858   0.852   3.709  16.071  0.7305 -0.9146  3.0099
 9133SOL    HW238859   0.733   3.683  16.008  2.5567  3.1038 -1.7157
 9134SOL     OW38860   4.221   0.057  17.212 -0.3432 -0.4248 -0.3528
 9134SOL    HW138861   4.136   0.072  17.253 -0.9627 -0.4489 -1.5961
 9134SOL    HW238862   4.267   0.063  17.295 -0.9869 -2.7176  0.1824
 9135SOL     OW38863   1.090   2.749   2.442  0.2889 -0.2155  0.7408
 9135SOL    HW138864   1.118   2.722   2.529  0.9936 -1.0159  0.2645
 9135SOL    HW238865   1.166   2.762   2.385 -0.2435 -1.3703 -0.2336
 9136SOL     OW38866   1.750   0.015   5.979  0.0793 -0.1276 -0.4136
 9136SOL    HW138867   1.664   0.031   5.940  1.1010 -0.5140 -2.8263
 9136SOL    HW238868   1.785   0.102   5.996  0.3783 -0.4439  0.6430
 9137SOL     OW38869   2.236   3.465  14.982  0.5067  0.5889  0.3905
 9137SOL    HW138870   2.329   3.464  14.960  0.8071  0.2458  1.6742
 9137SOL    HW238871   2.196   3.449  14.897 -1.8093 -0.2078  1.6314
 9138SOL     OW38872   2.702   4.551   6.009 -0.4488  0.4722 -1.0486
 9138SOL    HW138873   2.611   4.576   5.990 -1.4966 -2.0533  0.5718
 9138SOL    HW238874   2.686   4.525   6.100  0.3175 -3.2352 -1.9839
 9139SOL     OW38875   0.748   4.475   5.362 -0.0251 -0.3332  0.6176
 9139SOL    HW138876   0.708   4.457   5.447 -1.8033 -0.3273 -0.2255
 9139SOL    HW238877   0.804   4.549   5.383  0.4885 -0.5890  0.1455
 9140SOL     OW38878   0.225   3.954   9.627  0.0107 -0.0281 -0.2685
 9140SOL    HW138879   0.250   3.898   9.553 -1.0783 -2.5009  1.2008
 9140SOL    HW238880   0.181   3.880   9.669 -0.5489  0.4168 -0.0759
 9141SOL     OW38881   3.281   3.349   9.612  0.0053 -0.4872  0.2404
 9141SOL    HW138882   3.246   3.375   9.698 -0.1091  0.5803 -0.1348
 9141SOL    HW238883   3.200   3.305   9.586  0.4145 -1.1528  0.0758
 9142SOL     OW38884   0.721   4.590   8.547  0.3443 -0.0986 -0.0771
 9142SOL    HW138885   0.710   4.546   8.631 -2.0051 -1.0186 -0.8525
 9142SOL    HW238886   0.738   4.678   8.581 -0.5001  0.7564 -1.8255
 9143SOL     OW38887   0.581   2.629   7.563  0.4556  0.4436  0.2843
 9143SOL    HW138888   0.513   2.696   7.557 -2.5345 -2.4329  2.1069
 9143SOL    HW238889   0.641   2.675   7.622  1.7392  1.6124 -1.9508
 9144SOL     OW38890   0.025   4.609   3.979 -0.1252 -0.3256  0.0454
 9144SOL    HW138891   4.662   4.634   3.937  0.6665  0.6903 -0.9103
 9144SOL    HW238892   0.015   4.623   4.073  0.5620  0.4703 -0.0059
 9145SOL     OW38893   1.019   2.164   4.024 -0.3115 -0.3077  0.0672
 9145SOL    HW138894   0.983   2.128   3.942  1.5579 -1.2746 -0.3443
 9145SOL    HW238895   0.959   2.231   4.055  1.7605  1.0767  1.0775
 9146SOL     OW38896   0.540   3.238   8.684  0.6828  0.5814 -0.6359
 9146SOL    HW138897   0.467   3.226   8.745  0.6552 -0.1468 -0.8152
 9146SOL    HW238898   0.502   3.291   8.613  2.2219 -0.6503 -2.3503
 9147SOL     OW38899   1.096   1.067   6.457  0.1255  0.0459  0.6841
 9147SOL    HW138900   1.181   1.057   6.413 -0.1072  3.5194 -0.5296
 9147SOL    HW238901   1.126   1.058   6.547 -0.3899 -0.4571  0.8012
 9148SOL     OW38902   1.953   0.963   3.380  0.2671 -0.5923 -0.3713
 9148SOL    HW138903   1.880   0.914   3.416 -0.3629 -0.6153 -1.6911
 9148SOL    HW238904   1.955   1.044   3.430 -0.7588 -0.9970  0.3271
 9149SOL     OW38905   3.788   0.554  11.157 -0.5329  0.0275  0.6984
 9149SOL    HW138906   3.799   0.560  11.252 -0.4992  0.8063  0.6376
 9149SOL    HW238907   3.713   0.612  11.144  0.6084  1.7901  2.2196
 9150SOL     OW38908   3.666   2.561   4.771 -0.1636 -0.2799  0.5873
 9150SOL    HW138909   3.595   2.538   4.831 -1.1965 -0.5101 -0.7239
 9150SOL    HW238910   3.638   2.645   4.735  2.3255  0.9933  1.6296
 9151SOL     OW38911   4.073   2.680  17.577 -0.2820  0.1461  0.1849
 9151SOL    HW138912   4.089   2.711  17.488 -0.1936 -0.4131  0.0029
 9151SOL    HW238913   3.998   2.739  17.588  1.8676  3.0721 -1.2322
 9152SOL     OW38914   1.179   0.009   5.378  0.2484 -0.0297  0.5076
 9152SOL    HW138915   1.211   4.649   5.421 -2.0583  0.1765  2.6464
 9152SOL    HW238916   1.217   4.708   5.293 -0.1997  0.7177  0.1310
 9153SOL     OW38917   3.900   2.198   7.688  0.5544 -0.7386  0.1755
 9153SOL    HW138918   3.859   2.112   7.679  1.5666 -1.4920  2.7977
 9153SOL    HW238919   3.856   2.238   7.613  0.9295 -0.5314  0.0660
 9154SOL     OW38920   1.376   4.042   3.560 -0.2314 -0.4102 -0.2174
 9154SOL    HW138921   1.355   3.969   3.502 -1.0172  0.5284 -1.1023
 9154SOL    HW238922   1.367   4.115   3.500 -1.1611  1.1856  1.8292
 9155SOL     OW38923   1.154   2.949   5.417  0.7559  0.0665 -0.3940
 9155SOL    HW138924   1.169   2.872   5.472  0.5803  0.9230  0.8572
 9155SOL    HW238925   1.120   2.922   5.332 -0.1903  0.9405 -0.2893
 9156SOL     OW38926   0.812   3.475   8.686  0.0817  0.2587  0.0216
 9156SOL    HW138927   0.802   3.440   8.598  0.4233 -0.2486  0.1865
 9156SOL    HW238928   0.775   3.423   8.757 -0.4413  0.0068 -0.4378
 9157SOL     OW38929   1.462   3.067   5.247 -0.5269  0.1599 -0.4566
 9157SOL    HW138930   1.522   2.992   5.243  0.3332  0.8648 -0.7467
 9157SOL    HW238931   1.375   3.029   5.241  0.0988 -1.3953  0.2605
 9158SOL     OW38932   0.335   3.259   6.553 -0.2637  0.1123 -0.4421
 9158SOL    HW138933   0.423   3.226   6.572 -0.8275 -2.1030 -1.6450
 9158SOL    HW238934   0.337   3.329   6.619  1.8518 -1.1510  0.8513
 9159SOL     OW38935   1.371   1.495  13.430  0.4838 -0.0936  0.2623
 9159SOL    HW138936   1.337   1.430  13.492  1.3387  1.9424  2.8405
 9159SOL    HW238937   1.325   1.460  13.353  0.2049  2.5564 -0.7451
 9160SOL     OW38938   0.118   3.328  12.205  0.2366 -0.3408 -0.6747
 9160SOL    HW138939   0.120   3.247  12.256  0.6223  0.6375  0.8639
 9160SOL    HW238940   0.048   3.379  12.247  0.4243  0.1196 -0.9181
 9161SOL     OW38941   4.222   0.044   4.312 -0.7722 -0.3934 -0.0870
 9161SOL    HW138942   4.223   4.669   4.324 -1.2199  0.0417  3.3526
 9161SOL    HW238943   4.266   0.075   4.391  1.0637  1.6623 -1.9161
 9162SOL     OW38944   2.394   0.590  12.106  0.5614  0.0555  0.6905
 9162SOL    HW138945   2.299   0.600  12.112  0.1713 -0.8676 -3.9480
 9162SOL    HW238946   2.404   0.519  12.043 -2.7842  0.6752 -0.5512
 9163SOL     OW38947   4.680   3.872  13.235 -0.0004  0.1355  0.6047
 9163SOL    HW138948   4.650   3.961  13.217  1.7466  0.5882 -0.0347
 9163SOL    HW238949   0.045   3.894  13.274  0.9646 -1.2935 -0.6989
 9164SOL     OW38950   4.040   0.550   4.500 -0.4568 -0.0843  0.2055
 9164SOL    HW138951   4.109   0.503   4.547  0.2847  0.1094 -0.6807
 9164SOL    HW238952   3.988   0.576   4.576 -0.3776  0.2005  0.1625
 9165SOL     OW38953   4.184   1.704   3.468  0.3494 -0.1482  0.3298
 9165SOL    HW138954   4.142   1.638   3.522 -0.0941 -0.3263 -0.2429
 9165SOL    HW238955   4.127   1.700   3.392  0.4384 -0.5358  0.2847
 9166SOL     OW38956   4.411   0.637  17.455 -0.1756  0.2466 -0.3659
 9166SOL    HW138957   4.455   0.718  17.480  0.5034 -1.2233  3.1267
 9166SOL    HW238958   4.416   0.589  17.537  0.9955  1.1094  0.0526
 9167SOL     OW38959   2.384   1.207   0.650 -0.3962 -0.4660  0.7823
 9167SOL    HW138960   2.373   1.273   0.718  0.3918  1.0474 -0.5848
 9167SOL    HW238961   2.323   1.233   0.581 -0.3133 -0.3387  0.7571
 9168SOL     OW38962   1.381   4.340  16.444  0.8501  0.3739  0.0997
 9168SOL    HW138963   1.295   4.298  16.438  1.6361 -1.3134  0.8705
 9168SOL    HW238964   1.430   4.278  16.498 -2.1482 -2.0582  0.0340
 9169SOL     OW38965   0.046   2.146   8.276 -0.2741 -0.4727  0.6097
 9169SOL    HW138966   0.059   2.188   8.190 -0.2877  0.8674  1.2628
 9169SOL    HW238967   0.106   2.074   8.257 -0.9928 -0.7982 -0.4687
 9170SOL     OW38968   4.479   2.434   4.877 -0.0810 -0.1992  0.4099
 9170SOL    HW138969   4.477   2.371   4.805 -1.5131  0.0721  0.2211
 9170SOL    HW238970   4.568   2.431   4.913 -0.0972 -0.6453  0.4122
 9171SOL     OW38971   0.717   0.287  17.261 -0.8282  0.1596  0.0413
 9171SOL    HW138972   0.635   0.237  17.258 -0.4653 -0.4558  0.2524
 9171SOL    HW238973   0.738   0.291  17.168 -0.2793 -1.3025  0.0973
 9172SOL     OW38974   3.135   2.586   8.140  0.1317 -0.6663  0.4635
 9172SOL    HW138975   3.147   2.666   8.088  4.8777 -1.7966 -0.2219
 9172SOL    HW238976   3.156   2.609   8.231 -2.6746  2.0352  0.4097
 9173SOL     OW38977   4.153   0.795   7.786  0.2310 -0.2519 -0.1706
 9173SOL    HW138978   4.179   0.780   7.695  1.0435 -0.2941  0.0662
 9173SOL    HW238979   4.242   0.814   7.818  0.7259 -0.5846 -1.3645
 9174SOL     OW38980   2.213   2.740  12.053 -0.2127  0.1246 -0.0469
 9174SOL    HW138981   2.288   2.744  11.995  0.3770  0.2052  0.7243
 9174SOL    HW238982   2.229   2.800  12.126  0.9945  2.0322 -1.8946
 9175SOL     OW38983   0.236   0.761   9.997 -0.0691  0.7630 -0.4642
 9175SOL    HW138984   0.274   0.740   9.912  0.5890 -0.7371  0.2078
 9175SOL    HW238985   0.311   0.812  10.028 -1.4948  3.4112 -1.3883
 9176SOL     OW38986   1.291   1.929   3.670 -0.1520 -0.2517 -0.3220
 9176SOL    HW138987   1.341   2.010   3.679 -0.0524 -0.5133  1.3761
 9176SOL    HW238988   1.228   1.964   3.606 -0.8869 -0.6556  0.1816
 9177SOL     OW38989   4.595   1.228   8.253  0.2966  0.4278 -0.2434
 9177SOL    HW138990   4.628   1.228   8.342  1.5742 -1.1327 -0.7075
 9177SOL    HW238991   4.635   1.304   8.211  1.5523  0.2642  0.6705
 9178SOL     OW38992   2.188   0.208   2.592  0.2276  0.2340 -0.1250
 9178SOL    HW138993   2.265   0.229   2.645  0.2330 -0.1019  0.0008
 9178SOL    HW238994   2.227   0.155   2.523  0.9862  1.3703 -0.5800
 9179SOL     OW38995   4.112   2.402   3.456  0.2136 -0.1905 -0.1591
 9179SOL    HW138996   4.157   2.487   3.457  0.6657 -0.4244 -0.4345
 9179SOL    HW238997   4.178   2.345   3.495 -0.2752  0.0463  1.0066
 9180SOL     OW38998   3.029   0.751   4.987  0.7119 -0.3700 -0.7394
 9180SOL    HW138999   2.990   0.664   4.982  1.2888 -0.6478 -0.4722
 9180SOL    HW239000   3.084   0.728   5.062 -0.2238 -0.6748 -0.1513
 9181SOL     OW39001   2.124   0.274  16.449  0.0213  0.3758 -0.1134
 9181SOL    HW139002   2.096   0.257  16.539  0.6894 -0.5829 -0.0852
 9181SOL    HW239003   2.039   0.282  16.405  0.3062 -0.7076 -0.8625
 9182SOL     OW39004   1.177   1.432   8.111  1.0763  0.2004  0.6517
 9182SOL    HW139005   1.250   1.378   8.141  1.3449  0.2923  0.1615
 9182SOL    HW239006   1.150   1.481   8.189 -0.2088  1.3073 -0.4921
 9183SOL     OW39007   2.432   0.629   9.697 -0.2787  0.5795 -0.0925
 9183SOL    HW139008   2.342   0.628   9.728  0.1037 -0.5626  0.9795
 9183SOL    HW239009   2.465   0.618   9.786 -0.4169  4.2861  0.4054
 9184SOL     OW39010   1.226   1.438  15.072  0.2075 -0.4202  0.2949
 9184SOL    HW139011   1.248   1.428  15.165  1.5948 -3.5333 -0.3722
 9184SOL    HW239012   1.310   1.406  15.039 -0.9962 -2.6388 -0.6259
 9185SOL     OW39013   2.624   4.124  17.407 -0.1295  0.0836 -0.4171
 9185SOL    HW139014   2.563   4.070  17.356 -0.9050  0.2334  0.3498
 9185SOL    HW239015   2.694   4.133  17.342 -2.0523  2.8819 -2.1356
 9186SOL     OW39016   3.554   1.351   3.347 -0.0399 -0.4072 -0.0016
 9186SOL    HW139017   3.530   1.276   3.293  2.9316 -2.0664  0.9916
 9186SOL    HW239018   3.538   1.310   3.431 -1.4878  0.2382  0.0324
 9187SOL     OW39019   1.422   2.686   3.780 -0.5433 -0.3854 -0.0193
 9187SOL    HW139020   1.499   2.630   3.776  0.7289  1.4801 -1.9468
 9187SOL    HW239021   1.443   2.760   3.723 -1.2407  0.8026  1.2695
 9188SOL     OW39022   3.191   3.912  15.299  0.3351  0.4640  0.0264
 9188SOL    HW139023   3.224   3.984  15.246 -1.9974  0.3026 -1.6608
 9188SOL    HW239024   3.201   3.835  15.242 -0.9138  1.2929 -1.3184
 9189SOL     OW39025   1.259   2.604  15.397 -0.2204  0.5765  0.9886
 9189SOL    HW139026   1.249   2.512  15.422 -1.4342  0.2687 -0.6858
 9189SOL    HW239027   1.238   2.595  15.304  0.2727 -0.3190  0.9615
 9190SOL     OW39028   2.650   1.933  11.031 -0.3187  0.2869 -0.3955
 9190SOL    HW139029   2.726   1.931  11.090  0.7625 -2.2682 -1.8824
 9190SOL    HW239030   2.628   1.840  11.025  1.9499 -0.2572 -0.5463
 9191SOL     OW39031   1.494   1.888   4.007  0.8871  0.6785  0.1164
 9191SOL    HW139032   1.479   1.804   3.963  1.7919  0.5681  0.0037
 9191SOL    HW239033   1.405   1.918   4.025 -0.2179 -1.6669 -1.4391
 9192SOL     OW39034   2.345   0.465   7.385  0.2892 -0.0036 -0.0893
 9192SOL    HW139035   2.331   0.449   7.478 -1.0949  2.0720  0.0512
 9192SOL    HW239036   2.283   0.402   7.347  1.5299 -1.2367 -0.0629
 9193SOL     OW39037   2.576   3.356  14.655 -0.3178 -0.0672 -0.1707
 9193SOL    HW139038   2.630   3.395  14.586  2.8121 -0.4339  2.0969
 9193SOL    HW239039   2.556   3.275  14.608 -3.5795  1.9829 -2.3401
 9194SOL     OW39040   2.803   0.212  14.950 -0.2518 -1.0367 -0.5247
 9194SOL    HW139041   2.814   0.156  14.873  0.5280 -0.3908 -0.8859
 9194SOL    HW239042   2.768   0.143  15.008  2.7953 -0.6581  1.7623
 9195SOL     OW39043   3.798   1.468   5.200  0.2595 -0.0088  0.3174
 9195SOL    HW139044   3.817   1.546   5.147  0.1232  0.7798  1.4295
 9195SOL    HW239045   3.882   1.423   5.200 -0.0955 -0.6576 -1.5564
 9196SOL     OW39046   3.793   1.047   3.957  0.3403 -0.7553  0.0355
 9196SOL    HW139047   3.841   0.968   3.984 -1.2932 -2.2334 -1.3795
 9196SOL    HW239048   3.862   1.077   3.897 -1.6333 -1.4139 -2.5411
 9197SOL     OW39049   2.738   3.576   2.373 -0.2340 -0.1750  0.3467
 9197SOL    HW139050   2.770   3.500   2.325 -0.4930 -0.4947  0.6813
 9197SOL    HW239051   2.725   3.636   2.299  0.2975  1.1826  1.3501
 9198SOL     OW39052   3.258   2.249  17.506  0.4787 -0.3387  0.3556
 9198SOL    HW139053   3.256   2.153  17.504 -0.9107 -0.2696 -1.1920
 9198SOL    HW239054   3.344   2.262  17.465  0.7799 -2.3478  0.2992
 9199SOL     OW39055   3.751   1.976  15.601  0.2973  0.1362 -0.2083
 9199SOL    HW139056   3.808   1.940  15.532 -1.3709 -3.6376  0.3791
 9199SOL    HW239057   3.667   1.955  15.561  0.5571  0.0338 -0.7054
 9200SOL     OW39058   1.316   0.812  16.311  0.4866  0.7254 -0.0481
 9200SOL    HW139059   1.289   0.897  16.347  0.6589  0.2979  1.0859
 9200SOL    HW239060   1.327   0.838  16.220  2.0012  0.6854  0.1249
 9201SOL     OW39061   2.664   1.638  17.220 -0.0197 -0.1770  0.0043
 9201SOL    HW139062   2.705   1.592  17.293  2.2288  0.4913 -0.8054
 9201SOL    HW239063   2.621   1.707  17.269 -0.2266 -0.2681 -0.0521
 9202SOL     OW39064   1.382   2.232   7.879  0.8330  0.0691  0.7955
 9202SOL    HW139065   1.356   2.318   7.847 -1.7867 -0.5751  1.2090
 9202SOL    HW239066   1.411   2.188   7.799  0.3700  0.8355  0.2027
 9203SOL     OW39067   2.764   0.219   3.210 -0.7471  0.2807 -0.4800
 9203SOL    HW139068   2.810   0.143   3.173  0.4068  1.5388 -1.6262
 9203SOL    HW239069   2.672   0.221   3.184 -1.2060  0.6811  1.1883
 9204SOL     OW39070   1.393   3.297   4.279 -0.3130  0.4564  0.1164
 9204SOL    HW139071   1.383   3.384   4.239  0.8545 -0.4233 -2.0715
 9204SOL    HW239072   1.315   3.286   4.333 -0.3976  0.0458 -0.0904
 9205SOL     OW39073   1.674   1.209   4.659  0.4990  0.4504  0.2276
 9205SOL    HW139074   1.607   1.221   4.727  0.9903  1.5126  0.5213
 9205SOL    HW239075   1.683   1.297   4.622  0.2070 -0.2625 -1.5468
 9206SOL     OW39076   3.293   1.997   8.092  0.4200 -0.2281 -0.7797
 9206SOL    HW139077   3.385   2.022   8.081  0.2329  0.5225 -0.5984
 9206SOL    HW239078   3.263   2.051   8.018 -2.3128  0.8271  1.0958
 9207SOL     OW39079   3.380   4.592   8.620  0.3545 -0.2352 -0.2877
 9207SOL    HW139080   3.463   4.588   8.668  0.7201 -0.4780 -0.9502
 9207SOL    HW239081   3.327   4.576   8.698 -1.2478 -0.8920 -1.5240
 9208SOL     OW39082   0.021   0.898   5.874  0.1948  0.0741 -0.0796
 9208SOL    HW139083   0.037   0.963   5.942  1.0020 -1.1285  0.8893
 9208SOL    HW239084   0.099   0.843   5.860 -0.1730  0.1609 -2.4861
 9209SOL     OW39085   2.039   3.033   0.872  0.4227  0.3979 -0.2688
 9209SOL    HW139086   2.008   3.067   0.788  2.3219 -0.2328 -1.2117
 9209SOL    HW239087   2.133   3.023   0.858  0.4226 -1.2346  0.8393
 9210SOL     OW39088   3.106   4.311   8.321  0.0679  0.0690 -0.4475
 9210SOL    HW139089   3.199   4.316   8.342  0.2796  0.9629 -1.5533
 9210SOL    HW239090   3.074   4.401   8.326  3.0148  1.1802 -2.0502
 9211SOL     OW39091   4.519   1.156   3.182  0.2752 -0.9204 -0.1357
 9211SOL    HW139092   4.568   1.138   3.262  0.2021 -1.3651 -0.1893
 9211SOL    HW239093   4.571   1.098   3.126 -0.2249 -1.1967 -0.3118
 9212SOL     OW39094   3.609   3.822   8.020 -0.4124  0.1640  0.1791
 9212SOL    HW139095   3.598   3.899   7.965 -2.5381 -0.3670 -0.1351
 9212SOL    HW239096   3.566   3.751   7.972  0.2987  0.0977 -0.3607
 9213SOL     OW39097   0.396   1.487   6.787 -0.1782 -0.7246  0.1341
 9213SOL    HW139098   0.488   1.484   6.760  0.2281  2.7165  1.1372
 9213SOL    HW239099   0.385   1.422   6.856 -2.4884  0.3771  0.7968
 9214SOL     OW39100   0.423   3.514   5.696  0.0148  0.1300  0.1426
 9214SOL    HW139101   0.399   3.606   5.691  1.6868  0.4826 -1.2710
 9214SOL    HW239102   0.342   3.479   5.732 -2.1846  3.2718 -1.7702
 9215SOL     OW39103   1.019   4.411   9.561  0.2883  0.9407 -0.2127
 9215SOL    HW139104   1.010   4.346   9.631 -0.7211  1.0448 -0.2545
 9215SOL    HW239105   1.010   4.491   9.612 -1.5649  0.5547  0.0483
 9216SOL     OW39106   1.378   0.011   2.727  0.0715 -0.7516  0.4202
 9216SOL    HW139107   1.442   4.718   2.657  2.4351 -2.7546  2.9201
 9216SOL    HW239108   1.324   0.084   2.696  0.4214 -0.0919  1.3473
 9217SOL     OW39109   3.003   3.781   1.076 -0.0143 -0.0526 -0.4078
 9217SOL    HW139110   3.029   3.783   0.984 -3.8122  1.1836 -1.4179
 9217SOL    HW239111   3.091   3.764   1.112 -0.0066 -2.0444 -1.3226
 9218SOL     OW39112   3.030   2.677   4.212  0.0447 -0.1528 -0.1024
 9218SOL    HW139113   2.938   2.680   4.186  0.0272 -0.1103 -0.0357
 9218SOL    HW239114   3.070   2.673   4.125  0.5386 -2.3671  0.2264
 9219SOL     OW39115   3.993   2.048   5.203  0.3499 -0.6816 -0.5265
 9219SOL    HW139116   4.063   2.066   5.266 -1.0573 -0.5039  0.9758
 9219SOL    HW239117   4.023   2.110   5.137  0.4846 -1.5356 -1.2687
 9220SOL     OW39118   0.627   3.225   7.859 -0.1773 -0.1244 -0.0237
 9220SOL    HW139119   0.568   3.180   7.919 -1.1248 -1.8514 -2.2378
 9220SOL    HW239120   0.695   3.159   7.850  0.8409  0.8601  0.4798
 9221SOL     OW39121   0.134   0.747   5.390  0.3386 -0.1383 -0.4831
 9221SOL    HW139122   0.075   0.672   5.402 -1.1020  1.2890  1.2593
 9221SOL    HW239123   0.194   0.703   5.330 -1.4565 -1.4642 -1.3103
 9222SOL     OW39124   3.156   1.241  12.298 -0.7684  0.2151  0.1220
 9222SOL    HW139125   3.220   1.296  12.344  0.9721 -1.1445 -0.6519
 9222SOL    HW239126   3.208   1.229  12.218 -0.0451 -0.3676  0.6792
 9223SOL     OW39127   0.798   3.614  10.048  0.4640 -0.3381  0.4331
 9223SOL    HW139128   0.720   3.616   9.992  0.8830  0.5267 -0.1170
 9223SOL    HW239129   0.777   3.542  10.107 -0.6388 -0.5765 -0.2602
 9224SOL     OW39130   1.651   3.183   4.932  0.5339 -0.3634 -0.0518
 9224SOL    HW139131   1.578   3.128   4.902 -1.6144  1.6557  1.4866
 9224SOL    HW239132   1.686   3.113   4.988 -0.4114 -1.7214 -1.1386
 9225SOL     OW39133   2.026   0.824   8.312  0.4909  0.1768  0.1136
 9225SOL    HW139134   2.113   0.797   8.340  1.0574  1.2836 -0.5659
 9225SOL    HW239135   2.026   0.831   8.216  0.8862  0.2437  0.1202
 9226SOL     OW39136   4.316   2.294  10.995  0.0438 -0.2352 -0.3939
 9226SOL    HW139137   4.350   2.383  11.007  1.3048 -1.1237  2.5949
 9226SOL    HW239138   4.222   2.312  10.986  0.1754  0.8631  0.4493
 9227SOL     OW39139   1.479   2.457   7.421  0.4825 -0.0363  0.4911
 9227SOL    HW139140   1.492   2.529   7.481 -0.1722  0.3438  0.1793
 9227SOL    HW239141   1.566   2.449   7.382  0.5242  0.8078  0.4128
 9228SOL     OW39142   1.933   2.812  16.256 -0.5891  0.2836  0.6159
 9228SOL    HW139143   1.987   2.877  16.300 -1.2013  1.7661 -0.7727
 9228SOL    HW239144   1.934   2.736  16.314 -1.0682 -0.4212 -0.2795
 9229SOL     OW39145   0.719   1.060   4.049 -0.5667 -0.1016 -0.1162
 9229SOL    HW139146   0.807   1.081   4.079 -0.9257 -2.2471  2.4217
 9229SOL    HW239147   0.722   0.965   4.050  1.0479 -0.0240  0.9167
 9230SOL     OW39148   2.309   1.230  15.805 -0.2892 -0.0599  0.0696
 9230SOL    HW139149   2.342   1.140  15.797 -1.6847 -0.4793 -1.0726
 9230SOL    HW239150   2.359   1.273  15.736 -0.2733 -1.3448 -0.7193
 9231SOL     OW39151   4.384   4.623   3.048  0.3040 -0.2848 -0.5925
 9231SOL    HW139152   4.447   4.621   2.976 -0.7047 -0.0922 -1.4869
 9231SOL    HW239153   4.331   4.549   3.018  2.1591 -0.9094 -2.3210
 9232SOL     OW39154   3.737   0.357  12.363  0.4805 -0.1024 -0.3135
 9232SOL    HW139155   3.668   0.404  12.318 -0.6136  0.3086  1.7940
 9232SOL    HW239156   3.707   0.266  12.361  1.5468 -0.4656  0.1901
 9233SOL     OW39157   0.997   0.813   9.029  0.3223 -0.8563 -0.2416
 9233SOL    HW139158   1.027   0.903   9.016 -2.2453 -0.1284 -1.2596
 9233SOL    HW239159   0.944   0.823   8.949  0.0818 -2.3919 -0.2720
 9234SOL     OW39160   2.925   2.945   0.813  0.2162 -0.1187 -0.6149
 9234SOL    HW139161   2.831   2.930   0.804  0.5837 -0.7325 -3.5470
 9234SOL    HW239162   2.907   3.032   0.848  1.1240 -0.3941  0.5514
 9235SOL     OW39163   4.353   4.715  12.646 -0.1000 -0.2063  0.3226
 9235SOL    HW139164   4.440   4.674  12.646  0.8207  1.7360 -2.1537
 9235SOL    HW239165   4.357   0.029  12.557  1.0232  0.2977  0.5542
 9236SOL     OW39166   2.049   0.419  14.826  0.1896  0.3520  0.1187
 9236SOL    HW139167   2.133   0.466  14.826  0.9906 -1.0743 -1.6768
 9236SOL    HW239168   2.003   0.477  14.887 -1.6834 -1.1949  0.1331
 9237SOL     OW39169   3.878   4.615  14.214  0.0931 -0.2191 -0.2796
 9237SOL    HW139170   3.834   4.588  14.295  1.0574 -2.2387 -0.4504
 9237SOL    HW239171   3.932   4.688  14.243 -0.4957  0.3888 -0.7145
 9238SOL     OW39172   3.253   1.713  15.491  0.1572  0.3653  0.4494
 9238SOL    HW139173   3.199   1.655  15.438 -0.6734  2.2573 -0.7562
 9238SOL    HW239174   3.278   1.771  15.419 -0.3891 -1.2915 -1.0913
 9239SOL     OW39175   3.064   2.025   3.391 -0.3292  0.1670  0.5555
 9239SOL    HW139176   3.012   2.020   3.311 -0.7311 -0.3826  0.8532
 9239SOL    HW239177   3.147   1.984   3.367 -2.3484 -3.1970 -0.6398
 9240SOL     OW39178   0.672   2.175   0.505  0.5046 -0.0186 -0.5040
 9240SOL    HW139179   0.610   2.105   0.524  0.8781 -0.1182  0.3624
 9240SOL    HW239180   0.641   2.245   0.562  0.5550  1.7767 -2.7085
 9241SOL     OW39181   2.899   0.682   4.562  0.0900  0.6208  0.1656
 9241SOL    HW139182   2.960   0.614   4.591 -1.2816 -1.3583 -1.5940
 9241SOL    HW239183   2.909   0.653   4.471 -1.3761 -0.7775  0.4479
 9242SOL     OW39184   3.448   0.220   3.507 -0.9744  0.5593 -0.0915
 9242SOL    HW139185   3.524   0.177   3.469 -2.7409 -3.3473  0.8737
 9242SOL    HW239186   3.420   0.279   3.436 -0.1227 -0.1990 -1.0495
 9243SOL     OW39187   0.717   4.143   8.366  0.0139  0.2210  0.0126
 9243SOL    HW139188   0.649   4.189   8.414 -0.5808  0.6686 -1.2669
 9243SOL    HW239189   0.715   4.057   8.409  0.1143 -0.2858 -1.0101
 9244SOL     OW39190   2.728   1.580   7.724 -0.3913 -0.1105 -0.1837
 9244SOL    HW139191   2.717   1.504   7.666 -1.1856 -0.7951  0.8707
 9244SOL    HW239192   2.678   1.555   7.801  0.4169 -1.9217 -0.2221
 9245SOL     OW39193   2.436   1.829  17.058 -0.3324 -0.6234  0.2331
 9245SOL    HW139194   2.468   1.808  17.145 -1.5417  3.9948  1.7872
 9245SOL    HW239195   2.490   1.770  17.005  1.8644  1.9474 -0.4392
 9246SOL     OW39196   0.200   0.718   1.318 -0.1443  0.6591  0.4985
 9246SOL    HW139197   0.247   0.801   1.322  0.3963  0.4627 -2.0591
 9246SOL    HW239198   0.133   0.731   1.386 -1.3337 -1.0239 -0.3449
 9247SOL     OW39199   1.533   3.850   7.020 -0.5617 -0.4193 -0.0880
 9247SOL    HW139200   1.604   3.823   6.963  1.5168 -1.6794  3.0614
 9247SOL    HW239201   1.478   3.897   6.958  0.0023  0.6603  0.2212
 9248SOL     OW39202   1.166   0.399   8.625  0.0409  0.4347 -0.5408
 9248SOL    HW139203   1.131   0.451   8.697  0.8245 -1.2680  1.0711
 9248SOL    HW239204   1.250   0.374   8.662 -1.0209 -2.0859  0.1590
 9249SOL     OW39205   2.152   0.111   0.713  0.5418  0.5171  0.1036
 9249SOL    HW139206   2.119   0.182   0.658  0.5544 -1.0893 -1.9699
 9249SOL    HW239207   2.125   0.132   0.802 -2.4631 -1.3665 -0.3666
 9250SOL     OW39208   3.587   0.173   8.284  0.0461 -0.2367 -0.0045
 9250SOL    HW139209   3.497   0.205   8.281 -0.0676 -0.3873  1.8868
 9250SOL    HW239210   3.623   0.233   8.349 -1.9259 -0.3631  1.1915
 9251SOL     OW39211   3.834   0.286  11.371 -0.2885 -0.6668  0.0648
 9251SOL    HW139212   3.889   0.257  11.299 -0.5918 -1.5892  0.2094
 9251SOL    HW239213   3.783   0.206  11.357  1.1160 -1.5416 -0.0510
 9252SOL     OW39214   1.811   3.000   4.062 -0.7066  0.3799  0.2580
 9252SOL    HW139215   1.827   3.091   4.035  0.7845 -0.1635 -0.7173
 9252SOL    HW239216   1.746   2.978   3.995  0.4726 -0.6200 -0.5489
 9253SOL     OW39217   0.388   3.200   1.767  0.6833 -0.3763  0.6856
 9253SOL    HW139218   0.329   3.131   1.738  2.7864 -1.6005 -0.6881
 9253SOL    HW239219   0.333   3.251   1.826 -1.3158 -1.4212 -0.2846
 9254SOL     OW39220   1.197   3.448  13.651 -0.3091 -0.2039  0.2536
 9254SOL    HW139221   1.228   3.537  13.667 -0.0389 -0.6249  2.1620
 9254SOL    HW239222   1.212   3.406  13.736 -0.4966  0.6670  0.7116
 9255SOL     OW39223   3.288   0.452   9.762 -0.2790  0.0461 -0.2069
 9255SOL    HW139224   3.287   0.362   9.796  0.2022 -0.2113 -0.8842
 9255SOL    HW239225   3.264   0.503   9.839  1.6204  2.2817 -1.1040
 9256SOL     OW39226   4.265   3.301   4.260  0.2654 -0.4639  0.3524
 9256SOL    HW139227   4.284   3.208   4.248 -0.1612 -0.3780 -1.0571
 9256SOL    HW239228   4.332   3.310   4.327 -0.2548  1.4144  0.6035
 9257SOL     OW39229   3.715   0.228  14.740  0.2575 -0.2048  0.1502
 9257SOL    HW139230   3.718   0.145  14.692  1.0128  0.8741 -1.6815
 9257SOL    HW239231   3.800   0.265  14.717  1.3881 -0.9570  3.1833
 9258SOL     OW39232   0.608   2.049   4.171  0.3477 -0.1888  0.0038
 9258SOL    HW139233   0.543   2.051   4.100  0.6272 -2.6766 -0.3221
 9258SOL    HW239234   0.550   2.045   4.247  1.1058  0.4434  0.6056
 9259SOL     OW39235   4.512   0.857   2.186  0.5256  0.0182  0.1419
 9259SOL    HW139236   4.519   0.851   2.281  2.2045  0.6968  0.0764
 9259SOL    HW239237   4.595   0.904   2.178 -0.4553  1.5122 -1.3863
 9260SOL     OW39238   2.701   0.640   9.627 -0.2157 -0.5437  0.2716
 9260SOL    HW139239   2.613   0.662   9.658 -0.4264  0.8432 -1.3347
 9260SOL    HW239240   2.744   0.725   9.640 -0.1699 -0.5155 -0.0638
 9261SOL     OW39241   4.058   4.334  11.812  0.6048  0.0340  0.4877
 9261SOL    HW139242   4.039   4.243  11.834  1.0071 -0.1340  0.1445
 9261SOL    HW239243   4.153   4.332  11.812  0.6476  1.9667 -1.8102
 9262SOL     OW39244   3.125   2.660   2.107  0.0134 -0.1229  0.0757
 9262SOL    HW139245   3.072   2.680   2.030 -1.1094 -0.0735  0.8497
 9262SOL    HW239246   3.085   2.708   2.179 -1.6454 -0.8693 -0.3551
 9263SOL     OW39247   3.306   0.143  15.154  0.5932 -0.3051 -0.3866
 9263SOL    HW139248   3.251   0.066  15.167  2.4442 -1.0863  2.6824
 9263SOL    HW239249   3.265   0.186  15.079 -0.3041 -0.2847  0.1036
 9264SOL     OW39250   4.360   2.169   8.461  0.7538 -0.9033 -0.1000
 9264SOL    HW139251   4.293   2.197   8.524  2.7601  0.8624  1.2537
 9264SOL    HW239252   4.312   2.153   8.380  0.4600 -0.8107  0.0546
 9265SOL     OW39253   4.161   4.165  10.586  0.5571  0.1799  0.7008
 9265SOL    HW139254   4.139   4.091  10.530  1.1813  0.7211 -0.2616
 9265SOL    HW239255   4.101   4.227  10.544 -2.2925 -0.5202  3.7182
 9266SOL     OW39256   3.370   3.725   8.390 -0.4264 -0.5487  1.0092
 9266SOL    HW139257   3.345   3.647   8.439 -0.9290 -0.8365  0.2902
 9266SOL    HW239258   3.466   3.724   8.387 -0.4940  0.8851 -1.8730
 9267SOL     OW39259   4.547   1.899   9.229 -0.3233 -0.2790  0.6988
 9267SOL    HW139260   4.564   1.903   9.323 -0.0721  0.8570  0.6027
 9267SOL    HW239261   4.622   1.950   9.198 -0.9721  0.0227 -0.3818
 9268SOL     OW39262   4.650   0.971   8.992 -0.1533 -0.1611  0.0609
 9268SOL    HW139263   0.011   0.934   8.955  0.4127  0.2261  0.8954
 9268SOL    HW239264   4.672   1.064   8.999 -0.0704 -0.2396  0.8698
 9269SOL     OW39265   4.436   0.539   4.851 -0.4789  0.1227  0.8665
 9269SOL    HW139266   4.436   0.445   4.870 -1.5350 -0.1344 -0.4245
 9269SOL    HW239267   4.369   0.545   4.783  1.0498  1.0775 -0.5543
 9270SOL     OW39268   1.070   1.493  14.793 -0.5091  0.1704  0.1838
 9270SOL    HW139269   1.060   1.399  14.776  0.8404  0.1899 -0.6860
 9270SOL    HW239270   1.131   1.528  14.729  0.7779 -0.2026  1.2004
 9271SOL     OW39271   2.668   0.641   5.862 -0.1072 -0.1955  0.5134
 9271SOL    HW139272   2.703   0.614   5.777  1.7940  1.9729  0.6068
 9271SOL    HW239273   2.573   0.648   5.846  0.2013  1.0640 -0.8358
 9272SOL     OW39274   4.644   1.415  13.363  0.1060  0.3207  0.6184
 9272SOL    HW139275   4.698   1.339  13.383 -2.7586 -1.7768  0.4363
 9272SOL    HW239276   4.630   1.392  13.271 -1.0804  2.4289  0.2676
 9273SOL     OW39277   0.838   0.329   1.349  0.1118 -0.0464 -0.4112
 9273SOL    HW139278   0.865   0.411   1.392  0.5520 -0.0793 -0.6256
 9273SOL    HW239279   0.746   0.341   1.328 -0.2416  0.8268  1.6192
 9274SOL     OW39280   0.717   1.872  15.194 -0.2289  0.1820  0.2505
 9274SOL    HW139281   0.686   1.802  15.136  1.7005  0.6763 -1.3935
 9274SOL    HW239282   0.742   1.938  15.129 -4.1714  0.6879 -0.7558
 9275SOL     OW39283   0.184   3.920   0.026  0.4852 -0.2964 -0.2068
 9275SOL    HW139284   0.193   3.881   0.113 -0.7806  0.4240  0.2615
 9275SOL    HW239285   0.210   3.855  17.642  1.8423 -0.5876  0.6407
 9276SOL     OW39286   3.097   0.991   3.100 -0.0162 -0.2958 -0.4401
 9276SOL    HW139287   3.008   0.961   3.119 -0.0041  0.3106  0.5652
 9276SOL    HW239288   3.131   0.947   3.022 -1.0632 -0.2570 -0.9228
 9277SOL     OW39289   1.600   3.259   2.040  0.0788  0.0681 -0.0659
 9277SOL    HW139290   1.656   3.205   1.985  0.8345  0.6622  0.1116
 9277SOL    HW239291   1.652   3.266   2.120  0.5204  2.2055 -0.5344
 9278SOL     OW39292   0.655   2.877  10.363 -0.2709  0.1872  0.3419
 9278SOL    HW139293   0.748   2.900  10.355  0.0930 -0.9951  1.0978
 9278SOL    HW239294   0.642   2.945  10.428 -0.6906  0.6632 -0.2374
 9279SOL     OW39295   1.805   0.160  12.097 -0.6518  0.0881 -0.1865
 9279SOL    HW139296   1.806   0.253  12.073 -0.0299  0.0923 -0.1443
 9279SOL    HW239297   1.773   0.109  12.023  0.2305 -0.6757 -0.0376
 9280SOL     OW39298   1.387   3.662   9.188 -0.1140  0.6866  0.0884
 9280SOL    HW139299   1.417   3.620   9.269 -2.5426 -0.0193  0.6288
 9280SOL    HW239300   1.293   3.645   9.189 -0.0644  0.3999 -0.2306
 9281SOL     OW39301   1.904   0.499   9.988  0.0798 -0.3680  0.2641
 9281SOL    HW139302   1.948   0.571  10.033 -0.6570  0.8926 -1.0251
 9281SOL    HW239303   1.955   0.496   9.907  1.9920  1.0241  1.4258
 9282SOL     OW39304   0.178   0.674  13.336  0.0359 -0.5448  0.2005
 9282SOL    HW139305   0.117   0.616  13.290 -0.6262  0.5782 -0.3412
 9282SOL    HW239306   0.258   0.623  13.347  1.8967  2.6348  1.3657
 9283SOL     OW39307   4.071   2.137   6.997 -0.2869 -1.0716  0.1357
 9283SOL    HW139308   4.118   2.126   6.914 -0.7547 -0.9727 -0.1477
 9283SOL    HW239309   4.128   2.196   7.045  1.3043 -0.6394 -2.2870
 9284SOL     OW39310   4.516   2.230  15.654  0.0130  0.6643  0.1778
 9284SOL    HW139311   4.490   2.261  15.741 -0.1410  0.7665  0.0946
 9284SOL    HW239312   4.611   2.237  15.668  0.0541  2.8278 -1.1427
 9285SOL     OW39313   4.556   0.984   9.927  0.3436  0.4877 -0.4666
 9285SOL    HW139314   4.641   1.012   9.892  0.2843  0.3357 -0.7302
 9285SOL    HW239315   4.573   0.893   9.947 -0.5677  0.0794 -1.5372
 9286SOL     OW39316   0.515   2.709   1.886  0.1896 -0.4558 -0.4313
 9286SOL    HW139317   0.493   2.735   1.975 -0.6827  2.4829 -1.5080
 9286SOL    HW239318   0.554   2.786   1.845 -0.3295  0.0797  0.0776
 9287SOL     OW39319   0.990   0.974   0.788  0.4052  0.0034 -0.0929
 9287SOL    HW139320   0.920   0.986   0.852  0.8726  3.1729 -0.1839
 9287SOL    HW239321   0.981   1.057   0.743 -0.0367  0.7005  1.2721
 9288SOL     OW39322   3.967   3.389   6.009  1.1907  0.1597 -0.2612
 9288SOL    HW139323   3.894   3.435   6.052  0.8766 -0.8613  0.3064
 9288SOL    HW239324   4.043   3.428   6.052  0.3452 -0.9460  2.2585
 9289SOL     OW39325   3.138   4.134  10.235  0.2104  0.2800 -0.3837
 9289SOL    HW139326   3.098   4.047  10.227  2.5362 -1.0423  2.2065
 9289SOL    HW239327   3.140   4.148  10.330  0.5925 -1.4042 -0.1447
 9290SOL     OW39328   3.996   1.020   5.235 -0.3764 -0.1022  0.2629
 9290SOL    HW139329   3.931   1.000   5.302 -1.1787  1.2955 -0.0952
 9290SOL    HW239330   4.007   0.937   5.190 -0.8411 -0.3477  0.6075
 9291SOL     OW39331   3.754   3.280   8.007  0.6380 -0.0911  0.1214
 9291SOL    HW139332   3.759   3.273   8.102  1.4688  0.1242  0.0991
 9291SOL    HW239333   3.752   3.376   8.008  1.5664 -0.0869  2.0189
 9292SOL     OW39334   4.575   4.059  11.216  0.2184  0.5258  0.5191
 9292SOL    HW139335   4.481   4.070  11.206  0.7885  0.3827 -4.7224
 9292SOL    HW239336   4.594   4.041  11.309  2.2627  0.7735  0.1500
 9293SOL     OW39337   1.093   1.198   7.164 -0.6241  0.3701 -0.2582
 9293SOL    HW139338   1.096   1.290   7.138  0.5678 -0.1230 -1.9305
 9293SOL    HW239339   1.044   1.157   7.092 -2.2085  1.4043  0.2496
 9294SOL     OW39340   3.202   0.439   8.370 -0.1250 -0.1733 -0.4722
 9294SOL    HW139341   3.239   0.527   8.374 -0.8829  0.1709 -1.0209
 9294SOL    HW239342   3.233   0.408   8.285  0.8070 -2.9311  0.8654
 9295SOL     OW39343   4.121   0.924   2.615 -0.6624 -0.3080 -0.5842
 9295SOL    HW139344   4.050   0.978   2.582 -0.8022 -0.6343 -0.8201
 9295SOL    HW239345   4.188   0.988   2.640 -0.6928 -0.5569  0.1618
 9296SOL     OW39346   3.661   0.161  14.998 -0.4507  0.2598 -0.4174
 9296SOL    HW139347   3.728   0.094  14.979  0.5713  1.4436 -0.9908
 9296SOL    HW239348   3.653   0.185  14.906 -0.5092 -0.0941 -0.5068
 9297SOL     OW39349   0.025   2.368  15.431  0.8190 -0.9500 -0.4252
 9297SOL    HW139350   0.036   2.275  15.451  2.8597 -1.5399 -4.2888
 9297SOL    HW239351   4.652   2.380  15.407  1.1211  1.7709 -0.2012
 9298SOL     OW39352   2.361   2.995  10.771 -0.2985 -0.1852 -0.3742
 9298SOL    HW139353   2.293   2.987  10.705  1.4280  1.5976 -2.3560
 9298SOL    HW239354   2.328   3.076  10.809  0.0084  0.5442 -1.6628
 9299SOL     OW39355   0.689   0.102   8.226 -0.3149  0.0517 -0.1923
 9299SOL    HW139356   0.763   0.153   8.191 -0.0713 -0.3494 -0.2541
 9299SOL    HW239357   0.714   0.015   8.198 -0.4496  0.5799 -1.9712
 9300SOL     OW39358   1.931   4.097   1.990 -0.6375 -0.0247 -0.1721
 9300SOL    HW139359   1.866   4.045   1.942  1.4673  0.1680 -3.2242
 9300SOL    HW239360   1.906   4.187   1.969  1.0102  0.2741 -0.8368
 9301SOL     OW39361   2.901   3.973  10.848 -0.4202  0.1339  0.4460
 9301SOL    HW139362   2.848   3.899  10.818  1.4049 -1.4089  1.0138
 9301SOL    HW239363   2.837   4.010  10.908 -1.1321  1.7312 -1.2859
 9302SOL     OW39364   1.468   0.903   8.432 -0.0720 -1.0959  0.9859
 9302SOL    HW139365   1.423   0.832   8.478 -2.1653 -1.3160 -1.3867
 9302SOL    HW239366   1.554   0.904   8.474  0.7663 -2.5723 -0.6860
 9303SOL     OW39367   3.394   4.157   7.351  0.3672  0.5128  0.3113
 9303SOL    HW139368   3.386   4.119   7.438 -0.0096  0.2827  0.1761
 9303SOL    HW239369   3.339   4.094   7.304 -0.9590  0.4613  1.9500
 9304SOL     OW39370   2.114   3.742  13.899  0.9309 -0.4290 -0.2697
 9304SOL    HW139371   2.128   3.657  13.857 -1.7162 -1.3123  0.5884
 9304SOL    HW239372   2.128   3.729  13.993  0.4844  2.8957  0.2267
 9305SOL     OW39373   0.586   0.609   2.671  0.0523  0.3516  0.4418
 9305SOL    HW139374   0.612   0.519   2.693  1.6484  0.6862 -0.0328
 9305SOL    HW239375   0.535   0.592   2.591 -1.1598  1.8691  0.9039
 9306SOL     OW39376   0.711   4.425  10.339 -0.0252  0.2513  0.0852
 9306SOL    HW139377   0.731   4.337  10.307  1.3017  1.5132 -2.5067
 9306SOL    HW239378   0.662   4.416  10.421  1.5501  0.5896  1.0847
 9307SOL     OW39379   0.461   3.670   7.272 -0.3894 -0.8804 -0.3382
 9307SOL    HW139380   0.487   3.597   7.329 -1.3632 -1.5124 -0.7054
 9307SOL    HW239381   0.537   3.725   7.288  0.7645 -2.0834 -1.5836
 9308SOL     OW39382   0.517   4.526   7.729 -0.0551  0.1531  0.2240
 9308SOL    HW139383   0.535   4.574   7.810  0.3953  0.9226 -0.3271
 9308SOL    HW239384   0.480   4.441   7.753  1.9212  0.2349  3.4723
 9309SOL     OW39385   3.405   0.894  16.087  0.3515 -0.0986 -0.2154
 9309SOL    HW139386   3.324   0.863  16.048 -0.1269 -0.2480  0.9047
 9309SOL    HW239387   3.457   0.930  16.014  1.5596 -0.9390  0.2226
 9310SOL     OW39388   3.885   4.579   7.505  0.4245 -0.1505 -0.2153
 9310SOL    HW139389   3.793   4.553   7.510 -0.2438  2.2824  0.0729
 9310SOL    HW239390   3.910   4.585   7.597 -0.7207 -0.1530  0.0899
 9311SOL     OW39391   0.693   3.515   6.725 -0.4567 -0.6211  0.3294
 9311SOL    HW139392   0.775   3.520   6.774  1.1364 -1.4988 -2.2482
 9311SOL    HW239393   0.642   3.588   6.760  0.5015  0.7658 -1.1538
 9312SOL     OW39394   0.396   2.722   1.272 -0.0192  0.2218 -0.2238
 9312SOL    HW139395   0.469   2.780   1.250  2.4738 -2.2673  1.4634
 9312SOL    HW239396   0.328   2.759   1.215 -0.6009 -0.8267 -0.2098
 9313SOL     OW39397   3.915   2.248  16.041  0.0239  0.0502  0.2763
 9313SOL    HW139398   3.878   2.173  15.995  2.1416 -0.4340 -0.6306
 9313SOL    HW239399   3.920   2.228  16.134  0.1542  0.4756  0.3618
 9314SOL     OW39400   2.601   0.533   4.405 -0.8410  0.1485 -0.6327
 9314SOL    HW139401   2.662   0.601   4.435 -1.2769  0.4217 -0.3483
 9314SOL    HW239402   2.624   0.516   4.314  0.0496 -0.4682 -0.2907
 9315SOL     OW39403   0.968   3.195   3.878 -0.2679  0.2044  0.0438
 9315SOL    HW139404   1.028   3.219   3.949 -0.4607 -0.5472  0.4654
 9315SOL    HW239405   1.021   3.135   3.826 -1.1486  0.8973 -1.6507
 9316SOL     OW39406   3.137   2.272   4.958  0.2336 -0.3857 -0.0485
 9316SOL    HW139407   3.109   2.196   5.008  1.8353 -1.1133 -0.2654
 9316SOL    HW239408   3.223   2.242   4.930  0.3723 -1.1696  1.1996
 9317SOL     OW39409   0.517   2.334   2.326 -0.2869 -0.1111  0.3009
 9317SOL    HW139410   0.606   2.332   2.363  0.0496  1.4159 -0.4108
 9317SOL    HW239411   0.470   2.372   2.401  0.0174  1.6487 -0.3903
 9318SOL     OW39412   2.788   0.482  13.329  0.3791 -0.6027  0.1232
 9318SOL    HW139413   2.751   0.536  13.259  0.6486 -2.0138 -1.0967
 9318SOL    HW239414   2.816   0.553  13.387 -1.0635  0.3027 -0.2707
 9319SOL     OW39415   1.654   2.483   3.844 -0.0820  0.3614 -0.2316
 9319SOL    HW139416   1.719   2.526   3.899 -0.0076  1.5127 -1.1997
 9319SOL    HW239417   1.646   2.396   3.883  0.0622  0.4217 -0.0703
 9320SOL     OW39418   4.481   2.456   2.297 -0.3350  0.6417  0.6719
 9320SOL    HW139419   4.560   2.407   2.274 -1.0004 -0.6216  1.0638
 9320SOL    HW239420   4.408   2.403   2.267  1.0595  0.0142 -1.6475
 9321SOL     OW39421   0.441   0.807   7.610  0.1196  0.0317  0.5691
 9321SOL    HW139422   0.476   0.835   7.694  3.4048  1.8737 -1.4167
 9321SOL    HW239423   0.349   0.830   7.624  0.2472  1.5509 -1.1329
 9322SOL     OW39424   3.318   0.541   0.182  0.2759 -0.2103 -0.6537
 9322SOL    HW139425   3.249   0.489   0.222  0.0542  1.3090  0.9204
 9322SOL    HW239426   3.349   0.603   0.248 -0.6659  1.0833 -1.4369
 9323SOL     OW39427   0.598   2.931   8.785 -0.1817  0.2231  0.3708
 9323SOL    HW139428   0.652   2.909   8.861 -0.2824 -0.4733  0.2388
 9323SOL    HW239429   0.515   2.888   8.804 -1.2464  0.4030 -4.0303
 9324SOL     OW39430   4.172   1.406   5.850  0.0496  0.3381 -0.4849
 9324SOL    HW139431   4.126   1.490   5.842 -0.7511 -0.2251 -1.8537
 9324SOL    HW239432   4.256   1.425   5.809  0.1981  0.2677 -0.2117
 9325SOL     OW39433   4.661   4.015   2.607  0.3940  0.4119  0.0420
 9325SOL    HW139434   4.698   4.003   2.694  1.1904 -0.3335 -0.3963
 9325SOL    HW239435   4.576   4.055   2.623 -0.2836 -0.6165 -0.9311
 9326SOL     OW39436   1.263   2.645   8.912  0.0506 -0.2256 -0.5707
 9326SOL    HW139437   1.203   2.597   8.969  0.7969 -0.8274 -0.2893
 9326SOL    HW239438   1.221   2.615   8.831  1.3945 -2.1216 -0.5777
 9327SOL     OW39439   3.429   4.145   3.037  0.5416 -0.1573  0.7686
 9327SOL    HW139440   3.495   4.082   3.066  0.4236 -0.9494 -0.6811
 9327SOL    HW239441   3.394   4.101   2.960  2.3858 -1.5763  0.7428
 9328SOL     OW39442   1.064   1.814   1.166 -0.5668 -0.4014 -0.1198
 9328SOL    HW139443   1.128   1.863   1.217  0.2432 -1.3314 -0.2415
 9328SOL    HW239444   0.989   1.874   1.161  1.0025  1.4487 -1.4024
 9329SOL     OW39445   0.160   3.372   1.498 -0.1052 -0.1410 -0.1382
 9329SOL    HW139446   0.208   3.444   1.538  0.4747 -0.0839 -0.9351
 9329SOL    HW239447   0.149   3.405   1.409  0.0715  0.5118  0.0879
 9330SOL     OW39448   2.634   0.505   9.255  0.8699 -0.3088  0.0459
 9330SOL    HW139449   2.716   0.489   9.301 -0.1187 -2.8556  0.8922
 9330SOL    HW239450   2.597   0.417   9.252 -0.4465  0.2604 -0.5959
 9331SOL     OW39451   3.582   2.085  12.723 -0.4294  0.1527 -0.3225
 9331SOL    HW139452   3.635   2.084  12.643  0.2518  0.7203  0.1215
 9331SOL    HW239453   3.606   2.005  12.770 -0.9970 -0.1685 -0.5869
 9332SOL     OW39454   0.248   4.187   7.658 -0.2424  0.5928 -0.1723
 9332SOL    HW139455   0.245   4.265   7.602 -1.1338  1.7554  1.4951
 9332SOL    HW239456   0.310   4.124   7.621  0.7026  0.1399  2.1810
 9333SOL     OW39457   2.383   0.704  13.048  0.4138 -0.5574 -0.2277
 9333SOL    HW139458   2.391   0.704  13.144  1.3000  0.9283 -0.3044
 9333SOL    HW239459   2.313   0.642  13.030  0.3414 -0.6413  0.3264
 9334SOL     OW39460   4.160   3.138   3.041  0.2882  0.4034  0.3086
 9334SOL    HW139461   4.133   3.155   3.132 -0.2777  0.1707  0.1839
 9334SOL    HW239462   4.198   3.051   3.039  0.3000  0.4672 -1.8831
 9335SOL     OW39463   1.371   1.276   8.251 -0.0373 -0.0281 -0.4226
 9335SOL    HW139464   1.291   1.290   8.301 -0.1816 -1.5057 -0.2513
 9335SOL    HW239465   1.397   1.190   8.285  1.0871  1.0027  1.3151
 9336SOL     OW39466   0.963   3.698   3.427  0.6144 -0.0520 -0.6444
 9336SOL    HW139467   0.890   3.760   3.430  0.2701 -0.3322 -3.5411
 9336SOL    HW239468   0.944   3.638   3.355  1.1626  1.0777 -1.7363
 9337SOL     OW39469   4.277   0.495   3.722  0.6264  0.5644  0.1399
 9337SOL    HW139470   4.280   0.417   3.666  0.9413  0.2236  0.6357
 9337SOL    HW239471   4.330   0.460   3.794 -0.6826 -1.1261  0.2793
 9338SOL     OW39472   2.320   3.542  12.969  0.1512  0.1566  0.0287
 9338SOL    HW139473   2.305   3.598  12.893 -1.3381  0.4680  0.5614
 9338SOL    HW239474   2.361   3.600  13.033 -0.2443 -0.3911  0.7731
 9339SOL     OW39475   1.385   4.279   6.488  0.1863  0.1793  0.1886
 9339SOL    HW139476   1.479   4.267   6.473  0.7324  2.6177  1.5588
 9339SOL    HW239477   1.382   4.327   6.571 -0.4169  0.7579 -0.1628
 9340SOL     OW39478   4.174   4.208   4.647 -0.4386  0.4806  0.2567
 9340SOL    HW139479   4.163   4.281   4.709  2.3224 -2.2694  4.0249
 9340SOL    HW239480   4.267   4.205   4.623 -0.5794 -0.8216 -0.1235
 9341SOL     OW39481   2.756   2.585   2.815  0.5203 -0.0717 -0.7471
 9341SOL    HW139482   2.709   2.665   2.837 -0.4167 -0.8080 -0.0765
 9341SOL    HW239483   2.689   2.519   2.797 -0.0856  0.3926 -0.1700
 9342SOL     OW39484   3.503   3.385   5.175 -0.6039 -0.7755  0.1088
 9342SOL    HW139485   3.520   3.350   5.262 -0.0950  3.8829  1.8656
 9342SOL    HW239486   3.592   3.384   5.139 -0.8312 -2.3853 -0.3973
 9343SOL     OW39487   3.285   1.567   6.838  0.2733 -0.0860 -0.3564
 9343SOL    HW139488   3.344   1.497   6.865  0.3232  1.2280  2.8691
 9343SOL    HW239489   3.274   1.539   6.747 -2.6705 -0.3173  0.0788
 9344SOL     OW39490   0.553   3.065  13.889  0.3144  0.1364 -0.2948
 9344SOL    HW139491   0.642   3.065  13.854 -0.2746 -1.4813 -1.8530
 9344SOL    HW239492   0.510   3.027  13.812  1.3996 -2.0514  0.1727
 9345SOL     OW39493   1.964   3.843   6.767  0.1039 -0.6140 -0.2041
 9345SOL    HW139494   2.007   3.766   6.730  2.8206 -0.2012  2.0944
 9345SOL    HW239495   2.038   3.904   6.765 -0.1194 -0.3285  0.2516
 9346SOL     OW39496   3.800   0.754  16.789 -0.2496 -0.4203  0.3558
 9346SOL    HW139497   3.837   0.838  16.816 -2.2015  1.0625 -1.6059
 9346SOL    HW239498   3.767   0.782  16.704  1.7278 -0.2359 -0.3597
 9347SOL     OW39499   0.423   4.352  14.388 -0.6130  0.0931  0.1992
 9347SOL    HW139500   0.500   4.391  14.347 -1.3480  0.2479 -1.0560
 9347SOL    HW239501   0.378   4.428  14.425  0.5988  0.5215  0.8043
 9348SOL     OW39502   2.652   4.379   3.834  0.1124 -0.1681 -0.0217
 9348SOL    HW139503   2.569   4.427   3.836 -1.4718 -2.8636 -0.4314
 9348SOL    HW239504   2.712   4.452   3.818  1.4093 -0.6758  2.5148
 9349SOL     OW39505   1.456   1.079  17.338 -0.5629  0.1887 -0.0547
 9349SOL    HW139506   1.491   1.047  17.421  0.4023 -0.3857 -0.6863
 9349SOL    HW239507   1.378   1.026  17.322 -0.0533 -0.8519  0.9020
 9350SOL     OW39508   0.469   4.042   2.972 -0.5838  0.3813  0.3124
 9350SOL    HW139509   0.523   4.013   3.046  1.7072  2.0274 -0.6901
 9350SOL    HW239510   0.403   4.092   3.020 -0.8797  0.2567  0.0300
 9351SOL     OW39511   1.188   2.627   8.343  0.1457  0.0329  0.3019
 9351SOL    HW139512   1.209   2.648   8.434  1.3591  1.1948 -0.2499
 9351SOL    HW239513   1.092   2.633   8.346  0.3561  1.1272  4.7432
 9352SOL     OW39514   3.266   1.143   9.765 -0.3128  0.0520 -0.0710
 9352SOL    HW139515   3.171   1.154   9.767 -0.2847  0.1011  1.3678
 9352SOL    HW239516   3.292   1.230   9.733 -0.8203  0.0467 -0.4953
 9353SOL     OW39517   1.382   1.664   6.825  0.4059 -0.6851  0.0702
 9353SOL    HW139518   1.345   1.576   6.831 -1.5901  0.2075  1.2392
 9353SOL    HW239519   1.337   1.712   6.755  0.0120 -0.9564  0.1354
 9354SOL     OW39520   2.142   4.026   2.884  0.3807  0.8288 -0.0547
 9354SOL    HW139521   2.215   4.084   2.866  0.5689  0.7161  0.3455
 9354SOL    HW239522   2.094   4.069   2.955  1.5771  2.3870 -0.2095
 9355SOL     OW39523   3.159   0.453   8.622  0.4252  0.7585  0.1135
 9355SOL    HW139524   3.172   0.458   8.527  0.2538  1.5537  0.1310
 9355SOL    HW239525   3.101   0.529   8.629  0.6440  1.1235 -1.9667
 9356SOL     OW39526   2.269   2.778   9.416 -0.7876  0.0721 -0.2382
 9356SOL    HW139527   2.279   2.800   9.323 -1.2380 -0.5577 -0.4336
 9356SOL    HW239528   2.185   2.733   9.419  0.5615 -2.3839  0.8088
 9357SOL     OW39529   0.373   1.350   1.584  0.7005  0.2288 -0.1586
 9357SOL    HW139530   0.321   1.423   1.618  1.5857  1.6606 -1.8162
 9357SOL    HW239531   0.379   1.296   1.663 -0.4310  0.6244  0.1909
 9358SOL     OW39532   4.005   3.582   0.794  0.4562 -0.2270 -0.3591
 9358SOL    HW139533   4.023   3.517   0.862  0.1817  1.8389  1.6738
 9358SOL    HW239534   4.036   3.535   0.716 -0.8865  2.0540 -2.2818
 9359SOL     OW39535   3.219   4.177   0.883 -0.0337 -0.1370 -0.4104
 9359SOL    HW139536   3.309   4.210   0.874  0.3852 -1.6027 -1.5580
 9359SOL    HW239537   3.178   4.250   0.931  4.2954  2.6523 -0.9249
 9360SOL     OW39538   1.088   1.644   8.934 -0.3124  0.4970 -0.0660
 9360SOL    HW139539   1.152   1.574   8.917 -1.4063 -0.9211  1.6706
 9360SOL    HW239540   1.010   1.591   8.953  1.1847 -1.1789  1.4374
 9361SOL     OW39541   1.825   4.230   0.350  0.7081 -0.1572  0.8046
 9361SOL    HW139542   1.847   4.264   0.264 -0.3783 -0.3580  0.4457
 9361SOL    HW239543   1.780   4.302   0.396  0.2694 -1.3460  2.2544
 9362SOL     OW39544   1.228   2.804   3.054 -0.1299  0.2580 -0.1661
 9362SOL    HW139545   1.157   2.793   3.117 -0.5499 -0.3301 -0.7349
 9362SOL    HW239546   1.299   2.813   3.118 -0.4581  0.7191  0.1296
 9363SOL     OW39547   4.607   2.178  16.159  0.9877 -0.2966  0.0818
 9363SOL    HW139548   4.572   2.244  16.098  0.4281  1.1111  1.9257
 9363SOL    HW239549   4.524   2.149  16.196  0.3942 -0.0725 -1.0680
 9364SOL     OW39550   2.259   1.427   4.471 -0.2165 -0.5711  0.1190
 9364SOL    HW139551   2.207   1.488   4.419  0.8583 -0.2970 -0.6307
 9364SOL    HW239552   2.242   1.446   4.564 -2.3928 -1.6849 -0.0566
 9365SOL     OW39553   1.737   4.478  11.717  0.4082  0.2487 -0.3808
 9365SOL    HW139554   1.719   4.475  11.624 -1.7406  3.2366 -0.0841
 9365SOL    HW239555   1.735   4.386  11.741  4.2746  0.3887  0.4421
 9366SOL     OW39556   0.183   0.191   6.279 -0.0283 -0.0723 -0.6729
 9366SOL    HW139557   0.194   0.275   6.323 -0.2999  0.1513 -1.0390
 9366SOL    HW239558   0.264   0.143   6.297 -0.0597  0.4001  0.7179
 9367SOL     OW39559   2.710   3.938   4.100 -0.2946  0.1601  0.2385
 9367SOL    HW139560   2.772   4.005   4.128  0.1549  0.7025 -2.0299
 9367SOL    HW239561   2.758   3.875   4.046  0.3672  0.3683  0.5902
 9368SOL     OW39562   2.742   2.133   4.966 -0.2598 -0.1246 -0.2109
 9368SOL    HW139563   2.794   2.180   5.032  0.8390  0.6383 -1.6381
 9368SOL    HW239564   2.726   2.211   4.913  0.0600 -0.1289 -0.3111
 9369SOL     OW39565   1.490   2.084   6.977  0.1595  1.0822  0.2361
 9369SOL    HW139566   1.572   2.035   6.982 -0.1373  0.6130  0.4159
 9369SOL    HW239567   1.497   2.156   6.914  0.2509  0.8015 -0.0761
 9370SOL     OW39568   1.884   2.736   4.928 -0.8540 -0.5232  0.0079
 9370SOL    HW139569   1.976   2.748   4.952 -0.7115 -0.2462 -0.6623
 9370SOL    HW239570   1.890   2.642   4.911 -0.3813 -0.6392  0.8234
 9371SOL     OW39571   1.891   2.135  11.699  0.0634  0.2034  0.0361
 9371SOL    HW139572   1.815   2.167  11.651  1.7917  2.5104 -1.1525
 9371SOL    HW239573   1.943   2.104  11.625 -1.1295  0.2538 -0.8374
 9372SOL     OW39574   3.950   1.884  13.352 -0.0670 -0.5281  0.3601
 9372SOL    HW139575   3.866   1.929  13.349  0.1749 -0.0972  0.1738
 9372SOL    HW239576   3.922   1.793  13.344  0.5077 -0.7802  1.1620
 9373SOL     OW39577   2.849   0.415   9.409 -0.1820 -0.2070 -0.3145
 9373SOL    HW139578   2.908   0.360   9.357 -0.7275  0.6687 -1.8460
 9373SOL    HW239579   2.824   0.351   9.476 -0.1574 -1.5390 -1.5842
 9374SOL     OW39580   4.274   3.949   2.172  0.1756  0.1535 -0.0644
 9374SOL    HW139581   4.300   3.886   2.239 -1.1818 -1.5978 -1.1939
 9374SOL    HW239582   4.192   3.912   2.139  0.1505 -0.5829  0.8202
 9375SOL     OW39583   1.370   2.016   8.669 -0.3452  0.1407  0.5605
 9375SOL    HW139584   1.465   2.031   8.664 -0.4094 -0.1907 -1.4622
 9375SOL    HW239585   1.345   2.026   8.577  0.5583  0.9560  0.3998
 9376SOL     OW39586   1.465   1.716   9.175  0.1764 -0.2925  0.0837
 9376SOL    HW139587   1.518   1.653   9.224 -0.3619 -0.1425  0.8674
 9376SOL    HW239588   1.447   1.671   9.093 -0.5063 -1.2436  0.7627
 9377SOL     OW39589   1.500   3.765   3.417 -0.7709 -0.4668 -0.0281
 9377SOL    HW139590   1.563   3.696   3.395  0.6311  0.7888  0.0724
 9377SOL    HW239591   1.522   3.784   3.508  2.1707  0.9413 -1.0531
 9378SOL     OW39592   3.211   3.839   5.415  0.6945  0.1220  0.0791
 9378SOL    HW139593   3.237   3.748   5.401 -0.7645 -0.2591 -0.2263
 9378SOL    HW239594   3.293   3.874   5.449  0.4664 -2.0808  2.9187
 9379SOL     OW39595   1.381   3.052   0.586  0.5536  0.5891 -0.2337
 9379SOL    HW139596   1.471   3.049   0.618  0.2988 -0.0981  0.4243
 9379SOL    HW239597   1.397   3.052   0.492  1.2599 -1.6710 -0.1005
 9380SOL     OW39598   1.491   2.315   5.791  0.3082  0.0365 -0.2704
 9380SOL    HW139599   1.398   2.336   5.797 -0.2356 -2.4891  0.3077
 9380SOL    HW239600   1.525   2.305   5.880 -0.1982 -3.7898 -0.5239
 9381SOL     OW39601   1.694   2.271  17.159  0.0162  0.2695 -0.2305
 9381SOL    HW139602   1.624   2.243  17.101 -1.7881  1.6059  1.3056
 9381SOL    HW239603   1.707   2.190  17.208  2.9739  0.6635 -0.3535
 9382SOL     OW39604   1.053   0.069   2.863  0.2031  0.0159  0.1741
 9382SOL    HW139605   1.113   0.131   2.821  0.0646 -0.3241 -0.5229
 9382SOL    HW239606   1.066   4.710   2.810  2.7120  0.4815  0.0831
 9383SOL     OW39607   1.548   1.756   2.812 -0.0358 -0.4234 -0.0988
 9383SOL    HW139608   1.637   1.723   2.822 -0.2510 -0.9284  0.1663
 9383SOL    HW239609   1.561   1.812   2.735 -0.0565 -2.6954 -1.7741
 9384SOL     OW39610   3.335   0.729   7.136  0.3222  0.3296 -0.0947
 9384SOL    HW139611   3.291   0.799   7.087  0.0788 -0.3162 -0.7977
 9384SOL    HW239612   3.409   0.773   7.177  1.2464  0.2063 -1.6387
 9385SOL     OW39613   2.741   1.758   7.035 -0.0479  0.9743  0.5840
 9385SOL    HW139614   2.796   1.729   7.108  0.0348 -0.7289 -0.1621
 9385SOL    HW239615   2.787   1.834   7.000  0.8323  0.1423 -0.0397
 9386SOL     OW39616   0.662   2.854  12.767 -0.3938  0.0037 -0.3023
 9386SOL    HW139617   0.598   2.798  12.724 -1.6248  0.2487  1.2070
 9386SOL    HW239618   0.649   2.835  12.860  1.6295 -1.5093 -0.3210
 9387SOL     OW39619   1.488   1.265   1.606  0.0270 -0.4226 -0.2453
 9387SOL    HW139620   1.572   1.310   1.612 -0.4486  0.5585 -1.0147
 9387SOL    HW239621   1.476   1.280   1.513 -1.7983 -1.0064 -0.0992
 9388SOL     OW39622   2.666   3.087   6.889 -0.0267  0.3598  0.3416
 9388SOL    HW139623   2.680   3.102   6.982 -1.3836  2.1678  0.2581
 9388SOL    HW239624   2.574   3.111   6.879  0.7622  2.7369 -1.3311
 9389SOL     OW39625   4.241   0.318   6.123 -0.4502 -0.0359 -0.5806
 9389SOL    HW139626   4.336   0.334   6.122 -0.2331 -1.1760  1.9554
 9389SOL    HW239627   4.206   0.407   6.116 -2.2823 -0.6076  1.6759
 9390SOL     OW39628   1.086   2.455   6.512 -0.1138 -0.0790 -0.1663
 9390SOL    HW139629   1.021   2.452   6.441 -0.1419 -2.2913 -0.0348
 9390SOL    HW239630   1.055   2.533   6.558 -1.4987 -1.3173  1.0108
 9391SOL     OW39631   3.551   4.508   9.212  0.3693  0.1800  0.6582
 9391SOL    HW139632   3.594   4.462   9.140 -0.1652  2.4316 -1.1178
 9391SOL    HW239633   3.579   4.449   9.282  0.1302 -0.7167  0.0054
 9392SOL     OW39634   0.970   4.067   0.569 -0.2625 -0.0068  0.5098
 9392SOL    HW139635   1.044   4.108   0.525 -0.3745 -2.1743 -1.7564
 9392SOL    HW239636   0.956   4.120   0.647  1.3346 -0.7812  1.3121
 9393SOL     OW39637   4.711   3.756  12.999 -0.1290  0.0279  0.3455
 9393SOL    HW139638   0.005   3.803  13.081  1.1235  0.7429 -0.2652
 9393SOL    HW239639   0.026   3.821  12.938  0.1347 -0.0313  0.4326
 9394SOL     OW39640   4.211   3.150  11.904  0.5703 -0.4561  0.0874
 9394SOL    HW139641   4.147   3.220  11.921  1.5807  0.4864  0.0023
 9394SOL    HW239642   4.181   3.125  11.817  0.1617  1.8206 -0.4242
 9395SOL     OW39643   1.824   1.758   1.562  0.6167 -0.4686  0.0761
 9395SOL    HW139644   1.831   1.851   1.580  2.9315 -0.8661  1.1648
 9395SOL    HW239645   1.913   1.741   1.531  0.2776  1.1474 -1.7807
 9396SOL     OW39646   1.973   2.165   8.452 -0.2903 -0.0774  0.2315
 9396SOL    HW139647   2.002   2.174   8.362 -1.6082  0.6557 -0.1068
 9396SOL    HW239648   2.044   2.114   8.492  0.1790  2.0459  2.0884
 9397SOL     OW39649   1.238   2.309   4.394  0.1749  0.7230  0.1400
 9397SOL    HW139650   1.238   2.227   4.346  0.0098  1.4754 -1.1578
 9397SOL    HW239651   1.332   2.305   4.407  0.1988  0.8182 -0.0057
 9398SOL     OW39652   2.996   4.649   8.938  0.4624 -0.0510  0.5109
 9398SOL    HW139653   2.902   4.666   8.935  0.3181 -0.6490  1.6042
 9398SOL    HW239654   3.019   4.714   8.871  0.1617 -0.2964  0.1667
 9399SOL     OW39655   3.435   0.248  13.007  0.0756 -0.0808 -0.1896
 9399SOL    HW139656   3.498   0.309  12.968 -2.0398  1.5240 -1.1408
 9399SOL    HW239657   3.485   0.168  12.996 -1.3721 -0.8273 -1.3338
 9400SOL     OW39658   0.319   0.905   3.454 -0.3511  0.0934  0.3679
 9400SOL    HW139659   0.306   0.998   3.473 -1.1097  0.2316 -0.8476
 9400SOL    HW239660   0.367   0.933   3.376 -0.5081 -0.5789  0.0356
 9401SOL     OW39661   0.111   4.167   5.840 -0.7281 -0.2518  0.4770
 9401SOL    HW139662   0.041   4.103   5.849 -1.4549  0.6852  1.4858
 9401SOL    HW239663   0.064   4.250   5.845 -0.4183 -0.1592  1.9796
 9402SOL     OW39664   3.686   1.533   7.713  0.3084 -0.0143 -0.0730
 9402SOL    HW139665   3.778   1.558   7.713  0.0292  0.9372  2.3074
 9402SOL    HW239666   3.655   1.620   7.736  1.2054  0.0849  0.7934
 9403SOL     OW39667   3.573   1.424   9.092  0.1687 -0.2365  0.8110
 9403SOL    HW139668   3.497   1.427   9.033  1.3398 -1.5081 -0.7820
 9403SOL    HW239669   3.644   1.450   9.034 -0.4811 -0.0266  0.1091
 9404SOL     OW39670   3.118   1.858  15.822  0.8251 -0.1710  0.0948
 9404SOL    HW139671   3.158   1.782  15.780  3.4460  1.6587 -0.6919
 9404SOL    HW239672   3.194   1.903  15.859  0.9291 -0.9257  0.8117
 9405SOL     OW39673   3.281   0.328   8.131  0.0159 -0.8055  0.0354
 9405SOL    HW139674   3.214   0.309   8.065 -0.5329 -1.1141  0.6761
 9405SOL    HW239675   3.355   0.354   8.076 -2.3916  1.0706 -2.3102
 9406SOL     OW39676   1.944   4.502  12.286 -0.6094 -0.3501 -0.3317
 9406SOL    HW139677   2.015   4.473  12.343 -2.0030 -1.0913  1.0249
 9406SOL    HW239678   1.973   4.490  12.195 -0.0991 -1.4372 -0.0243
 9407SOL     OW39679   1.621   2.615  16.554 -0.3962 -0.5872 -0.2019
 9407SOL    HW139680   1.679   2.540  16.568 -0.9735 -0.7111  1.4324
 9407SOL    HW239681   1.625   2.658  16.639  0.1837  1.5630 -1.3162
 9408SOL     OW39682   0.140   1.866   7.355  0.1404 -0.3168  0.3619
 9408SOL    HW139683   0.213   1.905   7.404  1.6738 -2.3185 -0.3237
 9408SOL    HW239684   0.089   1.946   7.343 -0.1078 -0.7668 -1.4723
 9409SOL     OW39685   2.659   3.839   4.914  0.0500  0.7133  0.0782
 9409SOL    HW139686   2.648   3.885   4.831  0.0990  1.0115  0.2381
 9409SOL    HW239687   2.686   3.752   4.886 -1.7170  0.3143 -0.3922
 9410SOL     OW39688   1.755   4.455   8.144 -0.4390 -0.0278 -0.0601
 9410SOL    HW139689   1.737   4.362   8.131  2.7923 -0.6489 -0.0384
 9410SOL    HW239690   1.766   4.460   8.238 -0.2554  1.6706 -0.1655
 9411SOL     OW39691   2.358   4.007  12.412 -0.2994 -0.2066 -0.6943
 9411SOL    HW139692   2.291   3.939  12.404 -0.3255 -0.5243  2.3756
 9411SOL    HW239693   2.351   4.026  12.505  1.4204 -1.3181 -0.3261
 9412SOL     OW39694   3.967   1.015   3.082 -0.1847 -0.4630 -0.0842
 9412SOL    HW139695   4.026   0.987   3.013  1.3899  0.6498  0.8061
 9412SOL    HW239696   4.017   1.094   3.104 -0.4646  0.4337 -2.7060
 9413SOL     OW39697   4.513   3.859   4.813  0.7895 -0.1681 -0.0079
 9413SOL    HW139698   4.577   3.930   4.820  1.1541 -0.2925 -2.1704
 9413SOL    HW239699   4.461   3.870   4.893  2.8308  1.9589  1.0534
 9414SOL     OW39700   3.405   3.357   7.720  0.0011  0.0630  0.6407
 9414SOL    HW139701   3.423   3.281   7.664  1.2153  0.1914  0.8619
 9414SOL    HW239702   3.437   3.326   7.805 -1.3656  0.0244  1.1433
 9415SOL     OW39703   4.572   2.188   5.462  0.0559  0.0821 -0.6280
 9415SOL    HW139704   4.527   2.207   5.380 -2.9758  0.8982  1.2227
 9415SOL    HW239705   4.644   2.145   5.417  0.5037  0.4726 -0.2796
 9416SOL     OW39706   3.684   0.508   6.880 -0.3858  0.4489 -0.0036
 9416SOL    HW139707   3.778   0.513   6.897 -0.6173 -1.2088  1.7948
 9416SOL    HW239708   3.652   0.493   6.969  2.5518 -1.0910  0.7928
 9417SOL     OW39709   4.271   2.974   6.030  0.2229 -0.5573 -0.0122
 9417SOL    HW139710   4.319   3.048   5.993  1.8620 -0.7652  1.6847
 9417SOL    HW239711   4.317   2.967   6.113  1.4563  0.9578 -0.5767
 9418SOL     OW39712   4.710   1.450  13.924  0.1168  0.0625  0.3938
 9418SOL    HW139713   4.644   1.497  13.974  0.4649  0.8090  0.1590
 9418SOL    HW239714   0.022   1.518  13.864  1.9827 -2.5558 -1.5920
 9419SOL     OW39715   3.639   0.860   7.700 -0.0314  0.3426  0.2474
 9419SOL    HW139716   3.735   0.862   7.693 -0.1729  1.2986 -1.4673
 9419SOL    HW239717   3.617   0.929   7.638  0.9796  0.7317  0.3259
 9420SOL     OW39718   4.603   2.788   8.668  0.3925 -0.3204  0.7827
 9420SOL    HW139719   4.560   2.870   8.692 -1.0671 -0.8640  0.0470
 9420SOL    HW239720   4.682   2.791   8.722  0.8180  0.8123  0.1069
 9421SOL     OW39721   1.692   3.126   8.931 -0.0806 -0.1077  0.0182
 9421SOL    HW139722   1.754   3.144   8.860  1.4213  1.8311  1.8031
 9421SOL    HW239723   1.716   3.034   8.940 -0.5979 -0.3110 -0.6875
 9422SOL     OW39724   0.089   4.551   6.405 -0.0801 -0.8213  0.1920
 9422SOL    HW139725   0.140   4.613   6.352  0.1220 -1.1245  0.0339
 9422SOL    HW239726   0.041   4.607   6.466 -0.5175 -2.0655  0.9965
 9423SOL     OW39727   4.223   4.125  12.142  0.1788  0.3368 -0.1303
 9423SOL    HW139728   4.253   4.110  12.232 -0.3694  1.8509  0.3033
 9423SOL    HW239729   4.252   4.214  12.120  1.6242  0.4913  2.3418
 9424SOL     OW39730   1.252   2.203   4.866  0.1902  0.5170 -0.0690
 9424SOL    HW139731   1.274   2.119   4.826  0.9971  1.0357 -0.7136
 9424SOL    HW239732   1.226   2.266   4.798  1.6645 -0.4950 -1.5787
 9425SOL     OW39733   4.028   2.329   4.827  0.2980  0.2012 -0.3692
 9425SOL    HW139734   4.023   2.425   4.834 -2.5512  0.0850 -0.7671
 9425SOL    HW239735   4.044   2.314   4.734 -0.8316 -1.1577 -0.3484
 9426SOL     OW39736   0.511   3.807   6.628 -0.2381  0.6464 -0.2052
 9426SOL    HW139737   0.563   3.775   6.701 -0.4991 -0.1849 -0.3839
 9426SOL    HW239738   0.575   3.799   6.556 -1.0156  2.1585 -1.0742
 9427SOL     OW39739   3.506   3.662   3.389  0.5726  0.0492  0.1880
 9427SOL    HW139740   3.591   3.622   3.410  0.7823  0.6328  0.4440
 9427SOL    HW239741   3.521   3.754   3.412 -0.3562  0.3752 -0.5417
 9428SOL     OW39742   0.414   1.217   5.619  0.0429 -0.0318  0.4773
 9428SOL    HW139743   0.334   1.167   5.622  0.2550 -0.2416  2.5576
 9428SOL    HW239744   0.452   1.195   5.705  1.7744 -1.0884 -0.5548
 9429SOL     OW39745   4.519   3.653   8.744 -0.0874  0.5469  0.0995
 9429SOL    HW139746   4.473   3.605   8.676  1.0264 -0.0090 -0.2686
 9429SOL    HW239747   4.457   3.652   8.817  0.4302  0.9549  0.5480
 9430SOL     OW39748   2.453   2.666  15.843  0.1048  0.9781 -0.1022
 9430SOL    HW139749   2.493   2.708  15.766 -0.0199 -0.6247 -1.0357
 9430SOL    HW239750   2.413   2.743  15.884  0.8752 -0.4962  3.3329
 9431SOL     OW39751   2.725   3.706   5.310  0.5166 -0.5583 -0.3183
 9431SOL    HW139752   2.801   3.750   5.346  1.2280 -2.9308  1.0863
 9431SOL    HW239753   2.766   3.622   5.287  0.5418  0.2576 -3.2780
 9432SOL     OW39754   2.765   0.216   2.587  0.1356  0.0016  0.8071
 9432SOL    HW139755   2.776   0.143   2.525  0.6141  1.1228 -0.4416
 9432SOL    HW239756   2.685   0.264   2.563  0.4137 -0.4356 -1.0066
 9433SOL     OW39757   1.977   4.231   6.870 -0.2762 -0.1056 -0.1428
 9433SOL    HW139758   2.015   4.319   6.871 -2.3707  0.7997 -0.6902
 9433SOL    HW239759   1.896   4.248   6.823  0.4848  0.8410 -1.1240
 9434SOL     OW39760   2.862   1.083   7.613 -0.3570  0.1066  0.4671
 9434SOL    HW139761   2.828   1.146   7.549 -1.5985 -1.4870 -0.4195
 9434SOL    HW239762   2.833   1.008   7.561  0.6980  1.0985 -1.5871
 9435SOL     OW39763   2.285   0.360   0.227  0.1837  0.3314 -0.6606
 9435SOL    HW139764   2.285   0.379   0.320 -0.3363 -0.7913 -0.4297
 9435SOL    HW239765   2.351   0.421   0.195  0.2300 -0.3336 -1.8739
 9436SOL     OW39766   2.758   2.804   4.995  0.1010  0.0378  0.1865
 9436SOL    HW139767   2.810   2.740   5.044  1.3833  1.7813  1.0654
 9436SOL    HW239768   2.823   2.874   4.992  0.3778 -0.1937  0.7253
 9437SOL     OW39769   1.769   0.908  16.849 -0.2456 -0.3135 -0.4454
 9437SOL    HW139770   1.846   0.899  16.905 -0.0329  0.7536 -0.5682
 9437SOL    HW239771   1.728   0.823  16.864  0.3495 -0.5496 -0.1703
 9438SOL     OW39772   3.162   2.008  14.511  0.0808 -0.3682 -0.2520
 9438SOL    HW139773   3.155   2.073  14.440  1.9354 -2.3136 -2.2053
 9438SOL    HW239774   3.257   1.998  14.510 -0.1375 -2.1849 -1.1375
 9439SOL     OW39775   0.730   2.649   0.905 -0.2549  0.2317  0.3565
 9439SOL    HW139776   0.746   2.645   0.811  0.9158  1.8852  0.4896
 9439SOL    HW239777   0.735   2.743   0.919  0.2349  0.2931 -0.2363
 9440SOL     OW39778   0.517   0.366   5.643  0.8666  0.3960 -0.5468
 9440SOL    HW139779   0.476   0.302   5.701 -1.4164  2.2288 -0.1146
 9440SOL    HW239780   0.607   0.334   5.645  0.8238  0.2835 -0.4227
 9441SOL     OW39781   4.484   2.271  17.398  0.2453 -0.0922 -0.1702
 9441SOL    HW139782   4.497   2.345  17.458 -1.8677  0.0348  0.1279
 9441SOL    HW239783   4.395   2.294  17.371 -0.4887 -0.8766  1.5719
 9442SOL     OW39784   3.447   2.429   8.831  0.5679 -0.4786  0.5242
 9442SOL    HW139785   3.420   2.501   8.888  0.9769 -0.4261  0.6504
 9442SOL    HW239786   3.362   2.394   8.805  0.2342 -0.4870  1.6113
 9443SOL     OW39787   3.869   0.631   7.039  0.3421  0.6839 -0.0582
 9443SOL    HW139788   3.955   0.647   7.078  2.1060 -3.1319 -2.4368
 9443SOL    HW239789   3.804   0.655   7.104 -1.5494 -0.7010 -1.4572
 9444SOL     OW39790   0.288   2.084   5.027  0.6745 -0.0991  0.7948
 9444SOL    HW139791   0.288   2.172   4.990 -1.8283 -0.1235  0.7567
 9444SOL    HW239792   0.301   2.108   5.119 -0.5302  2.4555  0.2962
 9445SOL     OW39793   1.298   0.653  11.967  0.4563  0.0220 -0.0415
 9445SOL    HW139794   1.347   0.715  11.914 -0.1751 -2.4760 -3.5754
 9445SOL    HW239795   1.211   0.672  11.932  1.5784 -2.3459 -4.1739
 9446SOL     OW39796   1.845   2.190   4.591  0.1595 -0.5673 -0.1278
 9446SOL    HW139797   1.821   2.282   4.597  3.3426  0.2381  0.2019
 9446SOL    HW239798   1.930   2.203   4.549  0.1372  2.4667  0.7856
 9447SOL     OW39799   3.147   2.739  13.248 -0.2178 -0.5757 -0.0388
 9447SOL    HW139800   3.243   2.740  13.248 -0.2077 -1.6232  0.4916
 9447SOL    HW239801   3.137   2.834  13.246  1.1557 -0.3724  2.1092
 9448SOL     OW39802   4.095   4.438   4.106 -0.0485  0.0586 -0.0782
 9448SOL    HW139803   4.047   4.468   4.183  0.4533  0.4788  0.0652
 9448SOL    HW239804   4.021   4.399   4.059  0.0970 -0.3038 -0.0008
 9449SOL     OW39805   3.176   3.467   6.155  0.7891  0.2741  0.3282
 9449SOL    HW139806   3.134   3.418   6.084 -1.4444  2.0209  0.4603
 9449SOL    HW239807   3.163   3.556   6.124 -2.0516  0.5276  2.2556
 9450SOL     OW39808   4.378   2.234   7.182  0.3854 -0.4790 -0.1171
 9450SOL    HW139809   4.307   2.293   7.155 -0.8872 -1.1339  1.7873
 9450SOL    HW239810   4.441   2.290   7.228 -0.6087  0.0297  0.6368
 9451SOL     OW39811   2.630   0.440  14.453  0.0693 -0.8815  0.1876
 9451SOL    HW139812   2.677   0.362  14.481  1.8404  0.0904 -0.1089
 9451SOL    HW239813   2.683   0.499  14.506 -2.3272  0.9922  0.4952
 9452SOL     OW39814   0.817   1.602   8.604 -0.0834 -0.0123 -0.8183
 9452SOL    HW139815   0.902   1.559   8.591  0.1552  0.1042  0.2854
 9452SOL    HW239816   0.770   1.521   8.623 -0.6790  1.1705  2.7185
 9453SOL     OW39817   2.429   1.913  13.998  0.3085 -0.0045  0.2116
 9453SOL    HW139818   2.430   1.838  14.058 -0.9123  0.6247  1.0115
 9453SOL    HW239819   2.380   1.973  14.053 -1.6779 -0.7109 -0.7836
 9454SOL     OW39820   0.690   2.834   3.397 -0.2514 -0.1345  0.1542
 9454SOL    HW139821   0.707   2.922   3.430  0.7578 -1.5777  3.5158
 9454SOL    HW239822   0.750   2.780   3.448 -0.5419  1.5967  2.3433
 9455SOL     OW39823   1.497   1.920   4.862 -0.3869 -0.5254  0.0102
 9455SOL    HW139824   1.582   1.964   4.866 -0.2423 -0.9352  1.5192
 9455SOL    HW239825   1.486   1.905   4.956  3.1489  1.2968  0.6998
 9456SOL     OW39826   0.913   0.571   5.748 -0.4071  0.4047  0.2384
 9456SOL    HW139827   0.916   0.667   5.742  1.2494  0.2499 -1.3483
 9456SOL    HW239828   0.869   0.552   5.831  0.6837 -0.0312  0.7254
 9457SOL     OW39829   3.248   3.086   4.870 -0.7253  0.5508 -0.4098
 9457SOL    HW139830   3.295   3.170   4.878  0.1290 -0.0503  1.0577
 9457SOL    HW239831   3.313   3.024   4.903 -2.2257 -1.2987 -0.9910
 9458SOL     OW39832   4.427   3.779   8.353  0.1680  0.4541 -0.2175
 9458SOL    HW139833   4.499   3.814   8.405 -0.8922  1.3636  0.6523
 9458SOL    HW239834   4.463   3.802   8.267  0.9252 -0.4465 -0.1317
 9459SOL     OW39835   3.859   4.026   1.051 -0.3969  0.0043 -0.0131
 9459SOL    HW139836   3.907   3.950   1.017  1.1329  0.2428  1.6044
 9459SOL    HW239837   3.824   3.986   1.130 -0.4039  0.1811  0.0725
 9460SOL     OW39838   0.111   4.180  14.670 -0.3121 -0.1146  0.0109
 9460SOL    HW139839   0.017   4.184  14.651 -0.0316 -2.1846 -1.7916
 9460SOL    HW239840   0.123   4.266  14.710  0.9575 -0.2749 -0.0449
 9461SOL     OW39841   3.742   1.516   8.221  0.4384  0.1876 -0.2229
 9461SOL    HW139842   3.715   1.427   8.201 -0.2916  0.2327  0.5269
 9461SOL    HW239843   3.759   1.487   8.311 -0.7397 -0.4309 -0.2004
 9462SOL     OW39844   0.196   3.971   6.166  0.2074  1.2986  0.3987
 9462SOL    HW139845   0.132   3.917   6.212  1.5329  2.3647  3.4815
 9462SOL    HW239846   0.275   3.952   6.217  0.6040  0.3677 -0.5601
 9463SOL     OW39847   4.012   3.722   9.295 -0.5438 -0.7732  0.0581
 9463SOL    HW139848   3.934   3.684   9.254 -0.9934 -0.5263  0.6868
 9463SOL    HW239849   3.995   3.708   9.388 -0.8535 -1.7734 -0.1393
 9464SOL     OW39850   3.193   0.650   3.068  0.0943 -0.6405  0.2409
 9464SOL    HW139851   3.124   0.633   3.004  0.6646 -0.8196 -0.3099
 9464SOL    HW239852   3.233   0.728   3.030 -0.1732  0.3989  2.0592
 9465SOL     OW39853   2.861   0.075   7.842 -0.2059  0.3613  0.6408
 9465SOL    HW139854   2.809   4.716   7.859 -0.5503  0.2183 -1.0622
 9465SOL    HW239855   2.917   0.038   7.774 -1.1753  1.1988 -0.6266
 9466SOL     OW39856   4.633   0.634   7.477  0.6418  0.1507  0.2959
 9466SOL    HW139857   4.613   0.721   7.512  0.2060 -0.5403  1.7370
 9466SOL    HW239858   4.682   0.599   7.552 -1.5970 -1.8843  0.8102
 9467SOL     OW39859   0.123   1.027   6.462 -0.5942 -0.4045 -0.4480
 9467SOL    HW139860   0.052   1.037   6.399  0.2934  0.7478 -1.2778
 9467SOL    HW239861   0.109   0.935   6.483  1.0195  0.0634  2.6670
 9468SOL     OW39862   1.624   1.665   5.956  0.3716 -0.9821 -0.3492
 9468SOL    HW139863   1.565   1.694   5.887  0.2606 -0.3867 -0.0056
 9468SOL    HW239864   1.559   1.628   6.016 -0.3096 -0.5950 -0.8650
 9469SOL     OW39865   2.127   2.086   6.910  0.2266  0.2272 -0.0676
 9469SOL    HW139866   2.160   2.170   6.878 -0.4957  0.6604  0.3308
 9469SOL    HW239867   2.040   2.083   6.869  0.2440 -0.2038 -0.0730
 9470SOL     OW39868   2.898   0.469  14.766 -0.1818 -0.1406 -0.2655
 9470SOL    HW139869   2.864   0.431  14.685  0.3753  1.3389 -1.2062
 9470SOL    HW239870   2.877   0.402  14.831 -0.0973  0.9507  0.8932
 9471SOL     OW39871   3.996   0.432   4.807 -0.5095 -0.1104 -0.3341
 9471SOL    HW139872   3.991   0.390   4.892 -1.9504 -1.2790 -0.9969
 9471SOL    HW239873   3.925   0.495   4.799 -0.4044  0.2209  1.4165
 9472SOL     OW39874   1.301   2.791  15.581  0.1249 -0.3640 -0.3864
 9472SOL    HW139875   1.239   2.748  15.639 -0.5649 -0.1862 -0.9870
 9472SOL    HW239876   1.319   2.718  15.521 -0.5535 -0.0916 -0.9283
 9473SOL     OW39877   2.495   3.312  10.247  0.3390 -0.2650  0.1587
 9473SOL    HW139878   2.450   3.232  10.219  2.9105 -1.4615 -0.5870
 9473SOL    HW239879   2.458   3.333  10.333 -2.1128 -0.6179 -0.8048
 9474SOL     OW39880   3.455   4.127   3.637  0.3928 -0.4357  0.0801
 9474SOL    HW139881   3.524   4.066   3.664  1.2221 -0.6357 -2.4970
 9474SOL    HW239882   3.511   4.199   3.608  1.1622 -1.7835 -1.7521
 9475SOL     OW39883   1.650   0.448   6.577 -0.2889 -0.4121  0.1059
 9475SOL    HW139884   1.595   0.523   6.552  2.6973  1.8973  0.3989
 9475SOL    HW239885   1.659   0.408   6.491 -1.6020 -2.6438  1.0214
 9476SOL     OW39886   0.446   3.538   8.100  0.1048  0.0751  0.5218
 9476SOL    HW139887   0.432   3.631   8.084 -1.4044 -0.7232 -2.6890
 9476SOL    HW239888   0.511   3.535   8.171  0.8930  0.3343 -0.1935
 9477SOL     OW39889   0.248   2.173   6.443 -0.2939 -0.0091 -0.0770
 9477SOL    HW139890   0.271   2.240   6.508  2.3586 -1.5683  0.5784
 9477SOL    HW239891   0.306   2.181   6.367 -1.5880 -1.0561 -1.1816
 9478SOL     OW39892   3.608   2.034   6.813  0.8894  0.1899 -0.9955
 9478SOL    HW139893   3.555   2.065   6.887  3.2048  0.0426  0.7325
 9478SOL    HW239894   3.692   2.079   6.823 -0.7797  2.8378  1.1809
 9479SOL     OW39895   1.919   0.716  14.004 -0.0164  0.0280 -0.2063
 9479SOL    HW139896   1.890   0.632  14.041 -0.2503  1.0165  1.8586
 9479SOL    HW239897   1.955   0.761  14.080  0.6922 -1.9756  0.6566
 9480SOL     OW39898   0.949   3.601  10.360 -0.3779  0.0108  0.2108
 9480SOL    HW139899   0.899   3.526  10.394 -1.9857  0.7166 -0.6043
 9480SOL    HW239900   1.026   3.596  10.416  0.2465  2.0390 -0.4730
 9481SOL     OW39901   0.288   2.756  11.976  0.0354  0.6157  0.1757
 9481SOL    HW139902   0.201   2.720  11.990 -0.3304  1.7857  0.9406
 9481SOL    HW239903   0.276   2.794  11.889 -0.3841 -1.7042 -0.7750
 9482SOL     OW39904   4.433   0.734   4.533  0.0603  0.3518  0.2295
 9482SOL    HW139905   4.460   0.754   4.444  1.7795  0.6757  0.8128
 9482SOL    HW239906   4.426   0.638   4.531  1.4524  0.2281  1.1295
 9483SOL     OW39907   4.417   0.292   1.411  0.7348 -0.6602 -0.9393
 9483SOL    HW139908   4.471   0.218   1.384 -1.0312 -2.1043 -0.4608
 9483SOL    HW239909   4.405   0.274   1.504  0.6645  0.1334 -0.7916
 9484SOL     OW39910   3.303   4.678   4.877  0.3243 -0.2009 -0.0033
 9484SOL    HW139911   3.224   0.012   4.877 -0.3490 -1.2262 -3.4784
 9484SOL    HW239912   3.280   4.611   4.941  1.3044 -0.3186  0.2384
 9485SOL     OW39913   4.417   3.602   6.156 -0.0032  0.1451  0.4251
 9485SOL    HW139914   4.473   3.528   6.128 -1.3803 -0.1807 -1.4856
 9485SOL    HW239915   4.465   3.672   6.112 -0.0461  0.9685  1.7033
 9486SOL     OW39916   3.136   0.847   1.745  0.8242  0.7128  0.3793
 9486SOL    HW139917   3.053   0.810   1.777  1.3058  0.3280  1.1719
 9486SOL    HW239918   3.114   0.940   1.747  0.0970  0.5619 -0.5757
 9487SOL     OW39919   2.602   1.711   6.020  0.6377  0.1828 -0.0065
 9487SOL    HW139920   2.565   1.654   6.086 -0.5747 -0.9950 -1.7241
 9487SOL    HW239921   2.560   1.793   6.046 -0.8934 -1.3485  2.3268
 9488SOL     OW39922   0.399   0.011   6.331  0.0090  0.0474  0.2495
 9488SOL    HW139923   0.403   4.635   6.330 -0.9454  0.0340 -1.4577
 9488SOL    HW239924   0.492   0.031   6.314 -0.4808 -0.6980 -3.4013
 9489SOL     OW39925   3.326   1.695  15.052  0.3177 -0.0034  0.5784
 9489SOL    HW139926   3.388   1.689  14.979  1.6730 -0.9898  1.8059
 9489SOL    HW239927   3.292   1.607  15.036 -2.1736  0.9819  0.5153
 9490SOL     OW39928   1.296   2.505  11.130 -0.5952 -0.2795  0.3834
 9490SOL    HW139929   1.291   2.472  11.220  0.0075 -1.8387 -0.1624
 9490SOL    HW239930   1.388   2.490  11.110 -1.0753  1.0489 -2.7214
 9491SOL     OW39931   4.036   4.205   2.167  0.1031  0.2365  0.6833
 9491SOL    HW139932   4.063   4.156   2.090 -1.6253 -1.2692  1.0457
 9491SOL    HW239933   4.034   4.290   2.123 -0.2717  0.1693  0.5688
 9492SOL     OW39934   4.216   0.245   5.563 -0.0022  0.3194  0.1865
 9492SOL    HW139935   4.256   0.202   5.487  1.0700  2.5193 -0.5011
 9492SOL    HW239936   4.122   0.227   5.561  0.1068  0.1467 -4.4491
 9493SOL     OW39937   1.009   1.485  11.094 -0.4448  0.2643  0.6198
 9493SOL    HW139938   0.980   1.472  11.004  0.6550 -1.8401  0.5817
 9493SOL    HW239939   0.919   1.482  11.129  0.6204 -1.7232  3.1741
 9494SOL     OW39940   0.196   0.045   3.095 -0.0366 -0.4552 -0.0849
 9494SOL    HW139941   0.278   0.006   3.066  1.3990  3.0985 -0.8751
 9494SOL    HW239942   0.216   0.059   3.188 -1.6966 -3.2506  0.6935
 9495SOL     OW39943   2.908   1.573   9.012 -0.4216  0.2470 -0.4747
 9495SOL    HW139944   2.838   1.513   9.038 -0.7996  1.8208  2.1032
 9495SOL    HW239945   2.871   1.658   9.037  0.7882 -0.0185  2.2281
 9496SOL     OW39946   0.989   4.344  14.877 -0.2725 -0.0733 -0.2253
 9496SOL    HW139947   0.915   4.342  14.816  1.4447 -0.3369 -2.2817
 9496SOL    HW239948   0.970   4.259  14.917  1.0067  0.1138  0.7640
 9497SOL     OW39949   1.496   1.944   9.311  0.3227 -0.7533 -0.3198
 9497SOL    HW139950   1.546   1.898   9.379  0.5668 -0.9255 -0.6182
 9497SOL    HW239951   1.484   1.869   9.254 -1.9785 -0.1031 -0.6740
 9498SOL     OW39952   3.428   2.922   0.769 -0.7361  0.6509  0.1431
 9498SOL    HW139953   3.377   2.956   0.842 -3.7510 -1.9177 -0.7393
 9498SOL    HW239954   3.376   2.965   0.701 -2.8270 -1.9593  0.0622
 9499SOL     OW39955   2.185   2.910   3.050  0.3231  0.2414  0.4864
 9499SOL    HW139956   2.092   2.887   3.044  0.6414 -0.5615 -1.5641
 9499SOL    HW239957   2.213   2.859   2.974 -1.3273  0.1709 -0.0719
 9500SOL     OW39958   1.100   0.894   2.817  0.2439  0.2734 -0.0219
 9500SOL    HW139959   1.043   0.971   2.818 -1.0152 -0.6648  0.1007
 9500SOL    HW239960   1.168   0.935   2.871 -0.1078  0.0542  0.5837
 9501SOL     OW39961   0.567   0.819   5.325  0.0265 -0.0344 -0.1689
 9501SOL    HW139962   0.642   0.763   5.344 -1.2655 -2.0001 -0.8083
 9501SOL    HW239963   0.519   0.814   5.408 -2.1711  1.9300 -1.3254
 9502SOL     OW39964   3.282   1.494   6.188 -0.2112  1.2038  0.1045
 9502SOL    HW139965   3.224   1.527   6.258 -0.9105  0.0596  0.0644
 9502SOL    HW239966   3.268   1.401   6.207 -0.8331  0.6311 -3.1095
 9503SOL     OW39967   3.904   2.776   8.822 -0.7011 -0.1069 -0.1581
 9503SOL    HW139968   3.933   2.832   8.749  0.0651 -3.9794 -2.8281
 9503SOL    HW239969   3.871   2.837   8.888 -0.1736  0.7326 -0.6688
 9504SOL     OW39970   0.387   0.668   6.550  0.6316 -0.0484 -0.0213
 9504SOL    HW139971   0.383   0.654   6.644  1.1881 -3.3224 -0.4764
 9504SOL    HW239972   0.424   0.757   6.551  1.9015 -0.5548 -0.8706
 9505SOL     OW39973   4.248   2.481   8.493  0.0959 -0.3578  0.1469
 9505SOL    HW139974   4.168   2.497   8.543  0.8466 -1.3783  1.6926
 9505SOL    HW239975   4.322   2.517   8.543 -0.5238  3.1438 -1.4784
 9506SOL     OW39976   2.336   0.948   5.765  0.3321  0.2423  0.3013
 9506SOL    HW139977   2.250   0.908   5.773  0.5732 -0.4239 -0.4043
 9506SOL    HW239978   2.394   0.874   5.749 -1.1775 -0.5691 -1.4038
 9507SOL     OW39979   3.558   4.684   2.205 -0.0018 -0.5734  0.7660
 9507SOL    HW139980   3.614   4.607   2.192 -0.3915 -0.8717  0.8455
 9507SOL    HW239981   3.530   4.714   2.118 -1.2292 -1.9194  0.6791
 9508SOL     OW39982   0.077   0.921  11.569  0.4467 -0.7269 -0.1169
 9508SOL    HW139983   0.140   0.988  11.597  1.5741 -1.4940 -0.8189
 9508SOL    HW239984   0.034   0.975  11.503 -1.7583  0.6258  2.4271
 9509SOL     OW39985   3.336   0.435  15.383  0.1287  0.2776 -0.1123
 9509SOL    HW139986   3.375   0.514  15.345  2.5779 -0.6517  0.4564
 9509SOL    HW239987   3.260   0.464  15.433 -0.4784  1.7893 -1.9212
 9510SOL     OW39988   0.874   0.698   8.712  0.0750  0.2776  0.4029
 9510SOL    HW139989   0.799   0.700   8.772 -0.9105  0.4428 -0.8340
 9510SOL    HW239990   0.865   0.604   8.697  2.2544 -0.1065  1.5130
 9511SOL     OW39991   3.938   3.250   8.727  0.4813 -0.3230 -0.4401
 9511SOL    HW139992   3.892   3.333   8.744 -1.6247 -1.2112 -1.8198
 9511SOL    HW239993   3.981   3.267   8.644 -0.2349  2.1273 -0.3202
 9512SOL     OW39994   3.016   0.704  11.353  0.6411 -0.2670 -0.5363
 9512SOL    HW139995   2.980   0.653  11.426 -0.3396 -2.4156 -2.4946
 9512SOL    HW239996   2.982   0.792  11.370 -0.6927 -1.0321  0.7992
 9513SOL     OW39997   3.119   3.760   3.501  0.0495 -0.0745  0.4263
 9513SOL    HW139998   3.114   3.763   3.406  0.3679  0.7208  0.4336
 9513SOL    HW239999   3.028   3.768   3.531 -0.2873 -0.6288 -0.4329
 9514SOL     OW40000   1.955   1.856  14.420  0.4150 -0.0359  0.2727
 9514SOL    HW140001   1.865   1.886  14.431  0.9421  1.7702 -0.4370
 9514SOL    HW240002   1.994   1.943  14.410 -1.1722  0.6485  0.0674
 9515SOL     OW40003   0.822   4.719  12.466 -0.4462 -0.1516  0.3005
 9515SOL    HW140004   0.805   4.640  12.518 -0.7554 -0.1966  0.1327
 9515SOL    HW240005   0.748   4.719  12.405 -0.3513  3.0099  0.1933
 9516SOL     OW40006   0.267   0.066  13.318 -0.0426  0.3845  0.0485
 9516SOL    HW140007   0.227   0.109  13.242 -2.0887  0.4291  1.1812
 9516SOL    HW240008   0.352   0.040  13.281  1.5938  1.8173  2.7621
 9517SOL     OW40009   0.362   4.088   1.742 -0.8122  0.6687 -0.4204
 9517SOL    HW140010   0.297   4.073   1.674 -1.1891 -0.7514  0.2765
 9517SOL    HW240011   0.298   4.080   1.812 -0.3317  1.8876  0.1601
 9518SOL     OW40012   2.875   3.661   9.502  0.2162  0.0367 -0.1941
 9518SOL    HW140013   2.946   3.709   9.460  0.3777 -0.9600 -1.0828
 9518SOL    HW240014   2.840   3.611   9.428  2.0163 -1.1800 -0.2221
 9519SOL     OW40015   1.039   4.691   4.118 -0.0509  1.2689 -0.7443
 9519SOL    HW140016   1.017   4.655   4.204  0.5526 -1.7198 -1.8612
 9519SOL    HW240017   1.093   4.616   4.094 -2.1146 -0.3561 -0.2576
 9520SOL     OW40018   2.252   0.478  13.460 -0.4671 -0.5204 -0.3984
 9520SOL    HW140019   2.346   0.494  13.472 -0.4009  0.1289 -1.7791
 9520SOL    HW240020   2.247   0.476  13.364  1.0592 -1.2863 -0.4793
 9521SOL     OW40021   2.838   4.634   3.788  0.1502  0.1923  1.1278
 9521SOL    HW140022   2.890   4.672   3.860  0.7281  1.3188  0.1254
 9521SOL    HW240023   2.907   4.618   3.724 -1.3320 -1.5176 -0.0119
 9522SOL     OW40024   0.051   0.340   8.907  0.0917 -0.0988 -0.2365
 9522SOL    HW140025   0.124   0.361   8.849 -1.4925  0.6059 -1.9757
 9522SOL    HW240026   4.700   0.311   8.849  0.9729  0.8193 -1.7726
 9523SOL     OW40027   3.247   2.060  15.141  0.8749 -0.0968  0.6217
 9523SOL    HW140028   3.275   2.141  15.098 -0.8203  1.0738  1.6766
 9523SOL    HW240029   3.157   2.052  15.109  0.3371  0.8722  1.8897
 9524SOL     OW40030   3.276   3.680   4.273  0.3410  0.5730 -0.0319
 9524SOL    HW140031   3.257   3.593   4.309  1.0809 -0.0388 -1.1060
 9524SOL    HW240032   3.256   3.643   4.187 -0.1811 -2.0938  1.2237
 9525SOL     OW40033   0.839   4.361   3.908  0.0068 -0.0565 -0.1669
 9525SOL    HW140034   0.883   4.343   3.826  1.3975  3.3882 -0.1458
 9525SOL    HW240035   0.866   4.452   3.921  2.1631 -0.7652  0.3551
 9526SOL     OW40036   4.246   0.424   4.649  0.0628  0.4186 -0.2060
 9526SOL    HW140037   4.185   0.379   4.708 -0.8633 -0.8437 -2.1258
 9526SOL    HW240038   4.281   0.354   4.593 -1.2229 -2.2955  2.3760
 9527SOL     OW40039   3.144   0.940   3.800 -0.0352  0.4680 -0.0959
 9527SOL    HW140040   3.151   0.920   3.706  1.0621  1.6956 -0.2650
 9527SOL    HW240041   3.107   1.027   3.806 -1.4386 -0.1805  0.6297
 9528SOL     OW40042   4.267   1.362   9.080 -0.0081  0.1782  0.3227
 9528SOL    HW140043   4.232   1.322   9.000 -2.0618 -1.1294  1.8504
 9528SOL    HW240044   4.333   1.297   9.102  1.8807  0.7822 -3.6361
 9529SOL     OW40045   1.172   1.133   6.739 -0.2749 -0.1093 -0.1724
 9529SOL    HW140046   1.256   1.154   6.780 -1.7153  0.5491  2.4436
 9529SOL    HW240047   1.119   1.155   6.815  0.8813 -0.0365  0.6050
 9530SOL     OW40048   4.464   4.600   4.949 -0.0623  0.5324 -0.2429
 9530SOL    HW140049   4.534   4.541   4.977 -0.1398  0.2107 -0.7358
 9530SOL    HW240050   4.523   4.675   4.959 -0.9393  1.0460  1.0942
 9531SOL     OW40051   2.012   4.513   6.880 -0.0315  0.1801 -0.0248
 9531SOL    HW140052   2.070   4.544   6.811  0.8544 -0.4782  0.4165
 9531SOL    HW240053   2.032   4.572   6.953  2.5030 -2.1533  1.1316
 9532SOL     OW40054   1.203   0.698   4.406 -0.1117 -0.6154 -0.2571
 9532SOL    HW140055   1.272   0.714   4.471  0.0531 -0.5582 -0.4461
 9532SOL    HW240056   1.136   0.759   4.435  1.8645  2.5714 -2.4666
 9533SOL     OW40057   2.234   0.447   0.888 -0.0381 -0.6158 -0.4706
 9533SOL    HW140058   2.187   0.471   0.808 -1.7586 -0.2072  0.6697
 9533SOL    HW240059   2.246   0.352   0.876  0.8131 -0.7462  1.4055
 9534SOL     OW40060   2.070   1.096   9.823  0.3542  0.2069  0.0855
 9534SOL    HW140061   2.126   1.040   9.877 -2.2258 -2.3289  0.1765
 9534SOL    HW240062   2.120   1.104   9.742  1.4617  2.0097  0.9515
 9535SOL     OW40063   4.563   0.058  10.611 -0.4546 -0.7136  0.7168
 9535SOL    HW140064   4.495   4.712  10.596  0.5694 -1.5086 -0.4805
 9535SOL    HW240065   4.633   0.009  10.655  0.6062 -0.3426 -0.5614
 9536SOL     OW40066   3.283   3.559   2.439  0.5556 -0.1241  0.4236
 9536SOL    HW140067   3.366   3.512   2.432  0.3920 -0.1367 -1.4831
 9536SOL    HW240068   3.222   3.504   2.390 -0.0542 -0.2408  1.3282
 9537SOL     OW40069   3.623   3.273   0.594 -0.5574 -0.1603  0.0687
 9537SOL    HW140070   3.649   3.364   0.579 -3.2334  0.7248  0.8492
 9537SOL    HW240071   3.713   3.240   0.597  0.1063  1.4536 -1.3179
 9538SOL     OW40072   0.083   4.092   1.592  0.7284 -0.4658 -0.7759
 9538SOL    HW140073   0.062   4.035   1.518  0.2989 -0.0978 -0.9407
 9538SOL    HW240074   0.006   4.081   1.648  1.6682  2.0762  0.9683
 9539SOL     OW40075   2.441   3.020   7.154  0.1678 -0.1604  0.4166
 9539SOL    HW140076   2.388   2.990   7.080  1.0283 -1.4288  0.3216
 9539SOL    HW240077   2.412   2.961   7.223 -2.9356  0.8209 -0.0176
 9540SOL     OW40078   1.641   4.036  16.935 -0.4797  0.4505 -0.0314
 9540SOL    HW140079   1.648   3.947  16.900 -4.1892  0.3897 -0.6292
 9540SOL    HW240080   1.585   4.024  17.012 -0.5919  1.7905  0.0939
 9541SOL     OW40081   2.069   4.377   7.169 -0.3887 -0.7664  0.5739
 9541SOL    HW140082   2.063   4.472   7.161 -1.3069 -0.8508  0.2367
 9541SOL    HW240083   2.163   4.364   7.164  0.0689  2.9551 -0.7712
 9542SOL     OW40084   0.054   4.553   2.711 -1.1109  0.1844  0.3135
 9542SOL    HW140085   0.115   4.620   2.679 -0.3195 -0.4817  0.4404
 9542SOL    HW240086   0.016   4.513   2.633 -0.1913  0.3576 -0.2216
 9543SOL     OW40087   1.241   3.825   9.717  0.8473 -0.2758  0.1864
 9543SOL    HW140088   1.241   3.826   9.621 -1.6796 -0.2605  0.1937
 9543SOL    HW240089   1.291   3.903   9.742  1.6789 -0.9703  0.6930
 9544SOL     OW40090   3.040   2.817  16.217  0.5072  0.5737  0.2946
 9544SOL    HW140091   3.069   2.727  16.229 -1.2643 -0.3666 -2.4061
 9544SOL    HW240092   3.046   2.845  16.308  0.4393 -0.4356  0.6051
 9545SOL     OW40093   2.061   4.276  16.765  0.6727  0.2807 -0.3886
 9545SOL    HW140094   1.980   4.234  16.738  2.2592 -1.9850 -1.6386
 9545SOL    HW240095   2.105   4.214  16.823  0.5474 -0.5182 -1.1535
 9546SOL     OW40096   3.630   1.322   5.677  0.3039 -0.0066 -0.8624
 9546SOL    HW140097   3.702   1.384   5.688 -1.2955  1.4843  1.2781
 9546SOL    HW240098   3.674   1.238   5.667  0.2144  0.1790 -2.7464
 9547SOL     OW40099   1.306   0.067   8.951  0.5633 -0.4909  0.2120
 9547SOL    HW140100   1.364   0.011   9.002 -0.1138 -0.4698  0.9969
 9547SOL    HW240101   1.239   0.007   8.917  0.0664  1.1634 -1.7673
 9548SOL     OW40102   0.572   1.991   8.153 -0.0257 -0.0827  0.3212
 9548SOL    HW140103   0.537   1.927   8.215  0.2829  0.6795  1.2744
 9548SOL    HW240104   0.522   1.960   8.077  0.6520  2.0653 -0.9815
 9549SOL     OW40105   3.272   2.684   8.657  0.3818 -0.4920 -0.2356
 9549SOL    HW140106   3.303   2.641   8.737 -0.2037  0.6331  0.5984
 9549SOL    HW240107   3.255   2.612   8.596 -1.0767  0.8621 -1.4083
 9550SOL     OW40108   4.474   4.051   6.074 -0.7983  0.4589  0.0820
 9550SOL    HW140109   4.451   4.143   6.058 -0.0514  0.8113  1.0101
 9550SOL    HW240110   4.415   4.030   6.147  0.6866  0.6567  1.3582
 9551SOL     OW40111   2.885   3.006  15.414  0.2018 -0.0411 -0.4191
 9551SOL    HW140112   2.965   3.026  15.366  1.8614 -2.5970  1.2550
 9551SOL    HW240113   2.891   3.071  15.484  1.4975 -0.8203  0.1965
 9552SOL     OW40114   4.061   3.403   0.580  0.1711  0.4001 -0.0408
 9552SOL    HW140115   4.075   3.391   0.486  1.5011 -0.4547  0.2638
 9552SOL    HW240116   4.143   3.375   0.619  0.4167  0.6773 -0.3608
 9553SOL     OW40117   2.818   3.052   8.144  0.6764 -0.1591  0.2463
 9553SOL    HW140118   2.865   3.049   8.228 -1.6175 -0.1682  1.5519
 9553SOL    HW240119   2.778   3.138   8.156 -2.9275 -1.7369 -0.6069
 9554SOL     OW40120   2.132   3.132   8.864  0.0908  0.3835 -0.2467
 9554SOL    HW140121   2.133   3.036   8.864  0.0870  0.3736  1.8342
 9554SOL    HW240122   2.041   3.160   8.852  0.0584 -0.7265 -2.5127
 9555SOL     OW40123   4.109   3.041   6.608  0.3467 -0.5218 -0.2246
 9555SOL    HW140124   4.201   3.013   6.608  0.3039 -0.6652 -0.0999
 9555SOL    HW240125   4.110   3.122   6.658  0.0797  0.1115 -1.2482
 9556SOL     OW40126   0.917   0.975   8.807  0.1965  0.0240  0.4012
 9556SOL    HW140127   0.885   1.034   8.739 -0.8165  0.1966  1.0356
 9556SOL    HW240128   0.915   0.897   8.753  1.4661 -0.2620  0.7672
 9557SOL     OW40129   0.772   0.812   2.898 -0.4675  0.1289  0.5451
 9557SOL    HW140130   0.819   0.738   2.860 -2.2930 -0.1898 -1.1114
 9557SOL    HW240131   0.797   0.873   2.829  0.0048  0.3845  0.9477
 9558SOL     OW40132   2.542   1.126   7.632 -0.2458 -0.2302  0.0773
 9558SOL    HW140133   2.538   1.102   7.724 -2.7917  2.8872  0.7818
 9558SOL    HW240134   2.545   1.038   7.595 -0.8113  0.0821 -0.7047
 9559SOL     OW40135   2.702   3.002   2.668 -0.7053  0.0387  1.3063
 9559SOL    HW140136   2.761   3.075   2.655 -0.9037 -0.5139 -2.8315
 9559SOL    HW240137   2.754   2.939   2.719  0.8609  0.4192  0.1744
 9560SOL     OW40138   4.485   0.184   6.700  0.0877 -0.0396  0.2844
 9560SOL    HW140139   4.426   0.112   6.720  1.2747 -0.9448  0.5359
 9560SOL    HW240140   4.474   0.198   6.606 -0.3823 -0.7600  0.2367
 9561SOL     OW40141   0.489   4.424   8.918  0.3552 -0.6418 -0.3526
 9561SOL    HW140142   0.481   4.358   8.987 -2.9943  0.0434 -0.0825
 9561SOL    HW240143   0.415   4.478   8.946 -1.0351 -1.8729 -1.6282
 9562SOL     OW40144   3.114   2.347   1.702  0.4507 -0.3609 -0.2088
 9562SOL    HW140145   3.057   2.324   1.629 -0.1147  2.1002 -0.5178
 9562SOL    HW240146   3.057   2.397   1.761  0.0934 -0.8898 -0.1023
 9563SOL     OW40147   3.476   0.298   2.128  0.8590  0.1236 -0.0518
 9563SOL    HW140148   3.460   0.355   2.053  3.0330 -0.1830 -0.7301
 9563SOL    HW240149   3.491   0.212   2.089 -1.8493 -0.8361  1.0183
 9564SOL     OW40150   2.317   3.666   6.511 -0.5940  0.4184  0.0237
 9564SOL    HW140151   2.324   3.735   6.444  1.7941  0.0616 -0.0926
 9564SOL    HW240152   2.310   3.596   6.447  0.6971 -0.6274  1.0208
 9565SOL     OW40153   0.692   4.173   1.913  0.1567 -0.1469 -0.0204
 9565SOL    HW140154   0.612   4.210   1.876 -1.0271 -1.9411  0.7654
 9565SOL    HW240155   0.667   4.082   1.899 -0.1793 -0.0160 -0.2518
   4.71945   4.71945  17.68062
