Membrane in water
40155
    1TCq1    O1    1   0.592   2.932  10.982  0.3609  0.1128  0.6564
    1TCq1    C1    2   0.558   3.066  10.976  0.1162  0.3045 -0.3533
    1TCq1    O2    3   0.630   3.155  10.938  0.3605  0.0555  0.7088
    1TCq1    C2    4   0.452   3.095  11.076  0.1841 -0.0624 -0.2904
    1TCq1    C3    5   0.385   3.209  11.080  0.1863  0.1271  0.2736
    1TCq1    C4    6   0.296   3.242  11.176 -0.5506  0.0532  0.1862
    1TCq1    C5    7   0.275   3.163  11.287 -0.5734  0.0311  0.5198
    1TCq1    C6    8   0.336   3.043  11.288 -0.5258 -0.4363  1.3688
    1TCq1    C7    9   0.425   3.011  11.181 -0.3404  0.5887  0.4601
    1TCq1    C8   10   0.300   2.952  11.395  0.2252  0.8646 -0.2811
    1TCq1    O4   11   0.257   3.013  11.493 -0.8227 -0.6742 -0.3061
    1TCq1    C9   12   0.223   3.359  11.164 -0.3113  0.0026 -0.7675
    1TCq1    O5   13   0.263   3.444  11.078 -0.1813  0.5940 -0.1170
    1TCq1    O6   14   0.133   3.383  11.247 -0.1127  0.1371  0.3090
    1TCq1    H1   15   0.517   2.877  11.012  1.1571 -1.4126 -0.1316
    1TCq1    H2   16   0.394   3.274  10.994  1.3278 -1.5636 -0.8950
    1TCq1    H3   17   0.205   3.195  11.364  0.2800 -1.7583  2.0232
    1TCq1    H4   18   0.485   2.923  11.204 -1.0907 -0.2947 -0.9966
    2MPD2     C   19   0.203   2.486  11.597 -0.9649 -0.4741  0.5070
    2MPD2    C1   20   0.209   2.609  11.655  0.2842  0.0037  0.2619
    2MPD2    C2   21   0.242   2.717  11.578 -0.4167 -0.4619  0.1482
    2MPD2    C3   22   0.279   2.706  11.441  0.2971  0.1558 -0.4625
    2MPD2    C4   23   0.285   2.579  11.392 -0.3036  0.1182 -0.1074
    2MPD2    C5   24   0.250   2.470  11.470 -0.5391 -0.9183 -0.1634
    2MPD2     H   25   0.237   2.815  11.623 -0.6534 -0.9118  1.1089
    2MPD2    H1   26   0.312   2.559  11.288  1.1292  1.4020  0.0141
    2MPD2    H2   27   0.161   2.401  11.651 -0.7016 -0.3272  0.9394
    2MPD2    H3   28   0.251   2.372  11.424  1.6566 -0.9410 -0.0294
    2MPD2     N   29   0.320   2.814  11.357 -0.7900 -0.3442 -0.1082
    2MPD2    H5   30   0.356   2.794  11.265  0.2466 -1.3085  0.5105
    2MPD2    N1   31   0.174   2.639  11.788  0.5899  0.3316  0.5149
    2MPD2    H7   32   0.158   2.738  11.802  1.5073  0.2143  2.3805
    3TCq1    O1   33   0.216   4.535  11.494 -0.7175  0.4172  0.2116
    3TCq1    C1   34   0.188   4.620  11.591 -0.9715  0.2645 -0.2457
    3TCq1    O2   35   0.273   4.677  11.656 -0.5021 -0.2230  0.3046
    3TCq1    C2   36   0.056   4.673  11.567 -0.9909  0.5164 -0.1086
    3TCq1    C3   37   0.041   0.082  11.538  0.1646  0.4317  0.2849
    3TCq1    C4   38   4.632   0.118  11.541 -0.6342  0.6290  0.3267
    3TCq1    C5   39   4.528   0.035  11.555 -0.5499 -0.1448  0.5350
    3TCq1    C6   40   4.550   4.626  11.574 -0.2908  0.5104  0.2712
    3TCq1    C7   41   4.680   4.583  11.576 -0.0347 -0.8432  0.0306
    3TCq1    C8   42   4.442   4.525  11.595  0.0564 -0.0432 -0.3700
    3TCq1    O4   43   4.464   4.402  11.600 -0.2525  0.3659  0.2547
    3TCq1    C9   44   4.592   0.253  11.515 -0.0905 -0.7657 -0.4587
    3TCq1    O5   45   4.500   0.272  11.434  0.2133 -0.4106 -0.0111
    3TCq1    O6   46   4.675   0.341  11.544 -0.2338 -0.4139  0.0963
    3TCq1    H1   47   0.142   4.515  11.432 -0.5900  1.1111 -0.1560
    3TCq1    H2   48   0.121   0.153  11.522 -0.0519  0.4804 -0.5961
    3TCq1    H3   49   4.436   0.090  11.569  0.5817  2.4210 -1.8479
    3TCq1    H4   50   4.697   4.482  11.613 -0.8896 -0.7190  0.7812
    4MPD2     C   51   3.923   4.481  11.600 -0.0675  0.4745  0.2553
    4MPD2    C1   52   3.958   4.597  11.537 -0.0571  0.6983 -0.0541
    4MPD2    C2   53   4.084   4.633  11.536  0.1063  0.6221  0.1753
    4MPD2    C3   54   4.185   4.549  11.582  0.3291  0.1800 -0.2432
    4MPD2    C4   55   4.155   4.427  11.634  0.4722  0.8626 -0.1367
    4MPD2    C5   56   4.021   4.393  11.646  0.6472  0.6931  0.0529
    4MPD2     H   57   4.111   0.005  11.493  1.3340  0.2787  0.1696
    4MPD2    H1   58   4.233   4.357  11.662  0.2428  0.8809  0.5517
    4MPD2    H2   59   3.825   4.436  11.596 -0.0737  0.4713  0.4397
    4MPD2    H3   60   3.990   4.292  11.671  0.0581  0.3392 -2.1294
    4MPD2     N   61   4.319   4.593  11.581  0.5810  0.2320  0.4633
    4MPD2    H5   62   4.323   4.692  11.561 -1.4679  0.2101 -0.0782
    4MPD2    N1   63   3.858   4.682  11.473  0.2022  0.2292 -0.6175
    4MPD2    H7   64   3.884   0.045  11.426 -0.9809 -0.2170 -2.0815
    5TCq1    O1   65   0.394   1.496  11.510  0.0452  0.3540 -0.0564
    5TCq1    C1   66   0.275   1.484  11.443 -1.0499 -0.4165 -0.5854
    5TCq1    O2   67   0.242   1.545  11.342 -0.2300  0.1610 -0.2916
    5TCq1    C2   68   0.210   1.364  11.496 -0.4804 -0.7867  0.1057
    5TCq1    C3   69   0.218   1.335  11.626 -0.0854  0.8058  0.6831
    5TCq1    C4   70   0.173   1.215  11.664 -0.0077 -0.4117 -0.5501
    5TCq1    C5   71   0.110   1.132  11.578  0.4802  0.2991  0.0862
    5TCq1    C6   72   0.098   1.160  11.447  0.2178 -0.2538  0.3167
    5TCq1    C7   73   0.156   1.276  11.403  0.9034  0.6572 -0.0785
    5TCq1    C8   74   0.027   1.073  11.355  0.5227 -0.3977  0.0088
    5TCq1    O4   75   0.014   0.961  11.398 -0.1722 -0.0216 -0.3776
    5TCq1    C9   76   0.183   1.174  11.799  0.0006 -0.8113  0.7290
    5TCq1    O5   77   0.248   1.248  11.873 -0.0439  0.3684 -0.5304
    5TCq1    O6   78   0.134   1.061  11.832  0.2937  0.2036 -0.6983
    5TCq1    H1   79   0.412   1.407  11.548  0.3522 -0.0664 -1.1879
    5TCq1    H2   80   0.258   1.406  11.697 -0.3091  1.7061 -0.0831
    5TCq1    H3   81   0.077   1.033  11.608  2.0952 -0.3631 -0.2752
    5TCq1    H4   82   0.169   1.303  11.299 -0.3606  1.2663 -0.0841
    6MPD2     C   83   4.715   1.129  10.993 -0.5562  0.1648  1.0650
    6MPD2    C1   84   4.706   1.062  11.113  0.1732 -0.5643  0.4579
    6MPD2    C2   85   4.674   0.931  11.113 -0.5987  0.2191 -0.1737
    6MPD2    C3   86   4.644   0.874  10.995  0.0100  0.3084 -0.1855
    6MPD2    C4   87   4.652   0.945  10.872 -0.4850  0.7769  0.0051
    6MPD2    C5   88   4.680   1.080  10.872 -0.5893 -0.4554 -0.1533
    6MPD2     H   89   4.684   0.870  11.203  0.5430 -1.6257 -1.5465
    6MPD2    H1   90   4.634   0.897  10.776  3.0308  1.9798 -1.2406
    6MPD2    H2   91   0.018   1.234  10.985 -0.6580  0.2625  1.9817
    6MPD2    H3   92   4.691   1.147  10.787  0.3193 -0.5429 -0.1063
    6MPD2     N   93   4.608   0.734  11.006 -0.1192  0.4181 -0.1441
    6MPD2    H5   94   4.591   0.701  11.101 -0.1193 -1.4176 -0.7839
    6MPD2    N1   95   0.011   1.131  11.230 -0.1228 -0.7276  0.1722
    6MPD2    H7   96   0.020   1.232  11.223  2.8995 -0.8741  2.0967
    7TCq1    O1   97   1.585   0.371  12.414 -0.4202 -0.1168 -0.1921
    7TCq1    C1   98   1.622   0.381  12.541 -0.3213 -0.2637 -0.5061
    7TCq1    O2   99   1.682   0.477  12.590  0.0416 -0.4093 -0.1519
    7TCq1    C2  100   1.573   0.268  12.616 -0.0176  0.2456 -1.1199
    7TCq1    C3  101   1.463   0.199  12.571 -0.0899  0.7323 -0.2484
    7TCq1    C4  102   1.430   0.085  12.634 -0.2700 -0.0542 -0.0118
    7TCq1    C5  103   1.512   0.037  12.734  0.0693  0.9104  0.1646
    7TCq1    C6  104   1.632   0.099  12.769 -0.4197  0.3485 -0.1430
    7TCq1    C7  105   1.648   0.226  12.724  0.5110  0.2346  0.0282
    7TCq1    C8  106   1.691   0.054  12.894 -0.1034  1.1260 -0.0425
    7TCq1    O4  107   1.691   4.656  12.913  0.1624  0.2737 -0.0120
    7TCq1    C9  108   1.317   0.008  12.591 -0.2757  0.2599 -0.1280
    7TCq1    O5  109   1.272   4.644  12.670 -0.0299 -0.0138  0.4531
    7TCq1    O6  110   1.278   0.032  12.474 -0.2006  0.2575 -0.2136
    7TCq1    H1  111   1.572   0.278  12.384 -0.1214 -0.6304  1.2668
    7TCq1    H2  112   1.414   0.246  12.487 -1.9749 -1.8681 -0.6041
    7TCq1    H3  113   1.485   4.664  12.778  0.6675  0.7383  0.1579
    7TCq1    H4  114   1.736   0.283  12.750 -1.6744  3.5518  0.0530
    8MPD2     C  115   2.010   0.120  13.291 -0.5966  0.0864 -0.3065
    8MPD2    C1  116   1.960   4.723  13.237 -0.1619 -0.0921  0.3768
    8MPD2    C2  117   1.875   0.016  13.128  0.4415  0.1457 -0.5718
    8MPD2    C3  118   1.846   0.132  13.068 -0.4950 -0.1886 -0.0819
    8MPD2    C4  119   1.891   0.249  13.131 -0.8263 -0.0618 -0.0840
    8MPD2    C5  120   1.973   0.240  13.234  0.6054  0.6704 -0.5113
    8MPD2     H  121   1.849   4.646  13.078  0.6553  2.3368 -4.7610
    8MPD2    H1  122   1.869   0.343  13.082 -4.0419  0.4351  2.3192
    8MPD2    H2  123   2.083   0.116  13.371  0.1181 -1.6382 -1.0279
    8MPD2    H3  124   2.028   0.328  13.264 -1.8756  0.5682  4.4606
    8MPD2     N  125   1.766   0.151  12.958 -0.3280  0.2427 -0.5673
    8MPD2    H5  126   1.750   0.244  12.922  1.2585  0.5066 -0.5789
    8MPD2    N1  127   2.001   4.602  13.295 -0.0107  0.2459  0.3362
    8MPD2    H7  128   2.065   4.614  13.373  0.8765 -1.0017 -0.1800
    9TCq1    O1  129   4.414   0.258  11.194  0.0476  0.3120 -0.1143
    9TCq1    C1  130   4.332   0.157  11.168  0.4538 -0.0250 -0.5932
    9TCq1    O2  131   4.228   0.160  11.100  0.2282  0.0904 -0.0407
    9TCq1    C2  132   4.398   0.036  11.209 -0.6953  0.0805 -0.4678
    9TCq1    C3  133   4.536   0.025  11.218  0.4604  0.6772 -0.5366
    9TCq1    C4  134   4.582   4.623  11.233  0.0181 -0.3130  0.3000
    9TCq1    C5  135   4.505   4.511  11.254  0.6225 -0.1953 -1.4137
    9TCq1    C6  136   4.372   4.531  11.248  0.4050  0.4555  0.1128
    9TCq1    C7  137   4.314   4.653  11.226  0.7425  0.0729 -0.0452
    9TCq1    C8  138   4.287   4.410  11.254 -0.8228 -0.4643  0.1164
    9TCq1    O4  139   4.176   4.422  11.207 -0.2855  0.1211 -0.2307
    9TCq1    C9  140   4.719   4.601  11.228  0.0607 -0.1312 -0.4833
    9TCq1    O5  141   0.057   4.685  11.159  0.2838 -0.0204 -0.1616
    9TCq1    O6  142   0.046   4.503  11.285 -0.4632  0.0405  0.8057
    9TCq1    H1  143   4.473   0.245  11.272 -0.0089  2.2027  0.2496
    9TCq1    H2  144   4.598   0.110  11.191 -0.0346  1.0830 -0.4074
    9TCq1    H3  145   4.557   4.416  11.254 -0.3389 -0.7187  0.1320
    9TCq1    H4  146   4.208   4.671  11.214  1.1053  0.8207 -2.1282
   10MPD2     C  147   4.143   4.168  11.352  0.2318  0.6795 -0.1881
   10MPD2    C1  148   4.269   4.210  11.399  0.2102 -0.1845 -0.0145
   10MPD2    C2  149   4.335   4.116  11.481  0.2659  0.2730  0.0388
   10MPD2    C3  150   4.277   3.996  11.523 -0.0229  0.5130 -0.1163
   10MPD2    C4  151   4.159   3.958  11.461 -0.4319  0.1553  1.3351
   10MPD2    C5  152   4.092   4.047  11.381 -0.5034  0.8932 -0.1921
   10MPD2     H  153   4.434   4.128  11.524  0.4694 -1.0327 -0.0526
   10MPD2    H1  154   4.119   3.857  11.454  3.0939 -0.8952 -3.8243
   10MPD2    H2  155   4.090   4.221  11.274 -0.3997  1.2881  0.6431
   10MPD2    H3  156   4.003   4.013  11.331 -1.8209 -0.0719  2.7828
   10MPD2     N  157   4.347   3.893  11.602 -0.0781  0.3646  0.1793
   10MPD2    H5  158   4.300   3.803  11.602  0.6168 -0.0024  1.3234
   10MPD2    N1  159   4.340   4.315  11.342 -0.2096  0.1092  0.0128
   10MPD2    H7  160   4.423   4.329  11.400  0.3933  1.7301 -1.2445
   11TCq1    O1  161   0.483   4.162  14.100 -0.2473  0.3509 -0.2020
   11TCq1    C1  162   0.551   4.074  14.030  0.3763 -0.5770 -0.4851
   11TCq1    O2  163   0.645   4.096  13.961 -0.7848 -0.4552 -0.1452
   11TCq1    C2  164   0.555   3.958  14.126  0.1570  0.3519  0.1141
   11TCq1    C3  165   0.680   3.935  14.183  0.4736 -0.5634 -0.0739
   11TCq1    C4  166   0.695   3.840  14.280 -0.3921 -0.5077  0.5118
   11TCq1    C5  167   0.584   3.771  14.325 -0.6877 -0.6583  0.4649
   11TCq1    C6  168   0.462   3.802  14.268  0.0002 -0.3109 -0.5235
   11TCq1    C7  169   0.443   3.896  14.171 -0.2807  0.0184 -0.1144
   11TCq1    C8  170   0.350   3.760  14.345  0.3798 -0.1388  0.3705
   11TCq1    O4  171   0.359   3.752  14.469 -0.4403 -0.0066  0.5254
   11TCq1    C9  172   0.819   3.814  14.332  0.4732  0.1504 -0.3109
   11TCq1    O5  173   0.834   3.691  14.352 -0.3037 -1.0532  0.5150
   11TCq1    O6  174   0.903   3.907  14.326  0.4750 -0.5267 -0.3186
   11TCq1    H1  175   0.434   4.118  14.172  0.6197  1.9369  1.3659
   11TCq1    H2  176   0.759   4.003  14.151  0.8364 -1.5944 -1.3459
   11TCq1    H3  177   0.578   3.705  14.411 -0.5670 -2.0494 -0.5863
   11TCq1    H4  178   0.341   3.929  14.153 -0.1276  1.3062  1.3742
   12MPD2     C  179   0.064   3.774  14.428 -0.8399 -0.2913 -0.4334
   12MPD2    C1  180   0.106   3.727  14.309  0.5411  0.2930  0.0096
   12MPD2    C2  181   0.014   3.677  14.223 -0.0607 -0.2500  0.5737
   12MPD2    C3  182   4.604   3.653  14.264 -0.3553  0.5986  0.0757
   12MPD2    C4  183   4.564   3.702  14.382  0.0826 -0.5260  0.1940
   12MPD2    C5  184   4.652   3.774  14.456  0.4978  0.4816 -0.3626
   12MPD2     H  185   0.054   3.638  14.130 -0.9959  1.7987 -0.6978
   12MPD2    H1  186   4.464   3.686  14.419  0.3204 -0.4403  0.8698
   12MPD2    H2  187   0.139   3.819  14.491 -1.1295 -1.6199  0.8622
   12MPD2    H3  188   4.613   3.823  14.544  1.1355 -1.6472  1.1193
   12MPD2     N  189   4.507   3.588  14.188 -0.8317  0.3485 -0.7291
   12MPD2    H5  190   4.418   3.571  14.234  0.5055 -0.2673  1.6322
   12MPD2    N1  191   0.245   3.740  14.263  0.5800 -0.2508  0.0268
   12MPD2    H7  192   0.254   3.736  14.162  0.0629 -2.0092  0.0424
   13TCq1    O1  193   0.656   3.303  11.677 -0.6234  0.3973 -0.3818
   13TCq1    C1  194   0.574   3.307  11.569 -0.9288 -0.9521  0.1036
   13TCq1    O2  195   0.586   3.235  11.469  0.4352 -0.5978  0.3403
   13TCq1    C2  196   0.458   3.382  11.603 -0.1192 -0.4126 -0.3562
   13TCq1    C3  197   0.473   3.507  11.655 -0.5208  0.1096 -0.7054
   13TCq1    C4  198   0.363   3.585  11.695 -0.4719  0.1250  0.1049
   13TCq1    C5  199   0.242   3.538  11.662 -0.0890  0.2126 -0.3430
   13TCq1    C6  200   0.228   3.411  11.612 -0.2637  0.3205 -0.1918
   13TCq1    C7  201   0.332   3.321  11.580 -0.6040 -0.6174  0.1596
   13TCq1    C8  202   0.091   3.359  11.608  0.3992 -0.6667 -0.0094
   13TCq1    O4  203   0.008   3.446  11.599 -0.3692 -0.0554 -0.2110
   13TCq1    C9  204   0.370   3.719  11.744  0.1754 -0.1935  0.1076
   13TCq1    O5  205   0.283   3.800  11.703  0.6067 -0.3658 -0.0047
   13TCq1    O6  206   0.482   3.766  11.771  0.1520 -0.1188 -0.0249
   13TCq1    H1  207   0.608   3.349  11.749  1.7534  1.1845  0.6918
   13TCq1    H2  208   0.570   3.555  11.653  0.7185 -2.3515  0.4339
   13TCq1    H3  209   0.154   3.600  11.679 -0.1118  0.9062 -2.9332
   13TCq1    H4  210   0.324   3.227  11.528  1.2820 -0.6805 -0.0246
   14MPD2     C  211   4.704   3.009  11.638 -0.3825  0.1076 -0.2133
   14MPD2    C1  212   4.691   3.140  11.621  0.1750 -0.2746 -0.6685
   14MPD2    C2  213   4.558   3.186  11.601  0.6334 -0.0701  0.7153
   14MPD2    C3  214   4.448   3.101  11.613  0.3423  0.3103 -0.3144
   14MPD2    C4  215   4.469   2.970  11.641 -0.1785 -0.4401  0.9130
   14MPD2    C5  216   4.597   2.921  11.643  0.9055  0.1329 -0.1072
   14MPD2     H  217   4.544   3.290  11.572 -1.8103 -0.4488  0.5659
   14MPD2    H1  218   4.388   2.900  11.658  0.1398 -0.5463  2.0287
   14MPD2    H2  219   0.076   2.962  11.657 -0.0646  1.1963  0.8661
   14MPD2    H3  220   4.612   2.820  11.681 -3.2497 -0.6192 -0.3948
   14MPD2     N  221   4.318   3.157  11.589  0.4451 -0.2303 -0.8196
   14MPD2    H5  222   4.316   3.258  11.578 -0.9997 -0.6683 -4.5813
   14MPD2    N1  223   0.087   3.224  11.620  0.2645  0.6245  0.3626
   14MPD2    H7  224   0.174   3.179  11.645  0.0186  0.7512  1.4553
   15TCq1    O1  225   1.801   2.345   2.169 -0.1112 -0.2775  0.0457
   15TCq1    C1  226   1.676   2.375   2.199 -0.2833 -0.5192  0.3977
   15TCq1    O2  227   1.638   2.400   2.308 -0.6177  0.0460 -0.5381
   15TCq1    C2  228   1.575   2.347   2.092 -0.2077  0.5729  0.1493
   15TCq1    C3  229   1.443   2.317   2.122 -0.0173  0.1882 -0.3823
   15TCq1    C4  230   1.361   2.244   2.050  0.4276 -0.3419  0.5806
   15TCq1    C5  231   1.408   2.206   1.927  0.1973 -0.2100 -0.9805
   15TCq1    C6  232   1.534   2.246   1.877 -0.3093  0.1585 -0.2080
   15TCq1    C7  233   1.623   2.307   1.966  0.0580 -0.0421  0.0277
   15TCq1    C8  234   1.574   2.207   1.743  0.1799  0.5895 -0.2646
   15TCq1    O4  235   1.692   2.205   1.721  0.1868 -0.3249 -0.2805
   15TCq1    C9  236   1.228   2.205   2.090 -0.0644  0.3564 -0.6859
   15TCq1    O5  237   1.165   2.128   2.011 -0.5379  0.4532 -0.2429
   15TCq1    O6  238   1.208   2.233   2.209  0.2266 -0.2438 -0.0317
   15TCq1    H1  239   1.809   2.307   2.079 -0.4956 -0.5435  0.1241
   15TCq1    H2  240   1.408   2.345   2.220 -2.6159 -2.3906 -0.5812
   15TCq1    H3  241   1.329   2.159   1.869 -1.3995  0.2064  0.8799
   15TCq1    H4  242   1.715   2.343   1.921  1.7824 -1.5887  2.2860
   16MPD2     C  243   1.366   2.173   1.446  0.4324  0.5262 -0.3789
   16MPD2    C1  244   1.478   2.163   1.525 -1.1564 -0.2324 -0.2686
   16MPD2    C2  245   1.596   2.108   1.466  0.2160  0.4106  0.0401
   16MPD2    C3  246   1.600   2.076   1.329  0.2539  0.1188  0.1412
   16MPD2    C4  247   1.491   2.101   1.252  0.6272 -0.1733  0.1725
   16MPD2    C5  248   1.371   2.142   1.312  0.1408 -0.3213  0.7507
   16MPD2     H  249   1.682   2.079   1.525  0.5033  1.9208  0.3679
   16MPD2    H1  250   1.488   2.083   1.145 -0.8452 -0.3362  0.2313
   16MPD2    H2  251   1.272   2.210   1.485  0.7214 -0.0415  0.8807
   16MPD2    H3  252   1.292   2.157   1.240  1.7950 -0.5646 -1.1318
   16MPD2     N  253   1.717   2.018   1.282 -0.0297 -0.2201 -0.5898
   16MPD2    H5  254   1.794   2.007   1.347 -0.6728  1.1273  0.3979
   16MPD2    N1  255   1.466   2.194   1.662  0.7679  0.7640  0.2866
   16MPD2    H7  256   1.375   2.211   1.703  0.1110 -1.1416 -0.3954
   17TCq1    O1  257   4.542   1.695  11.252 -0.3796  0.0563 -0.4021
   17TCq1    C1  258   4.666   1.743  11.273 -0.1490 -0.7511  0.4588
   17TCq1    O2  259   0.042   1.706  11.212 -0.3592  0.2960 -0.0876
   17TCq1    C2  260   4.667   1.867  11.356  1.0494 -0.6417 -0.7740
   17TCq1    C3  261   4.599   1.873  11.478  0.2670  0.1012  0.4022
   17TCq1    C4  262   4.584   1.991  11.533  0.2387 -0.2026 -0.5973
   17TCq1    C5  263   4.639   2.103  11.480  0.3440 -0.0821 -0.0004
   17TCq1    C6  264   4.704   2.095  11.356 -0.6132  0.2298  0.1512
   17TCq1    C7  265   4.719   1.976  11.295 -0.2558  0.1017 -0.5683
   17TCq1    C8  266   4.716   2.222  11.293  0.2016  0.3247 -0.3678
   17TCq1    O4  267   4.632   2.304  11.319 -0.1485 -0.5163 -0.9370
   17TCq1    C9  268   4.503   2.000  11.647  0.5976 -0.1179 -1.2147
   17TCq1    O5  269   4.463   2.116  11.673  0.3391 -0.0914  0.5185
   17TCq1    O6  270   4.465   1.895  11.708 -0.4758  0.2513 -0.3602
   17TCq1    H1  271   4.466   1.731  11.302 -0.1308 -0.0807  0.0743
   17TCq1    H2  272   4.544   1.792  11.523  1.4653 -2.1628 -2.1867
   17TCq1    H3  273   4.622   2.196  11.532 -0.3223  1.3611 -2.8155
   17TCq1    H4  274   0.050   1.969  11.202  1.2308  0.0916  0.3124
   18MPD2     C  275   0.072   2.471  11.134 -0.3653 -0.4570  0.3608
   18MPD2    C1  276   0.124   2.346  11.118  0.3070  0.2635  0.1941
   18MPD2    C2  277   0.216   2.319  11.013 -0.4763  0.1939  0.1261
   18MPD2    C3  278   0.245   2.416  10.915 -0.8493 -0.5144  0.1072
   18MPD2    C4  279   0.178   2.534  10.926 -0.7618 -0.2860 -0.6772
   18MPD2    C5  280   0.106   2.563  11.044  0.3498 -0.1909 -0.7908
   18MPD2     H  281   0.267   2.224  11.004 -0.0952  0.6887 -3.1409
   18MPD2    H1  282   0.205   2.611  10.855 -1.2199  0.3717 -0.1402
   18MPD2    H2  283   0.019   2.495  11.226 -0.8942  3.9873 -1.1295
   18MPD2    H3  284   0.066   2.662  11.060  0.8868  0.0096 -0.6690
   18MPD2     N  285   0.334   2.397  10.806  0.7737  0.2496 -0.0685
   18MPD2    H5  286   0.352   2.468  10.735  1.6073  2.3092  2.1692
   18MPD2    N1  287   0.097   2.234  11.204 -0.4073 -0.0419 -1.0341
   18MPD2    H7  288   0.156   2.151  11.199 -1.3420 -0.6734 -1.7879
   19TMC2    C1  289   1.231   2.654  14.307 -0.0219 -0.4865  0.4705
   19TMC2    C2  290   1.264   2.742  14.208 -0.9090  0.1602 -0.1893
   19TMC2    C3  291   1.181   2.744  14.103 -0.0602  0.4637 -0.0168
   19TMC2    C4  292   1.125   2.571  14.299  0.2632  0.3168  0.1083
   19TMC2    C5  293   1.038   2.583  14.192 -0.6875  0.7929  0.1116
   19TMC2    C6  294   1.068   2.668  14.086  0.2321 -0.5338 -0.2461
   19TMC2     C  295   1.334   2.607  14.395  0.0117  0.2948 -0.1618
   19TMC2     O  296   1.325   2.489  14.423  0.3333  0.4159 -0.7296
   19TMC2     H  297   1.354   2.802  14.201 -0.0956 -0.7899  2.0007
   19TMC2    H1  298   1.094   2.515  14.386 -1.1666 -0.5119 -0.9357
   19TMC2    H2  299   1.003   2.682  14.000 -1.0466 -0.0364  0.8027
   19TMC2    C7  300   0.912   2.515  14.195  0.3350 -0.0987 -0.4048
   19TMC2    C8  301   1.187   2.853  14.011 -0.0522 -0.0698 -0.3507
   19TMC2    O1  302   0.821   2.552  14.123 -0.0548  0.4737  0.3295
   19TMC2    O2  303   1.232   2.964  14.040 -0.2617 -0.5182  0.4401
   19TMC2    O5  304   1.185   2.801  13.893 -0.0030 -0.0829 -0.3819
   19TMC2    H5  305   1.170   2.704  13.888  0.1191  0.0151 -2.4407
   20MPD2     C  306   1.602   2.530  14.480  0.4438  0.3345  0.1299
   20MPD2    C1  307   1.561   2.659  14.475  0.5640 -0.3137 -0.5120
   20MPD2    C2  308   1.650   2.757  14.521  0.0507 -0.5034  0.0474
   20MPD2    C3  309   1.771   2.727  14.585  0.0102 -0.2584  0.0027
   20MPD2    C4  310   1.811   2.598  14.575  0.4412  0.3326  0.1973
   20MPD2    C5  311   1.731   2.500  14.525 -0.3970  0.1791  0.3402
   20MPD2     H  312   1.611   2.857  14.506 -0.2514 -0.6875 -0.3953
   20MPD2    H1  313   1.911   2.559  14.591  0.6715  0.8750  0.0938
   20MPD2    H2  314   1.532   2.448  14.468 -2.3959  2.3386  3.1465
   20MPD2    H3  315   1.765   2.397  14.527 -0.6937  0.0495 -0.9612
   20MPD2     N  316   1.855   2.820  14.649  0.6388 -0.2107 -0.4633
   20MPD2    H5  317   1.940   2.788  14.694  0.4379 -1.7955 -1.2046
   20MPD2    N1  318   1.437   2.700  14.425  0.1053  0.0090 -0.1166
   20MPD2    H7  319   1.412   2.796  14.406  0.2984  0.1261  0.2328
   21MPD2     C  320   4.030   3.683  14.819  0.6236 -0.1069 -0.0655
   21MPD2    C1  321   4.059   3.556  14.781  0.1964  0.2972  0.1232
   21MPD2    C2  322   3.956   3.463  14.769 -0.2348  0.2338 -0.1947
   21MPD2    C3  323   3.826   3.494  14.801  0.4442  0.3659 -0.1001
   21MPD2    C4  324   3.800   3.626  14.832  0.3101  0.5367  0.7861
   21MPD2    C5  325   3.901   3.717  14.842  0.1100 -0.1012 -0.3667
   21MPD2     H  326   3.981   3.367  14.725 -0.4921  0.6118 -1.1569
   21MPD2    H1  327   3.697   3.658  14.846 -0.2650 -0.7722 -0.3137
   21MPD2    H2  328   4.102   3.764  14.830  1.2573 -0.6146 -0.5397
   21MPD2    H3  329   3.866   3.808  14.890  0.0865 -0.7375  0.8178
   21MPD2     N  330   3.721   3.406  14.803  0.0682  0.1835  0.3158
   21MPD2    H5  331   3.637   3.436  14.852 -0.8947 -1.1718 -0.4877
   21MPD2    N1  332   4.189   3.506  14.744 -0.1218  0.5380  0.2700
   21MPD2    H7  333   4.193   3.413  14.704 -0.5408  0.1179  1.2153
   22TCq2    C1  334   3.735   3.271  14.772  0.6925 -0.2384 -0.8424
   22TCq2    O2  335   3.818   3.212  14.704 -0.0020 -0.3673  0.3261
   22TCq2    C2  336   3.643   3.190  14.839  0.0564  0.3879  0.3076
   22TCq2    C3  337   3.701   3.105  14.927  0.0052  0.0196 -0.2094
   22TCq2    C4  338   3.633   3.079  15.044 -0.0210  0.0534 -0.7759
   22TCq2    C5  339   3.519   3.145  15.080  0.4982  0.5975 -0.4413
   22TCq2    C6  340   3.454   3.220  14.985 -0.8279  0.3834  0.0825
   22TCq2    C7  341   3.521   3.248  14.864  0.7898  0.4859  0.1798
   22TCq2    C8  342   3.319   3.255  15.009  0.7847  0.1046  0.4394
   22TCq2    O4  343   3.259   3.197  15.098  0.0517  0.1056  0.8158
   22TCq2    C9  344   3.698   2.992  15.137 -0.1591  0.3941 -0.3897
   22TCq2    O5  345   3.646   2.988  15.251 -0.6575  0.6643  0.0852
   22TCq2    O6  346   3.814   2.954  15.101 -0.4934  0.1537  0.7149
   22TCq2    H2  347   3.802   3.071  14.906 -0.1832 -0.6206 -0.0613
   22TCq2    H3  348   3.478   3.133  15.180 -0.5401  3.9777 -0.4766
   22TCq2    H4  349   3.485   3.309  14.781 -0.8056 -0.3740  0.2629
   23MPD2     C  350   0.366   4.449  14.888 -0.9830  0.0979  0.0564
   23MPD2    C1  351   0.299   4.411  15.003  0.2476  0.5114  0.4669
   23MPD2    C2  352   0.163   4.401  14.988  0.2557 -0.0837  0.1569
   23MPD2    C3  353   0.097   4.440  14.878 -0.1645 -0.0343  1.0220
   23MPD2    C4  354   0.161   4.488  14.769  0.9085 -0.0787 -0.1549
   23MPD2    C5  355   0.297   4.490  14.776  0.0392  0.8370  0.9711
   23MPD2     H  356   0.108   4.349  15.065 -0.8973  0.2893 -0.4133
   23MPD2    H1  357   0.113   4.515  14.675  0.6412 -0.1003 -0.0251
   23MPD2    H2  358   0.473   4.465  14.882 -1.2439  0.9080 -2.4240
   23MPD2    H3  359   0.354   4.531  14.693 -1.3847 -1.5894 -1.2101
   23MPD2     N  360   4.681   4.433  14.864  0.3405  0.3704 -0.5052
   23MPD2    H5  361   4.630   4.498  14.805 -1.5056 -1.2984 -0.7334
   23MPD2    N1  362   0.358   4.370  15.124  0.1033  0.0755 -0.0816
   23MPD2    H7  363   0.294   4.343  15.198 -0.3449 -1.2056 -0.9433
   24TCq2    C1  364   4.600   4.341  14.916 -0.4562 -0.4256 -0.5477
   24TCq2    O2  365   4.627   4.242  14.980 -0.4914  0.2238  0.5201
   24TCq2    C2  366   4.467   4.361  14.860 -0.2742 -0.1751  0.2320
   24TCq2    C3  367   4.434   4.482  14.813  0.1448 -0.0358  0.7806
   24TCq2    C4  368   4.316   4.499  14.740  0.4128 -0.1681  0.3510
   24TCq2    C5  369   4.231   4.391  14.702 -0.0129 -0.0999  0.2686
   24TCq2    C6  370   4.273   4.270  14.749 -0.2071 -0.2965 -0.3233
   24TCq2    C7  371   4.390   4.257  14.825  0.8965  0.6248 -0.2901
   24TCq2    C8  372   4.248   4.148  14.668  0.2079  0.2608  0.3707
   24TCq2    O4  373   4.342   4.075  14.643  0.6313 -0.6589  0.1047
   24TCq2    C9  374   4.285   4.633  14.689 -0.1287  0.3993  0.1996
   24TCq2    O5  375   4.376   4.717  14.687 -0.1688  0.2973 -0.0559
   24TCq2    O6  376   4.178   4.637  14.622  0.4441 -0.1959  0.1998
   24TCq2    H2  377   4.487   4.572  14.842 -0.9318  1.1424 -0.8578
   24TCq2    H3  378   4.140   4.409  14.645  0.4688  1.1865 -0.0794
   24TCq2    H4  379   4.420   4.161  14.864 -0.1886  0.0783 -0.7903
   25TMC2    C1  380   4.147   1.771  11.513 -0.2646 -0.1195 -0.2612
   25TMC2    C2  381   4.228   1.718  11.607  0.5022 -0.1074 -0.0104
   25TMC2    C3  382   4.178   1.711  11.733 -0.0542  0.2407 -0.3755
   25TMC2    C4  383   4.037   1.839  11.541 -0.6602  0.3203  0.4570
   25TMC2    C5  384   3.995   1.836  11.669 -0.3769  0.2152 -0.2886
   25TMC2    C6  385   4.050   1.762  11.765  1.4691 -0.3803  0.2693
   25TMC2     C  386   4.194   1.771  11.370 -0.4471 -0.3705 -0.0425
   25TMC2     O  387   4.315   1.787  11.354 -0.3535 -0.0800  0.0488
   25TMC2     H  388   4.318   1.663  11.583  0.7685  0.3813 -0.1156
   25TMC2    H1  389   3.974   1.866  11.457  0.4241  3.1113  0.5470
   25TMC2    H2  390   4.023   1.775  11.870  2.3396  2.0340  0.1909
   25TMC2    C7  391   3.908   1.939  11.722 -0.1728 -0.4461 -0.0838
   25TMC2    C8  392   4.249   1.664  11.848  0.2651  0.0567 -0.6484
   25TMC2    O1  393   3.846   1.903  11.822  0.8651 -0.3866  0.0754
   25TMC2    O2  394   4.195   1.585  11.927  0.1037  0.2328 -0.2471
   25TMC2    O5  395   4.379   1.678  11.830  0.0945 -0.3255  0.0385
   25TMC2    H5  396   4.400   1.763  11.786 -2.4379  0.8035  1.0153
   26MPD2     C  397   4.082   1.733  10.871  0.2157  0.1194  0.4323
   26MPD2    C1  398   3.984   1.676  10.943 -0.5258 -0.3407 -0.3492
   26MPD2    C2  399   3.990   1.683  11.077  0.1140 -0.7630 -0.5741
   26MPD2    C3  400   4.104   1.739  11.140  0.5106  0.7338 -0.3197
   26MPD2    C4  401   4.211   1.779  11.066 -0.5908  0.0266  0.1276
   26MPD2    C5  402   4.189   1.785  10.932 -0.1225  0.5352  0.2770
   26MPD2     H  403   3.912   1.645  11.141  0.6353  0.5566  0.8417
   26MPD2    H1  404   4.303   1.809  11.114 -1.5498  2.4937  0.4202
   26MPD2    H2  405   4.081   1.724  10.763 -1.5343  1.0852  0.3584
   26MPD2    H3  406   4.268   1.822  10.868  0.5710 -0.9111  0.3028
   26MPD2     N  407   4.101   1.727  11.282 -0.3959 -0.8877 -0.1916
   26MPD2    H5  408   4.011   1.704  11.322 -0.1257 -1.6596 -0.0186
   26MPD2    N1  409   3.882   1.600  10.879 -0.6918  0.5311  0.5308
   26MPD2    H7  410   3.902   1.571  10.784  0.9627  1.5114  0.5744
   27TMC2    C1  411   2.953   3.740  11.825 -0.2828  0.0130  0.1449
   27TMC2    C2  412   2.937   3.683  11.698 -0.0240 -0.2577 -0.0390
   27TMC2    C3  413   2.937   3.770  11.589 -0.4214 -0.3613 -0.7406
   27TMC2    C4  414   2.973   3.877  11.842  0.5515 -0.2830  0.9084
   27TMC2    C5  415   2.965   3.959  11.735 -0.2053 -0.2140  1.1405
   27TMC2    C6  416   2.951   3.904  11.608  0.1677 -0.1517  0.2413
   27TMC2     C  417   2.899   3.670  11.939 -0.0965 -0.6898 -0.0378
   27TMC2     O  418   2.904   3.548  11.935  0.0251 -0.3921  0.2659
   27TMC2     H  419   2.927   3.575  11.701  0.7279 -0.3090  0.5336
   27TMC2    H1  420   3.009   3.912  11.938  2.2582 -0.7789  0.4353
   27TMC2    H2  421   2.946   3.969  11.521 -0.3011 -0.8259 -0.2307
   27TMC2    C7  422   2.908   4.088  11.774 -0.1160 -0.5228  1.0862
   27TMC2    C8  423   2.951   3.722  11.447  0.0973 -0.0331 -0.5523
   27TMC2    O1  424   2.904   4.104  11.899 -0.0654  0.2868  0.5403
   27TMC2    O2  425   2.943   3.793  11.352  0.0219  0.3702 -0.0905
   27TMC2    O5  426   2.998   3.596  11.452  0.3605 -0.0349  0.2135
   27TMC2    H5  427   3.059   3.580  11.528  1.3223 -1.1589 -0.7844
   28MPD2     C  428   2.676   3.654  12.390 -0.1996  0.7786  0.0358
   28MPD2    C1  429   2.637   3.769  12.338  0.6442 -0.4834  0.6302
   28MPD2    C2  430   2.693   3.805  12.217 -0.2947 -0.0236  0.2145
   28MPD2    C3  431   2.781   3.718  12.147 -0.2028  0.4059 -0.6476
   28MPD2    C4  432   2.820   3.600  12.209  0.0028  0.5662 -0.5662
   28MPD2    C5  433   2.773   3.572  12.331  0.1837  0.5537 -0.3244
   28MPD2     H  434   2.657   3.896  12.170  0.0845 -0.1013 -0.2235
   28MPD2    H1  435   2.896   3.529  12.177 -0.8547 -0.5420 -0.1235
   28MPD2    H2  436   2.641   3.632  12.491  1.3965 -0.9751  0.2118
   28MPD2    H3  437   2.804   3.479  12.377 -1.3226  0.0925 -0.2236
   28MPD2     N  438   2.833   3.749  12.025 -0.2382  0.4397 -0.2859
   28MPD2    H5  439   2.814   3.842  11.988 -0.4536 -0.0357 -1.3890
   28MPD2    N1  440   2.537   3.838  12.408 -0.1923  0.0612 -0.2286
   28MPD2    H7  441   2.522   3.811  12.504  0.1746 -0.6412 -0.3681
   29MPD2     C  442   2.458   1.922  14.422  0.8319  0.2980 -0.0508
   29MPD2    C1  443   2.435   1.813  14.505  0.0669 -0.2408  0.2608
   29MPD2    C2  444   2.376   1.832  14.636 -1.4213 -1.3748 -0.0589
   29MPD2    C3  445   2.361   1.962  14.686  0.7032 -0.4229  0.4330
   29MPD2    C4  446   2.386   2.067  14.601 -0.0407  0.1468  0.3955
   29MPD2    C5  447   2.427   2.046  14.469 -0.1591 -0.1904 -0.0239
   29MPD2     H  448   2.359   1.747  14.701  0.6552 -1.3174  0.5609
   29MPD2    H1  449   2.377   2.168  14.639 -0.4554 -0.1977  1.2283
   29MPD2    H2  450   2.489   1.897  14.321 -0.4204  2.2260 -0.9034
   29MPD2    H3  451   2.434   2.132  14.404 -0.4421  1.3987  2.0320
   29MPD2     N  452   2.344   1.984  14.827 -0.0807  0.6445  0.3557
   29MPD2    H5  453   2.330   2.081  14.851  0.6757  0.9547 -0.4710
   29MPD2    N1  454   2.455   1.679  14.461  0.7022 -0.6275  0.4275
   29MPD2    H7  455   2.520   1.676  14.383 -0.3493 -1.5633 -0.4171
   30TCq2    C1  456   2.320   1.892  14.927 -0.1508  0.0762 -0.1887
   30TCq2    O2  457   2.302   1.775  14.926 -0.2384 -0.2625 -0.0708
   30TCq2    C2  458   2.335   1.947  15.058  0.1351  0.3375  0.8152
   30TCq2    C3  459   2.303   1.872  15.169  0.1768  0.4982 -0.2769
   30TCq2    C4  460   2.285   1.935  15.289 -0.1795 -0.5045 -0.3447
   30TCq2    C5  461   2.293   2.065  15.303  0.0714  0.7548 -0.4351
   30TCq2    C6  462   2.352   2.128  15.196 -0.5014  0.3607  0.6229
   30TCq2    C7  463   2.382   2.065  15.079  0.3524  1.0060  0.2723
   30TCq2    C8  464   2.402   2.258  15.221 -0.0369 -0.1596 -0.7955
   30TCq2    O4  465   2.320   2.343  15.253  0.0878  0.8788 -0.1820
   30TCq2    C9  466   2.256   1.859  15.402 -0.2302 -0.6375 -0.0499
   30TCq2    O5  467   2.246   1.908  15.515 -0.0976  0.7235 -0.3045
   30TCq2    O6  468   2.266   1.732  15.393  0.7631  0.2743 -0.3045
   30TCq2    H2  469   2.285   1.766  15.155 -1.5957  0.8926 -0.9923
   30TCq2    H3  470   2.279   2.125  15.392 -1.2737  2.1926 -1.6261
   30TCq2    H4  471   2.431   2.127  15.005  1.6386 -1.5844 -1.0195
   31MPD2     C  472   0.398   0.477  15.048  0.2501  0.2128 -0.1512
   31MPD2    C1  473   0.285   0.555  15.071  0.5058 -0.6191 -0.2371
   31MPD2    C2  474   0.176   0.511  15.144 -0.9481  0.7779  0.0928
   31MPD2    C3  475   0.180   0.386  15.202 -0.5529 -0.4865 -0.3481
   31MPD2    C4  476   0.291   0.302  15.175 -0.2388  0.1439 -0.0834
   31MPD2    C5  477   0.405   0.352  15.106 -0.0507  0.5646  0.2746
   31MPD2     H  478   0.092   0.577  15.161 -2.8234 -1.2800 -1.2579
   31MPD2    H1  479   0.294   0.211  15.234 -3.0431  1.5098  2.1476
   31MPD2    H2  480   0.478   0.522  14.991  1.1467 -0.5031  0.5328
   31MPD2    H3  481   0.484   0.284  15.077 -0.6617  0.2397 -0.5912
   31MPD2     N  482   0.085   0.342  15.294  0.6625  0.1361  0.6423
   31MPD2    H5  483   0.122   0.273  15.358  1.3946 -0.4089 -0.3524
   31MPD2    N1  484   0.283   0.682  15.013  0.0045 -0.6260  0.1139
   31MPD2    H7  485   0.360   0.689  14.948  0.2859 -1.5118  0.3589
   32TCq2    C1  486   4.675   0.388  15.280 -0.2263  1.0502  0.0763
   32TCq2    O2  487   4.636   0.447  15.185 -0.1128  0.8313 -0.2554
   32TCq2    C2  488   4.587   0.354  15.381  0.5244 -0.1646 -1.0803
   32TCq2    C3  489   4.465   0.417  15.380  0.3850 -0.0266 -0.1349
   32TCq2    C4  490   4.379   0.387  15.481  0.6133  0.5878 -0.5813
   32TCq2    C5  491   4.400   0.291  15.579 -0.2085 -0.7044 -0.0034
   32TCq2    C6  492   4.531   0.248  15.584 -0.2501  0.7452 -0.1265
   32TCq2    C7  493   4.624   0.283  15.495  0.5172  0.2133 -0.7612
   32TCq2    C8  494   4.593   0.215  15.714  0.2173  0.8654  0.7929
   32TCq2    O4  495   4.714   0.188  15.714 -0.0267 -0.3526  0.0082
   32TCq2    C9  496   4.247   0.460  15.472  0.4448 -0.6461 -0.2604
   32TCq2    O5  497   4.149   0.406  15.533 -0.4549 -0.3745 -0.3864
   32TCq2    O6  498   4.223   0.539  15.377 -0.5825 -0.0896  0.2072
   32TCq2    H2  499   4.433   0.482  15.300 -1.6958  0.2757  0.9271
   32TCq2    H3  500   4.321   0.270  15.651 -2.1358  0.5740 -1.7072
   32TCq2    H4  501   0.002   0.246  15.506 -0.2537 -1.2094  1.5020
   33MPD2     C  502   0.818   2.806  10.376  0.5239 -0.5486 -0.0838
   33MPD2    C1  503   0.691   2.765  10.380 -0.3917  0.2081  0.0354
   33MPD2    C2  504   0.586   2.857  10.363  0.6193 -0.9884 -0.0092
   33MPD2    C3  505   0.620   2.992  10.357  0.2002  0.6524 -0.7061
   33MPD2    C4  506   0.750   3.034  10.355 -0.0484 -0.4226  0.6253
   33MPD2    C5  507   0.845   2.940  10.369  0.5132  0.8393 -0.8706
   33MPD2     H  508   0.486   2.817  10.353  1.4945 -2.7415 -1.6569
   33MPD2    H1  509   0.774   3.138  10.336  3.9913 -1.7187 -1.1811
   33MPD2    H2  510   0.902   2.737  10.381  0.1779 -0.8589  1.5354
   33MPD2    H3  511   0.946   2.974  10.348  0.8941  0.0582 -0.2643
   33MPD2     N  512   0.519   3.096  10.352 -0.1185 -0.2018  0.4588
   33MPD2    H5  513   0.553   3.192  10.354 -2.9217  0.7995 -0.1795
   33MPD2    N1  514   0.681   2.624  10.400  0.0784 -0.0600 -0.1699
   33MPD2    H7  515   0.768   2.571  10.402  0.4770  0.5161 -1.7207
   34TCq2    C1  516   0.386   3.073  10.377 -0.3077 -0.2502 -0.2513
   34TCq2    O2  517   0.315   2.970  10.386  0.3686 -0.0132  0.0138
   34TCq2    C2  518   0.318   3.197  10.380 -0.5266 -0.1065  0.3282
   34TCq2    C3  519   0.201   3.188  10.458  0.9190 -0.3766 -0.1435
   34TCq2    C4  520   0.158   3.307  10.512  0.2029  0.3542  0.1895
   34TCq2    C5  521   0.215   3.425  10.477 -0.7239  0.4533 -0.2429
   34TCq2    C6  522   0.329   3.431  10.389 -0.2531  0.1403  0.3026
   34TCq2    C7  523   0.386   3.315  10.343  0.8792  0.0959 -0.8230
   34TCq2    C8  524   0.405   3.556  10.362  0.5900  0.3284  0.0648
   34TCq2    O4  525   0.511   3.546  10.308 -0.1850 -0.6687 -0.0428
   34TCq2    C9  526   0.057   3.300  10.618  0.0632  0.0104 -0.1130
   34TCq2    O5  527   0.051   3.184  10.671 -0.0817  0.9370 -0.1659
   34TCq2    O6  528   4.717   3.401  10.652  0.2265 -0.1976 -0.1707
   34TCq2    H2  529   0.154   3.093  10.482  2.7657 -1.4069 -0.6247
   34TCq2    H3  530   0.169   3.512  10.523 -0.8569 -0.7617  1.9012
   34TCq2    H4  531   0.463   3.314  10.267  2.0364  0.7158  0.3376
   35MPD2     C  532   1.867   4.583  11.783 -0.3603 -0.4702  0.1799
   35MPD2    C1  533   1.851   4.449  11.810  0.6564  0.3824 -0.0818
   35MPD2    C2  534   1.778   4.363  11.724  0.3919  0.4148  0.2161
   35MPD2    C3  535   1.715   4.426  11.621 -0.5645 -0.6384  0.1541
   35MPD2    C4  536   1.723   4.565  11.597  0.1373 -0.2520 -0.1001
   35MPD2    C5  537   1.807   4.639  11.674  0.0263  0.3583  0.3966
   35MPD2     H  538   1.769   4.255  11.731 -1.4029  0.5254 -0.5951
   35MPD2    H1  539   1.680   4.625  11.518 -1.1970 -0.9468  0.1133
   35MPD2    H2  540   1.928   4.648  11.845 -1.4240  1.2604 -0.5590
   35MPD2    H3  541   1.825   0.021  11.653 -1.5507  0.4990 -0.2855
   35MPD2     N  542   1.621   4.349  11.547  0.1527 -0.3711  0.0985
   35MPD2    H5  543   1.591   4.259  11.583 -1.3729 -0.0938 -0.4921
   35MPD2    N1  544   1.929   4.404  11.922 -0.0875  0.2356 -0.2795
   35MPD2    H7  545   1.971   4.478  11.977  1.5623 -0.0110 -1.2116
   36TCq2    C1  546   1.571   4.391  11.428 -0.7473 -0.6231 -0.4708
   36TCq2    O2  547   1.616   4.475  11.352  0.6259  0.5107 -0.0915
   36TCq2    C2  548   1.462   4.307  11.382 -0.1440 -0.9087 -0.0747
   36TCq2    C3  549   1.444   4.307  11.242 -0.1123  0.7122  0.7294
   36TCq2    C4  550   1.340   4.232  11.199  0.3252 -0.9321  0.0501
   36TCq2    C5  551   1.268   4.160  11.289 -0.1484  0.6073 -0.4877
   36TCq2    C6  552   1.294   4.156  11.417  0.1362  0.5798  0.8136
   36TCq2    C7  553   1.385   4.242  11.471  0.4034  0.4272 -0.0026
   36TCq2    C8  554   1.195   4.107  11.505  0.2655 -0.4281 -0.8018
   36TCq2    O4  555   1.078   4.100  11.466  0.0279  0.5735 -0.0953
   36TCq2    C9  556   1.313   4.222  11.063 -0.5969  0.1459 -0.0953
   36TCq2    O5  557   1.398   4.263  10.981 -0.3811 -0.6421  1.1765
   36TCq2    O6  558   1.214   4.156  11.025 -0.2249 -0.2600 -0.2049
   36TCq2    H2  559   1.508   4.362  11.174  2.3743 -1.9277  0.9535
   36TCq2    H3  560   1.187   4.100  11.249  0.3088 -0.0058 -0.4884
   36TCq2    H4  561   1.388   4.255  11.579  0.7947  0.6679 -0.0421
   37TMC2    C1  562   4.262   0.626  11.598 -0.2962  0.0822 -0.4390
   37TMC2    C2  563   4.334   0.654  11.483  0.2697 -0.0525  0.0105
   37TMC2    C3  564   4.466   0.607  11.496 -0.0769 -0.3080 -0.7390
   37TMC2    C4  565   4.316   0.583  11.715  0.0355 -0.3104 -0.1057
   37TMC2    C5  566   4.450   0.555  11.727 -0.5842 -0.9295  0.4228
   37TMC2    C6  567   4.529   0.568  11.611 -0.1942  0.0829 -0.4286
   37TMC2     C  568   4.118   0.614  11.578 -0.1423  0.6071  0.0806
   37TMC2     O  569   4.067   0.687  11.496  0.4316  0.4213  0.8121
   37TMC2     H  570   4.302   0.709  11.395 -0.8288 -1.6990 -0.6056
   37TMC2    H1  571   4.252   0.565  11.801 -0.0439 -0.5104 -0.2070
   37TMC2    H2  572   4.637   0.560  11.605 -0.2949 -0.5655 -1.2904
   37TMC2    C7  573   4.498   0.471  11.840  0.2949  0.5999 -0.1439
   37TMC2    C8  574   4.535   0.614  11.367  0.5271 -1.3162 -0.1824
   37TMC2    O1  575   4.413   0.445  11.923 -0.2143 -0.1199 -0.1655
   37TMC2    O2  576   4.498   0.688  11.279 -0.5603  0.3923 -0.0250
   37TMC2    O5  577   4.633   0.514  11.361  0.0591  0.1827  0.0471
   37TMC2    H5  578   4.632   0.452  11.437  2.9614  1.6756  1.2964
   38MPD2     C  579   3.677   0.371  11.610  0.0214 -0.3565 -0.4803
   38MPD2    C1  580   3.754   0.315  11.715 -0.0628 -0.0983 -0.1239
   38MPD2    C2  581   3.886   0.362  11.725  0.0666  0.2396 -0.1880
   38MPD2    C3  582   3.939   0.453  11.632  0.5536  0.4130 -0.3835
   38MPD2    C4  583   3.862   0.496  11.523 -0.3132  0.6902  0.1396
   38MPD2    C5  584   3.735   0.446  11.515  0.4537 -0.7405  0.0565
   38MPD2     H  585   3.944   0.323  11.808 -1.2867  0.8771  1.0669
   38MPD2    H1  586   3.898   0.556  11.440  3.0060  0.8393  1.6546
   38MPD2    H2  587   3.581   0.323  11.594 -0.6928  0.4817  1.2796
   38MPD2    H3  588   3.683   0.472  11.424 -0.7238 -0.0564  0.9299
   38MPD2     N  589   4.068   0.502  11.647  0.5279 -0.1456 -0.2176
   38MPD2    H5  590   4.132   0.445  11.702  0.6319  0.4440  0.2792
   38MPD2    N1  591   3.715   0.211  11.800 -0.0745  0.3971  0.2516
   38MPD2    H7  592   3.784   0.187  11.871  1.6454  0.0906 -1.5159
   39MPD2     C  593   2.312   1.517   1.352  0.8193 -0.4313  0.2984
   39MPD2    C1  594   2.224   1.586   1.426 -1.3135  0.0432  0.2790
   39MPD2    C2  595   2.088   1.575   1.395  0.0411  0.4473 -0.2042
   39MPD2    C3  596   2.044   1.488   1.290 -0.0048  0.3622  0.2107
   39MPD2    C4  597   2.141   1.403   1.232 -0.0319  0.5194  0.1503
   39MPD2    C5  598   2.276   1.423   1.250 -0.0937  0.8674  0.0134
   39MPD2     H  599   2.010   1.634   1.442  0.5017  0.9711 -0.1003
   39MPD2    H1  600   2.118   1.329   1.157 -1.0635  1.3679 -0.3878
   39MPD2    H2  601   2.418   1.538   1.360  0.5238  0.7987  0.9810
   39MPD2    H3  602   2.354   1.374   1.193 -0.2153 -1.8476  2.2034
   39MPD2     N  603   1.910   1.485   1.236  1.1816  0.1005 -0.0762
   39MPD2    H5  604   1.888   1.412   1.168  0.5210 -0.6162  0.9165
   39MPD2    N1  605   2.280   1.681   1.510 -0.7300 -0.3120  0.0241
   39MPD2    H7  606   2.381   1.683   1.509 -0.7129 -0.8607  0.6507
   40TCq2    C1  607   2.216   1.771   1.589  0.8852  0.4148  0.1927
   40TCq2    O2  608   2.095   1.790   1.601  0.2481 -0.3602  0.2036
   40TCq2    C2  609   2.302   1.856   1.667  0.2301 -0.6388 -0.8967
   40TCq2    C3  610   2.237   1.941   1.758 -0.0004  0.0955  0.2085
   40TCq2    C4  611   2.312   2.034   1.825  0.2507 -0.3245 -0.6283
   40TCq2    C5  612   2.447   2.032   1.824 -0.5425 -0.1167 -0.2999
   40TCq2    C6  613   2.511   1.954   1.728 -0.3644  0.3265 -0.1524
   40TCq2    C7  614   2.437   1.860   1.654  0.4880  0.0840 -0.5003
   40TCq2    C8  615   2.654   1.965   1.705  0.3123  0.4539  0.4361
   40TCq2    O4  616   2.710   1.870   1.656 -0.0179 -0.2957  0.1457
   40TCq2    C9  617   2.241   2.116   1.918  0.7728 -0.2145  0.1241
   40TCq2    O5  618   2.320   2.172   1.998 -0.4313  0.0466 -0.9199
   40TCq2    O6  619   2.117   2.120   1.911  0.1170  0.5611  0.0249
   40TCq2    H2  620   2.129   1.937   1.773  0.0738  2.4988  1.3825
   40TCq2    H3  621   2.503   2.098   1.889 -0.8729  0.1080 -0.2418
   40TCq2    H4  622   2.497   1.805   1.582  0.5723 -1.3136  0.6438
   41TMC2    C1  623   1.530   4.546  13.730 -0.6386  0.3871  0.5982
   41TMC2    C2  624   1.570   4.651  13.809  0.8621 -0.0641  0.1643
   41TMC2    C3  625   1.522   0.058  13.789 -0.2675 -0.0093  1.0428
   41TMC2    C4  626   1.446   4.575  13.627  0.5448  0.2102  0.4077
   41TMC2    C5  627   1.388   4.704  13.618  0.0572 -0.0506  0.6271
   41TMC2    C6  628   1.419   0.090  13.704  0.7313  0.4716 -0.1917
   41TMC2     C  629   1.501   4.427  13.807  0.2616 -0.0698  0.3584
   41TMC2     O  630   1.437   4.337  13.752  0.2369 -1.0941  0.0326
   41TMC2     H  631   1.646   4.634  13.884  2.1320 -1.5193 -1.4516
   41TMC2    H1  632   1.392   4.493  13.582 -1.3650  1.3835  0.5448
   41TMC2    H2  633   1.371   0.187  13.696  1.0602  0.7735  1.4510
   41TMC2    C7  634   1.307   0.011  13.503 -0.5019  0.8069 -0.1261
   41TMC2    C8  635   1.511   0.135  13.905  0.1576 -1.0082  0.1579
   41TMC2    O1  636   1.233   0.109  13.504 -0.3164  0.2919 -0.1791
   41TMC2    O2  637   1.457   0.245  13.903  0.4038  0.1954 -0.3688
   41TMC2    O5  638   1.475   0.038  13.987 -0.5907  0.2365  0.5034
   41TMC2    H5  639   1.415   0.072  14.057  1.4510  0.9791  1.9125
   42MPD2     C  640   1.440   4.233  14.011  0.3439  0.2021  0.2739
   42MPD2    C1  641   1.441   4.368  14.036 -0.0050 -0.1635  0.1913
   42MPD2    C2  642   1.397   4.421  14.153 -0.7354 -0.1208  0.1981
   42MPD2    C3  643   1.353   4.333  14.258 -0.2803 -0.1669 -0.6567
   42MPD2    C4  644   1.346   4.201  14.227 -1.1626  0.2978 -0.4866
   42MPD2    C5  645   1.392   4.150  14.110  0.0269 -0.4674 -0.3836
   42MPD2     H  646   1.404   4.529  14.159 -0.4516 -0.0372 -1.6182
   42MPD2    H1  647   1.299   4.125  14.289  1.1294 -1.2695 -0.6570
   42MPD2    H2  648   1.481   4.183  13.924  0.8891  1.6922 -0.3168
   42MPD2    H3  649   1.398   4.043  14.097  1.2920 -0.2650 -1.3878
   42MPD2     N  650   1.317   4.378  14.389  0.4893 -0.4094 -0.3614
   42MPD2    H5  651   1.278   4.312  14.455  1.4413 -0.9138 -0.2952
   42MPD2    N1  652   1.499   4.456  13.942  0.0150  0.0799 -0.3156
   42MPD2    H7  653   1.514   4.552  13.972  2.4528 -0.1620 -0.7913
   43MPD2     C  654   2.973   2.800   0.404  0.1274  0.1983  0.1064
   43MPD2    C1  655   2.987   2.685   0.479  0.2004 -0.3662 -0.0414
   43MPD2    C2  656   2.949   2.695   0.615  0.1407  0.2686  0.0296
   43MPD2    C3  657   2.896   2.813   0.658 -0.2682  0.1419 -0.1301
   43MPD2    C4  658   2.897   2.929   0.587  0.2533  0.3562  0.6223
   43MPD2    C5  659   2.937   2.925   0.458  0.9145  0.4351 -0.3059
   43MPD2     H  660   2.955   2.613   0.686  2.3345 -1.3998 -2.0957
   43MPD2    H1  661   2.870   3.027   0.625 -1.3572 -0.1434  0.7560
   43MPD2    H2  662   3.002   2.813   0.301  1.9147  0.4503  0.6341
   43MPD2    H3  663   2.930   3.014   0.396 -0.4225  0.1306 -0.5958
   43MPD2     N  664   2.830   2.823   0.787 -0.4145  0.0053  0.2050
   43MPD2    H5  665   2.792   2.916   0.804 -0.0006  0.3157 -0.5646
   43MPD2    N1  666   3.033   2.554   0.437  0.0347 -0.4580 -0.3855
   43MPD2    H7  667   3.054   2.489   0.512  0.2356  1.5711  1.3014
   44TCq2    C1  668   2.494   2.581   1.228 -0.3170  0.5107 -0.2172
   44TCq2    O2  669   2.499   2.465   1.189 -0.1783 -0.1063 -0.2403
   44TCq2    C2  670   2.544   2.687   1.136 -0.2958 -0.3224  0.5318
   44TCq2    C3  671   2.473   2.807   1.127 -0.0982 -0.0094  0.1915
   44TCq2    C4  672   2.536   2.904   1.057  0.2036  0.0607  0.3210
   44TCq2    C5  673   2.651   2.886   0.984 -0.5171  1.0594  0.1957
   44TCq2    C6  674   2.715   2.765   0.988  0.0972  0.1272 -0.3762
   44TCq2    C7  675   2.666   2.662   1.071  0.2442 -0.1324  0.1824
   44TCq2    C8  676   2.800   2.721   0.878  0.3007 -0.2420  0.1949
   44TCq2    O4  677   2.814   2.601   0.870 -0.2997 -0.2586 -0.3029
   44TCq2    C9  678   2.471   3.037   1.048  0.4245  0.0683  0.2228
   44TCq2    O5  679   2.514   3.115   0.960  0.0686  0.3739 -0.2344
   44TCq2    O6  680   2.363   3.046   1.111 -0.6865 -0.3580 -0.2427
   44TCq2    H2  681   2.378   2.825   1.175 -0.2533  1.0374 -0.5239
   44TCq2    H3  682   2.684   2.966   0.917  0.8196 -1.0396 -1.6555
   44TCq2    H4  683   2.715   2.566   1.083  1.4916  0.5749  0.6864
   45TMC2    C1  684   2.838   4.326   9.874  0.2716 -0.2910 -0.2346
   45TMC2    C2  685   2.892   4.320  10.000  0.4769  1.0146  0.1372
   45TMC2    C3  686   2.961   4.435  10.032 -0.1998 -0.3821  0.2058
   45TMC2    C4  687   2.873   4.418   9.777  0.0448 -0.3347  0.5606
   45TMC2    C5  688   2.938   4.535   9.817  0.0719  0.6960 -0.4070
   45TMC2    C6  689   2.974   4.548   9.953  0.0939 -0.2712 -0.5629
   45TMC2     C  690   2.781   4.200   9.826 -0.1043 -0.7198 -0.3957
   45TMC2     O  691   2.785   4.108   9.900 -0.4039  0.8005  0.2384
   45TMC2     H  692   2.871   4.237  10.067 -1.0556  2.0438  0.9238
   45TMC2    H1  693   2.831   4.411   9.677 -1.0843 -1.3102  1.0953
   45TMC2    H2  694   3.029   4.636   9.985 -1.7726  0.8028 -0.2983
   45TMC2    C7  695   2.925   4.655   9.718  0.2217 -0.0456  0.0343
   45TMC2    C8  696   3.012   4.454  10.161  0.5977 -0.7343 -0.0825
   45TMC2    O1  697   2.856   4.641   9.619 -0.5476 -0.3045  0.5052
   45TMC2    O2  698   3.016   4.558  10.228 -0.4362 -0.0179 -0.8028
   45TMC2    O5  699   3.090   4.349  10.181 -0.4748  0.4571  0.2865
   45TMC2    H5  700   3.071   4.284  10.110 -0.5559 -0.0435  0.7557
   46MPD2     C  701   2.625   4.009   9.678  0.1536  0.2098 -0.2483
   46MPD2    C1  702   2.595   4.146   9.664 -0.2562 -0.5665 -0.6395
   46MPD2    C2  703   2.493   4.187   9.591 -0.1906  0.0232  0.0054
   46MPD2    C3  704   2.425   4.084   9.526  0.2151 -0.5270 -0.8343
   46MPD2    C4  705   2.454   3.944   9.525 -0.4240 -0.6256 -0.2754
   46MPD2    C5  706   2.556   3.912   9.608 -0.1773  0.1502 -0.0455
   46MPD2     H  707   2.462   4.291   9.589  1.6329  0.5640 -0.2588
   46MPD2    H1  708   2.392   3.870   9.476 -0.8335  0.1781 -0.9649
   46MPD2    H2  709   2.702   3.971   9.744 -0.6085 -0.3083  0.3449
   46MPD2    H3  710   2.566   3.804   9.621  5.5346  0.6612 -0.2528
   46MPD2     N  711   2.305   4.132   9.461 -0.3163 -0.1255  0.0295
   46MPD2    H5  712   2.293   4.232   9.455  0.4036 -0.1300 -1.5222
   46MPD2    N1  713   2.681   4.232   9.737  0.3857 -0.0697  0.5289
   46MPD2    H7  714   2.667   4.329   9.712 -0.7170 -0.0327  1.2849
   47TMC2    C1  715   1.646   0.930   9.008 -0.4328  0.4423 -0.3137
   47TMC2    C2  716   1.767   0.860   9.006  0.7582  0.6176  0.5039
   47TMC2    C3  717   1.867   0.918   8.938  0.1051 -0.1133  0.0655
   47TMC2    C4  718   1.621   1.038   8.923  0.1848 -0.0302 -0.4343
   47TMC2    C5  719   1.731   1.085   8.857 -0.5289  0.2888 -0.6158
   47TMC2    C6  720   1.851   1.029   8.862 -0.7312  0.2152  0.7295
   47TMC2     C  721   1.533   0.885   9.082 -0.6422  0.2832 -0.3421
   47TMC2     O  722   1.426   0.936   9.064  0.3637 -0.0842 -0.2180
   47TMC2     H  723   1.769   0.761   9.050 -1.3191 -0.1010 -1.0326
   47TMC2    H1  724   1.524   1.087   8.921  0.7644  1.2314  1.7825
   47TMC2    H2  725   1.939   1.079   8.824 -1.6081  0.1470 -1.4222
   47TMC2    C7  726   1.706   1.197   8.765  0.4736 -0.0613  0.2179
   47TMC2    C8  727   1.994   0.850   8.945 -0.5624 -0.7113 -0.0596
   47TMC2    O1  728   1.795   1.202   8.679  0.3803 -0.0950 -0.5635
   47TMC2    O2  729   2.023   0.767   9.033 -0.3765  0.0684  0.3167
   47TMC2    O5  730   2.035   0.847   8.816  0.1439 -0.2091  0.3253
   47TMC2    H5  731   1.984   0.899   8.750  0.5710 -1.1540 -0.7374
   48MPD2     C  732   1.369   0.819   9.315  0.6019  0.5338 -0.6502
   48MPD2    C1  733   1.472   0.736   9.275 -0.0890 -0.9434  0.0604
   48MPD2    C2  734   1.498   0.620   9.341  0.2798 -0.3300 -0.7591
   48MPD2    C3  735   1.405   0.577   9.443 -0.4701 -0.9206 -0.0113
   48MPD2    C4  736   1.304   0.660   9.480 -0.2056 -0.1858  0.0865
   48MPD2    C5  737   1.289   0.782   9.417  0.3809 -0.2395  0.4097
   48MPD2     H  738   1.585   0.559   9.320 -0.4557 -1.2393 -1.1948
   48MPD2    H1  739   1.246   0.638   9.569 -0.5784 -0.6493 -0.2721
   48MPD2    H2  740   1.358   0.917   9.269 -0.2919  0.6873 -0.1003
   48MPD2    H3  741   1.208   0.844   9.455  0.5674 -0.9873  2.0381
   48MPD2     N  742   1.446   0.466   9.520  0.0335  0.1605 -0.3215
   48MPD2    H5  743   1.505   0.396   9.475 -0.1306 -0.1741 -0.0185
   48MPD2    N1  744   1.553   0.779   9.168 -0.4323 -0.3564 -0.7086
   48MPD2    H7  745   1.634   0.720   9.156  0.2390  0.9906 -2.8183
   49MPD2     C  746   3.747   2.830  10.386  0.9544  0.1077 -0.5253
   49MPD2    C1  747   3.737   2.765  10.505  0.2441 -0.4517  0.0490
   49MPD2    C2  748   3.810   2.798  10.616 -0.0593  0.0105 -0.4020
   49MPD2    C3  749   3.901   2.900  10.602 -0.3461  0.0739 -0.5734
   49MPD2    C4  750   3.908   2.971  10.484  0.4218  0.1328  0.0424
   49MPD2    C5  751   3.842   2.930  10.377  0.1574 -0.7393  0.0611
   49MPD2     H  752   3.791   2.741  10.706 -1.3527 -1.4410 -1.5833
   49MPD2    H1  753   3.973   3.055  10.463 -0.8955  1.0790 -0.2225
   49MPD2    H2  754   3.701   2.805  10.291  0.4984  0.4479 -0.3956
   49MPD2    H3  755   3.855   2.977  10.280 -0.3344 -0.9753 -0.1210
   49MPD2     N  756   3.994   2.936  10.699  0.6923  0.5561 -0.1491
   49MPD2    H5  757   4.064   3.006  10.672  0.6249  0.4232 -0.6740
   49MPD2    N1  758   3.664   2.646  10.504 -0.0149 -0.0021  0.3127
   49MPD2    H7  759   3.669   2.594  10.591  0.1792  2.1357  1.5808
   50TCq2    C1  760   3.580   2.598  10.411  0.9962 -0.0871 -0.6712
   50TCq2    O2  761   3.540   2.645  10.305 -0.5868 -0.2454  0.0062
   50TCq2    C2  762   3.539   2.457  10.421 -1.1080  0.0566  0.2492
   50TCq2    C3  763   3.485   2.397  10.309 -0.3920  0.0512  0.0622
   50TCq2    C4  764   3.468   2.263  10.319  0.2791 -0.4092 -0.2081
   50TCq2    C5  765   3.498   2.192  10.427 -0.3632  0.2351 -0.6596
   50TCq2    C6  766   3.552   2.252  10.537 -0.2085  0.0402 -0.1853
   50TCq2    C7  767   3.571   2.390  10.535 -0.1970 -0.4616  0.0582
   50TCq2    C8  768   3.574   2.174  10.655 -0.1038  0.1310 -0.2807
   50TCq2    O4  769   3.511   2.073  10.653 -0.6659 -0.8424  0.0699
   50TCq2    C9  770   3.408   2.197  10.207  0.2543 -1.4631  0.1557
   50TCq2    O5  771   3.334   2.261  10.135 -0.1924 -0.0749  0.1676
   50TCq2    O6  772   3.422   2.074  10.208  0.0316  0.4386  0.1161
   50TCq2    H2  773   3.443   2.450  10.224 -2.3933 -2.7538 -0.6893
   50TCq2    H3  774   3.493   2.084  10.420  0.6247  0.2584 -1.7434
   50TCq2    H4  775   3.579   2.438  10.631 -0.7015 -1.4751  0.6092
   51MPD2     C  776   4.001   0.956   1.142 -0.4175  0.9153 -0.3418
   51MPD2    C1  777   4.060   0.839   1.100 -0.4686 -0.6841  0.6159
   51MPD2    C2  778   4.181   0.796   1.164  0.1889  0.5068  0.4901
   51MPD2    C3  779   4.226   0.860   1.278  0.0143  0.7072  1.1738
   51MPD2    C4  780   4.162   0.978   1.316 -0.3601  0.0178 -0.3443
   51MPD2    C5  781   4.056   1.027   1.245  0.1849 -0.0023 -0.0603
   51MPD2     H  782   4.241   0.721   1.114  1.2776  2.4124 -1.0517
   51MPD2    H1  783   4.199   1.042   1.396 -1.1985 -1.5552  1.3082
   51MPD2    H2  784   3.922   1.003   1.084 -2.0649 -2.4728 -0.8765
   51MPD2    H3  785   4.009   1.123   1.263 -2.0820 -0.9093 -1.0436
   51MPD2     N  786   4.341   0.821   1.350 -0.5317  0.2234 -0.2240
   51MPD2    H5  787   4.372   0.877   1.429 -1.7471 -1.5514  1.5177
   51MPD2    N1  788   4.021   0.767   0.983 -0.1712 -0.0796  0.1805
   51MPD2    H7  789   4.078   0.691   0.947 -1.0293 -0.9558  0.6654
   52TCq2    C1  790   4.418   0.712   1.315  0.0496 -0.3697 -0.0702
   52TCq2    O2  791   4.402   0.624   1.229  0.6525  0.2032  0.3536
   52TCq2    C2  792   4.544   0.706   1.393  0.0188 -0.1983  0.3288
   52TCq2    C3  793   4.617   0.588   1.411 -0.3295  0.5746  0.2585
   52TCq2    C4  794   0.014   0.590   1.470  0.7307  0.4402 -0.8031
   52TCq2    C5  795   0.068   0.708   1.517 -0.8202  0.6541  0.4095
   52TCq2    C6  796   4.718   0.820   1.492  0.5305  0.1876 -0.5385
   52TCq2    C7  797   4.603   0.817   1.425 -0.0512 -0.0593 -0.1776
   52TCq2    C8  798   0.053   0.950   1.508  0.2183 -0.0234 -0.2411
   52TCq2    O4  799   4.692   1.038   1.534 -0.4068 -0.1494  0.0696
   52TCq2    C9  800   0.102   0.476   1.477 -0.3651 -0.9744  0.5941
   52TCq2    O5  801   0.220   0.500   1.512  0.2125 -0.1997 -0.0169
   52TCq2    O6  802   0.051   0.364   1.450 -0.7273  0.1424 -0.6620
   52TCq2    H2  803   4.564   0.498   1.381  1.2670 -0.1046 -0.4692
   52TCq2    H3  804   0.160   0.714   1.574 -1.1461 -1.1890  1.1249
   52TCq2    H4  805   4.573   0.911   1.379 -0.9423 -0.0443  0.4385
   53TMC2    C1  806   0.007   0.199  12.488  0.1784  0.3247  0.4366
   53TMC2    C2  807   0.098   0.206  12.586 -0.0216 -0.2251  1.0056
   53TMC2    C3  808   0.058   0.258  12.714  0.3909 -0.4031  0.5298
   53TMC2    C4  809   4.603   0.238  12.510  0.2617  0.0855 -0.3552
   53TMC2    C5  810   4.571   0.283  12.637 -0.1246 -0.4187 -0.1082
   53TMC2    C6  811   4.656   0.291  12.744  0.1115 -0.2623  0.3380
   53TMC2     C  812   0.042   0.167  12.354 -0.3822 -0.1176  0.3339
   53TMC2     O  813   0.130   0.082  12.342  0.5180 -0.0955 -0.0853
   53TMC2     H  814   0.198   0.162  12.586 -0.5956 -1.5278  0.5849
   53TMC2    H1  815   4.526   0.207  12.441 -0.6939  1.6117  0.0234
   53TMC2    H2  816   4.635   0.329  12.843 -2.1420  2.2625 -1.0773
   53TMC2    C7  817   4.433   0.298  12.665 -0.6188  0.3543  0.5348
   53TMC2    C8  818   0.159   0.246  12.817  1.2308 -0.2067  0.3614
   53TMC2    O1  819   4.363   0.317  12.568  0.8736  0.1304  0.2087
   53TMC2    O2  820   0.277   0.243  12.793  0.3016 -0.2165 -0.3704
   53TMC2    O5  821   0.099   0.194  12.928 -0.3451 -0.5394  0.3366
   53TMC2    H5  822   0.001   0.192  12.927 -0.3656  0.8868 -0.6446
   54MPD2     C  823   0.084   0.134  12.054  0.7333  0.2039 -0.3324
   54MPD2    C1  824   4.721   0.224  12.116  0.3746 -0.2406 -0.0669
   54MPD2    C2  825   4.665   0.320  12.039  0.0682 -1.0545  0.5223
   54MPD2    C3  826   4.685   0.320  11.903 -0.5300 -0.4365 -0.5241
   54MPD2    C4  827   0.065   0.240  11.849 -0.4511 -0.7075 -0.1059
   54MPD2    C5  828   0.120   0.142  11.923 -0.0383  0.7813 -0.9922
   54MPD2     H  829   4.605   0.399  12.084  0.9611 -1.1171  1.8244
   54MPD2    H1  830   0.096   0.239  11.745 -1.9816 -1.6586 -0.5646
   54MPD2    H2  831   0.132   0.059  12.116  0.3146 -0.3087 -0.6228
   54MPD2    H3  832   0.193   0.071  11.887 -2.3889 -2.1525  0.0893
   54MPD2     N  833   4.617   0.402  11.815  0.7524  0.1571  0.0518
   54MPD2    H5  834   4.644   0.396  11.717  0.1707  1.4015 -0.1867
   54MPD2    N1  835   4.699   0.236  12.257 -0.3908 -0.3554  0.5386
   54MPD2    H7  836   4.645   0.315  12.290  0.0778 -0.2302  1.0041
   55MPD2     C  837   0.894   1.858   0.417 -0.0011  0.1870 -0.5145
   55MPD2    C1  838   0.764   1.800   0.414 -0.4992  0.7347  0.6110
   55MPD2    C2  839   0.660   1.887   0.439 -0.1401 -0.1626  0.5506
   55MPD2    C3  840   0.675   2.026   0.450 -0.0464  0.4384  0.4191
   55MPD2    C4  841   0.798   2.077   0.431  0.2403 -0.1060  0.6556
   55MPD2    C5  842   0.911   1.995   0.426 -0.1906  0.1263  0.3552
   55MPD2     H  843   0.558   1.851   0.444  0.1661 -0.8044  2.3433
   55MPD2    H1  844   0.824   2.181   0.443  2.8239 -0.9545  2.4158
   55MPD2    H2  845   0.981   1.794   0.416 -1.5984 -2.0082  0.7465
   55MPD2    H3  846   1.009   2.039   0.438 -0.8003  1.1511  1.6212
   55MPD2     N  847   0.561   2.109   0.471 -0.4720 -0.3121 -0.1980
   55MPD2    H5  848   0.472   2.064   0.493  0.3884 -2.4180 -1.0196
   55MPD2    N1  849   0.745   1.656   0.398  0.8133  0.4760  0.0723
   55MPD2    H7  850   0.823   1.592   0.386  0.7167  0.4917 -0.6264
   56TCq2    C1  851   0.623   1.586   0.386 -0.0871  1.0577  0.6318
   56TCq2    O2  852   0.509   1.622   0.405  0.3259  0.1393  0.0565
   56TCq2    C2  853   0.644   1.450   0.366  0.1895  0.5499  0.2433
   56TCq2    C3  854   0.740   1.407   0.281  0.4211 -0.1276  0.1334
   56TCq2    C4  855   0.770   1.273   0.277  0.2130  0.2698 -0.4572
   56TCq2    C5  856   0.698   1.184   0.357  0.1815  0.0572 -0.4476
   56TCq2    C6  857   0.615   1.231   0.453  0.0663 -0.0839 -0.7979
   56TCq2    C7  858   0.592   1.366   0.462  0.3289  0.1488 -0.3115
   56TCq2    C8  859   0.512   1.146   0.516 -1.0378  0.7649  0.3771
   56TCq2    O4  860   0.510   1.027   0.491  0.2344 -0.2175  0.0791
   56TCq2    C9  861   0.849   1.233   0.162  0.0234 -0.5681  0.5270
   56TCq2    O5  862   0.864   1.320   0.073 -0.6933 -0.1521 -0.0851
   56TCq2    O6  863   0.871   1.112   0.150  0.3586  0.1632  0.5471
   56TCq2    H2  864   0.800   1.472   0.218  3.4735 -0.3549  2.8156
   56TCq2    H3  865   0.710   1.077   0.343 -4.0136 -0.2445 -1.5784
   56TCq2    H4  866   0.541   1.415   0.544  1.2531  1.6436 -0.6312
   57TMC2    C1  867   4.640   3.816  13.771 -0.3863  0.4624 -0.1244
   57TMC2    C2  868   0.029   3.793  13.849 -0.6681  0.0388  0.3559
   57TMC2    C3  869   0.147   3.757  13.783  0.2630  0.6443  0.1480
   57TMC2    C4  870   4.650   3.813  13.635  0.2016 -0.7004 -0.4560
   57TMC2    C5  871   0.043   3.768  13.574 -0.6737 -0.9952 -0.1460
   57TMC2    C6  872   0.150   3.740  13.650  0.7073  0.3172  1.4442
   57TMC2     C  873   4.507   3.818  13.823  0.6952 -0.4024 -0.0006
   57TMC2     O  874   4.418   3.784  13.744  0.5064 -0.1307  0.2249
   57TMC2     H  875   0.018   3.800  13.957  0.2574 -1.8063  0.5822
   57TMC2    H1  876   4.555   3.824  13.585 -0.0877 -0.8249  0.0614
   57TMC2    H2  877   0.242   3.712  13.602  0.0091  0.6309 -0.0799
   57TMC2    C7  878   0.025   3.710  13.439 -0.1191  0.0155 -0.2161
   57TMC2    C8  879   0.255   3.734  13.872  0.6279  0.2106  0.2732
   57TMC2    O1  880   4.660   3.763  13.367 -0.6915 -0.5542 -0.0179
   57TMC2    O2  881   0.251   3.688  13.986 -0.1354  0.4212 -0.2340
   57TMC2    O5  882   0.365   3.803  13.821  0.1609 -0.2497  0.5051
   57TMC2    H5  883   0.341   3.860  13.744 -1.0087  0.1876  1.1990
   58MPD2     C  884   4.166   3.983  14.165 -0.5108 -0.0178 -0.1297
   58MPD2    C1  885   4.155   3.927  14.044  0.7473 -0.1103  0.6460
   58MPD2    C2  886   4.259   3.884  13.969 -0.6173 -0.0829  0.2613
   58MPD2    C3  887   4.383   3.906  14.018 -0.0618 -0.5051 -0.4884
   58MPD2    C4  888   4.402   3.962  14.149  0.3537  0.1735  0.6380
   58MPD2    C5  889   4.295   4.001  14.215 -0.0408 -0.2687 -0.7039
   58MPD2     H  890   4.242   3.820  13.883 -1.6464 -1.4187  1.4568
   58MPD2    H1  891   4.500   3.971  14.195  1.9515  1.5359 -3.0736
   58MPD2    H2  892   4.082   4.007  14.230 -1.0412 -0.2507 -0.7322
   58MPD2    H3  893   4.305   4.053  14.309 -0.0151 -2.7796  0.6802
   58MPD2     N  894   4.504   3.863  13.951  0.4522  0.8622  0.0832
   58MPD2    H5  895   4.593   3.881  13.996  1.4473 -1.8927 -0.7897
   58MPD2    N1  896   4.034   3.903  13.977 -0.6614 -0.4722 -0.5685
   58MPD2    H7  897   4.034   3.834  13.903  3.1247 -0.6298 -0.4174
   59MPD2     C  898   2.038   3.581  13.197 -0.3615 -0.8139  0.2489
   59MPD2    C1  899   2.155   3.565  13.138  0.1717 -0.2141 -0.8808
   59MPD2    C2  900   2.268   3.590  13.206  0.4550 -0.1748  0.3905
   59MPD2    C3  901   2.273   3.643  13.330  0.8998  0.2796  0.3664
   59MPD2    C4  902   2.145   3.649  13.389 -0.1395  0.0790 -0.4370
   59MPD2    C5  903   2.031   3.621  13.318  0.4462 -0.6796  0.1934
   59MPD2     H  904   2.365   3.571  13.163  0.3034 -1.8094  0.7785
   59MPD2    H1  905   2.137   3.690  13.489 -2.9918  2.6102 -1.7031
   59MPD2    H2  906   1.945   3.563  13.143 -0.4482  0.7800 -0.1259
   59MPD2    H3  907   1.938   3.625  13.373  0.4105 -1.5115  0.2013
   59MPD2     N  908   2.389   3.673  13.404 -0.4146  0.0915  0.3280
   59MPD2    H5  909   2.372   3.700  13.500 -1.0881 -1.0219  0.5220
   59MPD2    N1  910   2.154   3.511  13.005  0.0297 -0.4319  0.5179
   59MPD2    H7  911   2.065   3.477  12.971 -0.6933  2.1434 -0.1726
   60TCq2    C1  912   2.263   3.507  12.915  0.2509  1.0156  0.4475
   60TCq2    O2  913   2.375   3.556  12.936  0.2115 -0.4996  0.1589
   60TCq2    C2  914   2.231   3.432  12.798 -0.0250 -0.1892  0.5866
   60TCq2    C3  915   2.135   3.338  12.803  0.2899 -0.1157 -0.4344
   60TCq2    C4  916   2.146   3.242  12.697 -0.6004  0.0241  0.6942
   60TCq2    C5  917   2.241   3.260  12.601  0.5300  0.4720 -0.5431
   60TCq2    C6  918   2.333   3.360  12.606  0.2304  0.0018 -0.0035
   60TCq2    C7  919   2.331   3.447  12.708  0.0032 -1.1261 -0.5112
   60TCq2    C8  920   2.357   3.404  12.471  0.0832 -0.5013 -0.1391
   60TCq2    O4  921   2.391   3.319  12.390 -0.1996 -0.6852 -0.1836
   60TCq2    C9  922   2.066   3.129  12.699  0.5014  0.1920  0.6360
   60TCq2    O5  923   2.076   3.053  12.599  0.5424 -0.4060 -0.0925
   60TCq2    O6  924   1.980   3.113  12.791  0.6522  0.3779  0.0923
   60TCq2    H2  925   2.059   3.325  12.879  0.5593  2.1419  0.2150
   60TCq2    H3  926   2.245   3.191  12.517 -2.3930  0.7186 -0.9025
   60TCq2    H4  927   2.378   3.545  12.704  0.4754 -1.2972  1.2068
   61MPD2     C  928   1.809   0.072  14.119 -0.4718 -0.2539  0.2068
   61MPD2    C1  929   1.721   0.107  14.223 -0.3063 -0.4401  0.1721
   61MPD2    C2  930   1.673   0.234  14.224  0.7124 -0.0856  0.8400
   61MPD2    C3  931   1.712   0.327  14.128  0.3374 -0.4761 -0.4051
   61MPD2    C4  932   1.795   0.286  14.025 -0.1352  0.0249  0.1731
   61MPD2    C5  933   1.834   0.157  14.016  0.7215 -0.2646 -0.6473
   61MPD2     H  934   1.597   0.266  14.295 -3.8957 -3.6414 -2.4943
   61MPD2    H1  935   1.827   0.356  13.948  1.7407  0.9558  1.8097
   61MPD2    H2  936   1.859   4.699  14.124 -1.4504 -0.7499  0.4921
   61MPD2    H3  937   1.897   0.139  13.930  0.9095 -0.8353 -0.3913
   61MPD2     N  938   1.685   0.465  14.140 -0.2760  0.0647 -0.5440
   61MPD2    H5  939   1.740   0.528  14.082 -0.4001 -0.5593 -1.3507
   61MPD2    N1  940   1.689   0.025  14.336  0.0934 -0.0915 -0.2530
   61MPD2    H7  941   1.647   0.069  14.417 -1.6490  1.2123 -1.8426
   62TCq2    C1  942   1.731   4.618  14.367 -0.4360 -0.6403 -0.7208
   62TCq2    O2  943   1.819   4.550  14.313  0.0275 -0.0965 -0.6965
   62TCq2    C2  944   1.680   4.574  14.493 -0.7731 -0.5432 -0.3339
   62TCq2    C3  945   1.759   4.490  14.563 -0.1681  0.4515 -0.0908
   62TCq2    C4  946   1.753   4.480  14.698 -0.3949  0.7690 -0.7815
   62TCq2    C5  947   1.670   4.561  14.761  0.1313 -0.3931 -0.1832
   62TCq2    C6  948   1.590   4.643  14.685  0.1802 -0.4194 -0.8745
   62TCq2    C7  949   1.589   4.652  14.554 -0.2859  0.4311 -0.0472
   62TCq2    C8  950   1.497   0.022  14.747 -0.0147 -0.3336 -0.4302
   62TCq2    O4  951   1.447   0.108  14.676  0.2232  0.1662  0.4511
   62TCq2    C9  952   1.854   4.405  14.760  0.3019 -0.0545 -0.6472
   62TCq2    O5  953   1.917   4.319  14.695 -0.2887  0.1502 -0.6661
   62TCq2    O6  954   1.899   4.464  14.861 -0.0160  0.0113 -0.3233
   62TCq2    H2  955   1.839   4.433  14.517 -1.3918 -1.5739  0.2685
   62TCq2    H3  956   1.663   4.557  14.869  1.5953  1.6574 -0.0082
   62TCq2    H4  957   1.516   4.711  14.498  0.1131  2.5795  1.7211
   63TMC2    C1  958   0.825   0.510  10.139 -0.5114  0.2635 -0.2883
   63TMC2    C2  959   0.946   0.461  10.171 -0.5032  0.0357  0.1929
   63TMC2    C3  960   1.047   0.547  10.146 -0.1148  0.2485 -0.8191
   63TMC2    C4  961   0.800   0.632  10.093 -0.2120 -0.4270  0.0192
   63TMC2    C5  962   0.906   0.719  10.086 -0.0993 -0.4964  0.4762
   63TMC2    C6  963   1.030   0.676  10.110 -0.5184  0.1023  0.0486
   63TMC2     C  964   0.707   0.421  10.158 -0.0806 -0.4775 -0.6893
   63TMC2     O  965   0.614   0.457  10.082 -0.4767 -0.0146 -0.1550
   63TMC2     H  966   0.960   0.355  10.189 -2.0130 -0.0433  0.8720
   63TMC2    H1  967   0.705   0.653  10.047 -0.6036  2.1332  1.9613
   63TMC2    H2  968   1.121   0.735  10.110  0.6116 -1.6425 -0.5885
   63TMC2    C7  969   0.909   0.856  10.038 -0.3210  0.1161 -0.0413
   63TMC2    C8  970   1.179   0.506  10.186 -0.5168 -0.3669  0.7674
   63TMC2    O1  971   1.015   0.915  10.023  0.0003  0.1733  0.4191
   63TMC2    O2  972   1.190   0.399  10.243 -0.2970 -0.1261 -0.1232
   63TMC2    O5  973   1.273   0.547  10.093  0.0059  0.3158 -0.2536
   63TMC2    H5  974   1.236   0.594  10.015 -2.0043  0.9290  1.0555
   64MPD2     C  975   0.524   4.665  10.260 -0.8752  0.6930 -0.0684
   64MPD2    C1  976   0.640   4.687  10.332  0.0361 -0.5806 -0.1329
   64MPD2    C2  977   0.698   0.088  10.319  0.0174 -0.6492 -0.2799
   64MPD2    C3  978   0.648   0.195  10.252  0.0023  0.2376 -0.8053
   64MPD2    C4  979   0.539   0.166  10.175  0.5660 -0.1471  0.1247
   64MPD2    C5  980   0.479   0.044  10.178 -0.0406 -0.0046 -0.3490
   64MPD2     H  981   0.789   0.104  10.376 -0.3130  0.5495 -0.0973
   64MPD2    H1  982   0.490   0.241  10.114 -0.9679  0.6225  2.2782
   64MPD2    H2  983   0.487   4.565  10.242 -0.1878  0.2230  1.0992
   64MPD2    H3  984   0.397   0.036  10.109 -0.6313  1.0154  0.2307
   64MPD2     N  985   0.727   0.315  10.243 -0.0682 -0.2358 -0.3923
   64MPD2    H5  986   0.814   0.322  10.296 -0.8129  0.1612  0.7760
   64MPD2    N1  987   0.707   4.589  10.418 -0.4018  0.0171 -0.2187
   64MPD2    H7  988   0.787   4.627  10.468 -0.2999  0.8763 -1.0495
   65MPD2     C  989   2.093   4.322  15.890 -0.2344  0.0190 -0.6325
   65MPD2    C1  990   2.117   4.309  15.755 -0.6809  0.4138  0.1673
   65MPD2    C2  991   2.095   4.186  15.691 -0.4706 -0.0301  0.4587
   65MPD2    C3  992   2.059   4.072  15.764 -0.1232  0.0586 -0.2790
   65MPD2    C4  993   2.030   4.088  15.897 -1.1688 -0.5166  0.7126
   65MPD2    C5  994   2.046   4.210  15.961 -0.1241  0.2226 -0.5404
   65MPD2     H  995   2.114   4.181  15.584  1.2464  0.9271  0.7119
   65MPD2    H1  996   1.999   4.000  15.951  0.3389  0.4015  3.0739
   65MPD2    H2  997   2.118   4.412  15.945 -1.0823  0.3850 -0.8412
   65MPD2    H3  998   2.015   4.216  16.064 -2.5219  0.2529 -1.2688
   65MPD2     N  999   2.042   3.942  15.708  0.8354 -0.3991 -0.5650
   65MPD2    H5 1000   2.016   3.870  15.775  1.2633 -0.1141 -0.0894
   65MPD2    N1 1001   2.167   4.406  15.672 -0.0435 -0.6479 -0.0095
   65MPD2    H7 1002   2.204   4.366  15.586 -2.7369  0.5564 -1.7369
   66TCq2    C1 1003   2.169   4.544  15.690  0.2343 -0.7656  0.0616
   66TCq2    O2 1004   2.101   4.602  15.774  0.5201 -0.2436  0.7237
   66TCq2    C2 1005   2.191   4.621  15.569 -0.0535 -0.3881 -0.1627
   66TCq2    C3 1006   2.280   4.577  15.478 -0.5463  0.0275  0.4225
   66TCq2    C4 1007   2.272   4.640  15.356 -0.6759  0.0698  0.1396
   66TCq2    C5 1008   2.200   0.033  15.338  0.8634  0.0846 -0.1567
   66TCq2    C6 1009   2.123   0.074  15.438  0.8521 -0.8753  0.9732
   66TCq2    C7 1010   2.108   0.006  15.554  0.3833  0.2674 -0.5387
   66TCq2    C8 1011   2.042   0.189  15.404 -0.3675 -0.0231 -0.2183
   66TCq2    O4 1012   2.048   0.230  15.288  0.2306 -0.2045 -0.3917
   66TCq2    C9 1013   2.348   4.594  15.246 -0.2913  0.4084  0.6640
   66TCq2    O5 1014   2.425   4.500  15.265  0.5556  0.0768 -0.0741
   66TCq2    O6 1015   2.320   4.643  15.135 -0.0942 -0.1705  0.3292
   66TCq2    H2 1016   2.343   4.490  15.481  0.0659  0.4466 -0.4419
   66TCq2    H3 1017   2.208   0.080  15.241 -1.3920 -0.6869 -0.7076
   66TCq2    H4 1018   2.038   0.034  15.632  0.4981  0.3093 -0.4511
   67MPD2     C 1019   2.274   3.439  14.657 -0.8057  0.0081  0.1079
   67MPD2    C1 1020   2.234   3.560  14.608  0.1494  0.4053 -0.9622
   67MPD2    C2 1021   2.142   3.563  14.502 -0.3649  0.5911 -0.0702
   67MPD2    C3 1022   2.081   3.451  14.451 -0.4337  0.3046  0.3121
   67MPD2    C4 1023   2.131   3.327  14.499 -0.3920  0.4179  0.1533
   67MPD2    C5 1024   2.218   3.324  14.605  0.0117 -0.2024 -0.3053
   67MPD2     H 1025   2.119   3.661  14.461  0.4301  1.5643  1.8039
   67MPD2    H1 1026   2.086   3.238  14.456 -0.0324  1.2958 -1.9954
   67MPD2    H2 1027   2.347   3.427  14.737 -2.9717 -0.1865  2.0376
   67MPD2    H3 1028   2.241   3.223  14.635 -0.0736 -0.1813 -0.1652
   67MPD2     N 1029   1.981   3.442  14.351 -0.0995  0.0327  0.1822
   67MPD2    H5 1030   1.959   3.351  14.312  1.9662 -0.5819  0.4737
   67MPD2    N1 1031   2.280   3.680  14.658 -0.3090  0.1448 -0.1398
   67MPD2    H7 1032   2.250   3.764  14.609 -0.9949  0.9463  1.6841
   68TCq2    C1 1033   2.377   3.691  14.755  0.3924 -0.4901  0.1742
   68TCq2    O2 1034   2.436   3.607  14.819  0.0601 -0.3149 -0.2920
   68TCq2    C2 1035   2.423   3.828  14.782 -0.3796 -0.0357 -0.1823
   68TCq2    C3 1036   2.347   3.935  14.780  0.3728 -0.0141  0.0008
   68TCq2    C4 1037   2.387   4.057  14.840 -0.2162  0.8880  0.0812
   68TCq2    C5 1038   2.512   4.061  14.901 -0.4553 -0.1195  0.1023
   68TCq2    C6 1039   2.595   3.954  14.890  0.3489  0.0012 -0.2636
   68TCq2    C7 1040   2.557   3.841  14.830  0.5194 -0.1130 -0.0348
   68TCq2    C8 1041   2.709   3.942  14.979 -0.0225 -0.4502 -0.0028
   68TCq2    O4 1042   2.807   3.878  14.935 -0.0577 -0.1796  0.0845
   68TCq2    C9 1043   2.295   4.167  14.846  0.2946  0.5801 -0.2356
   68TCq2    O5 1044   2.197   4.167  14.762 -0.2970 -0.0621 -0.0259
   68TCq2    O6 1045   2.316   4.253  14.931 -0.1674 -0.4946 -0.1952
   68TCq2    H2 1046   2.245   3.933  14.744  0.5090 -2.7890 -0.2233
   68TCq2    H3 1047   2.532   4.154  14.954  0.1097  0.5336 -1.2602
   68TCq2    H4 1048   2.621   3.754  14.840  0.6959  0.2449  1.8843
   69TMC2    C1 1049   3.941   0.905  12.364  0.3957 -0.3041  0.5342
   69TMC2    C2 1050   3.859   1.009  12.351 -0.0074 -0.2130  0.0743
   69TMC2    C3 1051   3.878   1.103  12.258 -0.3029  0.3767  0.2918
   69TMC2    C4 1052   4.030   0.874  12.267  0.2419  0.3966  0.6021
   69TMC2    C5 1053   4.045   0.963  12.174  0.1611 -0.2174 -0.6875
   69TMC2    C6 1054   3.973   1.079  12.167 -0.3462  0.2876  0.0005
   69TMC2     C 1055   3.962   0.854  12.495 -0.7287 -0.7596  0.1538
   69TMC2     O 1056   3.860   0.838  12.568  0.1987 -0.3294  0.5559
   69TMC2     H 1057   3.789   1.029  12.431  0.6684  0.3370  0.5296
   69TMC2    H1 1058   4.104   0.795  12.276  1.4034  1.5452  1.1381
   69TMC2    H2 1059   3.991   1.150  12.086 -3.7662  1.6079  0.3922
   69TMC2    C7 1060   4.172   0.950  12.112 -0.4539 -0.3196  0.3836
   69TMC2    C8 1061   3.815   1.234  12.260 -0.5334 -0.5255 -0.0483
   69TMC2    O1 1062   4.261   0.917  12.189 -0.0362  0.3927  0.0642
   69TMC2    O2 1063   3.846   1.325  12.186 -0.1570  0.1893  0.0243
   69TMC2    O5 1064   3.695   1.223  12.321 -0.4542 -0.3981  0.0277
   69TMC2    H5 1065   3.684   1.134  12.359 -0.6574  0.1821  1.3226
   70MPD2     C 1066   4.288   0.745  12.654 -0.2288 -0.4037 -0.4886
   70MPD2    C1 1067   4.155   0.777  12.646 -0.5805  0.1162  0.0798
   70MPD2    C2 1068   4.076   0.732  12.751 -0.5689 -0.3954 -0.0313
   70MPD2    C3 1069   4.126   0.655  12.861  0.3514  0.5977  0.6223
   70MPD2    C4 1070   4.262   0.645  12.868  0.8141  0.0748 -0.0123
   70MPD2    C5 1071   4.337   0.679  12.763  0.0843 -0.1518 -0.1435
   70MPD2     H 1072   3.968   0.734  12.742 -0.6646 -0.4384  1.1843
   70MPD2    H1 1073   4.312   0.594  12.949  1.2074 -0.9090 -0.8833
   70MPD2    H2 1074   4.355   0.747  12.569  4.0165 -0.6809  2.8512
   70MPD2    H3 1075   4.443   0.657  12.771  0.2091  0.7733  0.9033
   70MPD2     N 1076   4.055   0.590  12.959  0.1820 -0.0626 -0.5125
   70MPD2    H5 1077   4.107   0.548  13.035 -0.6127 -1.9627 -1.0140
   70MPD2    N1 1078   4.100   0.837  12.528  0.3074 -0.7339  0.1915
   70MPD2    H7 1079   4.164   0.857  12.452  0.6273 -2.8851 -0.1259
   71TMC2    C1 1080   1.549   0.097   1.465  0.4688 -0.3531  0.2761
   71TMC2    C2 1081   1.620   0.042   1.566  0.0991 -0.5724 -0.3031
   71TMC2    C3 1082   1.549   4.709   1.668 -0.4485  0.8619 -0.7466
   71TMC2    C4 1083   1.410   0.088   1.454  0.1929  0.1688 -0.1467
   71TMC2    C5 1084   1.343   0.048   1.566 -0.3807 -0.4262  0.4089
   71TMC2    C6 1085   1.412   4.712   1.674 -0.1175  0.0407  0.5914
   71TMC2     C 1086   1.611   0.198   1.380 -0.4143 -0.9391  0.3478
   71TMC2     O 1087   1.536   0.284   1.334 -0.1544  0.0412 -0.3920
   71TMC2     H 1088   1.725   0.070   1.573  0.1053 -1.0056  1.2787
   71TMC2    H1 1089   1.366   0.126   1.362 -0.6243  0.2952  0.2891
   71TMC2    H2 1090   1.361   4.655   1.750  0.3996 -1.3331 -0.1065
   71TMC2    C7 1091   1.198   0.043   1.556  0.2352 -0.0266  0.2227
   71TMC2    C8 1092   1.629   4.621   1.756  0.0447 -0.0672  0.3397
   71TMC2    O1 1093   1.152   4.680   1.630 -0.0351 -0.0162 -0.6884
   71TMC2    O2 1094   1.731   4.566   1.727 -0.0080 -0.3472  0.5528
   71TMC2    O5 1095   1.567   4.629   1.872  0.0388 -0.1052  0.2390
   71TMC2    H5 1096   1.499   4.698   1.884  0.1395 -0.0732  0.6336
   72MPD2     C 1097   1.939   0.379   1.018  0.6050 -0.2127 -0.1259
   72MPD2    C1 1098   1.831   0.433   1.084 -0.5950 -0.2476  0.5367
   72MPD2    C2 1099   1.766   0.364   1.183 -0.2639 -0.5658 -0.6254
   72MPD2    C3 1100   1.808   0.236   1.230  0.3533 -0.2647  0.4959
   72MPD2    C4 1101   1.917   0.189   1.163 -0.0100  0.2405  0.3165
   72MPD2    C5 1102   1.976   0.247   1.054 -0.0704  0.0873  0.1191
   72MPD2     H 1103   1.683   0.413   1.232 -0.6636 -1.3100 -0.5512
   72MPD2    H1 1104   1.960   0.090   1.176 -1.8592 -0.4237  1.2889
   72MPD2    H2 1105   1.994   0.425   0.937  2.2077 -0.0004  1.0675
   72MPD2    H3 1106   2.058   0.191   1.011  0.4310  0.8282  0.1174
   72MPD2     N 1107   1.735   0.160   1.335  0.1109 -0.0863 -0.5155
   72MPD2    H5 1108   1.781   0.077   1.371  0.8540  1.3501  1.8607
   72MPD2    N1 1109   1.780   0.563   1.052 -0.3456 -1.0347  0.4462
   72MPD2    H7 1110   1.691   0.593   1.088  0.3290 -1.0411  2.1467
   73TMC2    C1 1111   1.689   2.845  14.116  0.1242 -0.4464 -0.6525
   73TMC2    C2 1112   1.761   2.731  14.105 -0.6559 -0.1738 -0.6771
   73TMC2    C3 1113   1.873   2.718  14.183  0.4771  0.0001 -1.0079
   73TMC2    C4 1114   1.717   2.936  14.215  0.3493  0.0731 -0.3031
   73TMC2    C5 1115   1.831   2.926  14.290  0.4526 -0.3344 -0.3653
   73TMC2    C6 1116   1.910   2.816  14.267 -0.0111 -0.2419 -0.2902
   73TMC2     C 1117   1.621   2.902  13.999  0.3464  0.1634  0.7911
   73TMC2     O 1118   1.614   3.024  14.000  0.0688  0.1261  0.3139
   73TMC2     H 1119   1.735   2.653  14.034  1.5678 -0.7577 -0.8386
   73TMC2    H1 1120   1.661   3.027  14.234  1.2484  0.6434 -0.3762
   73TMC2    H2 1121   2.004   2.811  14.321 -0.5412  0.2584  0.6757
   73TMC2    C7 1122   1.912   3.047  14.272 -0.6312 -0.0486 -0.4934
   73TMC2    C8 1123   1.944   2.595  14.202  0.4650  0.1415 -0.6389
   73TMC2    O1 1124   2.014   3.062  14.343 -0.3122  0.0969 -0.2881
   73TMC2    O2 1125   1.987   2.560  14.312 -0.2324  0.2621 -0.1861
   73TMC2    O5 1126   1.969   2.534  14.085 -0.3842  0.2458  0.5027
   73TMC2    H5 1127   1.947   2.592  14.009  1.6140  1.1129  0.6041
   74MPD2     C 1128   1.489   2.851  13.515  0.2750 -0.5028 -0.6118
   74MPD2    C1 1129   1.560   2.955  13.579 -0.0644  0.5186  0.0580
   74MPD2    C2 1130   1.579   2.943  13.715  0.5302 -0.7211 -0.3328
   74MPD2    C3 1131   1.528   2.834  13.777 -0.5033  0.1086  0.2831
   74MPD2    C4 1132   1.457   2.730  13.715  0.2397 -0.6761 -0.0521
   74MPD2    C5 1133   1.438   2.746  13.580 -0.3171  0.3444  0.4791
   74MPD2     H 1134   1.636   3.010  13.778  1.3179 -1.3589 -0.3499
   74MPD2    H1 1135   1.422   2.639  13.762 -0.7129  0.3400  1.1620
   74MPD2    H2 1136   1.464   2.851  13.409  1.8869 -0.1257 -0.9942
   74MPD2    H3 1137   1.386   2.665  13.529 -1.1523  0.4178  1.2165
   74MPD2     N 1138   1.562   2.811  13.907  0.0233  0.2068 -0.3241
   74MPD2    H5 1139   1.533   2.719  13.940  0.5419  0.7900  1.7198
   74MPD2    N1 1140   1.607   3.063  13.500  0.4481  0.4320 -0.3957
   74MPD2    H7 1141   1.580   3.059  13.402 -0.8485  1.9375 -0.1077
   75TCq2    C1 1142   1.917   3.551  14.295  0.0825  0.5147  0.0248
   75TCq2    O2 1143   1.954   3.670  14.304 -0.3183 -0.4261 -0.5435
   75TCq2    C2 1144   1.811   3.509  14.201  0.3653  0.1674 -0.3349
   75TCq2    C3 1145   1.724   3.407  14.240  0.3226 -0.3128  0.1255
   75TCq2    C4 1146   1.629   3.363  14.147 -0.2108  0.3611  0.6004
   75TCq2    C5 1147   1.611   3.422  14.024 -0.5345 -0.3563  0.2489
   75TCq2    C6 1148   1.690   3.533  13.997  0.4603 -0.3681  0.0563
   75TCq2    C7 1149   1.796   3.570  14.078 -0.0165  0.1719 -0.0497
   75TCq2    C8 1150   1.647   3.623  13.889 -0.0863  0.4398  0.0925
   75TCq2    O4 1151   1.566   3.579  13.807  0.2888 -0.3048 -0.1825
   75TCq2    C9 1152   1.530   3.264  14.186 -0.5405  0.1674 -0.4492
   75TCq2    O5 1153   1.418   3.278  14.128 -0.1467 -0.1195  0.4417
   75TCq2    O6 1154   1.534   3.228  14.307 -0.5462 -0.5212  0.5355
   75TCq2    H2 1155   1.720   3.376  14.344  0.9916  3.8951  1.4177
   75TCq2    H3 1156   1.521   3.399  13.969  0.2189  2.6662 -2.2038
   75TCq2    H4 1157   1.848   3.659  14.045 -1.4026  1.0468  0.0923
   76MPD2     C 1158   0.394   0.316  12.360 -0.0216  0.5801 -1.0417
   76MPD2    C1 1159   0.366   0.290  12.227  0.2765  0.3375  0.8052
   76MPD2    C2 1160   0.412   0.169  12.179 -0.3161  0.5670 -0.1492
   76MPD2    C3 1161   0.462   0.064  12.258 -0.1335  0.0140 -0.2615
   76MPD2    C4 1162   0.500   0.102  12.385  0.6446  0.4052  0.0800
   76MPD2    C5 1163   0.465   0.221  12.431  0.0746  0.6927 -0.2625
   76MPD2     H 1164   0.405   0.153  12.072 -1.9854 -0.4892  0.1220
   76MPD2    H1 1165   0.551   0.034  12.452 -2.0630  1.5350  3.3329
   76MPD2    H2 1166   0.357   0.405  12.410 -0.2475 -1.4352  2.3359
   76MPD2    H3 1167   0.485   0.251  12.533  4.2943 -2.6105 -0.0804
   76MPD2     N 1168   0.492   4.656  12.205  0.3421  0.0756  0.0547
   76MPD2    H5 1169   0.544   4.598  12.270 -0.5417 -0.4496  0.2978
   76MPD2    N1 1170   0.306   0.370  12.131  0.3107  0.1958  0.4183
   76MPD2    H7 1171   0.305   0.344  12.033 -0.2855 -1.2742  0.8186
   77TCq2    C1 1172   0.463   4.616  12.075 -0.3845  0.0519 -0.1624
   77TCq2    O2 1173   0.387   4.661  11.987 -0.2567 -0.0420 -0.2711
   77TCq2    C2 1174   0.533   4.494  12.041  0.7430 -0.1744  0.1160
   77TCq2    C3 1175   0.486   4.418  11.941  0.3341  0.1146 -0.2195
   77TCq2    C4 1176   0.561   4.312  11.905 -0.1704  0.9591  0.3967
   77TCq2    C5 1177   0.680   4.284  11.963 -0.5507 -0.0674  0.8009
   77TCq2    C6 1178   0.730   4.364  12.061 -0.2890 -0.2132  0.3616
   77TCq2    C7 1179   0.652   4.472  12.114 -0.1403  0.2164  0.2988
   77TCq2    C8 1180   0.824   4.310  12.160  0.6703  0.1207  0.5607
   77TCq2    O4 1181   0.861   4.397  12.239  0.2607  0.2908 -0.1318
   77TCq2    C9 1182   0.513   4.210  11.812 -0.6814 -0.1574  0.0320
   77TCq2    O5 1183   0.571   4.098  11.810  0.3837 -1.0836 -0.0468
   77TCq2    O6 1184   0.406   4.231  11.753  0.2612  0.1524  0.2998
   77TCq2    H2 1185   0.385   4.426  11.903 -0.2218 -0.8882  1.0435
   77TCq2    H3 1186   0.741   4.198  11.937 -0.6366 -0.4944  2.0092
   77TCq2    H4 1187   0.687   4.537  12.193  0.3770 -0.8158  0.9144
   78MPD1     C 1188   0.686   0.597   1.337  0.0925 -0.0387 -0.0653
   78MPD1    C1 1189   0.674   0.508   1.438  0.2657  0.7788  0.2146
   78MPD1    C2 1190   0.783   0.469   1.510 -0.7018  0.1799  0.0291
   78MPD1    C3 1191   0.909   0.515   1.482 -0.3442 -0.0216  1.4743
   78MPD1    C4 1192   0.926   0.580   1.363  1.2439 -0.0194  0.1050
   78MPD1    C5 1193   0.820   0.622   1.291 -0.0691  0.4907 -0.0068
   78MPD1     H 1194   0.768   0.404   1.596  1.7287  0.2762  0.5380
   78MPD1    H1 1195   1.027   0.606   1.333  1.0765  0.2049 -0.2557
   78MPD1    H2 1196   0.597   0.625   1.282  0.6866  0.6887 -0.6661
   78MPD1    H3 1197   0.841   0.678   1.201  1.9942  1.8442  1.3170
   78MPD1     N 1198   1.026   0.480   1.555  0.0207  0.0604  0.0944
   78MPD1    H5 1199   1.117   0.496   1.513  0.5951  2.1353  2.1615
   78MPD1    N1 1200   0.543   0.476   1.479 -0.2741 -0.1311 -0.2809
   78MPD1    H6 1201   0.550   0.383   1.520  2.7287  0.7462  1.1877
   78MPD1    H7 1202   0.470   0.463   1.409 -0.9705  0.9123  0.2587
   79TCq2    C1 1203   1.018   0.431   1.684 -0.7064 -0.0818 -0.4760
   79TCq2    O2 1204   0.922   0.403   1.761  0.0923  0.0272  0.1206
   79TCq2    C2 1205   1.149   0.375   1.729 -0.6313 -0.3065  0.4531
   79TCq2    C3 1206   1.154   0.270   1.813 -0.6140  0.3473 -0.1148
   79TCq2    C4 1207   1.269   0.227   1.857  0.2471 -0.6001 -0.2654
   79TCq2    C5 1208   1.392   0.283   1.834  0.3972 -0.3897  0.0527
   79TCq2    C6 1209   1.390   0.388   1.747  0.2095  0.5184  0.0603
   79TCq2    C7 1210   1.270   0.437   1.695 -0.8502  0.6364 -0.1397
   79TCq2    C8 1211   1.514   0.453   1.713 -0.7056  0.3286 -0.1548
   79TCq2    O4 1212   1.611   0.383   1.735  0.1689  0.6072  0.2241
   79TCq2    C9 1213   1.273   0.112   1.949  0.2461 -0.2053  0.3002
   79TCq2    O5 1214   1.169   0.076   2.012  0.1842  0.2313 -0.2894
   79TCq2    O6 1215   1.385   0.055   1.959 -0.7952 -0.3374  0.5221
   79TCq2    H2 1216   1.065   0.213   1.836  0.5432 -1.0857  0.7448
   79TCq2    H3 1217   1.486   0.248   1.876  0.5837 -2.1638 -1.8450
   79TCq2    H4 1218   1.276   0.516   1.621  1.2181  1.5293  0.9662
   80MPD2     C 1219   3.704   4.504  12.725 -0.0020  0.5244 -0.4734
   80MPD2    C1 1220   3.801   4.550  12.636 -0.8433  0.3073  0.1378
   80MPD2    C2 1221   3.766   4.589  12.505 -0.2380 -0.1335 -0.0177
   80MPD2    C3 1222   3.637   4.576  12.460  0.5292  0.4141 -0.3736
   80MPD2    C4 1223   3.541   4.529  12.546 -0.4791  0.0662  1.0539
   80MPD2    C5 1224   3.578   4.495  12.679  0.6806 -0.2357  0.1938
   80MPD2     H 1225   3.844   4.621  12.437  2.0959 -3.8074  0.8810
   80MPD2    H1 1226   3.440   4.504  12.518  1.2579 -2.9041 -2.6597
   80MPD2    H2 1227   3.722   4.473  12.827 -0.2197 -0.7213 -0.8124
   80MPD2    H3 1228   3.496   4.472  12.746 -1.4346 -0.5286 -2.4970
   80MPD2     N 1229   3.590   4.606  12.331  0.4064 -0.3116 -0.0291
   80MPD2    H5 1230   3.492   4.582  12.316  0.5174 -0.1730 -1.0149
   80MPD2    N1 1231   3.935   4.577  12.663  0.7163 -0.8617 -0.2911
   80MPD2    H7 1232   4.002   4.592  12.588 -0.6275 -0.3078 -1.3764
   81TCq2    C1 1233   3.984   4.566  12.789  0.4940  0.1515  0.1351
   81TCq2    O2 1234   3.921   4.541  12.891  0.1442  0.0593  0.3467
   81TCq2    C2 1235   4.123   4.603  12.797 -0.2945  0.1347  0.3896
   81TCq2    C3 1236   4.183   4.582  12.919 -0.6302 -0.0738 -0.2227
   81TCq2    C4 1237   4.320   4.599  12.927  0.1445 -0.1663 -0.0745
   81TCq2    C5 1238   4.393   4.630  12.820 -0.7755 -0.5863  0.5187
   81TCq2    C6 1239   4.336   4.667  12.702  0.2253 -0.1562 -0.6025
   81TCq2    C7 1240   4.203   4.651  12.689 -0.1412  0.5700 -0.3571
   81TCq2    C8 1241   4.426   4.654  12.583  0.5298 -0.8334  0.1910
   81TCq2    O4 1242   4.541   4.688  12.610 -0.3605 -0.4168 -0.4985
   81TCq2    C9 1243   4.389   4.583  13.053  0.5063  0.6976 -0.0026
   81TCq2    O5 1244   4.510   4.626  13.058 -0.0681 -0.2285 -0.6651
   81TCq2    O6 1245   4.318   4.553  13.152 -0.3746  1.0325 -0.0900
   81TCq2    H2 1246   4.134   4.567  13.015 -1.7077  0.8343 -0.6241
   81TCq2    H3 1247   4.499   4.643  12.836 -0.7873  0.4687 -0.2508
   81TCq2    H4 1248   4.157   4.686  12.597  1.3074  0.8700 -0.9688
   82MPD2     C 1249   2.584   3.631  11.239  0.7074 -0.1331  0.0675
   82MPD2    C1 1250   2.615   3.572  11.123  0.4686 -0.0995  0.3175
   82MPD2    C2 1251   2.716   3.480  11.124 -0.6192  0.3131 -0.1271
   82MPD2    C3 1252   2.765   3.427  11.247  0.0040  0.5678 -0.1021
   82MPD2    C4 1253   2.728   3.487  11.363 -0.0990  0.0914  0.3521
   82MPD2    C5 1254   2.638   3.589  11.354 -0.5083  0.0855 -0.2948
   82MPD2     H 1255   2.750   3.447  11.026  0.8626  2.1324 -0.2269
   82MPD2    H1 1256   2.780   3.461  11.455  1.1650  1.0512 -0.0943
   82MPD2    H2 1257   2.496   3.693  11.249  1.6199  1.1242  0.2900
   82MPD2    H3 1258   2.607   3.643  11.443  2.3561  1.5718 -0.2000
   82MPD2     N 1259   2.880   3.348  11.253  0.4385 -0.5241 -0.0433
   82MPD2    H5 1260   2.928   3.333  11.342  0.8757 -0.0374 -0.2021
   82MPD2    N1 1261   2.551   3.621  11.008  0.0827 -0.4164  0.4718
   82MPD2    H7 1262   2.483   3.694  11.026  2.0146  0.8718  2.5184
   83TCq2    C1 1263   2.941   3.290  11.147 -0.3590  0.1397  0.0136
   83TCq2    O2 1264   2.923   3.301  11.023 -0.6367  0.1647  0.4678
   83TCq2    C2 1265   3.043   3.199  11.189  0.5195  0.0160 -0.4529
   83TCq2    C3 1266   3.131   3.236  11.287 -0.5672  0.3494 -0.1907
   83TCq2    C4 1267   3.175   3.135  11.368 -0.8847  1.2000 -0.5430
   83TCq2    C5 1268   3.147   3.003  11.344 -0.0412 -0.1967 -0.1313
   83TCq2    C6 1269   3.060   2.974  11.242 -0.2605 -0.4279 -0.4596
   83TCq2    C7 1270   3.009   3.073  11.164  0.0805 -0.8940  0.7167
   83TCq2    C8 1271   2.975   2.853  11.259  0.5298  0.3187  0.3672
   83TCq2    O4 1272   2.979   2.785  11.356 -0.1393 -0.4614  0.1342
   83TCq2    C9 1273   3.261   3.162  11.477 -0.0364  0.5226  1.1588
   83TCq2    O5 1274   3.255   3.279  11.530 -0.7624  0.0190 -0.2853
   83TCq2    O6 1275   3.314   3.055  11.523 -0.0381  0.4332  0.2678
   83TCq2    H2 1276   3.141   3.337  11.323  1.1909 -0.6444  2.1083
   83TCq2    H3 1277   3.198   2.922  11.396  1.2406  0.2301 -0.7277
   83TCq2    H4 1278   2.946   3.043  11.081  1.3381 -2.8563  0.4693
   84TCq2    C1 1279   4.001   2.883  10.824  0.4179 -0.8333 -0.7610
   84TCq2    O2 1280   3.917   2.815  10.882 -0.3665 -0.2386  0.3207
   84TCq2    C2 1281   4.118   2.933  10.902 -0.4503 -0.2220  0.2644
   84TCq2    C3 1282   4.218   3.008  10.843 -0.0021  0.5141 -0.1068
   84TCq2    C4 1283   4.324   3.042  10.921  0.1923  0.0522  0.7664
   84TCq2    C5 1284   4.352   2.980  11.038  0.3397 -0.2791  0.0108
   84TCq2    C6 1285   4.254   2.902  11.092  0.1891 -0.7617  0.1055
   84TCq2    C7 1286   4.137   2.875  11.028 -0.3594  1.2005  0.0365
   84TCq2    C8 1287   4.264   2.838  11.224  0.9955  0.5434 -0.2000
   84TCq2    O4 1288   4.161   2.799  11.277 -0.1897 -0.0254 -0.2425
   84TCq2    C9 1289   4.420   3.128  10.863  0.4159 -0.1223 -0.0046
   84TCq2    O5 1290   4.540   3.114  10.907  0.5442 -0.2440  0.1903
   84TCq2    O6 1291   4.399   3.175  10.748 -0.5005  0.3285  0.8193
   84TCq2    H2 1292   4.205   3.054  10.745  0.7157 -1.2259 -1.0255
   84TCq2    H3 1293   4.439   3.005  11.097 -2.0536  3.3290  2.0772
   84TCq2    H4 1294   4.064   2.811  11.077 -0.1052  1.8216  1.2425
   85MPD2     C 1295   4.105   0.606  16.453 -0.4158  0.0090  0.2227
   85MPD2    C1 1296   4.151   0.535  16.352  1.0109 -0.3756 -0.0476
   85MPD2    C2 1297   4.240   0.596  16.258  0.6330  0.7150 -0.4775
   85MPD2    C3 1298   4.275   0.733  16.276  0.1859  0.4490  0.2191
   85MPD2    C4 1299   4.232   0.794  16.388  0.1193 -0.1432  0.9192
   85MPD2    C5 1300   4.145   0.736  16.469  0.0622  0.2969 -0.1058
   85MPD2     H 1301   4.276   0.537  16.175  1.1194 -1.1956  1.0936
   85MPD2    H1 1302   4.259   0.897  16.408  1.8010 -0.3866 -0.1330
   85MPD2    H2 1303   4.043   0.565  16.532 -1.8235  1.1111 -0.2950
   85MPD2    H3 1304   4.106   0.784  16.557 -0.2032  0.8955 -0.5512
   85MPD2     N 1305   4.344   0.807  16.171 -0.1393  0.1650 -0.7887
   85MPD2    H5 1306   4.376   0.754  16.090 -2.4436 -1.0137 -0.9204
   85MPD2    N1 1307   4.106   0.400  16.347 -0.5120 -0.2674 -0.0689
   85MPD2    H7 1308   4.056   0.377  16.432  0.3160 -1.3599  0.1246
   86TCq2    C1 1309   4.377   0.943  16.162 -0.3402 -0.2328  0.0699
   86TCq2    O2 1310   4.326   1.038  16.226 -0.0262 -0.6824  0.2060
   86TCq2    C2 1311   4.446   0.980  16.036  0.6854  0.2273  0.0958
   86TCq2    C3 1312   4.419   1.106  15.983  0.4333  0.3364  0.0306
   86TCq2    C4 1313   4.506   1.148  15.887 -0.8838 -0.1798 -0.4295
   86TCq2    C5 1314   4.616   1.077  15.856  0.7746 -0.2364  0.1026
   86TCq2    C6 1315   4.642   0.959  15.913 -0.1447 -0.3591 -0.1786
   86TCq2    C7 1316   4.552   0.901  15.995  0.0588 -0.1726 -0.1551
   86TCq2    C8 1317   0.016   0.878  15.857 -0.1533 -0.1855 -0.2654
   86TCq2    O4 1318   0.048   0.793  15.938  0.7865 -0.7240 -0.6631
   86TCq2    C9 1319   4.495   1.276  15.826  0.0346 -0.5918 -0.5416
   86TCq2    O5 1320   4.459   1.367  15.908  0.0366  0.3869 -0.2679
   86TCq2    O6 1321   4.567   1.298  15.727 -0.4721  0.3575  0.3604
   86TCq2    H2 1322   4.332   1.168  16.000 -0.0697 -0.4988  0.5024
   86TCq2    H3 1323   4.690   1.120  15.789  1.2926  0.5751  1.2122
   86TCq2    H4 1324   4.576   0.813  16.054  2.7819 -1.0682 -2.6101
   87MPD2     C 1325   1.662   4.541   1.213  0.1165  0.0112  0.2182
   87MPD2    C1 1326   1.579   4.463   1.293  0.2310 -0.7290 -0.1299
   87MPD2    C2 1327   1.439   4.485   1.285 -0.1257  0.0887 -0.0003
   87MPD2    C3 1328   1.385   4.580   1.197 -0.9438 -0.1838 -0.5050
   87MPD2    C4 1329   1.474   4.653   1.117  0.3775  0.7133  0.1469
   87MPD2    C5 1330   1.610   4.632   1.124  0.6068  0.3574  0.8501
   87MPD2     H 1331   1.368   4.445   1.357 -1.0575  0.0377 -0.9513
   87MPD2    H1 1332   1.442   4.722   1.040 -1.7857 -0.2472  0.2035
   87MPD2    H2 1333   1.765   4.509   1.203  0.5146  1.0976  0.8402
   87MPD2    H3 1334   1.673   4.689   1.057  0.2545  1.6213  1.5738
   87MPD2     N 1335   1.244   4.602   1.174  0.3781 -0.1006 -0.1945
   87MPD2    H5 1336   1.211   4.686   1.127 -0.7317  0.2631  1.2242
   87MPD2    N1 1337   1.639   4.364   1.378  0.0918 -0.3306 -0.2313
   87MPD2    H7 1338   1.740   4.358   1.386  0.0913 -0.0395  0.0091
   88TCq2    C1 1339   1.565   4.286   1.474  0.3366 -0.0215  0.0000
   88TCq2    O2 1340   1.453   4.306   1.521 -0.8780  0.3251 -0.8435
   88TCq2    C2 1341   1.642   4.190   1.542 -0.6541 -0.7406  0.3911
   88TCq2    C3 1342   1.588   4.139   1.655  0.6604  0.1599  0.1049
   88TCq2    C4 1343   1.650   4.020   1.701 -0.2667  0.2009  0.5352
   88TCq2    C5 1344   1.770   3.972   1.647 -0.0624 -0.1445 -0.2906
   88TCq2    C6 1345   1.823   4.034   1.536 -0.1483  0.1123  0.2828
   88TCq2    C7 1346   1.755   4.140   1.478 -0.6324  0.1842 -0.0753
   88TCq2    C8 1347   1.946   3.986   1.478  0.0593 -0.3303 -0.1852
   88TCq2    O4 1348   1.991   4.051   1.383 -0.8398  0.4533  0.0898
   88TCq2    C9 1349   1.586   3.943   1.794 -0.5850 -0.5586  0.0279
   88TCq2    O5 1350   1.642   3.840   1.842  0.4792 -0.6308 -0.4399
   88TCq2    O6 1351   1.470   3.979   1.838  0.5267 -0.3364  0.0655
   88TCq2    H2 1352   1.489   4.165   1.688  0.4493  0.5342 -0.8094
   88TCq2    H3 1353   1.817   3.894   1.706  2.3247  1.5267  0.0184
   88TCq2    H4 1354   1.791   4.166   1.379  0.7751 -0.4518  0.2639
   89MPD2     C 1355   2.916   2.085   1.644 -0.0827 -0.1537 -0.4244
   89MPD2    C1 1356   2.822   2.146   1.722  0.5412  0.6875 -1.6098
   89MPD2    C2 1357   2.855   2.267   1.784  0.3399 -0.3141 -0.1733
   89MPD2    C3 1358   2.969   2.334   1.751 -0.7957 -0.3463 -0.8268
   89MPD2    C4 1359   3.065   2.269   1.674 -0.0158 -0.1477  0.4949
   89MPD2    C5 1360   3.031   2.146   1.614 -0.4842 -0.1506 -0.2189
   89MPD2     H 1361   2.778   2.320   1.839  0.4212  0.1384 -0.4876
   89MPD2    H1 1362   3.154   2.319   1.636 -0.8735  0.2971 -0.9290
   89MPD2    H2 1363   2.885   1.999   1.585  0.4305 -1.3817  1.0960
   89MPD2    H3 1364   3.096   2.100   1.541 -0.9213 -0.3993 -0.4549
   89MPD2     N 1365   2.984   2.469   1.796 -0.1877 -0.0001 -0.5110
   89MPD2    H5 1366   2.905   2.510   1.843 -0.6659 -0.0718 -1.2546
   89MPD2    N1 1367   2.694   2.087   1.750  0.3820  0.2196  0.1746
   89MPD2    H7 1368   2.623   2.145   1.793 -0.9971 -2.8885  2.0114
   90TCq2    C1 1369   3.096   2.543   1.783 -0.5904 -0.1493  0.1291
   90TCq2    O2 1370   3.202   2.520   1.726  0.3569 -0.2471  0.2240
   90TCq2    C2 1371   3.061   2.679   1.812 -0.0818 -0.5161 -0.5578
   90TCq2    C3 1372   2.959   2.704   1.896  0.4145 -0.4566  0.2635
   90TCq2    C4 1373   2.898   2.824   1.886  0.0509 -0.1988  0.7680
   90TCq2    C5 1374   2.933   2.921   1.787 -0.5529  0.7550 -0.3940
   90TCq2    C6 1375   3.046   2.890   1.712  0.1706  0.2952 -0.1848
   90TCq2    C7 1376   3.122   2.773   1.734 -0.0340  0.2073 -0.2146
   90TCq2    C8 1377   3.116   2.988   1.632 -0.4493  0.4300  0.3768
   90TCq2    O4 1378   3.218   2.949   1.580  0.6423 -0.0796 -0.4243
   90TCq2    C9 1379   2.787   2.851   1.974 -0.0108  1.1331  0.7557
   90TCq2    O5 1380   2.752   2.973   1.990  0.2305  0.1648 -0.1871
   90TCq2    O6 1381   2.726   2.748   2.011 -0.3244  0.4964  0.3914
   90TCq2    H2 1382   2.919   2.634   1.967 -2.4580  0.5553 -0.3622
   90TCq2    H3 1383   2.865   3.005   1.781  1.1802  2.1444 -0.6806
   90TCq2    H4 1384   3.179   2.734   1.651  1.3992  1.1230  0.3328
   91TMC2    C1 1385   4.424   1.980  16.661 -0.4772 -0.0465  0.1091
   91TMC2    C2 1386   4.479   2.003  16.778  0.2028  0.1138 -0.0997
   91TMC2    C3 1387   4.398   2.018  16.891  0.4517 -0.1414 -0.8121
   91TMC2    C4 1388   4.289   1.981  16.646  1.0765 -0.2316 -0.3372
   91TMC2    C5 1389   4.212   1.988  16.757 -0.0652  0.1704  0.2819
   91TMC2    C6 1390   4.260   2.009  16.882 -0.2067 -0.5236 -0.3807
   91TMC2     C 1391   4.498   1.982  16.541  0.3846 -0.4381 -0.4400
   91TMC2     O 1392   4.440   1.941  16.438  0.0356 -0.3445  0.4768
   91TMC2     H 1393   4.585   1.988  16.797  0.3296 -0.7435 -1.4768
   91TMC2    H1 1394   4.253   1.976  16.544 -0.4759 -2.9988  0.3504
   91TMC2    H2 1395   4.200   2.007  16.973  0.1593  0.4810 -0.1157
   91TMC2    C7 1396   4.066   1.952  16.759 -0.6273  0.2500 -0.3983
   91TMC2    C8 1397   4.472   2.018  17.012 -0.2165 -0.5565  0.4658
   91TMC2    O1 1398   4.002   1.952  16.864  0.1450 -0.0045  0.0993
   91TMC2    O2 1399   4.577   2.079  17.022  0.0021 -0.4430  0.0694
   91TMC2    O5 1400   4.420   1.924  17.100  0.1206  0.0709 -0.2603
   91TMC2    H5 1401   4.345   1.877  17.058  0.5959 -2.0252  1.2081
   92MPD2     C 1402   4.720   1.879  16.370  0.3856  0.2272 -0.4115
   92MPD2    C1 1403   0.012   1.961  16.481 -0.2542 -1.5002 -0.0533
   92MPD2    C2 1404   0.133   2.016  16.509 -0.2085 -0.1956  0.5502
   92MPD2    C3 1405   0.243   1.975  16.439 -0.5242 -0.1843 -0.3713
   92MPD2    C4 1406   0.232   1.890  16.334 -0.1121  0.4759  0.2217
   92MPD2    C5 1407   0.115   1.846  16.307 -0.1923  0.8355 -0.3765
   92MPD2     H 1408   0.140   2.082  16.595  0.2864 -1.6927  1.6798
   92MPD2    H1 1409   0.315   1.861  16.271 -0.4450  1.4730 -0.6867
   92MPD2    H2 1410   4.634   1.832  16.323  2.7455 -2.9647 -1.5108
   92MPD2    H3 1411   0.111   1.779  16.222  1.2449  0.0757  0.1530
   92MPD2     N 1412   0.369   2.011  16.483  0.9299  0.1704 -0.6928
   92MPD2    H5 1413   0.360   2.086  16.551  1.1390  1.3966 -2.0211
   92MPD2    N1 1414   4.629   2.003  16.567 -0.2200 -0.1281  0.0367
   92MPD2    H7 1415   4.661   2.051  16.651 -0.4633  0.3258 -0.1291
   93MPD2     C 1416   1.223   1.616  14.148  0.0448  0.1675 -0.1233
   93MPD2    C1 1417   1.181   1.745  14.127 -0.0936  0.0379 -0.6089
   93MPD2    C2 1418   1.050   1.780  14.132  0.3874  0.3497 -1.1291
   93MPD2    C3 1419   0.961   1.685  14.187 -0.2437 -0.5560 -0.4202
   93MPD2    C4 1420   1.007   1.557  14.203  0.2427 -0.2524  0.0870
   93MPD2    C5 1421   1.132   1.521  14.172  1.0537  0.5621 -0.2562
   93MPD2     H 1422   1.033   1.887  14.124  0.2624  0.4672  0.5903
   93MPD2    H1 1423   0.932   1.487  14.238  0.7909 -1.0065 -0.2422
   93MPD2    H2 1424   1.328   1.588  14.139  0.1990 -0.3319  3.2754
   93MPD2    H3 1425   1.154   1.415  14.180  3.4776  0.8187 -3.4844
   93MPD2     N 1426   0.823   1.727  14.204  0.7142  0.0770  0.3249
   93MPD2    H5 1427   0.787   1.814  14.167  0.6357  0.7520  1.9688
   93MPD2    N1 1428   1.267   1.854  14.105  0.1258 -0.2167 -0.0803
   93MPD2    H7 1429   1.227   1.946  14.121  2.0665  0.3158  1.7980
   94TCq2    C1 1430   1.399   1.856  14.084 -0.3284 -0.1192  0.2751
   94TCq2    O2 1431   1.481   1.766  14.090 -0.3001 -0.0145 -0.3132
   94TCq2    C2 1432   1.446   1.985  14.037  0.5629  0.3644  0.1851
   94TCq2    C3 1433   1.349   2.076  14.006 -0.2429  0.4452 -0.6378
   94TCq2    C4 1434   1.395   2.197  13.962  0.0639 -0.3731 -0.3955
   94TCq2    C5 1435   1.528   2.227  13.964  0.7768 -0.2865 -0.1147
   94TCq2    C6 1436   1.620   2.129  13.994  0.2108 -1.3551  0.2409
   94TCq2    C7 1437   1.583   2.007  14.038 -0.4358 -0.0800 -0.7129
   94TCq2    C8 1438   1.756   2.146  13.951  0.3650 -0.8729 -0.0971
   94TCq2    O4 1439   1.839   2.082  14.013 -0.3235 -0.2834  0.1262
   94TCq2    C9 1440   1.299   2.294  13.921  0.2773 -0.4537  0.0057
   94TCq2    O5 1441   1.179   2.257  13.901 -0.2373  0.1381  0.1758
   94TCq2    O6 1442   1.344   2.410  13.907 -0.8499 -0.4209  0.2234
   94TCq2    H2 1443   1.244   2.055  13.989 -0.2255 -0.7512  0.6668
   94TCq2    H3 1444   1.551   2.326  13.925  1.5838 -0.0556  0.9520
   94TCq2    H4 1445   1.659   1.940  14.076 -1.1428 -0.3557  0.2217
   95TMC2    C1 1446   1.413   3.715  16.309 -0.1553 -0.2497 -0.6345
   95TMC2    C2 1447   1.413   3.630  16.418 -0.5612  0.5247  0.2976
   95TMC2    C3 1448   1.439   3.686  16.540 -0.7287  0.5201 -0.2731
   95TMC2    C4 1449   1.422   3.848  16.322  0.5622 -0.7756  0.2190
   95TMC2    C5 1450   1.431   3.902  16.440  0.9182  0.2218 -0.1194
   95TMC2    C6 1451   1.439   3.826  16.552  0.2205 -0.2918  0.4120
   95TMC2     C 1452   1.428   3.658  16.169 -0.2148  0.8048 -0.4660
   95TMC2     O 1453   1.456   3.738  16.078  0.1241  0.0830 -0.3166
   95TMC2     H 1454   1.422   3.522  16.409  1.1694  0.5343  1.8920
   95TMC2    H1 1455   1.423   3.908  16.231  0.9445  1.9465  2.0364
   95TMC2    H2 1456   1.419   3.869  16.649 -1.4359 -2.7888  1.1928
   95TMC2    C7 1457   1.419   4.047  16.447  0.2607  0.5942  0.0348
   95TMC2    C8 1458   1.450   3.596  16.660  0.7619 -0.0100 -0.2308
   95TMC2    O1 1459   1.452   4.099  16.552  0.1951 -0.6494  0.0515
   95TMC2    O2 1460   1.396   3.481  16.674 -0.1282 -0.1349 -1.0068
   95TMC2    O5 1461   1.560   3.649  16.730  0.0368  0.2301  0.0401
   95TMC2    H5 1462   1.615   3.722  16.695  1.4286 -0.3638  0.9850
   96MPD2     C 1463   1.628   3.286  15.865  0.0670 -0.3367 -0.2607
   96MPD2    C1 1464   1.635   3.425  15.850 -0.1371 -0.2024  0.5839
   96MPD2    C2 1465   1.587   3.504  15.950 -0.2248 -0.2216  0.4395
   96MPD2    C3 1466   1.524   3.449  16.065  0.5606  0.3892  0.2060
   96MPD2    C4 1467   1.524   3.311  16.081  0.4686  0.4895  0.5423
   96MPD2    C5 1468   1.590   3.234  15.986  0.4858 -0.1090 -0.6115
   96MPD2     H 1469   1.582   3.612  15.949 -2.8122 -0.3476  0.6566
   96MPD2    H1 1470   1.481   3.259  16.165  0.7251 -0.6283 -0.0121
   96MPD2    H2 1471   1.664   3.220  15.787  0.2747 -0.3998 -0.1114
   96MPD2    H3 1472   1.603   3.128  16.004 -1.9474 -0.1716  0.8006
   96MPD2     N 1473   1.465   3.522  16.172 -0.2211 -0.3751 -0.5952
   96MPD2    H5 1474   1.432   3.468  16.251  0.8813  0.6350  0.5603
   96MPD2    N1 1475   1.692   3.472  15.730  0.2436 -0.1278  0.1616
   96MPD2    H7 1476   1.738   3.400  15.675  0.3595  1.4713 -1.8640
   97MPD2     C 1477   3.054   0.761   0.701 -0.8854  0.0931 -0.3296
   97MPD2    C1 1478   3.189   0.789   0.704  0.1384  0.0394 -0.4743
   97MPD2    C2 1479   3.240   0.872   0.604  0.0133 -0.1166 -0.0976
   97MPD2    C3 1480   3.154   0.923   0.504 -0.3945 -0.2517 -0.2888
   97MPD2    C4 1481   3.024   0.889   0.508 -0.2663 -0.2183  0.3990
   97MPD2    C5 1482   2.967   0.810   0.606  0.0791 -0.6712  0.2737
   97MPD2     H 1483   3.345   0.899   0.607 -0.4366  1.5092  1.3968
   97MPD2    H1 1484   2.956   0.918   0.429  2.1524  1.8694 -0.8886
   97MPD2    H2 1485   3.014   0.696   0.779 -0.1385  1.6610  1.3551
   97MPD2    H3 1486   2.861   0.793   0.611 -0.5413  3.2902  0.8949
   97MPD2     N 1487   3.191   1.001   0.388  0.3044 -0.2762  0.4539
   97MPD2    H5 1488   3.119   1.013   0.318 -0.2670  2.2001  1.4739
   97MPD2    N1 1489   3.262   0.737   0.821 -0.1334  0.1154 -0.1901
   97MPD2    H7 1490   3.209   0.676   0.883 -2.4290  0.6338 -1.6188
   98TCq2    C1 1491   3.314   1.049   0.363  0.3281  0.0363 -0.5843
   98TCq2    O2 1492   3.416   1.037   0.431 -0.2077  0.9456  0.1325
   98TCq2    C2 1493   3.329   1.115   0.238  0.0039 -0.4193  0.7406
   98TCq2    C3 1494   3.253   1.085   0.127  0.3920 -0.1866 -0.7290
   98TCq2    C4 1495   3.298   1.121   0.009 -0.3014 -0.0715 -0.1893
   98TCq2    C5 1496   3.408   1.210  17.688 -0.5305  0.0553 -0.0339
   98TCq2    C6 1497   3.473   1.242   0.112  0.1696  0.4665 -0.4915
   98TCq2    C7 1498   3.435   1.199   0.233 -0.6324  0.4543  0.1131
   98TCq2    C8 1499   3.585   1.338   0.101  0.2951 -0.1083  0.2198
   98TCq2    O4 1500   3.676   1.335   0.180  0.5226  0.1659  0.6157
   98TCq2    C9 1501   3.231   1.067  17.588 -0.3785  0.1746  1.0640
   98TCq2    O5 1502   3.285   1.119  17.485  0.0036  0.3897 -0.6323
   98TCq2    O6 1503   3.105   1.039  17.603 -1.0025  0.2143  0.2217
   98TCq2    H2 1504   3.173   1.012   0.123 -1.3780  1.7542 -0.7126
   98TCq2    H3 1505   3.441   1.235  17.588  1.7056  0.7203  0.8636
   98TCq2    H4 1506   3.488   1.242   0.317 -1.2669 -2.2487  1.8915
   99MPD2     C 1507   2.308   2.434   1.685 -0.1515  0.4454  0.0152
   99MPD2    C1 1508   2.330   2.565   1.689  0.1571 -0.2270 -0.0087
   99MPD2    C2 1509   2.381   2.634   1.581  0.0370 -0.0548  0.7295
   99MPD2    C3 1510   2.397   2.563   1.462  0.0947  0.6880 -0.4344
   99MPD2    C4 1511   2.361   2.431   1.460  0.0574  0.2974  0.0109
   99MPD2    C5 1512   2.320   2.367   1.567 -0.5004  0.6431  1.3134
   99MPD2     H 1513   2.396   2.741   1.592 -2.5209  0.2173  1.6970
   99MPD2    H1 1514   2.373   2.378   1.367  0.9292  3.7833 -1.8467
   99MPD2    H2 1515   2.275   2.382   1.774  0.3056 -0.7616 -0.5068
   99MPD2    H3 1516   2.309   2.259   1.566  0.8652  0.5239 -0.7785
   99MPD2     N 1517   2.451   2.630   1.347  0.4795 -0.2002 -0.3762
   99MPD2    H5 1518   2.468   2.728   1.365  0.2223  0.0326 -1.3989
   99MPD2    N1 1519   2.306   2.626   1.814  0.2465 -0.3163 -0.3565
   99MPD2    H7 1520   2.269   2.567   1.887  2.3323  0.7345  1.5400
  100TCq2    C1 1521   2.329   2.758   1.852  0.0819 -0.6991  0.2687
  100TCq2    O2 1522   2.401   2.844   1.796 -0.4882  0.1869 -0.0386
  100TCq2    C2 1523   2.280   2.777   1.987 -0.1921 -0.1100 -0.6471
  100TCq2    C3 1524   2.333   2.881   2.065 -0.1147  0.0747  0.0969
  100TCq2    C4 1525   2.269   2.940   2.166 -0.0526 -0.2559  0.0835
  100TCq2    C5 1526   2.140   2.904   2.189  0.0458  0.3535 -0.1578
  100TCq2    C6 1527   2.079   2.814   2.104  0.0494 -0.1594  0.7251
  100TCq2    C7 1528   2.147   2.746   2.004  0.3072 -0.1800  0.6124
  100TCq2    C8 1529   1.937   2.790   2.117 -0.3055 -0.1648  0.5379
  100TCq2    O4 1530   1.886   2.812   2.225  0.1400  0.3971 -0.4018
  100TCq2    C9 1531   2.321   3.040   2.249  0.0539 -0.1250 -0.6684
  100TCq2    O5 1532   2.263   3.062   2.358 -0.3253 -0.1227  0.3621
  100TCq2    O6 1533   2.431   3.088   2.219  0.2322 -0.8694 -1.1811
  100TCq2    H2 1534   2.436   2.913   2.048  0.2558  0.8492  3.7822
  100TCq2    H3 1535   2.082   2.966   2.257 -0.0371 -0.7020  0.7364
  100TCq2    H4 1536   2.090   2.678   1.941  0.1045 -0.0954  0.7054
  101MPD2     C 1537   3.166   4.100  13.090  0.1063  0.6891 -0.3801
  101MPD2    C1 1538   3.031   4.081  13.067  0.4895 -0.0401 -0.6656
  101MPD2    C2 1539   2.955   4.014  13.164 -0.3368 -0.0313  0.6916
  101MPD2    C3 1540   3.019   3.949  13.269 -0.0321 -0.2871 -1.2197
  101MPD2    C4 1541   3.153   3.966  13.287  0.1273 -0.2181 -0.1870
  101MPD2    C5 1542   3.227   4.046  13.202  0.2993 -0.2206  0.3651
  101MPD2     H 1543   2.848   3.998  13.159 -0.1203 -1.2802  0.0576
  101MPD2    H1 1544   3.211   3.929  13.370  0.4882  0.0365 -0.3229
  101MPD2    H2 1545   3.214   4.174  13.027 -2.1743  3.0263  0.6624
  101MPD2    H3 1546   3.329   4.080  13.205  0.1082  0.2732  1.2814
  101MPD2     N 1547   2.935   3.860  13.338  0.1129  0.7179  0.0576
  101MPD2    H5 1548   2.838   3.879  13.318  0.6137  2.1296 -1.0218
  101MPD2    N1 1549   2.975   4.148  12.958 -0.1558  0.2307 -0.1903
  101MPD2    H7 1550   3.033   4.218  12.913 -0.4453  0.2479 -0.5333
  102TCq2    C1 1551   2.921   4.554  12.673  0.2131 -0.2101 -0.2282
  102TCq2    O2 1552   3.029   4.563  12.728 -0.3207 -0.1308 -0.3429
  102TCq2    C2 1553   2.823   4.463  12.726  0.3810 -0.0387 -0.1312
  102TCq2    C3 1554   2.705   4.516  12.760 -0.0848  0.3935 -0.7599
  102TCq2    C4 1555   2.624   4.437  12.838 -0.0292 -0.6006 -0.1890
  102TCq2    C5 1556   2.673   4.322  12.885 -0.6204  0.1540 -0.0997
  102TCq2    C6 1557   2.793   4.267  12.857  0.3760 -0.6805  0.6033
  102TCq2    C7 1558   2.873   4.337  12.767 -0.4818 -0.1703 -0.0867
  102TCq2    C8 1559   2.841   4.151  12.930  0.2108  0.2843 -0.2866
  102TCq2    O4 1560   2.759   4.070  12.958  0.0427  0.0341  0.3463
  102TCq2    C9 1561   2.492   4.479  12.873  0.3241 -0.5546  0.4133
  102TCq2    O5 1562   2.476   4.604  12.872  0.5840  0.2875 -0.6381
  102TCq2    O6 1563   2.414   4.399  12.932  0.5952 -0.5484 -0.4430
  102TCq2    H2 1564   2.673   4.614  12.726  0.7651 -0.4906 -4.1028
  102TCq2    H3 1565   2.613   4.271  12.959 -1.2400  2.4825  1.0158
  102TCq2    H4 1566   2.963   4.293  12.725 -0.2063  0.9547 -0.6760
  103TMC2    C1 1567   1.372   4.293  12.593 -0.2014 -0.1898 -0.5125
  103TMC2    C2 1568   1.487   4.223  12.580  0.1757 -0.6283 -0.1696
  103TMC2    C3 1569   1.584   4.237  12.677 -0.2109  0.5626  0.3052
  103TMC2    C4 1570   1.347   4.371  12.704 -0.1947 -0.0337  0.0298
  103TMC2    C5 1571   1.445   4.387  12.798  0.0098 -0.2346  0.0279
  103TMC2    C6 1572   1.566   4.318  12.789  0.6357 -0.3844 -0.3617
  103TMC2     C 1573   1.257   4.283  12.507 -0.2805  0.6610 -0.0246
  103TMC2     O 1574   1.169   4.368  12.520 -0.5317 -0.0402 -0.1026
  103TMC2     H 1575   1.503   4.156  12.496 -0.4280  0.1688 -0.9262
  103TMC2    H1 1576   1.253   4.423  12.720 -1.6112 -2.4571 -0.4052
  103TMC2    H2 1577   1.639   4.314  12.869  1.0793 -1.2661 -0.8098
  103TMC2    C7 1578   1.408   4.440  12.930  0.0884 -0.8159 -0.2222
  103TMC2    C8 1579   1.709   4.167  12.669  0.6122 -0.0990 -0.1510
  103TMC2    O1 1580   1.476   4.415  13.027  0.0457  0.5136  0.2251
  103TMC2    O2 1581   1.760   4.128  12.568 -0.0580 -0.1300 -0.0479
  103TMC2    O5 1582   1.713   4.103  12.785  0.0419  0.1212 -0.2048
  103TMC2    H5 1583   1.635   4.120  12.842  0.5825 -1.2973  0.9563
  104MPD2     C 1584   1.126   3.969  12.376  0.4604 -0.2874 -0.2824
  104MPD2    C1 1585   1.141   4.105  12.384  0.6209  0.4292  0.7455
  104MPD2    C2 1586   1.044   4.177  12.314 -0.0726 -0.7232  0.4802
  104MPD2    C3 1587   0.941   4.112  12.242 -0.3219  0.1342 -0.1536
  104MPD2    C4 1588   0.933   3.970  12.244 -0.5619 -0.3889  0.0203
  104MPD2    C5 1589   1.031   3.900  12.311 -0.2646  0.6257 -0.1865
  104MPD2     H 1590   1.054   4.285  12.306 -0.4112 -0.6642  0.8536
  104MPD2    H1 1591   0.859   3.918  12.185 -2.1804  1.8489  0.0911
  104MPD2    H2 1592   1.188   3.901  12.434  0.4011  0.9684  1.2586
  104MPD2    H3 1593   1.038   3.793  12.294  2.5333  0.9262 -0.8736
  104MPD2     N 1594   0.843   4.174  12.165 -0.6984 -0.1568  0.1866
  104MPD2    H5 1595   0.779   4.113  12.114 -0.4763  2.4703 -3.2560
  104MPD2    N1 1596   1.250   4.158  12.448 -0.5241 -0.5786  0.6074
  104MPD2    H7 1597   1.318   4.089  12.477 -0.0070 -0.7629 -1.0232
  105MPD2     C 1598   2.819   3.410   0.288 -0.6310 -0.2777  0.2508
  105MPD2    C1 1599   2.722   3.505   0.261  0.4584  0.5248 -0.8245
  105MPD2    C2 1600   2.631   3.538   0.362 -0.7377  0.4903 -0.0889
  105MPD2    C3 1601   2.639   3.482   0.485 -0.4970 -0.4226 -0.3696
  105MPD2    C4 1602   2.740   3.390   0.510 -0.8381  0.3531 -1.2262
  105MPD2    C5 1603   2.837   3.362   0.418  0.4286  0.0028  0.6241
  105MPD2     H 1604   2.560   3.619   0.344  0.5999  1.5627 -0.5004
  105MPD2    H1 1605   2.744   3.335   0.603  2.6900 -2.2344 -2.8962
  105MPD2    H2 1606   2.895   3.387   0.215 -1.0919 -0.1100 -0.2798
  105MPD2    H3 1607   2.907   3.282   0.439 -0.7570 -0.3710  3.0542
  105MPD2     N 1608   2.557   3.529   0.583  0.0691 -0.2093  0.1226
  105MPD2    H5 1609   2.496   3.606   0.559  1.4714  0.8197 -0.0948
  105MPD2    N1 1610   2.721   3.572   0.138  0.1687 -0.2299 -0.2616
  105MPD2    H7 1611   2.640   3.629   0.120  1.5720  1.5530 -0.9159
  106TCq2    C1 1612   2.553   3.488   0.712 -0.0359  0.5632 -0.6691
  106TCq2    O2 1613   2.590   3.382   0.758 -0.0455  0.4198 -0.1022
  106TCq2    C2 1614   2.497   3.595   0.794  0.3102  0.8755  0.1078
  106TCq2    C3 1615   2.490   3.726   0.751 -0.3034 -0.7563 -0.5847
  106TCq2    C4 1616   2.421   3.812   0.829 -0.7247 -0.1818 -0.0892
  106TCq2    C5 1617   2.365   3.779   0.950 -0.0609 -0.2827 -0.1435
  106TCq2    C6 1618   2.380   3.649   0.993  0.1193 -0.5555  0.6619
  106TCq2    C7 1619   2.442   3.559   0.914 -0.2737  0.0692 -0.5872
  106TCq2    C8 1620   2.314   3.601   1.106  0.7847  0.1815  0.2547
  106TCq2    O4 1621   2.306   3.480   1.120 -0.1956  0.0422  0.3209
  106TCq2    C9 1622   2.397   3.951   0.792 -0.5936  0.0682 -0.0784
  106TCq2    O5 1623   2.340   4.024   0.880 -0.1891  0.4694  0.3717
  106TCq2    O6 1624   2.399   3.979   0.667  0.2712  0.2080  0.0843
  106TCq2    H2 1625   2.547   3.759   0.665  0.4247  0.8782  0.5047
  106TCq2    H3 1626   2.297   3.847   1.000  0.7106 -0.5709  1.2794
  106TCq2    H4 1627   2.464   3.461   0.955 -2.5381 -0.0958  0.2370
  107TMC2    C1 1628   4.080   2.625  11.984 -0.1834 -0.5230 -0.0777
  107TMC2    C2 1629   4.067   2.524  12.082 -0.5228 -0.1565  0.8590
  107TMC2    C3 1630   4.162   2.414  12.067  0.9863  1.0603  0.1647
  107TMC2    C4 1631   4.176   2.639  11.886 -0.0856  0.0478  0.1294
  107TMC2    C5 1632   4.252   2.529  11.876  0.0276 -0.3579 -0.1402
  107TMC2    C6 1633   4.255   2.424  11.969  0.1193 -0.0073  0.5435
  107TMC2     C 1634   3.981   2.727  11.996  0.7164  0.0083  0.1553
  107TMC2     O 1635   3.963   2.764  12.109 -0.6404  0.1431  0.4743
  107TMC2     H 1636   3.980   2.510  12.144 -0.5721 -0.1536  0.7900
  107TMC2    H1 1637   4.197   2.736  11.844  0.0267 -0.1275 -0.2211
  107TMC2    H2 1638   4.327   2.344  11.959 -0.1246 -0.4434  2.4091
  107TMC2    C7 1639   4.359   2.527  11.781  0.1644 -0.1176 -0.0972
  107TMC2    C8 1640   4.125   2.286  12.111 -0.8882 -0.6064  0.5851
  107TMC2    O1 1641   4.462   2.473  11.815 -0.4953  0.3106  0.5154
  107TMC2    O2 1642   4.054   2.288  12.212 -0.2553  0.1058 -0.1796
  107TMC2    O5 1643   4.119   2.191  12.018 -0.3542  0.1051 -0.3432
  107TMC2    H5 1644   4.139   2.227  11.928  2.0963 -1.1857 -0.3056
  108MPD2     C 1645   3.770   2.852  11.712 -0.2728  0.3168  0.3395
  108MPD2    C1 1646   3.812   2.833  11.843 -0.1435 -0.5407  0.3963
  108MPD2    C2 1647   3.734   2.882  11.945 -0.0693  0.1334 -0.1637
  108MPD2    C3 1648   3.609   2.944  11.916  0.5184  0.2578 -0.1483
  108MPD2    C4 1649   3.566   2.946  11.784 -0.4650  0.4359  0.2413
  108MPD2    C5 1650   3.647   2.901  11.684  0.0846 -0.0190 -0.5419
  108MPD2     H 1651   3.777   2.873  12.044  1.2416 -0.6262 -0.7939
  108MPD2    H1 1652   3.466   2.982  11.761  0.0434  1.3861 -0.5011
  108MPD2    H2 1653   3.832   2.817  11.631 -1.8949  1.0058 -1.1955
  108MPD2    H3 1654   3.627   2.909  11.578  0.3471  0.7380 -0.5360
  108MPD2     N 1655   3.523   2.991  12.010 -0.6269  0.0918  0.2986
  108MPD2    H5 1656   3.438   3.034  11.975 -0.5925 -0.6903 -0.7405
  108MPD2    N1 1657   3.934   2.764  11.871  0.7890 -0.0346  0.6824
  108MPD2    H7 1658   3.977   2.740  11.782  3.0952 -3.1687  2.6529
  109MPD2     C 1659   2.440   0.052   1.939 -0.5660 -0.1166 -0.8257
  109MPD2    C1 1660   2.506   0.170   1.897  0.0232  0.1783  0.4406
  109MPD2    C2 1661   2.640   0.171   1.886 -0.8524 -0.2736 -0.1209
  109MPD2    C3 1662   2.708   0.052   1.912 -0.2939  0.7485  0.1618
  109MPD2    C4 1663   2.640   4.660   1.956 -0.6728  0.2317 -0.4394
  109MPD2    C5 1664   2.508   4.661   1.970 -0.1923 -0.6862 -0.2758
  109MPD2     H 1665   2.695   0.252   1.838 -1.4819 -0.3089 -0.8989
  109MPD2    H1 1666   2.688   4.563   1.968  0.1865  0.5422 -1.3683
  109MPD2    H2 1667   2.334   0.051   1.958 -0.0572 -1.8487  1.9231
  109MPD2    H3 1668   2.455   4.570   1.997 -0.9199 -0.1296  0.1698
  109MPD2     N 1669   2.850   0.056   1.908  0.2194  0.3634 -0.5508
  109MPD2    H5 1670   2.889   0.145   1.878 -1.1706  0.9950 -0.4890
  109MPD2    N1 1671   2.426   0.281   1.845 -0.0515 -0.3116 -0.0824
  109MPD2    H7 1672   2.328   0.261   1.830 -0.3623 -0.2267  1.7450
  110TCq2    C1 1673   2.929   4.674   1.935 -0.3199  0.3172 -0.2987
  110TCq2    O2 1674   2.911   4.568   1.993 -0.6340  0.3480 -0.3248
  110TCq2    C2 1675   3.066   4.702   1.891 -0.0121  0.0718  0.4813
  110TCq2    C3 1676   3.168   4.640   1.953  0.1134 -0.4924 -0.2119
  110TCq2    C4 1677   3.298   4.657   1.906  0.1331  0.2240  0.0489
  110TCq2    C5 1678   3.326   0.006   1.789 -0.5058  0.2719 -0.7526
  110TCq2    C6 1679   3.214   0.054   1.723 -0.2185 -0.0757 -0.5205
  110TCq2    C7 1680   3.081   0.039   1.761 -0.5553  1.1771 -0.0785
  110TCq2    C8 1681   3.224   0.097   1.583  0.5600 -1.1420  0.7730
  110TCq2    O4 1682   3.146   0.187   1.544 -0.4929 -0.0001 -0.1915
  110TCq2    C9 1683   3.404   4.603   1.983 -0.0479  0.6083  0.5429
  110TCq2    O5 1684   3.370   4.512   2.059  0.1129 -0.5900  0.0754
  110TCq2    O6 1685   3.523   4.642   1.955  0.2135 -0.5809 -0.0932
  110TCq2    H2 1686   3.156   4.599   2.052 -1.0666 -0.3869 -0.3138
  110TCq2    H3 1687   3.425   0.040   1.762 -0.7853  2.1556  0.5919
  110TCq2    H4 1688   2.995   0.067   1.701 -3.8605 -0.7002  3.8223
  111TMC2    C1 1689   3.528   0.725  11.543 -1.1367  0.3553  0.0373
  111TMC2    C2 1690   3.615   0.811  11.473  0.1683  0.7218  0.0716
  111TMC2    C3 1691   3.737   0.839  11.529 -0.0958 -0.1507 -0.2295
  111TMC2    C4 1692   3.558   0.675  11.668 -0.0813 -0.0438  0.7144
  111TMC2    C5 1693   3.679   0.707  11.722  0.3970  0.9521  0.4122
  111TMC2    C6 1694   3.773   0.789  11.656 -0.4909  0.0861 -0.1497
  111TMC2     C 1695   3.402   0.698  11.480  0.1608  0.7182  0.3821
  111TMC2     O 1696   3.398   0.722  11.363  0.1308  0.0173 -0.5202
  111TMC2     H 1697   3.578   0.857  11.382 -1.0288  3.5159  1.9654
  111TMC2    H1 1698   3.503   0.608  11.733  0.5718 -1.0362  0.2454
  111TMC2    H2 1699   3.863   0.825  11.704 -0.8921  0.4426  0.3533
  111TMC2    C7 1700   3.718   0.657  11.855 -0.3313 -0.0188 -0.8184
  111TMC2    C8 1701   3.815   0.956  11.496  0.2172 -0.5685 -0.4258
  111TMC2    O1 1702   3.637   0.591  11.919  0.5840  0.7803  0.4917
  111TMC2    O2 1703   3.894   1.007  11.575  0.2611 -0.2501  0.2925
  111TMC2    O5 1704   3.806   0.976  11.360 -0.4911  0.0231  0.8219
  111TMC2    H5 1705   3.755   0.910  11.308 -0.9765  1.9538 -1.1200
  112MPD2     C 1706   2.893   0.726  11.511 -0.0717  0.3923  0.0997
  112MPD2    C1 1707   2.980   0.709  11.401  0.5730  0.3043 -0.3355
  112MPD2    C2 1708   3.117   0.677  11.413 -0.0934 -0.4531 -0.0680
  112MPD2    C3 1709   3.171   0.681  11.547  0.2583 -0.9954  0.0147
  112MPD2    C4 1710   3.086   0.700  11.649  0.6391 -0.4365 -0.0476
  112MPD2    C5 1711   2.946   0.713  11.637 -0.4395 -0.2615  0.7205
  112MPD2     H 1712   3.169   0.656  11.320 -2.5835 -2.4290 -1.0199
  112MPD2    H1 1713   3.129   0.701  11.748  0.7283  0.8129 -0.0992
  112MPD2    H2 1714   2.788   0.751  11.505 -0.2137  0.4707  2.8680
  112MPD2    H3 1715   2.883   0.729  11.723 -2.2421 -1.0785 -0.4440
  112MPD2     N 1716   3.311   0.675  11.578 -0.2527 -0.1909 -0.1648
  112MPD2    H5 1717   3.341   0.692  11.674 -1.7981  1.6580 -0.0232
  112MPD2    N1 1718   2.940   0.725  11.269  0.3542 -0.3399  0.7525
  112MPD2    H7 1719   3.006   0.702  11.196  1.3173  4.1045  0.2294
  113MPD2     C 1720   1.748   2.800   1.032  0.4479  0.7978 -0.5004
  113MPD2    C1 1721   1.619   2.845   1.049  0.1836 -0.0472 -0.2312
  113MPD2    C2 1722   1.539   2.849   0.937  0.0615  0.3211 -0.1866
  113MPD2    C3 1723   1.585   2.824   0.806 -0.7221  0.2484  0.2247
  113MPD2    C4 1724   1.729   2.802   0.797 -0.3354  0.3410  0.2391
  113MPD2    C5 1725   1.801   2.785   0.913 -0.4496 -1.4591 -0.4849
  113MPD2     H 1726   1.437   2.868   0.969  0.5104  0.4959  1.1472
  113MPD2    H1 1727   1.774   2.807   0.699 -0.6960 -0.1856  0.0462
  113MPD2    H2 1728   1.820   2.787   1.113  0.5266 -0.3238 -0.7559
  113MPD2    H3 1729   1.908   2.770   0.902  0.0267 -0.1915  2.5897
  113MPD2     N 1730   1.506   2.836   0.693  0.1733 -0.0080  0.1290
  113MPD2    H5 1731   1.551   2.821   0.604 -0.1296 -0.2634  0.0195
  113MPD2    N1 1732   1.556   2.867   1.175  0.0939  0.1061 -0.4812
  113MPD2    H7 1733   1.461   2.901   1.175 -0.6588 -2.0048 -0.0201
  114TCq2    C1 1734   1.368   2.838   0.697 -0.3458  0.9713  0.0635
  114TCq2    O2 1735   1.286   2.819   0.787  0.2015 -0.2880 -0.0928
  114TCq2    C2 1736   1.310   2.827   0.559 -0.0893  0.8670 -0.6448
  114TCq2    C3 1737   1.346   2.927   0.474 -0.3535  0.3031  0.1849
  114TCq2    C4 1738   1.249   2.990   0.401 -1.1122  0.9383 -0.7647
  114TCq2    C5 1739   1.116   2.955   0.420 -0.4621  0.0703  0.2372
  114TCq2    C6 1740   1.081   2.861   0.511  0.5692  0.1740  0.1605
  114TCq2    C7 1741   1.178   2.781   0.573  0.1381 -0.0267  0.2616
  114TCq2    C8 1742   0.943   2.832   0.533 -0.1501  1.2754  0.7876
  114TCq2    O4 1743   0.860   2.892   0.466  0.2326 -0.6056  0.4950
  114TCq2    C9 1744   1.278   3.108   0.332 -0.1190  0.6552 -0.0050
  114TCq2    O5 1745   1.402   3.127   0.323 -0.1458  0.1228  0.4615
  114TCq2    O6 1746   1.190   3.166   0.260  0.4041 -0.5235  0.7757
  114TCq2    H2 1747   1.444   2.971   0.462 -0.1618  0.0771  0.9450
  114TCq2    H3 1748   1.035   3.010   0.373 -0.6777  0.6167  1.2448
  114TCq2    H4 1749   1.167   2.701   0.645 -1.8160 -0.8436 -0.9425
  115TMC2    C1 1750   2.186   1.207  17.433 -0.4902  0.0640  0.6594
  115TMC2    C2 1751   2.183   1.251  17.301 -0.4024  0.0723 -0.1459
  115TMC2    C3 1752   2.248   1.363  17.267 -0.5644  0.9557 -0.0248
  115TMC2    C4 1753   2.244   1.286  17.523 -0.0614  0.3327  0.1273
  115TMC2    C5 1754   2.294   1.405  17.489 -0.2335 -0.7465 -0.0358
  115TMC2    C6 1755   2.300   1.449  17.357 -0.1438 -0.4318 -0.0664
  115TMC2     C 1756   2.145   1.068  17.465 -0.3468 -0.3079  0.1246
  115TMC2     O 1757   2.120   0.997  17.367  0.5418 -0.0087  0.2888
  115TMC2     H 1758   2.151   1.190  17.218  0.0161 -0.6131  0.1984
  115TMC2    H1 1759   2.246   1.259  17.628 -0.3388 -0.7985 -0.1564
  115TMC2    H2 1760   2.331   1.550  17.332 -0.2524 -0.0270  1.4053
  115TMC2    C7 1761   2.396   1.455  17.588 -0.1176  0.1887 -0.4636
  115TMC2    C8 1762   2.228   1.409  17.128  0.5382  0.5841  0.2929
  115TMC2    O1 1763   2.378   1.441   0.013  0.2023  0.6259  0.2278
  115TMC2    O2 1764   2.139   1.373  17.058  0.9908 -0.6151  0.0823
  115TMC2    O5 1765   2.339   1.470  17.088 -0.3712  0.6257 -0.7038
  115TMC2    H5 1766   2.409   1.461  17.156 -0.6180 -1.0787 -0.6760
  116MPD2     C 1767   1.910   0.741   0.088 -0.4824  0.6555  0.3917
  116MPD2    C1 1768   1.927   0.738  17.647  0.0512  0.4721 -0.4211
  116MPD2    C2 1769   1.998   0.837  17.590  0.4902  0.1949  0.7058
  116MPD2    C3 1770   2.058   0.937  17.663 -0.1601  0.0772 -0.0967
  116MPD2    C4 1771   2.041   0.935   0.107  0.2449  0.9859 -0.1046
  116MPD2    C5 1772   1.969   0.838   0.162  0.1609  0.0373 -0.5255
  116MPD2     H 1773   2.010   0.839  17.483 -0.3507  0.2822  0.6203
  116MPD2    H1 1774   2.091   1.003   0.175  0.9516  0.7156 -0.3591
  116MPD2    H2 1775   1.852   0.672   0.147 -1.0254  0.9557  0.2086
  116MPD2    H3 1776   1.943   0.838   0.267  0.3417  0.4809 -0.4828
  116MPD2     N 1777   2.127   1.046  17.605 -0.3570  0.2247  0.3532
  116MPD2    H5 1778   2.166   1.121  17.661 -2.1893  1.4557 -0.0327
  116MPD2    N1 1779   1.876   0.632  17.558  0.2291 -0.0427  0.1803
  116MPD2    H7 1780   1.897   0.641  17.459 -1.5423  0.7103 -0.1329
  117TMC2    C1 1781   0.083   2.387  14.111  0.1163  0.6540 -0.0447
  117TMC2    C2 1782   0.065   2.380  13.978 -0.8432  0.6331 -1.2528
  117TMC2    C3 1783   0.164   2.330  13.902  0.0641 -0.1495  0.1146
  117TMC2    C4 1784   0.198   2.338  14.168  0.4821 -0.5219  0.2004
  117TMC2    C5 1785   0.299   2.306  14.088  0.3352  0.2989  0.0545
  117TMC2    C6 1786   0.285   2.294  13.952 -0.5353  0.2399 -0.0189
  117TMC2     C 1787   4.719   2.459  14.199  0.2982 -0.4068  0.2146
  117TMC2     O 1788   4.723   2.421  14.318 -0.2251  0.5047 -0.0488
  117TMC2     H 1789   4.697   2.415  13.932 -1.3791  0.5398 -0.2527
  117TMC2    H1 1790   0.225   2.352  14.272  2.4676 -2.8597  0.0081
  117TMC2    H2 1791   0.373   2.283  13.890 -0.3745 -0.3185  0.3079
  117TMC2    C7 1792   0.439   2.312  14.138 -0.4381 -0.1303 -0.0826
  117TMC2    C8 1793   0.161   2.355  13.761  0.6397  0.5746 -0.0174
  117TMC2    O1 1794   0.529   2.339  14.052 -0.1595  0.5964 -0.6574
  117TMC2    O2 1795   0.167   2.474  13.724 -0.6557  0.4119  0.1979
  117TMC2    O5 1796   0.236   2.263  13.704  0.7917 -0.0067 -0.9103
  117TMC2    H5 1797   0.217   2.171  13.734 -1.7458  0.3096 -1.5210
  118MPD2     C 1798   0.611   2.146  14.413 -0.0014 -0.2758  0.0044
  118MPD2    C1 1799   0.583   2.242  14.320  0.0209 -0.4466 -0.6696
  118MPD2    C2 1800   0.687   2.323  14.280  0.0615  0.6200 -0.2339
  118MPD2    C3 1801   0.812   2.326  14.335  0.5134  0.1657 -0.2156
  118MPD2    C4 1802   0.837   2.224  14.426 -0.5486  0.2149  0.2900
  118MPD2    C5 1803   0.733   2.152  14.471 -0.0263  0.0757  0.0574
  118MPD2     H 1804   0.660   2.396  14.205 -1.1997 -0.0935 -0.4615
  118MPD2    H1 1805   0.931   2.204  14.477  0.6090 -0.9171 -2.2784
  118MPD2    H2 1806   0.539   2.075  14.454  0.5942 -1.1745 -0.4915
  118MPD2    H3 1807   0.761   2.081  14.549  0.0361 -1.1431 -1.0816
  118MPD2     N 1808   0.916   2.408  14.287  0.1704 -0.7793  0.2171
  118MPD2    H5 1809   1.004   2.395  14.336 -0.7677 -1.9600  1.5978
  118MPD2    N1 1810   0.451   2.253  14.260 -0.2663 -0.4655 -0.4474
  118MPD2    H7 1811   0.370   2.202  14.292  1.4332 -2.7176  0.2013
  119MPD2     C 1812   3.698   4.083  13.289  0.0391 -0.7868  0.2827
  119MPD2    C1 1813   3.679   3.963  13.364  0.9395 -0.6612  0.0172
  119MPD2    C2 1814   3.598   3.862  13.318 -0.5252 -0.5913 -0.4605
  119MPD2    C3 1815   3.545   3.873  13.191 -0.7933 -1.1850 -0.6188
  119MPD2    C4 1816   3.575   3.987  13.111  0.1835  0.3469 -0.4441
  119MPD2    C5 1817   3.654   4.095  13.158 -0.4064 -0.4769 -0.3938
  119MPD2     H 1818   3.562   3.780  13.380 -2.0863  0.1871 -0.3277
  119MPD2    H1 1819   3.537   3.998  13.010  3.1093  1.0637 -1.4822
  119MPD2    H2 1820   3.740   4.169  13.340 -1.2965 -0.5114  0.9360
  119MPD2    H3 1821   3.671   4.189  13.106  2.4638 -0.3483  0.7564
  119MPD2     N 1822   3.451   3.778  13.138 -0.7481  0.5698  0.0120
  119MPD2    H5 1823   3.413   3.795  13.046 -0.4810 -0.0451 -0.2094
  119MPD2    N1 1824   3.731   3.970  13.496  0.2225 -0.0025  0.4811
  119MPD2    H7 1825   3.764   4.056  13.538 -2.7784  1.4185 -0.1292
  120TCq2    C1 1826   3.389   3.683  13.217 -0.1094 -0.5243 -0.2044
  120TCq2    O2 1827   3.417   3.640  13.330 -0.0271 -0.5763  0.2777
  120TCq2    C2 1828   3.266   3.638  13.154  0.4372 -0.0252 -0.6632
  120TCq2    C3 1829   3.226   3.693  13.035  0.2059  0.0065 -0.9002
  120TCq2    C4 1830   3.096   3.675  13.000 -1.1587 -0.0693  0.0733
  120TCq2    C5 1831   3.007   3.601  13.075  0.0684 -0.4912  0.2015
  120TCq2    C6 1832   3.050   3.547  13.194  0.4049  0.2109 -0.4930
  120TCq2    C7 1833   3.183   3.563  13.231 -0.0856 -0.6926  0.2413
  120TCq2    C8 1834   2.963   3.456  13.259  0.1441  0.1282 -0.5422
  120TCq2    O4 1835   2.869   3.418  13.190 -0.2488  0.6161  0.8055
  120TCq2    C9 1836   3.046   3.727  12.879  0.2409  0.2057 -0.7065
  120TCq2    O5 1837   3.124   3.783  12.799 -0.3940  0.2000  0.0525
  120TCq2    O6 1838   2.927   3.695  12.858  0.0184  0.6755 -0.1185
  120TCq2    H2 1839   3.289   3.757  12.974  2.0280 -0.9694 -0.0401
  120TCq2    H3 1840   2.901   3.593  13.054  0.4591 -0.7085 -1.7033
  120TCq2    H4 1841   3.213   3.543  13.334 -0.4977 -2.2405  0.0646
  121TMC2    C1 1842   0.682   0.390  14.322 -0.5895 -0.3568 -0.2838
  121TMC2    C2 1843   0.617   0.274  14.296  0.3856  0.0231 -0.3117
  121TMC2    C3 1844   0.474   0.278  14.290  0.1050 -0.3792 -0.1471
  121TMC2    C4 1845   0.606   0.511  14.328  0.3406 -0.1636 -0.0906
  121TMC2    C5 1846   0.472   0.511  14.316 -0.5633 -0.3806 -0.1946
  121TMC2    C6 1847   0.402   0.394  14.292  0.2967  0.1224  0.0794
  121TMC2     C 1848   0.827   0.389  14.312  0.2459 -0.4817  0.3950
  121TMC2     O 1849   0.882   0.288  14.359 -0.0488  0.1677  0.6250
  121TMC2     H 1850   0.661   0.182  14.260 -0.5173 -0.4572 -0.1872
  121TMC2    H1 1851   0.653   0.602  14.362 -0.9453  0.5124 -0.1626
  121TMC2    H2 1852   0.294   0.389  14.277  0.0703 -0.3879  1.8721
  121TMC2    C7 1853   0.391   0.605  14.388 -0.2597  0.6226 -0.1710
  121TMC2    C8 1854   0.399   0.154  14.281 -0.3189 -0.1518 -0.8992
  121TMC2    O1 1855   0.450   0.655  14.484  0.2856 -0.0017  0.1627
  121TMC2    O2 1856   0.449   0.056  14.224  0.4459 -0.5727 -0.1392
  121TMC2    O5 1857   0.284   0.156  14.354  0.6900  0.3871 -0.6066
  121TMC2    H5 1858   0.286   0.227  14.422 -0.2330 -1.4306  1.3144
  122MPD2     C 1859   1.109   0.432  14.239  0.8781  0.3321 -0.5941
  122MPD2    C1 1860   1.006   0.511  14.188 -0.4588  0.4267  0.3974
  122MPD2    C2 1861   1.023   0.604  14.093  0.1766 -0.6643 -0.5115
  122MPD2    C3 1862   1.148   0.622  14.038 -0.2719 -0.6782 -0.3445
  122MPD2    C4 1863   1.254   0.542  14.089 -0.7904 -0.3587  0.6788
  122MPD2    C5 1864   1.239   0.448  14.190  0.2412  0.5048 -0.3887
  122MPD2     H 1865   0.934   0.660  14.066  0.2067 -0.2716  0.2044
  122MPD2    H1 1866   1.352   0.528  14.046 -1.1231 -0.3507 -0.0705
  122MPD2    H2 1867   1.090   0.383  14.334  1.1926  1.1176 -0.1256
  122MPD2    H3 1868   1.314   0.390  14.243 -1.5522 -1.0243  0.4748
  122MPD2     N 1869   1.168   0.715  13.925  0.1924 -0.1188  0.1274
  122MPD2    H5 1870   1.262   0.731  13.892 -0.1836 -0.5956 -1.1673
  122MPD2    N1 1871   0.871   0.485  14.227 -0.0475  0.3300  0.0396
  122MPD2    H7 1872   0.798   0.542  14.185 -0.3432 -0.0017  0.1099
  123MPD2     C 1873   4.708   4.303   9.701 -0.3335 -0.2347 -0.4902
  123MPD2    C1 1874   4.667   4.201   9.788  0.3823  0.3527  0.1477
  123MPD2    C2 1875   4.568   4.232   9.878 -0.6537  0.7162 -0.1206
  123MPD2    C3 1876   4.535   4.367   9.906  0.8296  0.2768  0.0690
  123MPD2    C4 1877   4.573   4.465   9.815 -1.0604  0.9514 -0.0095
  123MPD2    C5 1878   4.656   4.430   9.717  0.0208 -0.3583 -0.5204
  123MPD2     H 1879   4.527   4.158   9.945 -0.7885  1.8157  1.0162
  123MPD2    H1 1880   4.539   4.567   9.825 -0.9241  0.9711  0.2469
  123MPD2    H2 1881   0.053   4.280   9.619  1.6849  0.0993  1.0935
  123MPD2    H3 1882   4.695   4.503   9.647 -0.1103 -2.4804 -2.8235
  123MPD2     N 1883   4.455   4.388  10.020 -0.1818  0.2368 -0.7725
  123MPD2    H5 1884   4.419   4.307  10.069  0.2435  0.9381  0.6815
  123MPD2    N1 1885   4.716   4.069   9.765  0.6407  0.9152  0.3001
  123MPD2    H7 1886   0.067   4.056   9.697 -0.8196 -0.2883 -1.0799
  124TCq2    C1 1887   4.417   4.507  10.068 -0.3336 -0.2403  0.5108
  124TCq2    O2 1888   4.400   4.611  10.008 -0.1185 -0.3591  0.4454
  124TCq2    C2 1889   4.368   4.492  10.204  0.5380  0.4897  0.4458
  124TCq2    C3 1890   4.265   4.577  10.244 -0.0986  0.0011 -0.2048
  124TCq2    C4 1891   4.198   4.543  10.356 -0.7415 -0.1602 -0.4232
  124TCq2    C5 1892   4.246   4.445  10.439 -0.4278  0.0108  0.6003
  124TCq2    C6 1893   4.355   4.375  10.407 -0.0580 -0.2035 -0.5303
  124TCq2    C7 1894   4.416   4.395  10.284  0.2030  0.1972  0.2281
  124TCq2    C8 1895   4.387   4.269  10.495 -0.4745 -0.4388  0.2001
  124TCq2    O4 1896   4.296   4.198  10.544  0.6731  0.2549 -0.0746
  124TCq2    C9 1897   4.081   4.613  10.401 -0.1558 -0.4556 -0.1978
  124TCq2    O5 1898   4.062   0.005  10.352  0.6573 -0.4718 -0.5619
  124TCq2    O6 1899   4.005   4.545  10.481 -0.5384 -0.0238  0.3793
  124TCq2    H2 1900   4.215   4.646  10.177 -2.6193  1.2645  2.9997
  124TCq2    H3 1901   4.193   4.423  10.530 -1.2641 -0.9501 -0.1276
  124TCq2    H4 1902   4.494   4.327  10.250  1.9929  2.1300  0.4258
  125TMC2    C1 1903   1.725   1.708   7.991  0.2800 -0.3908  0.4662
  125TMC2    C2 1904   1.722   1.583   7.939  0.0573 -0.2341  0.2697
  125TMC2    C3 1905   1.670   1.483   8.013  0.4268  0.2420  0.4626
  125TMC2    C4 1906   1.681   1.738   8.123 -0.4476 -0.4476  0.2593
  125TMC2    C5 1907   1.620   1.638   8.186  0.5326 -0.2451 -0.3369
  125TMC2    C6 1908   1.602   1.515   8.130  0.8160 -0.4485 -0.4121
  125TMC2     C 1909   1.776   1.826   7.914 -0.3553 -0.2134  0.1080
  125TMC2     O 1910   1.731   1.936   7.942  0.0272 -0.5491 -0.0677
  125TMC2     H 1911   1.775   1.541   7.854 -2.7782  0.9224 -2.1006
  125TMC2    H1 1912   1.705   1.831   8.174  0.0720  0.5834 -1.8619
  125TMC2    H2 1913   1.526   1.448   8.168  1.0730 -1.3299 -1.4507
  125TMC2    C7 1914   1.560   1.654   8.319  0.2257 -0.6699  0.3378
  125TMC2    C8 1915   1.646   1.355   7.948  0.3503  0.0549 -0.1397
  125TMC2    O1 1916   1.545   1.762   8.368  0.5456  0.6053  0.0937
  125TMC2    O2 1917   1.677   1.342   7.831 -0.2714  0.6130 -0.1560
  125TMC2    O5 1918   1.665   1.267   8.050  0.0418  0.7891 -0.0413
  125TMC2    H5 1919   1.667   1.306   8.140 -0.8459 -2.2984  1.2955
  126MPD1     C 1920   2.111   2.011   7.575  0.0332  0.0048 -0.1477
  126MPD1    C1 1921   2.089   1.880   7.533 -0.0034  0.2620  0.2017
  126MPD1    C2 1922   1.996   1.808   7.605 -1.0157 -0.2404  0.5858
  126MPD1    C3 1923   1.918   1.864   7.707  0.4133 -0.2444 -0.4068
  126MPD1    C4 1924   1.930   2.004   7.724 -0.1569  0.0273 -0.2438
  126MPD1    C5 1925   2.031   2.074   7.665  0.6422  0.3553  0.0562
  126MPD1     H 1926   1.978   1.703   7.585  0.1458 -0.0332 -1.4887
  126MPD1    H1 1927   1.876   2.058   7.801 -1.5753  0.2626 -1.4025
  126MPD1    H2 1928   2.193   2.072   7.539  0.2374  0.6845  1.4773
  126MPD1    H3 1929   2.053   2.170   7.711  0.4537  0.3440  0.1719
  126MPD1     N 1930   1.845   1.781   7.803  0.0439  0.1143 -0.2163
  126MPD1    H5 1931   1.855   1.681   7.793  1.7316  0.3404 -0.7312
  126MPD1    N1 1932   2.184   1.815   7.454  0.5508 -0.2695  0.3661
  126MPD1    H6 1933   2.150   1.755   7.380  1.2981  0.8671 -0.9073
  126MPD1    H7 1934   2.235   1.882   7.397 -1.3175 -0.0626 -1.0624
  127MPD2     C 1935   1.377   4.177   9.699  0.2123  0.2671 -0.7226
  127MPD2    C1 1936   1.299   4.245   9.788 -0.5713 -0.6223  0.1147
  127MPD2    C2 1937   1.290   4.384   9.783  0.5612  0.0191  0.7598
  127MPD2    C3 1938   1.378   4.458   9.708  0.0054  0.7887  0.3552
  127MPD2    C4 1939   1.458   4.391   9.618  0.0552  0.2477 -0.2275
  127MPD2    C5 1940   1.451   4.251   9.613  0.1187  0.2270 -0.5932
  127MPD2     H 1941   1.233   4.438   9.858 -0.3586 -2.1282  1.6246
  127MPD2    H1 1942   1.529   4.438   9.550  1.0354  0.3442  0.8740
  127MPD2    H2 1943   1.370   4.069   9.692 -1.8528  0.3441  0.3935
  127MPD2    H3 1944   1.502   4.188   9.540  0.4694 -0.2862  0.0983
  127MPD2     N 1945   1.379   4.600   9.724  0.1470 -0.6651 -0.0917
  127MPD2    H5 1946   1.328   4.645   9.799  1.0835  1.8729 -0.9555
  127MPD2    N1 1947   1.232   4.171   9.893 -0.4944 -0.0011  0.2261
  127MPD2    H7 1948   1.277   4.082   9.912  1.7740  0.7863 -1.3730
  128TCq2    C1 1949   1.140   4.223   9.979 -0.0941 -0.3492 -0.1512
  128TCq2    O2 1950   1.080   4.330   9.973  0.2903  0.3430  0.2851
  128TCq2    C2 1951   1.091   4.115  10.066  0.0870  0.4974 -0.1270
  128TCq2    C3 1952   1.174   4.063  10.163  0.5252  0.0890 -0.3581
  128TCq2    C4 1953   1.124   4.006  10.279  0.4598 -0.6370  0.5628
  128TCq2    C5 1954   0.986   4.002  10.303 -0.3397  0.4210 -0.0180
  128TCq2    C6 1955   0.909   4.063  10.211 -0.3364 -0.2080  0.4649
  128TCq2    C7 1956   0.956   4.115  10.090  0.6141 -0.2350 -0.1982
  128TCq2    C8 1957   0.770   4.082  10.249  0.2023 -0.0564 -0.7485
  128TCq2    O4 1958   0.726   4.199  10.250  0.9075 -0.4588  0.4771
  128TCq2    C9 1959   1.211   3.990  10.395  0.6746 -0.1984  0.4845
  128TCq2    O5 1960   1.315   4.056  10.391 -0.6069 -0.1099  0.3258
  128TCq2    O6 1961   1.182   3.902  10.479 -0.2448  0.1338  0.0294
  128TCq2    H2 1962   1.279   4.085  10.154  0.3195  0.1782 -2.4352
  128TCq2    H3 1963   0.949   3.989  10.404 -0.4482 -1.7594 -0.3384
  128TCq2    H4 1964   0.888   4.161  10.019  1.1513 -1.2589 -1.3814
  129MPD2     C 1965   3.239   0.306   0.638  0.2375  0.0385  0.1249
  129MPD2    C1 1966   3.348   0.280   0.720 -0.0878 -0.6662  0.2387
  129MPD2    C2 1967   3.453   0.369   0.721 -1.0375  0.0024  0.8023
  129MPD2    C3 1968   3.447   0.478   0.643 -0.0803 -0.8450  0.3111
  129MPD2    C4 1969   3.340   0.510   0.567  0.4905  0.2061 -0.5059
  129MPD2    C5 1970   3.237   0.423   0.569 -0.5069  0.2686  0.0304
  129MPD2     H 1971   3.536   0.360   0.789 -0.3856  0.5564  0.0756
  129MPD2    H1 1972   3.326   0.609   0.523 -0.0236  1.6072  2.8026
  129MPD2    H2 1973   3.157   0.236   0.635  1.3353 -1.3733  2.7638
  129MPD2    H3 1974   3.152   0.446   0.507 -0.3821  0.0756 -0.2122
  129MPD2     N 1975   3.558   0.568   0.659  0.6627  0.2057 -0.4210
  129MPD2    H5 1976   3.624   0.545   0.732  1.2125 -0.1537 -1.0314
  129MPD2    N1 1977   3.357   0.168   0.803  0.0478 -0.0626 -0.2953
  129MPD2    H7 1978   3.448   0.150   0.845 -0.2196 -1.9618 -0.5478
  130TCq2    C1 1979   3.248   0.098   0.843 -0.2059 -0.4972 -0.2488
  130TCq2    O2 1980   3.129   0.126   0.834 -0.5159 -0.0792 -0.5116
  130TCq2    C2 1981   3.285   4.711   0.921 -0.3741  0.1781  0.0962
  130TCq2    C3 1982   3.399   4.637   0.897  0.5436 -0.0957 -0.6679
  130TCq2    C4 1983   3.432   4.537   0.983 -0.4348 -0.1626  0.3981
  130TCq2    C5 1984   3.354   4.509   1.094 -0.3787  0.0792  0.3873
  130TCq2    C6 1985   3.240   4.587   1.120 -0.0413  0.0095  0.6115
  130TCq2    C7 1986   3.203   4.678   1.029 -0.2258  1.1789 -0.7371
  130TCq2    C8 1987   3.162   4.584   1.241  0.3115  0.3471  0.0351
  130TCq2    O4 1988   3.054   4.650   1.249  0.0884 -0.2721  0.2347
  130TCq2    C9 1989   3.551   4.457   0.957 -0.1007 -0.4677  0.6502
  130TCq2    O5 1990   3.633   4.484   0.863  0.2954  0.0313 -0.8926
  130TCq2    O6 1991   3.591   4.386   1.052 -0.1853  0.0014  0.2860
  130TCq2    H2 1992   3.463   4.658   0.812  2.1890 -0.6836  0.4157
  130TCq2    H3 1993   3.381   4.421   1.152  0.9384  0.5941  0.5676
  130TCq2    H4 1994   3.112   0.010   1.049  0.0565  0.9530  1.1660
  131MPD2     C 1995   0.502   4.020   9.112 -0.4374 -0.0273  0.3254
  131MPD2    C1 1996   0.401   4.101   9.159 -0.2734  0.7381  0.5413
  131MPD2    C2 1997   0.328   4.056   9.263  0.2219 -0.0442 -0.1412
  131MPD2    C3 1998   0.345   3.931   9.321 -0.5554 -0.4579 -0.5737
  131MPD2    C4 1999   0.450   3.856   9.281  0.4967 -0.0264  0.7523
  131MPD2    C5 2000   0.527   3.906   9.179 -0.1450 -0.0130 -0.3783
  131MPD2     H 2001   0.249   4.116   9.307  1.3004  2.5282 -1.7425
  131MPD2    H1 2002   0.495   3.771   9.329  0.9757 -0.4283 -0.4123
  131MPD2    H2 2003   0.580   4.064   9.052 -0.8544  0.0217 -0.1851
  131MPD2    H3 2004   0.612   3.850   9.142 -0.7090 -1.5512  0.6846
  131MPD2     N 2005   0.257   3.904   9.430 -0.4853  0.1253  0.5307
  131MPD2    H5 2006   0.187   3.971   9.461 -0.2737  0.5240  0.1404
  131MPD2    N1 2007   0.372   4.233   9.101  0.0677 -0.1734  0.5645
  131MPD2    H7 2008   0.432   4.261   9.024 -0.4558  0.3828  0.3587
  132TCq2    C1 2009   0.529   4.666   8.875  0.3841  0.1346  0.3687
  132TCq2    O2 2010   0.634   4.602   8.879  0.0319 -0.0466 -0.3330
  132TCq2    C2 2011   0.429   4.629   8.972  0.5203 -0.4076  0.7628
  132TCq2    C3 2012   0.332   4.719   9.006 -0.0925 -0.0227  0.1293
  132TCq2    C4 2013   0.212   4.689   9.060 -0.5181 -0.5685  0.1794
  132TCq2    C5 2014   0.188   4.556   9.094 -0.2429 -0.1734  0.7917
  132TCq2    C6 2015   0.293   4.465   9.069 -0.5710  0.0468 -0.0860
  132TCq2    C7 2016   0.415   4.495   9.010 -0.4358 -0.2068 -0.3193
  132TCq2    C8 2017   0.280   4.335   9.138 -0.9768 -0.0617 -0.3955
  132TCq2    O4 2018   0.177   4.313   9.200  1.1081 -0.2333  0.3527
  132TCq2    C9 2019   0.111   0.060   9.083 -0.2610 -0.4489 -0.6413
  132TCq2    O5 2020   0.029   0.035   9.176 -0.0242 -0.5138  0.8016
  132TCq2    O6 2021   0.106   0.164   9.016 -0.2451  0.8946 -0.0961
  132TCq2    H2 2022   0.339   0.100   8.976 -0.6988  0.1992  0.7634
  132TCq2    H3 2023   0.094   4.534   9.143 -1.8096  2.1865 -1.1420
  132TCq2    H4 2024   0.491   4.419   8.993  1.7362  1.4184  2.0585
  133MPD2     C 2025   1.949   0.224   9.124 -0.6644  1.0054  0.4263
  133MPD2    C1 2026   2.075   0.168   9.127  0.3545 -0.2983 -0.3213
  133MPD2    C2 2027   2.094   0.037   9.169 -0.0473 -0.0918  0.4344
  133MPD2    C3 2028   1.979   4.689   9.216 -0.4072 -0.7520 -0.0021
  133MPD2    C4 2029   1.858   0.029   9.210 -0.2047  0.1720  0.0740
  133MPD2    C5 2030   1.837   0.155   9.155  0.0627  0.6098 -0.6918
  133MPD2     H 2031   2.196   0.001   9.159  0.0894  0.2447  0.6075
  133MPD2    H1 2032   1.767   4.706   9.246 -0.5686 -0.1509 -1.2493
  133MPD2    H2 2033   1.933   0.324   9.085 -0.1774  1.3261  1.0477
  133MPD2    H3 2034   1.742   0.206   9.149  0.6211  1.9680  2.3880
  133MPD2     N 2035   1.979   4.557   9.267  0.3575  0.0494 -0.3707
  133MPD2    H5 2036   1.894   4.512   9.301  0.5734  0.9792  1.3751
  133MPD2    N1 2037   2.183   0.257   9.102  0.4245  0.2337 -0.0798
  133MPD2    H7 2038   2.167   0.357   9.090 -1.5708 -0.0982 -0.3132
  134TCq2    C1 2039   2.312   0.217   9.081  0.1541  0.4338  0.1113
  134TCq2    O2 2040   2.366   0.108   9.065 -0.8923  0.8595  0.2982
  134TCq2    C2 2041   2.396   0.333   9.081 -0.9831  0.1804 -0.5223
  134TCq2    C3 2042   2.461   0.351   8.965 -0.9025  0.5666  0.4852
  134TCq2    C4 2043   2.511   0.477   8.948 -0.0598 -0.6820  0.1974
  134TCq2    C5 2044   2.480   0.580   9.031 -0.0254 -0.5809 -0.0757
  134TCq2    C6 2045   2.397   0.555   9.140 -0.0451 -0.0639 -0.8073
  134TCq2    C7 2046   2.350   0.428   9.168 -0.2609  0.4946 -0.7746
  134TCq2    C8 2047   2.401   0.662   9.239 -0.2014 -0.8179  0.0907
  134TCq2    O4 2048   2.486   0.748   9.235  0.2642 -0.4475  0.1766
  134TCq2    C9 2049   2.593   0.496   8.830 -0.1189 -0.5870  0.8270
  134TCq2    O5 2050   2.630   0.614   8.801  0.5794 -0.0821 -0.7678
  134TCq2    O6 2051   2.644   0.395   8.772  0.3720  0.1213  0.6973
  134TCq2    H2 2052   2.480   0.268   8.899 -1.5492 -1.0715  2.3539
  134TCq2    H3 2053   2.510   0.682   9.011 -1.4699 -0.5639 -2.1410
  134TCq2    H4 2054   2.312   0.401   9.267 -0.9782  1.7682 -0.7099
  135MPD2     C 2055   1.189   2.136   8.503 -0.1374 -0.3252  0.2516
  135MPD2    C1 2056   1.188   2.017   8.574  0.0341  0.3126 -0.1735
  135MPD2    C2 2057   1.310   1.970   8.605 -0.5220 -0.6368 -0.6180
  135MPD2    C3 2058   1.430   2.027   8.575  0.0786 -1.0470  0.1477
  135MPD2    C4 2059   1.431   2.143   8.502 -0.0232  0.2468 -0.8837
  135MPD2    C5 2060   1.307   2.191   8.462  0.8234 -0.2792  0.2624
  135MPD2     H 2061   1.313   1.876   8.660 -4.7963 -0.6841 -0.4549
  135MPD2    H1 2062   1.519   2.194   8.464 -0.7834  2.1495 -0.1386
  135MPD2    H2 2063   1.104   2.193   8.467  0.4878  0.1101 -0.5324
  135MPD2    H3 2064   1.308   2.289   8.415  2.0923 -0.1253  0.6060
  135MPD2     N 2065   1.556   1.972   8.606  0.2499  0.2097 -0.1329
  135MPD2    H5 2066   1.634   1.994   8.545 -0.1278 -0.1401 -0.7387
  135MPD2    N1 2067   1.071   1.959   8.624 -0.0903  0.5616  0.6764
  135MPD2    H7 2068   1.082   1.866   8.663  2.4063  1.4885  2.2291
  136TCq2    C1 2069   0.940   2.002   8.605 -0.7005  0.2085  0.0851
  136TCq2    O2 2070   0.901   2.080   8.520  0.1583  0.8986  0.0984
  136TCq2    C2 2071   0.851   1.889   8.639 -1.0761 -0.9200 -0.2636
  136TCq2    C3 2072   0.755   1.866   8.542  0.1910  0.0456  0.2293
  136TCq2    C4 2073   0.734   1.738   8.493 -0.0706  0.0168  0.2739
  136TCq2    C5 2074   0.785   1.635   8.555 -0.2442  0.1843  0.1976
  136TCq2    C6 2075   0.881   1.658   8.653  0.3519 -0.3285  0.8564
  136TCq2    C7 2076   0.908   1.783   8.699 -0.8055  0.1876  0.1764
  136TCq2    C8 2077   0.976   1.559   8.704 -0.5522  0.4181  0.4977
  136TCq2    O4 2078   1.091   1.605   8.726 -0.5787 -0.2989 -0.0721
  136TCq2    C9 2079   0.635   1.722   8.392  0.8479  0.2800 -0.2326
  136TCq2    O5 2080   0.602   1.599   8.365  0.1747 -0.3398  0.2456
  136TCq2    O6 2081   0.591   1.827   8.334  0.0452  0.2385 -0.1662
  136TCq2    H2 2082   0.706   1.945   8.487  3.3473  2.2254  0.5065
  136TCq2    H3 2083   0.769   1.538   8.510 -2.1155 -0.0652  1.3861
  136TCq2    H4 2084   0.977   1.805   8.780  2.6883  0.3703 -2.8380
  137MPD2     C 2085   1.761   0.598   8.694 -0.1356  0.1440 -0.0913
  137MPD2    C1 2086   1.648   0.671   8.715  0.0171  0.5718  0.5555
  137MPD2    C2 2087   1.554   0.623   8.807  0.2893  0.4644  0.5547
  137MPD2    C3 2088   1.561   0.495   8.857  0.4473  0.4249 -1.5648
  137MPD2    C4 2089   1.674   0.425   8.832 -0.2516  0.3603  0.9696
  137MPD2    C5 2090   1.778   0.479   8.760 -0.6810 -0.1768 -0.8556
  137MPD2     H 2091   1.469   0.678   8.846 -0.8432 -0.4067 -0.7259
  137MPD2    H1 2092   1.696   0.324   8.865  0.9428  0.1281 -0.5197
  137MPD2    H2 2093   1.837   0.635   8.626 -1.2843 -1.3176 -2.1721
  137MPD2    H3 2094   1.866   0.416   8.753  0.0165  0.4906  2.0019
  137MPD2     N 2095   1.457   0.451   8.941  0.2294 -0.0551  0.1907
  137MPD2    H5 2096   1.384   0.516   8.969  0.6031  0.8070 -0.8538
  137MPD2    N1 2097   1.616   0.781   8.636 -0.2449 -0.4495  0.2001
  137MPD2    H7 2098   1.686   0.812   8.568  1.3079 -2.0140  1.0947
  138TCq2    C1 2099   1.488   0.842   8.637  0.6701  0.5034 -0.4216
  138TCq2    O2 2100   1.380   0.813   8.686  0.0859 -0.2217 -0.0192
  138TCq2    C2 2101   1.488   0.961   8.541  0.5323  0.2290 -0.4842
  138TCq2    C3 2102   1.601   1.019   8.491  0.1270  0.0684 -0.0206
  138TCq2    C4 2103   1.596   1.133   8.419 -0.2550  0.1568 -0.7953
  138TCq2    C5 2104   1.474   1.190   8.389 -0.5234  0.1780 -0.2336
  138TCq2    C6 2105   1.362   1.144   8.449 -0.8599 -0.4035  0.1257
  138TCq2    C7 2106   1.370   1.023   8.513 -0.5435 -0.2470 -1.1647
  138TCq2    C8 2107   1.241   1.203   8.408 -0.6516  0.1430 -0.7025
  138TCq2    O4 2108   1.239   1.323   8.385  0.0371 -0.5695  0.0282
  138TCq2    C9 2109   1.708   1.193   8.357 -0.1451  0.3952  0.2323
  138TCq2    O5 2110   1.691   1.302   8.301  0.2158 -0.6766  0.0042
  138TCq2    O6 2111   1.823   1.150   8.387 -0.0462 -0.2181 -0.0063
  138TCq2    H2 2112   1.700   0.975   8.496  1.0957  2.0611 -1.7007
  138TCq2    H3 2113   1.469   1.278   8.327  0.9313 -1.8838 -3.2796
  138TCq2    H4 2114   1.281   0.972   8.549  0.1998  1.1656  2.7119
  139TMC2    C1 2115   0.715   3.397  13.386  0.2537 -0.1549  0.6262
  139TMC2    C2 2116   0.790   3.403  13.270  0.3305  0.4374 -0.0362
  139TMC2    C3 2117   0.792   3.520  13.202 -0.1815 -0.3268 -0.1390
  139TMC2    C4 2118   0.656   3.505  13.450  0.4077  0.5295  0.5427
  139TMC2    C5 2119   0.666   3.626  13.377  0.6683 -0.3069  0.0190
  139TMC2    C6 2120   0.733   3.631  13.255  0.8212 -0.0075 -0.2685
  139TMC2     C 2121   0.736   3.277  13.469 -0.0762 -0.3532  0.0905
  139TMC2     O 2122   0.840   3.219  13.452 -0.3907 -0.3553  0.3544
  139TMC2     H 2123   0.841   3.314  13.235 -0.8554 -0.8194  1.4614
  139TMC2    H1 2124   0.627   3.500  13.554 -1.6034 -0.9341 -0.0829
  139TMC2    H2 2125   0.738   3.722  13.197 -0.4128  0.8910  1.0277
  139TMC2    C7 2126   0.616   3.751  13.446  0.5723 -0.3279 -0.4650
  139TMC2    C8 2127   0.828   3.528  13.064 -0.1039  0.4646 -0.9657
  139TMC2    O1 2128   0.530   3.746  13.529 -0.2884 -0.6604 -0.3017
  139TMC2    O2 2129   0.775   3.602  12.983  0.4760  0.0515 -0.3915
  139TMC2    O5 2130   0.898   3.421  13.025 -0.1957  0.0162  0.1277
  139TMC2    H5 2131   0.945   3.385  13.103 -0.7286 -0.7387  0.1047
  140MPD2     C 2132   0.478   3.119  13.685  1.2701 -0.4574 -0.2387
  140MPD2    C1 2133   0.605   3.125  13.617 -0.3132  0.0039  0.2914
  140MPD2    C2 2134   0.694   3.020  13.622  0.1820  0.0421 -0.6703
  140MPD2    C3 2135   0.660   2.904  13.693  0.7821  0.3156 -0.2169
  140MPD2    C4 2136   0.545   2.903  13.767 -0.1400  0.0517 -0.0697
  140MPD2    C5 2137   0.458   3.008  13.762  0.0069  0.6286 -0.5287
  140MPD2     H 2138   0.792   3.031  13.576  1.4098  1.1471  2.1784
  140MPD2    H1 2139   0.512   2.810  13.811 -0.4912 -1.0128 -2.6112
  140MPD2    H2 2140   0.413   3.206  13.676 -0.1537 -1.4436  0.5907
  140MPD2    H3 2141   0.362   3.005  13.813  0.2714 -2.5195 -0.2297
  140MPD2     N 2142   0.734   2.789  13.700  1.0045 -0.0718 -0.3231
  140MPD2    H5 2143   0.686   2.706  13.733  0.6612  0.8573  1.4880
  140MPD2    N1 2144   0.626   3.244  13.539  0.0062 -0.6088 -0.1063
  140MPD2    H7 2145   0.555   3.316  13.530  2.4584  1.8992  0.6581
  141TCq2    C1 2146   1.313   4.511  14.422  0.9579  0.1585 -0.5418
  141TCq2    O2 2147   1.348   4.603  14.352  0.1590  0.1546 -0.1594
  141TCq2    C2 2148   1.240   4.549  14.541 -0.0889 -0.8134  0.5457
  141TCq2    C3 2149   1.185   4.450  14.618 -0.3276 -0.4158 -0.3025
  141TCq2    C4 2150   1.098   4.476  14.718  0.3919 -0.5728  0.0786
  141TCq2    C5 2151   1.067   4.604  14.737 -0.2584 -0.4816 -0.5322
  141TCq2    C6 2152   1.126   4.707  14.666 -0.8077  0.2787  0.5059
  141TCq2    C7 2153   1.217   4.683  14.568  0.6587 -0.2970  0.4908
  141TCq2    C8 2154   1.080   0.123  14.687 -0.4380  0.4197  0.1002
  141TCq2    O4 2155   0.975   0.141  14.748 -0.2321  0.0409 -0.1127
  141TCq2    C9 2156   1.034   4.376  14.798  0.4764  0.3409  0.4087
  141TCq2    O5 2157   1.078   4.255  14.785 -0.0394 -0.2250 -0.1514
  141TCq2    O6 2158   0.958   4.409  14.891  0.0110 -0.2056 -0.5083
  141TCq2    H2 2159   1.190   4.347  14.584 -1.5570 -0.9647  1.1863
  141TCq2    H3 2160   1.013   4.627  14.828  1.3204  2.9065 -0.4556
  141TCq2    H4 2161   1.273   0.035  14.514  0.8990 -0.3808  0.6245
  142MPD2     C 2162   3.793   3.126  11.094 -0.6369 -0.2498 -0.3672
  142MPD2    C1 2163   3.807   3.161  10.963 -0.7290 -0.1941  0.2194
  142MPD2    C2 2164   3.919   3.246  10.930 -0.6242 -0.5193 -0.0205
  142MPD2    C3 2165   4.009   3.288  11.034 -0.1870 -0.1564 -0.1007
  142MPD2    C4 2166   3.989   3.245  11.165  0.0227  0.2937  0.6208
  142MPD2    C5 2167   3.884   3.158  11.190  0.0493  0.2386  0.3020
  142MPD2     H 2168   3.945   3.266  10.826  2.8818 -0.4424  0.8792
  142MPD2    H1 2169   4.065   3.267  11.239  0.2598  0.4228  0.3431
  142MPD2    H2 2170   3.704   3.072  11.125  0.5814 -1.6366  0.7167
  142MPD2    H3 2171   3.869   3.114  11.288 -0.1575  0.7726  0.5093
  142MPD2     N 2172   4.121   3.373  11.003  0.1906 -0.0857 -0.1821
  142MPD2    H5 2173   4.182   3.401  11.079  1.5954 -0.6208 -1.1257
  142MPD2    N1 2174   3.706   3.119  10.874  0.1779 -0.1390  0.1213
  142MPD2    H7 2175   3.640   3.056  10.920  0.1460 -0.4670 -0.3753
  143TCq2    C1 2176   4.161   3.415  10.876  0.7200  0.6378  0.2392
  143TCq2    O2 2177   4.111   3.403  10.768  0.3178 -0.5911 -0.1174
  143TCq2    C2 2178   4.286   3.484  10.881  0.5617  0.0594  0.4090
  143TCq2    C3 2179   4.353   3.457  10.992 -0.3733 -0.2392 -0.1000
  143TCq2    C4 2180   4.450   3.538  11.031  0.8378  0.3670  0.2908
  143TCq2    C5 2181   4.488   3.643  10.947 -0.0045  0.8933  0.0115
  143TCq2    C6 2182   4.408   3.670  10.841 -0.4249  0.4414 -0.4541
  143TCq2    C7 2183   4.300   3.595  10.810  0.3970  0.2437  0.1961
  143TCq2    C8 2184   4.421   3.790  10.768 -0.7723 -0.1504  1.0429
  143TCq2    O4 2185   4.325   3.840  10.712 -0.3008  0.0487 -0.8372
  143TCq2    C9 2186   4.521   3.506  11.156  0.0077  0.6008  0.1180
  143TCq2    O5 2187   4.462   3.434  11.242 -0.3338  0.0656 -0.1058
  143TCq2    O6 2188   4.638   3.551  11.164 -0.2702  0.1935  0.5316
  143TCq2    H2 2189   4.359   3.368  11.054 -2.0184  0.2870  0.8317
  143TCq2    H3 2190   4.559   3.716  10.984 -0.8684  1.1773  1.1053
  143TCq2    H4 2191   4.247   3.616  10.718  1.2303 -1.9137 -0.7745
  144MPD2     C 2192   1.469   2.123   0.334 -0.3015  0.2941 -0.3086
  144MPD2    C1 2193   1.498   1.994   0.286 -0.0857 -0.1599 -0.2779
  144MPD2    C2 2194   1.632   1.960   0.302  0.4125  0.1919  0.6501
  144MPD2    C3 2195   1.723   2.036   0.377  0.3999  0.3735  0.2762
  144MPD2    C4 2196   1.691   2.166   0.421  0.4829 -0.4411  0.5307
  144MPD2    C5 2197   1.559   2.203   0.401 -0.5170  0.5851 -0.6008
  144MPD2     H 2198   1.667   1.865   0.264 -1.9699 -0.1598 -0.6256
  144MPD2    H1 2199   1.764   2.231   0.468 -0.6861 -0.1584  1.9410
  144MPD2    H2 2200   1.367   2.161   0.329  0.0510  1.4353  1.1640
  144MPD2    H3 2201   1.516   2.295   0.440  0.4395  1.3407 -1.3121
  144MPD2     N 2202   1.854   1.999   0.414 -0.4134  0.0731  0.4822
  144MPD2    H5 2203   1.906   2.072   0.462 -0.0715 -0.5141  1.0013
  144MPD2    N1 2204   1.415   1.907   0.224  0.7383 -0.4123 -0.1273
  144MPD2    H7 2205   1.463   1.835   0.173 -1.0203 -0.3922 -1.8432
  145TCq2    C1 2206   1.897   1.867   0.415  0.1197  1.2697 -0.4973
  145TCq2    O2 2207   1.846   1.763   0.376 -0.5211 -0.1783 -0.1759
  145TCq2    C2 2208   2.017   1.855   0.494 -0.3409 -0.1724  0.0778
  145TCq2    C3 2209   2.106   1.770   0.442  0.2310 -0.5739  0.2584
  145TCq2    C4 2210   2.234   1.776   0.494  0.3045  0.6563 -0.9172
  145TCq2    C5 2211   2.262   1.852   0.603 -0.0085  0.3069 -0.5408
  145TCq2    C6 2212   2.167   1.942   0.650  0.0193  0.3051 -0.8075
  145TCq2    C7 2213   2.045   1.950   0.592 -0.1532  0.0207  0.0475
  145TCq2    C8 2214   2.198   2.017   0.773 -0.3529  0.0290  0.7072
  145TCq2    O4 2215   2.309   1.992   0.828  0.3872 -0.2860 -0.0765
  145TCq2    C9 2216   2.338   1.677   0.450  0.5075  0.1757 -0.2509
  145TCq2    O5 2217   2.446   1.679   0.512 -0.1766 -0.1380 -0.0828
  145TCq2    O6 2218   2.308   1.616   0.343  0.2578 -0.2634  0.3281
  145TCq2    H2 2219   2.085   1.689   0.373  0.1195  0.3243 -0.7598
  145TCq2    H3 2220   2.364   1.844   0.641 -0.9893 -1.4320  1.7168
  145TCq2    H4 2221   1.964   2.010   0.632  0.1861  1.6078 -1.6333
  146TMC2    C1 2222   2.566   0.670  12.328  0.0263  0.8204 -0.1261
  146TMC2    C2 2223   2.487   0.658  12.214 -0.1985  0.1626 -0.3540
  146TMC2    C3 2224   2.535   0.573  12.116 -0.0484 -0.5567  0.2698
  146TMC2    C4 2225   2.686   0.603  12.340  0.3995  0.2768 -0.3991
  146TMC2    C5 2226   2.731   0.528  12.236  0.1426 -0.5975 -0.4325
  146TMC2    C6 2227   2.661   0.510  12.119  0.0064  0.0471 -0.0048
  146TMC2     C 2228   2.533   0.769  12.426  0.1315  0.4540  0.1357
  146TMC2     O 2229   2.460   0.859  12.393  0.0682 -0.6855 -0.2575
  146TMC2     H 2230   2.406   0.729  12.199  0.0232  0.4683 -0.0927
  146TMC2    H1 2231   2.757   0.638  12.414  0.3649 -0.1544 -0.1613
  146TMC2    H2 2232   2.706   0.451  12.040  0.7137 -1.1022  1.2586
  146TMC2    C7 2233   2.879   0.514  12.233  0.0794 -0.2447  0.7547
  146TMC2    C8 2234   2.463   0.571  11.988  0.3371 -0.1196  0.3586
  146TMC2    O1 2235   2.942   0.507  12.127  0.9109 -0.2088  0.0729
  146TMC2    O2 2236   2.519   0.531  11.883  0.6077  0.2613 -0.6562
  146TMC2    O5 2237   2.333   0.562  12.009  0.1454  0.2629  0.0669
  146TMC2    H5 2238   2.306   0.577  12.102 -1.0412  1.9620 -0.5325
  147MPD2     C 2239   3.335   0.524  12.477  0.1083 -0.2514 -1.1567
  147MPD2    C1 2240   3.238   0.499  12.575 -0.1171  0.2767  0.1586
  147MPD2    C2 2241   3.105   0.488  12.532 -0.2416  0.0804  0.3696
  147MPD2    C3 2242   3.075   0.507  12.402  0.4644  0.1072 -0.2229
  147MPD2    C4 2243   3.171   0.520  12.311 -0.0181 -0.2954  0.1321
  147MPD2    C5 2244   3.304   0.529  12.344  0.2863 -0.1156 -0.6002
  147MPD2     H 2245   3.023   0.463  12.598 -0.8103  3.3344  0.9411
  147MPD2    H1 2246   3.158   0.548  12.207  0.5738 -1.2421 -0.1982
  147MPD2    H2 2247   3.439   0.525  12.509  0.3580  2.2298 -2.0897
  147MPD2    H3 2248   3.375   0.546  12.264  0.1662 -0.6091 -0.8145
  147MPD2     N 2249   2.936   0.509  12.360  0.1543  0.2443 -0.2668
  147MPD2    H5 2250   2.866   0.511  12.433  0.8534 -0.5849  0.4262
  147MPD2    N1 2251   3.284   0.487  12.708 -0.1167 -0.0921  0.3945
  147MPD2    H7 2252   3.382   0.498  12.730 -0.0759 -0.3831  0.3567
  148MPD2     C 2253   3.374   3.689  11.211  0.1938 -0.2749  0.7374
  148MPD2    C1 2254   3.389   3.707  11.076  0.5525  0.3770 -0.5088
  148MPD2    C2 2255   3.289   3.662  10.988  0.0693 -0.2639  0.3643
  148MPD2    C3 2256   3.179   3.599  11.042 -0.1080 -0.7274  0.0543
  148MPD2    C4 2257   3.169   3.577  11.175 -0.3148 -0.3546 -0.2650
  148MPD2    C5 2258   3.266   3.620  11.262 -0.0893  0.2617  0.6627
  148MPD2     H 2259   3.311   3.668  10.882 -1.2970 -0.6524  0.0553
  148MPD2    H1 2260   3.078   3.528  11.208 -0.1101 -0.6229 -0.0882
  148MPD2    H2 2261   3.449   3.723  11.281  0.6264 -2.4607  1.3255
  148MPD2    H3 2262   3.257   3.603  11.369  3.6263  1.1374  1.1413
  148MPD2     N 2263   3.073   3.542  10.958  0.0384  0.8378  0.2649
  148MPD2    H5 2264   3.003   3.484  11.003  0.3872  2.5250  3.0158
  148MPD2    N1 2265   3.507   3.780  11.030  0.6352  0.0134 -1.1270
  148MPD2    H7 2266   3.562   3.835  11.096 -1.6338  1.0492 -0.0845
  149TCq2    C1 2267   3.552   3.783  10.902  0.1222  0.5072 -0.2031
  149TCq2    O2 2268   3.532   3.701  10.813  0.2094 -0.2794 -0.0863
  149TCq2    C2 2269   3.654   3.887  10.872  0.0802 -0.1287 -0.4774
  149TCq2    C3 2270   3.646   4.012  10.932  0.6955 -0.6165  0.1477
  149TCq2    C4 2271   3.693   4.125  10.862  0.1357 -0.1382  0.2065
  149TCq2    C5 2272   3.728   4.113  10.728  0.3603 -0.1035 -0.3274
  149TCq2    C6 2273   3.720   3.989  10.673  0.1236  0.4856 -0.1805
  149TCq2    C7 2274   3.701   3.872  10.745  0.2147  0.4591 -0.5250
  149TCq2    C8 2275   3.705   3.978  10.526 -0.5668  0.4702 -0.1991
  149TCq2    O4 2276   3.722   3.869  10.474 -0.5050 -0.3727  0.4240
  149TCq2    C9 2277   3.660   4.252  10.918  0.5101  0.7189  0.1333
  149TCq2    O5 2278   3.654   4.261  11.043 -0.1614 -0.3760 -0.3332
  149TCq2    O6 2279   3.644   4.348  10.835  0.2351  0.2958  0.0503
  149TCq2    H2 2280   3.585   4.019  11.021  1.1932  0.2307  0.4279
  149TCq2    H3 2281   3.747   4.202  10.669  0.3170 -0.5005 -0.9333
  149TCq2    H4 2282   3.695   3.776  10.696 -1.2534  0.3550 -0.1444
  150MPD2     C 2283   0.279   3.458  12.101 -0.1702  0.0141 -0.1974
  150MPD2    C1 2284   0.226   3.590  12.091 -0.3693 -0.5487 -0.5264
  150MPD2    C2 2285   0.283   3.687  12.166 -0.1729  0.0806  0.0724
  150MPD2    C3 2286   0.402   3.668  12.237  0.1490 -0.1030  0.2526
  150MPD2    C4 2287   0.456   3.541  12.240  0.3617 -0.3352  0.6841
  150MPD2    C5 2288   0.396   3.436  12.177 -0.0526  0.3812  0.9254
  150MPD2     H 2289   0.246   3.788  12.173 -1.3572 -0.2983 -0.7563
  150MPD2    H1 2290   0.539   3.510  12.302  0.4308 -0.3116  0.6032
  150MPD2    H2 2291   0.239   3.382  12.035  0.9167  0.0963 -0.9535
  150MPD2    H3 2292   0.428   3.333  12.169  0.1979  0.3284  2.5962
  150MPD2     N 2293   0.460   3.784  12.307  0.0016 -0.1903 -0.5230
  150MPD2    H5 2294   0.406   3.869  12.294  0.8783  0.2902 -1.0286
  150MPD2    N1 2295   0.111   3.605  12.014 -0.1992  0.2350 -0.2451
  150MPD2    H7 2296   0.073   3.521  11.972  1.6204 -0.2241 -0.9720
  151TCq2    C1 2297   0.577   3.780  12.378  0.2236 -0.2672  0.0869
  151TCq2    O2 2298   0.660   3.691  12.389 -0.1908 -0.2503  0.3329
  151TCq2    C2 2299   0.598   3.906  12.449 -0.6522  0.0416 -0.3054
  151TCq2    C3 2300   0.500   4.003  12.468  0.7012  0.0514 -0.5650
  151TCq2    C4 2301   0.520   4.112  12.550 -0.2571 -0.0534  0.1613
  151TCq2    C5 2302   0.642   4.131  12.601 -0.4792 -0.7150 -0.0103
  151TCq2    C6 2303   0.736   4.028  12.589  0.7570  0.4920  0.8917
  151TCq2    C7 2304   0.717   3.911  12.517  0.3526  0.5001 -0.5613
  151TCq2    C8 2305   0.866   4.045  12.644 -0.2358 -0.1203 -0.4877
  151TCq2    O4 2306   0.920   4.153  12.653  0.0982 -0.0452  0.3198
  151TCq2    C9 2307   0.414   4.215  12.553 -0.5083 -0.6663  0.2607
  151TCq2    O5 2308   0.444   4.334  12.569  0.4984  0.5043 -0.3441
  151TCq2    O6 2309   0.299   4.181  12.510 -0.0709  0.0438 -0.0460
  151TCq2    H2 2310   0.402   3.998  12.422  0.7081  0.8217 -0.6694
  151TCq2    H3 2311   0.638   4.203  12.683 -1.3087 -0.8779  0.0853
  151TCq2    H4 2312   0.795   3.840  12.491  0.7799  1.1138 -0.9596
  152MPD2     C 2313   4.642   3.475  12.443  0.8026  0.2848  0.5053
  152MPD2    C1 2314   4.699   3.602  12.424  0.3599  0.9842 -0.7974
  152MPD2    C2 2315   4.636   3.693  12.341 -0.0819  0.1061  0.9306
  152MPD2    C3 2316   4.514   3.663  12.281 -0.1725  0.3860 -0.0591
  152MPD2    C4 2317   4.461   3.537  12.301  0.3169 -0.1586 -0.4792
  152MPD2    C5 2318   4.522   3.443  12.381 -0.0469 -0.0173  0.0881
  152MPD2     H 2319   4.686   3.784  12.312  1.7749 -2.0756 -2.7236
  152MPD2    H1 2320   4.368   3.505  12.255  0.2800 -2.2526  1.0900
  152MPD2    H2 2321   4.687   3.409  12.516  1.0182 -0.2366 -0.1066
  152MPD2    H3 2322   4.466   3.352  12.399 -0.6259  0.3587  0.2055
  152MPD2     N 2323   4.461   3.760  12.193  0.2407 -0.7910  0.1475
  152MPD2    H5 2324   4.519   3.842  12.179 -0.8083 -0.1405 -0.4230
  152MPD2    N1 2325   0.100   3.621  12.491  0.0442 -0.0705  0.7722
  152MPD2    H7 2326   0.145   3.540  12.533 -0.1617  0.3391  1.7968
  153TCq2    C1 2327   0.165   3.741  12.519  0.6166  0.0287 -0.5791
  153TCq2    O2 2328   0.111   3.851  12.513 -0.4686  0.0717 -0.1282
  153TCq2    C2 2329   0.290   3.723  12.603  0.0364  0.4575 -0.3214
  153TCq2    C3 2330   0.357   3.604  12.600  0.4911  0.1590  0.0772
  153TCq2    C4 2331   0.461   3.584  12.688 -0.1392 -0.0776  0.2224
  153TCq2    C5 2332   0.491   3.682  12.778  0.2554 -0.3721  0.6932
  153TCq2    C6 2333   0.426   3.800  12.775 -0.1116 -0.9140  0.5399
  153TCq2    C7 2334   0.325   3.824  12.690  0.2439 -0.1696 -0.6339
  153TCq2    C8 2335   0.491   3.920  12.833 -1.4275 -0.0107  0.0440
  153TCq2    O4 2336   0.420   4.023  12.830 -0.0827 -0.4431  0.1924
  153TCq2    C9 2337   0.539   3.465  12.687  0.7327  0.4444  0.2935
  153TCq2    O5 2338   0.480   3.365  12.637 -0.1115  0.5491  0.4769
  153TCq2    O6 2339   0.649   3.468  12.752  0.3403  0.2697 -0.0794
  153TCq2    H2 2340   0.335   3.527  12.528  1.3621  0.3750 -0.4145
  153TCq2    H3 2341   0.573   3.663  12.846  0.6009 -0.3731  0.2828
  153TCq2    H4 2342   0.257   3.908  12.697 -0.6701 -0.8954 -0.8125
  154MPD2     C 2343   1.571   3.772   0.484 -0.5060 -0.2540  0.8940
  154MPD2    C1 2344   1.595   3.694   0.594 -0.5697 -0.4880 -0.0456
  154MPD2    C2 2345   1.485   3.661   0.669  1.0712  0.2885 -0.9325
  154MPD2    C3 2346   1.357   3.712   0.648 -0.1983  0.2871 -0.1040
  154MPD2    C4 2347   1.333   3.796   0.539 -0.2558 -0.0575 -0.2597
  154MPD2    C5 2348   1.445   3.820   0.458 -0.0567 -0.6284  0.3314
  154MPD2     H 2349   1.494   3.597   0.757 -0.5390  0.2651 -0.7836
  154MPD2    H1 2350   1.238   3.830   0.502 -0.6631  0.2412  1.0644
  154MPD2    H2 2351   1.645   3.798   0.409 -1.6926  1.1978  0.2243
  154MPD2    H3 2352   1.426   3.872   0.365 -0.6369  0.4977  1.0911
  154MPD2     N 2353   1.246   3.673   0.726 -0.0679  0.1894  0.3066
  154MPD2    H5 2354   1.278   3.610   0.800  0.7147  0.8841  0.5614
  154MPD2    N1 2355   1.727   3.648   0.624 -0.1631  0.0059 -0.3876
  154MPD2    H7 2356   1.804   3.688   0.571 -0.2904  0.7166 -0.0323
  155TCq2    C1 2357   1.762   3.569   0.735 -0.1862 -1.0354  0.1838
  155TCq2    O2 2358   1.693   3.520   0.824  0.4753  0.3475  0.1453
  155TCq2    C2 2359   1.906   3.545   0.724  0.4063  0.0009 -0.5249
  155TCq2    C3 2360   1.960   3.460   0.822 -0.1339 -0.3681  0.3637
  155TCq2    C4 2361   2.088   3.414   0.798 -0.1652  0.3981 -0.3599
  155TCq2    C5 2362   2.173   3.460   0.704 -0.4842  0.0085 -0.2528
  155TCq2    C6 2363   2.114   3.544   0.611  0.5719 -0.0421  0.4139
  155TCq2    C7 2364   1.985   3.591   0.621 -0.0179  0.2250  0.5777
  155TCq2    C8 2365   2.195   3.596   0.505 -0.0115  0.1411  0.2544
  155TCq2    O4 2366   2.166   3.709   0.475 -0.5563 -0.5771 -0.2922
  155TCq2    C9 2367   2.136   3.323   0.899  0.3697  0.4311  0.0228
  155TCq2    O5 2368   2.246   3.254   0.883  0.2838  0.0659 -0.4658
  155TCq2    O6 2369   2.060   3.319   0.999  0.4211 -0.7024 -0.5338
  155TCq2    H2 2370   1.893   3.410   0.892  0.6442  0.3215  1.6033
  155TCq2    H3 2371   2.272   3.417   0.707  0.3291  1.9617  0.7171
  155TCq2    H4 2372   1.959   3.671   0.552 -2.1548 -0.4944  0.5766
  156MPD2     C 2373   0.442   0.761  12.260  0.1123 -0.1414  0.6122
  156MPD2    C1 2374   0.476   0.878  12.197 -0.0507  0.3842 -0.2166
  156MPD2    C2 2375   0.480   0.995  12.265  0.2883 -0.4304  0.6378
  156MPD2    C3 2376   0.448   0.996  12.402  0.0364  0.2457  0.1672
  156MPD2    C4 2377   0.419   0.880  12.470 -0.2878  0.3556 -0.3952
  156MPD2    C5 2378   0.407   0.763  12.395  0.0471  0.1378  0.6831
  156MPD2     H 2379   0.531   1.078  12.217 -1.0059 -0.0657 -0.0981
  156MPD2    H1 2380   0.385   0.884  12.573 -0.0489  1.1181 -0.3438
  156MPD2    H2 2381   0.451   0.668  12.204  0.2331  0.6191 -0.6445
  156MPD2    H3 2382   0.392   0.670  12.448 -0.0178 -1.8628 -2.9139
  156MPD2     N 2383   0.460   1.125  12.462  0.1656  0.1039  0.0320
  156MPD2    H5 2384   0.485   1.204  12.403  1.5692 -0.2091  0.2117
  156MPD2    N1 2385   0.497   0.868  12.054  0.0924 -0.3089  0.6430
  156MPD2    H7 2386   0.518   0.773  12.026 -1.6592 -0.4572 -0.1433
  157TCq2    C1 2387   0.482   0.967  11.968  0.5001  0.2509 -0.4799
  157TCq2    O2 2388   0.429   1.075  11.990 -0.4978  0.5619  0.1406
  157TCq2    C2 2389   0.527   0.941  11.832  1.1574  0.4870 -0.4047
  157TCq2    C3 2390   0.601   0.826  11.806  0.5184  0.5926  0.2388
  157TCq2    C4 2391   0.637   0.806  11.675 -0.1178 -0.5927 -0.1602
  157TCq2    C5 2392   0.615   0.899  11.586 -0.7859 -0.2179 -0.8077
  157TCq2    C6 2393   0.552   1.021  11.613 -0.5999  0.1120 -0.6886
  157TCq2    C7 2394   0.499   1.035  11.737  0.2397 -0.0153 -0.1955
  157TCq2    C8 2395   0.523   1.118  11.511  0.4289  0.0863 -0.1838
  157TCq2    O4 2396   0.506   1.236  11.544 -0.1512  0.1978 -0.0766
  157TCq2    C9 2397   0.708   0.685  11.644  0.1876 -0.5422  0.5574
  157TCq2    O5 2398   0.736   0.670  11.522  0.4328  0.4173  0.7712
  157TCq2    O6 2399   0.748   0.609  11.739  0.4244 -0.2749 -0.5294
  157TCq2    H2 2400   0.627   0.757  11.884 -1.2875  0.1212  0.4295
  157TCq2    H3 2401   0.661   0.886  11.488 -0.3026 -1.2610 -0.4426
  157TCq2    H4 2402   0.463   1.134  11.765  0.5517  0.4664 -1.4516
  158TMC2    C1 2403   1.033   0.087  13.943 -0.2253 -0.1447 -0.4517
  158TMC2    C2 2404   1.118   0.161  13.870  0.0647  0.6990 -0.1740
  158TMC2    C3 2405   1.071   0.280  13.832  0.0595 -0.0863 -0.0769
  158TMC2    C4 2406   0.903   0.126  13.962 -0.1924  0.6271  0.4127
  158TMC2    C5 2407   0.861   0.246  13.916  0.6305 -0.2287 -0.5591
  158TMC2    C6 2408   0.941   0.330  13.846  1.0077 -0.3784  0.0707
  158TMC2     C 2409   1.067   4.668  13.953  0.1154  0.0176  0.2090
  158TMC2     O 2410   1.153   4.638  13.870  0.5456  0.0772 -0.0129
  158TMC2     H 2411   1.223   0.136  13.869 -0.0803  0.0486  0.5062
  158TMC2    H1 2412   0.835   0.065  14.022  1.5369  0.5714  2.3048
  158TMC2    H2 2413   0.895   0.420  13.806 -0.0228 -1.9590 -2.2911
  158TMC2    C7 2414   0.723   0.274  13.894  0.8549 -0.4301  0.5821
  158TMC2    C8 2415   1.156   0.361  13.749 -0.7663  0.0008  0.3402
  158TMC2    O1 2416   0.685   0.387  13.907 -0.2537 -0.2567  0.1864
  158TMC2    O2 2417   1.123   0.429  13.653 -0.2654 -0.0092 -0.1007
  158TMC2    O5 2418   1.253   0.412  13.830 -0.4739 -0.0992 -0.1576
  158TMC2    H5 2419   1.283   0.349  13.899  2.6702  0.6314 -0.8567
  159MPD2     C 2420   0.996   4.195  14.156 -0.0538  0.6906 -0.3130
  159MPD2    C1 2421   0.912   4.276  14.226 -0.0309  0.6763 -0.1008
  159MPD2    C2 2422   0.924   4.407  14.193  0.4675  0.8321 -0.1333
  159MPD2    C3 2423   1.002   4.459  14.089 -0.4927 -0.8716 -0.0024
  159MPD2    C4 2424   1.087   4.372  14.027 -0.4760 -0.0135  0.5449
  159MPD2    C5 2425   1.076   4.238  14.052 -0.1035 -0.3619 -0.2033
  159MPD2     H 2426   0.861   4.476  14.247  0.0425 -0.6849  1.3278
  159MPD2    H1 2427   1.161   4.405  13.955  0.2916 -1.2834  0.7635
  159MPD2    H2 2428   0.990   4.087  14.168 -1.7176  0.9150  0.7486
  159MPD2    H3 2429   1.120   4.159  13.992 -0.0953  1.0771 -2.0554
  159MPD2     N 2430   1.001   4.602  14.055 -0.1606  0.1510 -0.4945
  159MPD2    H5 2431   0.947   4.653  14.124  0.3978  1.6339 -1.1695
  159MPD2    N1 2432   0.834   4.217  14.334 -0.1539 -0.1545 -0.1875
  159MPD2    H7 2433   0.841   4.115  14.332  2.9178  0.1025 -2.4382
  160TMC2    C1 2434   4.328   2.774   1.120 -1.0067 -0.0252 -0.0942
  160TMC2    C2 2435   4.315   2.659   1.187 -0.8060  0.4507 -0.5665
  160TMC2    C3 2436   4.315   2.541   1.112 -0.0901 -0.3734 -0.5902
  160TMC2    C4 2437   4.362   2.781   0.989  0.9185  0.9451  0.7458
  160TMC2    C5 2438   4.371   2.668   0.918  0.4031 -0.0519 -0.2369
  160TMC2    C6 2439   4.341   2.549   0.974  0.4777 -0.5967 -0.0856
  160TMC2     C 2440   4.302   2.897   1.195 -0.1127 -0.1426 -0.5409
  160TMC2     O 2441   4.312   2.891   1.313 -0.5474 -0.0543  0.2690
  160TMC2     H 2442   4.300   2.645   1.294  2.8820  0.5026 -0.0155
  160TMC2    H1 2443   4.379   2.875   0.939 -0.9318  1.2659  0.7134
  160TMC2    H2 2444   4.363   2.462   0.913  2.6490  0.0203 -0.1970
  160TMC2    C7 2445   4.469   2.670   0.812 -0.4054  0.1947  0.0508
  160TMC2    C8 2446   4.297   2.415   1.173  0.7915  0.0121 -0.0470
  160TMC2    O1 2447   4.440   2.605   0.715 -0.0773  0.3317 -0.1820
  160TMC2    O2 2448   4.304   2.408   1.294  0.3515  0.0126 -0.4661
  160TMC2    O5 2449   4.218   2.334   1.101 -0.5339  0.0390 -0.4190
  160TMC2    H5 2450   4.210   2.353   1.005  1.6256 -5.2322 -1.6600
  161MPD2     C 2451   4.278   3.177   1.275  0.2242  0.2447 -0.2458
  161MPD2    C1 2452   4.210   3.126   1.159 -0.0269 -0.4227 -0.5366
  161MPD2    C2 2453   4.112   3.196   1.101 -0.3544 -0.2151  0.1091
  161MPD2    C3 2454   4.062   3.310   1.165 -0.6464  0.1765 -1.2732
  161MPD2    C4 2455   4.108   3.343   1.298  0.3231  0.6106  0.0454
  161MPD2    C5 2456   4.222   3.284   1.342 -0.5280  0.4502 -0.3216
  161MPD2     H 2457   4.073   3.154   1.009  0.5826  0.5372 -0.6451
  161MPD2    H1 2458   4.077   3.428   1.357  2.6755  0.9127  0.8769
  161MPD2    H2 2459   4.371   3.133   1.307  0.6323  0.4243 -1.1956
  161MPD2    H3 2460   4.274   3.321   1.430 -1.4392 -0.0779  0.4431
  161MPD2     N 2461   3.953   3.390   1.121  0.4056  0.2553 -1.0866
  161MPD2    H5 2462   3.912   3.452   1.190 -0.0152 -1.0433 -0.1596
  161MPD2    N1 2463   4.249   2.998   1.113 -0.0605 -0.2794  0.2798
  161MPD2    H7 2464   4.238   2.979   1.014  0.9048  3.6631 -0.5817
  162TMC2    C1 2465   2.360   0.733   0.957 -0.0000 -0.0990  0.2926
  162TMC2    C2 2466   2.328   0.867   0.978  0.2844  0.2689  0.3894
  162TMC2    C3 2467   2.283   0.898   1.106 -0.3773  0.2837  0.3505
  162TMC2    C4 2468   2.337   0.630   1.046 -0.2439 -0.0585  0.3098
  162TMC2    C5 2469   2.291   0.672   1.172 -0.3020  0.1199 -1.0773
  162TMC2    C6 2470   2.264   0.800   1.201  0.5756 -0.0637  0.7434
  162TMC2     C 2471   2.417   0.696   0.833 -0.5289 -0.5376 -1.3280
  162TMC2     O 2472   2.418   0.575   0.807 -0.2906  0.0613 -0.2841
  162TMC2     H 2473   2.323   0.942   0.900  2.3534  0.4248  0.4145
  162TMC2    H1 2474   2.342   0.522   1.031 -2.4937 -0.5417  3.0483
  162TMC2    H2 2475   2.237   0.831   1.301 -1.5107  0.7823 -0.0829
  162TMC2    C7 2476   2.210   0.589   1.255  0.7049 -0.4725  0.1545
  162TMC2    C8 2477   2.266   1.041   1.134  0.1815  0.3266 -0.2918
  162TMC2    O1 2478   2.111   0.649   1.289  0.3347  0.2586  0.6568
  162TMC2    O2 2479   2.297   1.129   1.054  0.0052  0.0592 -0.4517
  162TMC2    O5 2480   2.162   1.053   1.222 -0.5663 -0.3934  0.1382
  162TMC2    H5 2481   2.100   0.982   1.248 -1.0433  0.0739  0.2693
  163MPD2     C 2482   2.607   0.850   0.369  0.7306  0.3854  0.0222
  163MPD2    C1 2483   2.565   0.725   0.412 -0.2978 -1.0108  0.1795
  163MPD2    C2 2484   2.522   0.706   0.546 -0.1604 -0.0296  0.4892
  163MPD2    C3 2485   2.520   0.809   0.635  0.1317 -0.1793  0.5210
  163MPD2    C4 2486   2.573   0.925   0.595 -0.6250  0.4234 -0.5876
  163MPD2    C5 2487   2.620   0.943   0.468 -0.1604 -0.4550  0.4664
  163MPD2     H 2488   2.497   0.609   0.586 -3.1101 -0.1611 -1.6501
  163MPD2    H1 2489   2.577   1.017   0.653 -1.2272  1.7584 -2.6650
  163MPD2    H2 2490   2.630   0.876   0.266 -0.5471  2.2048  0.2023
  163MPD2    H3 2491   2.650   1.042   0.435 -1.2194  0.1349  1.2892
  163MPD2     N 2492   2.472   0.800   0.764 -0.0016  0.4438 -0.2487
  163MPD2    H5 2493   2.499   0.883   0.815  1.9286 -0.6961  0.5945
  163MPD2    N1 2494   2.583   0.620   0.322 -0.4657 -0.6603  0.2857
  163MPD2    H7 2495   2.623   0.643   0.232 -0.8267  0.5544  0.4430
  164TCq2    C1 2496   3.725   4.663  11.474  0.0588  0.4508 -0.4005
  164TCq2    O2 2497   3.662   4.571  11.522 -0.0065  0.2693  0.1472
  164TCq2    C2 2498   3.649   0.027  11.384 -0.2745 -0.4710  0.6410
  164TCq2    C3 2499   3.719   0.085  11.285 -0.5406  0.5265 -0.2083
  164TCq2    C4 2500   3.647   0.177  11.214 -0.6111  0.2909 -0.1423
  164TCq2    C5 2501   3.517   0.208  11.241 -0.4409 -0.2065 -0.6320
  164TCq2    C6 2502   3.457   0.154  11.350  0.6138  0.1162  0.2457
  164TCq2    C7 2503   3.526   0.070  11.428 -0.1302 -0.1484  0.1709
  164TCq2    C8 2504   3.334   0.224  11.387 -0.3121 -0.6073  0.2849
  164TCq2    O4 2505   3.287   0.295  11.299  0.0433 -0.0404  0.9343
  164TCq2    C9 2506   3.700   0.228  11.091  0.7184 -0.1440  1.1265
  164TCq2    O5 2507   3.803   0.175  11.045  0.3478 -0.0946  0.1627
  164TCq2    O6 2508   3.640   0.330  11.048 -0.2633  0.2072  0.5523
  164TCq2    H2 2509   3.818   0.056  11.252 -0.3162  1.2402 -0.1596
  164TCq2    H3 2510   3.478   0.284  11.174 -1.8995  1.5645  2.1728
  164TCq2    H4 2511   3.479   0.015  11.510  1.2315 -2.0127 -0.2875
  165MPD2     C 2512   0.399   1.069   1.565  0.3734  0.0496  0.4395
  165MPD2    C1 2513   0.263   1.066   1.573 -0.2343  0.1604 -0.0711
  165MPD2    C2 2514   0.204   1.176   1.622 -0.7044 -0.1048 -1.0893
  165MPD2    C3 2515   0.272   1.294   1.662 -0.0913 -0.3566  0.5801
  165MPD2    C4 2516   0.411   1.301   1.640 -1.1035  0.2887  0.3783
  165MPD2    C5 2517   0.474   1.182   1.593 -0.2874 -0.5894  0.6902
  165MPD2     H 2518   0.098   1.187   1.637 -0.8273 -0.0013 -2.0016
  165MPD2    H1 2519   0.475   1.380   1.677  1.6150 -1.2899 -0.9613
  165MPD2    H2 2520   0.451   0.983   1.525  1.4982  0.8258  0.2376
  165MPD2    H3 2521   0.582   1.177   1.579 -0.5505  3.3953 -2.7827
  165MPD2     N 2522   0.203   1.409   1.710  0.1512  0.5586 -0.0287
  165MPD2    H5 2523   0.257   1.495   1.717  1.0782 -0.1482  1.5741
  165MPD2    N1 2524   0.192   0.953   1.528  0.4574 -0.0958  0.2169
  165MPD2    H7 2525   0.245   0.870   1.502  0.9237  0.9083 -2.0332
  166TCq2    C1 2526   0.071   1.415   1.752  0.8143  0.2462 -0.3745
  166TCq2    O2 2527   4.719   1.332   1.796 -0.0207 -0.4112 -0.1276
  166TCq2    C2 2528   0.029   1.555   1.779 -0.8003 -0.3795 -0.8737
  166TCq2    C3 2529   4.665   1.578   1.887 -0.3668  0.5951 -0.3197
  166TCq2    C4 2530   4.658   1.698   1.941  0.1872 -0.0047  0.1086
  166TCq2    C5 2531   0.024   1.790   1.909 -0.3291  0.7011 -0.0587
  166TCq2    C6 2532   0.104   1.774   1.802 -0.1497  0.4923  0.2474
  166TCq2    C7 2533   0.107   1.655   1.736  0.2177  0.5606  0.4612
  166TCq2    C8 2534   0.165   1.885   1.731 -0.4313  0.0721  0.1684
  166TCq2    O4 2535   0.258   1.857   1.655 -0.4646 -0.0840  0.1525
  166TCq2    C9 2536   4.569   1.715   2.050 -0.3683  0.4752 -0.4929
  166TCq2    O5 2537   4.548   1.829   2.087  0.1157 -0.2957  0.5239
  166TCq2    O6 2538   4.540   1.610   2.117  0.3887  0.2739 -0.3386
  166TCq2    H2 2539   4.612   1.488   1.918 -0.5077  0.9273  0.3864
  166TCq2    H3 2540   0.031   1.881   1.968  0.4011  1.2413 -0.9637
  166TCq2    H4 2541   0.142   1.647   1.634 -3.3462  0.4746 -0.7280
  167TMC2    C1 2542   2.422   4.601  12.012 -0.0728 -0.0559 -0.7084
  167TMC2    C2 2543   2.293   4.641  12.018 -0.0177 -0.3956  0.2339
  167TMC2    C3 2544   2.239   4.631  12.144  0.0807 -0.4183 -0.3053
  167TMC2    C4 2545   2.508   4.574  12.125 -0.5769  0.8420  0.2574
  167TMC2    C5 2546   2.451   4.581  12.245 -0.1729  0.5634  0.0788
  167TMC2    C6 2547   2.318   4.607  12.259 -0.0824  0.1143  0.1586
  167TMC2     C 2548   2.470   4.571  11.878  0.1044 -0.3415  0.0136
  167TMC2     O 2549   2.398   4.608  11.791 -0.1328  0.5522 -0.2907
  167TMC2     H 2550   2.223   4.640  11.936  3.2435 -3.7946 -2.4914
  167TMC2    H1 2551   2.613   4.561  12.103 -0.8883  3.0045 -2.4723
  167TMC2    H2 2552   2.279   4.613  12.360 -1.2736 -0.3359 -0.2741
  167TMC2    C7 2553   2.520   4.508  12.358 -0.4234  0.1785  0.0525
  167TMC2    C8 2554   2.097   4.622  12.150 -0.1635  0.5101 -0.5176
  167TMC2    O1 2555   2.492   4.545  12.471  0.7417  0.0539  0.8049
  167TMC2    O2 2556   2.024   4.655  12.056 -0.5845  0.3703 -0.2114
  167TMC2    O5 2557   2.064   4.522  12.234  0.5764  0.8306 -0.1096
  167TMC2    H5 2558   2.146   4.479  12.268 -1.1087 -2.2466  0.0572
  168MPD2     C 2559   2.633   4.508  11.642 -0.1786  0.0753 -0.4255
  168MPD2    C1 2560   2.655   4.447  11.765 -0.0612  0.2874 -0.8963
  168MPD2    C2 2561   2.750   4.349  11.783  0.0996 -0.2980 -0.0698
  168MPD2    C3 2562   2.810   4.299  11.673 -0.5293  0.3022  0.1671
  168MPD2    C4 2563   2.794   4.354  11.550 -0.3303 -0.3477 -0.5302
  168MPD2    C5 2564   2.709   4.459  11.541  0.0787 -0.3028 -0.3692
  168MPD2     H 2565   2.761   4.302  11.880 -1.5549  0.0490  0.2975
  168MPD2    H1 2566   2.841   4.312  11.462  1.1883 -0.0003  0.1163
  168MPD2    H2 2567   2.548   4.567  11.610  0.3885 -0.0540 -2.2159
  168MPD2    H3 2568   2.682   4.484  11.439  1.7388 -1.2396 -1.0232
  168MPD2     N 2569   2.880   4.172  11.671 -0.1486 -1.0037  0.0626
  168MPD2    H5 2570   2.909   4.148  11.576 -1.5641  0.9463 -0.8483
  168MPD2    N1 2571   2.581   4.494  11.882 -0.2091 -0.7392  0.0220
  168MPD2    H7 2572   2.614   4.450  11.967  0.2328 -0.6538 -0.1017
  169MPD1     C 2573   1.355   0.272   8.641 -0.8330 -0.3661  0.8883
  169MPD1    C1 2574   1.224   0.248   8.694 -0.2696 -0.2294 -0.2241
  169MPD1    C2 2575   1.188   0.126   8.741  0.1055  0.9019  0.0311
  169MPD1    C3 2576   1.279   0.021   8.754 -0.6481 -0.3080 -0.1578
  169MPD1    C4 2577   1.406   0.048   8.699  0.0961  0.2378 -0.2692
  169MPD1    C5 2578   1.440   0.166   8.650  0.2511  0.6115 -0.3359
  169MPD1     H 2579   1.086   0.108   8.774  0.0721  0.8457 -0.1061
  169MPD1    H1 2580   1.487   4.700   8.689  0.4626  0.8672 -1.7422
  169MPD1    H2 2581   1.386   0.363   8.591  0.4865 -1.1806  0.2109
  169MPD1    H3 2582   1.541   0.183   8.614  0.5943  0.6086  0.5967
  169MPD1     N 2583   1.247   4.609   8.795 -0.6595  0.2907  0.1187
  169MPD1    H5 2584   1.150   4.588   8.816 -0.5107 -1.3983 -0.7991
  169MPD1    N1 2585   1.129   0.349   8.672  0.3088 -0.6563  0.1943
  169MPD1    H6 2586   1.170   0.440   8.656 -1.7866  0.5070  1.3560
  169MPD1    H7 2587   1.059   0.353   8.746  0.5891  1.0255  0.3558
  170MPD1     C 2588   3.899   1.434  12.884 -0.0415  0.2996  0.1653
  170MPD1    C1 2589   4.006   1.436  12.976 -0.3069 -0.2360  0.1880
  170MPD1    C2 2590   4.009   1.539  13.068 -0.1974 -0.3858 -0.1834
  170MPD1    C3 2591   3.910   1.640  13.071 -0.4624  0.4336 -0.2787
  170MPD1    C4 2592   3.802   1.630  12.976  0.3281  0.0173  0.0844
  170MPD1    C5 2593   3.804   1.531  12.881 -0.1850 -0.3231 -0.2278
  170MPD1     H 2594   4.094   1.541  13.135 -0.4847 -0.9572  0.2000
  170MPD1    H1 2595   3.722   1.702  12.963  0.2642 -0.2029 -0.7129
  170MPD1    H2 2596   3.886   1.357  12.809 -1.5464 -0.3679  1.0870
  170MPD1    H3 2597   3.730   1.527  12.802  0.2354 -0.4497 -0.6131
  170MPD1     N 2598   3.920   1.736  13.173  0.4260 -0.5820  0.3737
  170MPD1    H5 2599   4.003   1.736  13.232  1.6135 -0.5960 -1.2938
  170MPD1    N1 2600   4.115   1.351  12.967 -0.4728  0.0013  0.0067
  170MPD1    H6 2601   4.091   1.274  12.906 -1.3850  0.9987 -0.8993
  170MPD1    H7 2602   4.163   1.327  13.054  0.1524 -0.5772 -0.5035
  171MPD1     C 2603   2.835   3.345  15.640  0.5132  0.0143  0.0267
  171MPD1    C1 2604   2.744   3.262  15.571  0.2721  0.2796  0.5837
  171MPD1    C2 2605   2.761   3.122  15.595  0.1437 -0.1164  0.7965
  171MPD1    C3 2606   2.863   3.066  15.677  0.6368  0.3080  0.0162
  171MPD1    C4 2607   2.950   3.163  15.730 -0.2788  0.2444 -0.1223
  171MPD1    C5 2608   2.937   3.295  15.712  0.0956 -0.2149  0.0586
  171MPD1     H 2609   2.693   3.053  15.547  0.7650 -0.7006  0.7658
  171MPD1    H1 2610   3.031   3.138  15.797 -0.0609  1.2405 -0.0065
  171MPD1    H2 2611   2.833   3.453  15.626 -0.3007 -0.2516 -1.9851
  171MPD1    H3 2612   2.995   3.367  15.770  0.0118  0.7179 -1.0111
  171MPD1     N 2613   2.877   2.926  15.708 -0.3045 -0.3283  1.0796
  171MPD1    H5 2614   2.959   2.903  15.764 -0.7100 -1.3374  1.2530
  171MPD1    N1 2615   2.624   3.317  15.516 -0.6303  0.9380 -0.4397
  171MPD1    H6 2616   2.580   3.269  15.438  5.5416 -1.3717 -2.4902
  171MPD1    H7 2617   2.656   3.404  15.474  0.1977  1.2250  0.7939
  172MPD1     C 2618   2.072   1.784  16.898  0.1132 -0.4224  0.0611
  172MPD1    C1 2619   2.006   1.899  16.940  0.2549 -0.1844 -0.0049
  172MPD1    C2 2620   1.992   1.925  17.074  0.4382 -0.2207 -0.0494
  172MPD1    C3 2621   2.025   1.835  17.170  0.2367  0.4852  0.0272
  172MPD1    C4 2622   2.102   1.734  17.129 -0.1036  0.3888 -0.5173
  172MPD1    C5 2623   2.123   1.706  16.995  0.2464  0.3898  0.5500
  172MPD1     H 2624   1.944   2.019  17.099 -1.3280 -1.2244  0.4369
  172MPD1    H1 2625   2.152   1.664  17.195  0.6863  0.5795 -0.9163
  172MPD1    H2 2626   2.086   1.750  16.797 -2.3512 -1.6920  0.1482
  172MPD1    H3 2627   2.185   1.618  16.980 -0.7959 -0.0628 -1.0935
  172MPD1     N 2628   2.007   1.857  17.309  0.6767  0.4286  0.4436
  172MPD1    H5 2629   2.016   1.773  17.365 -1.0222 -0.0207  0.0545
  172MPD1    N1 2630   1.944   1.970  16.839 -0.3653 -0.3044 -0.4789
  172MPD1    H6 2631   1.997   1.971  16.753 -2.5319 -1.2235 -1.8168
  172MPD1    H7 2632   1.944   2.069  16.862  0.3581 -0.2581 -0.6718
  173MPD1     C 2633   3.435   2.435  13.846  0.4966 -0.0476 -0.6976
  173MPD1    C1 2634   3.509   2.351  13.928  0.1192  0.1676 -0.4846
  173MPD1    C2 2635   3.451   2.231  13.967  0.0385 -0.0956  0.0291
  173MPD1    C3 2636   3.314   2.208  13.961 -0.0553 -0.4572 -0.0764
  173MPD1    C4 2637   3.243   2.288  13.885  0.1410 -0.8062  0.4378
  173MPD1    C5 2638   3.299   2.399  13.823  0.0796  0.0347  0.1609
  173MPD1     H 2639   3.509   2.158  14.022 -1.5528 -0.5729  1.0844
  173MPD1    H1 2640   3.134   2.284  13.880 -0.0323  0.5995  2.8634
  173MPD1    H2 2641   3.479   2.516  13.789  1.8742  0.4579  1.1098
  173MPD1    H3 2642   3.241   2.459  13.755  0.9198  2.0627  1.2471
  173MPD1     N 2643   3.268   2.102  14.038  0.1202  0.1153 -0.0439
  173MPD1    H5 2644   3.331   2.041  14.090  0.6300 -1.1680 -2.1882
  173MPD1    N1 2645   3.643   2.372  13.953  0.0204 -0.1145  0.1646
  173MPD1    H6 2646   3.684   2.329  14.035  0.1141  1.4879  0.9543
  173MPD1    H7 2647   3.681   2.464  13.930  2.0759 -1.2707 -1.0991
  174MPD1     C 2648   3.503   1.276  14.557  0.4737  0.6017 -1.1123
  174MPD1    C1 2649   3.578   1.370  14.491 -0.3439  0.3180  0.0221
  174MPD1    C2 2650   3.506   1.476  14.437 -0.3186  0.3823  0.3601
  174MPD1    C3 2651   3.367   1.487  14.451  0.1248 -0.5982 -0.1119
  174MPD1    C4 2652   3.290   1.387  14.516  0.0224 -1.1499 -0.0871
  174MPD1    C5 2653   3.370   1.288  14.572  0.0621 -0.7867 -0.1106
  174MPD1     H 2654   3.559   1.539  14.367 -2.8861  1.5345 -0.5603
  174MPD1    H1 2655   3.184   1.392  14.538  0.5964  0.3334  2.2357
  174MPD1    H2 2656   3.557   1.200  14.612  0.2648 -1.7809 -4.1345
  174MPD1    H3 2657   3.325   1.210  14.633 -1.0277 -0.9887 -1.1829
  174MPD1     N 2658   3.288   1.595  14.400  0.7679  0.3458  0.4960
  174MPD1    H5 2659   3.188   1.593  14.416  0.6913 -2.1721 -0.3340
  174MPD1    N1 2660   3.714   1.346  14.445 -0.0099 -0.8052  0.6290
  174MPD1    H6 2661   3.776   1.294  14.507  0.4544  1.6960  2.2509
  174MPD1    H7 2662   3.750   1.433  14.409 -0.3849 -1.0362 -0.2947
  175MPD1     C 2663   2.079   3.019  15.542 -0.2997 -0.5078 -0.1800
  175MPD1    C1 2664   1.951   2.990  15.493 -0.5248 -0.2513 -0.1704
  175MPD1    C2 2665   1.853   2.972  15.588 -0.3694 -0.1584  0.0468
  175MPD1    C3 2666   1.882   2.999  15.726 -0.4229  0.0477 -0.0329
  175MPD1    C4 2667   2.012   3.027  15.769 -0.6636  0.0833  0.6614
  175MPD1    C5 2668   2.109   3.030  15.673  0.3469 -0.0835 -0.0171
  175MPD1     H 2669   1.754   2.944  15.555 -0.7726  1.3868 -0.0712
  175MPD1    H1 2670   2.035   3.033  15.874 -0.3450  0.1282  0.5907
  175MPD1    H2 2671   2.161   3.021  15.472 -0.5348  0.7293 -0.4187
  175MPD1    H3 2672   2.213   3.048  15.699  0.8148 -2.1771 -0.4273
  175MPD1     N 2673   1.791   2.980  15.830  0.7131 -0.6435 -0.8218
  175MPD1    H5 2674   1.836   2.974  15.921 -0.1805  0.2754 -0.3116
  175MPD1    N1 2675   1.939   2.946  15.359  0.5902  0.2117  0.3021
  175MPD1    H6 2676   1.851   2.964  15.312  0.7576 -0.1896 -0.1652
  175MPD1    H7 2677   2.023   2.968  15.305  0.9847 -0.8613  0.4748
  176MPD1     C 2678   3.515   4.043  16.818  0.4686 -0.6912 -0.3695
  176MPD1    C1 2679   3.427   4.113  16.744 -0.2829 -0.1817  0.1660
  176MPD1    C2 2680   3.338   4.192  16.818  0.4505 -0.8642  0.0642
  176MPD1    C3 2681   3.351   4.218  16.953 -0.4122 -0.0413 -0.1711
  176MPD1    C4 2682   3.446   4.150  17.020  0.3131 -0.7060 -0.1373
  176MPD1    C5 2683   3.524   4.060  16.952 -0.2022 -0.0201  0.3204
  176MPD1     H 2684   3.251   4.225  16.763  0.6281 -1.1593 -0.3954
  176MPD1    H1 2685   3.471   4.172  17.123  0.4478 -2.2990  0.1712
  176MPD1    H2 2686   3.577   3.968  16.770 -0.1588 -0.3340 -1.7082
  176MPD1    H3 2687   3.596   4.001  17.009 -2.9521 -2.4632  1.2511
  176MPD1     N 2688   3.266   4.308  17.021  0.1960 -0.5930  0.0175
  176MPD1    H5 2689   3.198   4.353  16.961 -0.3364 -0.3459  0.8064
  176MPD1    N1 2690   3.404   4.085  16.606  0.3019  0.5425  0.1529
  176MPD1    H6 2691   3.490   4.063  16.555 -0.7987 -1.8453 -0.7051
  176MPD1    H7 2692   3.359   4.163  16.558  0.7059  0.3346 -0.5765
  177MPD1     C 2693   1.847   0.085  10.446 -0.4309 -0.7874 -0.2313
  177MPD1    C1 2694   1.832   4.699  10.363 -0.4124  0.2458 -0.1928
  177MPD1    C2 2695   1.764   4.718  10.246 -0.0781 -0.4796 -0.1883
  177MPD1    C3 2696   1.703   0.118  10.212 -0.5546 -0.3184  0.4557
  177MPD1    C4 2697   1.717   0.219  10.298 -0.0698 -0.7009  0.0332
  177MPD1    C5 2698   1.787   0.209  10.417 -0.4097 -0.9729  0.1978
  177MPD1     H 2699   1.757   4.629  10.185  1.4374 -0.1043 -0.9308
  177MPD1    H1 2700   1.680   0.320  10.282 -0.7464 -0.5259  2.6738
  177MPD1    H2 2701   1.893   0.065  10.542 -2.7643  1.6070  1.3720
  177MPD1    H3 2702   1.799   0.297  10.478  1.7637  0.3722 -2.1816
  177MPD1     N 2703   1.630   0.117  10.089 -0.8560  0.2052 -0.4004
  177MPD1    H5 2704   1.632   0.033  10.032 -1.7376 -1.2350  1.6717
  177MPD1    N1 2705   1.884   4.572  10.392 -0.2663 -0.3501  0.4209
  177MPD1    H6 2706   1.812   4.503  10.371 -0.3850 -0.0278 -0.2252
  177MPD1    H7 2707   1.895   4.563  10.493  1.9441 -0.3189  0.1802
  178MPD1     C 2708   3.937   1.106   0.525 -0.1818 -0.3284 -0.4810
  178MPD1    C1 2709   3.829   1.076   0.447 -0.7155 -0.4645  0.0674
  178MPD1    C2 2710   3.847   1.024   0.324  0.0341  0.3248 -0.0575
  178MPD1    C3 2711   3.972   0.994   0.278  0.4261 -0.2135 -0.2481
  178MPD1    C4 2712   4.083   1.019   0.359  0.4559  0.0874  0.4110
  178MPD1    C5 2713   4.066   1.078   0.484 -0.2567  0.2378 -0.0401
  178MPD1     H 2714   3.760   1.010   0.261  0.1643 -0.9754  0.0521
  178MPD1    H1 2715   4.183   0.999   0.323  0.6722 -1.0821  1.6708
  178MPD1    H2 2716   3.922   1.144   0.625  0.0134  1.3772 -1.0996
  178MPD1    H3 2717   4.148   1.096   0.552 -2.4419 -0.5444  2.7766
  178MPD1     N 2718   4.003   0.957   0.148  0.2410 -0.3261 -0.1115
  178MPD1    H5 2719   4.102   0.957   0.123  0.5077 -0.6703  0.9541
  178MPD1    N1 2720   3.705   1.132   0.496  0.3988  1.1017  0.1543
  178MPD1    H6 2721   3.687   1.126   0.596  4.3292 -1.6834  0.6670
  178MPD1    H7 2722   3.615   1.105   0.457 -0.1559 -0.3402  2.4360
  179MPD1     C 2723   4.074   4.187  15.756 -0.4228 -0.4395  0.0598
  179MPD1    C1 2724   3.935   4.210  15.757 -0.0753 -0.1896  0.1565
  179MPD1    C2 2725   3.859   4.100  15.785 -0.3050 -0.0398 -0.7461
  179MPD1    C3 2726   3.913   3.973  15.798  0.7183  0.3208 -0.0223
  179MPD1    C4 2727   4.041   3.955  15.761  0.2059  0.1253 -0.1585
  179MPD1    C5 2728   4.118   4.063  15.754  0.7027  1.0374  0.4675
  179MPD1     H 2729   3.754   4.117  15.808  0.3340  2.9184 -0.0487
  179MPD1    H1 2730   4.081   3.857  15.742  1.0344  0.3665  0.3345
  179MPD1    H2 2731   4.145   4.269  15.751  0.5213 -1.1982  1.2835
  179MPD1    H3 2732   4.224   4.049  15.739  0.8142  1.4019  0.9083
  179MPD1     N 2733   3.841   3.853  15.831 -0.3951  0.4881 -0.3553
  179MPD1    H5 2734   3.887   3.763  15.838  0.3545  0.9265  0.3866
  179MPD1    N1 2735   3.887   4.342  15.765  0.4796  0.3428 -0.7927
  179MPD1    H6 2736   3.947   4.415  15.727  0.1228  0.7694 -0.5278
  179MPD1    H7 2737   3.801   4.343  15.710  1.1374  1.6432 -1.7776
  180MPD1     C 2738   2.849   0.362  15.687 -0.9802 -0.3252 -0.4262
  180MPD1    C1 2739   2.844   0.445  15.576  0.3948 -0.3605 -0.4622
  180MPD1    C2 2740   2.891   0.402  15.455  0.0911  0.1310 -0.0475
  180MPD1    C3 2741   2.908   0.268  15.437 -0.8124  0.4359 -0.2608
  180MPD1    C4 2742   2.894   0.174  15.540  0.2658 -0.0477 -0.5317
  180MPD1    C5 2743   2.878   0.227  15.664  0.2978 -0.2814  0.0811
  180MPD1     H 2744   2.900   0.480  15.380  0.8175 -0.4142 -0.5284
  180MPD1    H1 2745   2.912   0.068  15.525 -0.0988  0.2859 -3.2896
  180MPD1    H2 2746   2.834   0.388  15.792 -0.2012 -0.5553 -0.2596
  180MPD1    H3 2747   2.877   0.169  15.756  0.2608 -0.3470  0.0393
  180MPD1     N 2748   2.932   0.237  15.303 -0.1307 -0.1732 -0.5386
  180MPD1    H5 2749   2.937   0.316  15.239  1.7373  0.0248 -0.1522
  180MPD1    N1 2750   2.836   0.586  15.595  0.1995  0.1132  0.1720
  180MPD1    H6 2751   2.792   0.609  15.683  0.2961  0.5082  0.1161
  180MPD1    H7 2752   2.797   0.638  15.517  0.5889  2.2596  1.4319
  181MPD1     C 2753   4.436   2.312  10.202 -0.0846  0.2805 -0.4692
  181MPD1    C1 2754   4.476   2.443  10.224 -0.1067 -0.1454 -0.6421
  181MPD1    C2 2755   4.603   2.477  10.187  0.0948 -0.0828  0.3172
  181MPD1    C3 2756   4.680   2.392  10.105  0.2798  0.5263 -0.1523
  181MPD1    C4 2757   4.629   2.265  10.075 -0.3005  0.5176  0.8756
  181MPD1    C5 2758   4.509   2.229  10.127  0.1641 -0.8563 -0.2004
  181MPD1     H 2759   4.645   2.570  10.225  1.7249 -0.9875  0.7214
  181MPD1    H1 2760   4.688   2.200  10.012  2.1828  2.4953  1.1270
  181MPD1    H2 2761   4.339   2.281  10.238 -0.7263  2.4925 -0.2751
  181MPD1    H3 2762   4.472   2.127  10.127  1.3056 -1.2763  0.2429
  181MPD1     N 2763   0.089   2.410  10.061 -0.0254 -0.3993  0.5089
  181MPD1    H5 2764   0.121   2.335  10.001 -0.8657 -1.2370  1.0848
  181MPD1    N1 2765   4.398   2.535  10.300  0.3042  0.4992  0.3787
  181MPD1    H6 2766   4.421   2.632  10.283 -0.5780  0.8404  1.1314
  181MPD1    H7 2767   4.297   2.526  10.300  0.4737 -1.4604  1.5123
  182MPD1     C 2768   1.836   1.248   1.492  0.1302 -0.4891  0.4673
  182MPD1    C1 2769   1.744   1.353   1.510  0.1539  0.5705  0.1276
  182MPD1    C2 2770   1.630   1.354   1.438  0.8460  0.2802  0.7767
  182MPD1    C3 2771   1.608   1.251   1.354 -0.2099 -0.2028  1.0167
  182MPD1    C4 2772   1.694   1.142   1.342 -0.3635 -0.4572 -0.0181
  182MPD1    C5 2773   1.811   1.146   1.403 -0.3870 -0.3037 -0.8447
  182MPD1     H 2774   1.560   1.434   1.458  1.3666  1.0719 -0.5985
  182MPD1    H1 2775   1.672   1.058   1.277 -0.6071 -1.1778  0.9903
  182MPD1    H2 2776   1.929   1.246   1.548 -0.2528 -2.3541  1.0563
  182MPD1    H3 2777   1.884   1.066   1.396  0.4153  0.3934 -0.3456
  182MPD1     N 2778   1.488   1.259   1.276  0.2772 -1.0056 -0.2044
  182MPD1    H5 2779   1.465   1.184   1.212 -0.9926 -0.4598 -0.3891
  182MPD1    N1 2780   1.755   1.433   1.624 -0.1289  0.1976  0.7311
  182MPD1    H6 2781   1.701   1.518   1.607 -1.2589 -0.3219  1.7621
  182MPD1    H7 2782   1.851   1.459   1.646  0.0175  1.5211 -1.4093
  183MPD1     C 2783   0.873   2.616   9.629  0.0061  0.2239  0.1581
  183MPD1    C1 2784   0.839   2.484   9.649  0.3616 -0.0989 -0.2174
  183MPD1    C2 2785   0.940   2.391   9.680  0.6882  0.0809  0.4254
  183MPD1    C3 2786   1.068   2.436   9.719  0.0213 -0.2657 -0.2203
  183MPD1    C4 2787   1.095   2.572   9.713 -0.3730 -0.0221  0.2639
  183MPD1    C5 2788   0.999   2.662   9.671 -0.7721 -0.4560 -0.3882
  183MPD1     H 2789   0.912   2.287   9.687 -0.9488  0.5306  0.5090
  183MPD1    H1 2790   1.195   2.606   9.740 -0.4127  0.0190  0.3577
  183MPD1    H2 2791   0.802   2.695   9.608  0.3292  0.3267 -0.5518
  183MPD1    H3 2792   1.009   2.770   9.672 -0.2130 -0.5064 -1.2311
  183MPD1     N 2793   1.163   2.344   9.765  0.4608  0.2452  0.6912
  183MPD1    H5 2794   1.119   2.254   9.785 -2.2984  1.1358 -1.2255
  183MPD1    N1 2795   0.715   2.435   9.606 -0.1388 -0.1583  0.2933
  183MPD1    H6 2796   0.653   2.515   9.613 -0.5662 -0.5227  0.6978
  183MPD1    H7 2797   0.691   2.356   9.665  1.7336 -0.4182  0.7140
  184MPD1     C 2798   1.740   4.404   9.016 -0.0290  0.7523 -0.2489
  184MPD1    C1 2799   1.714   4.311   9.109 -1.2293  0.5575 -0.0850
  184MPD1    C2 2800   1.597   4.322   9.181  0.1137  0.4705  0.5866
  184MPD1    C3 2801   1.504   4.420   9.149  0.2948  0.4725 -1.0425
  184MPD1    C4 2802   1.531   4.507   9.047  0.4641  0.3680 -0.1932
  184MPD1    C5 2803   1.652   4.499   8.982  0.6579 -0.0273 -0.3622
  184MPD1     H 2804   1.589   4.245   9.257  0.5007  0.1919  0.3454
  184MPD1    H1 2805   1.468   4.590   9.018 -0.0588 -0.6635 -2.0450
  184MPD1    H2 2806   1.837   4.396   8.968  0.5594  0.0775  1.0599
  184MPD1    H3 2807   1.670   4.569   8.901 -0.1331  3.0230  2.1040
  184MPD1     N 2808   1.385   4.422   9.221 -0.6142  0.1066 -0.6475
  184MPD1    H5 2809   1.320   4.493   9.189 -0.2243  0.1391 -1.3640
  184MPD1    N1 2810   1.820   4.227   9.157  0.2611 -0.2802  0.5092
  184MPD1    H6 2811   1.788   4.147   9.211 -1.6280 -1.0837 -1.7839
  184MPD1    H7 2812   1.888   4.194   9.089 -1.5090 -1.8597 -0.5017
  185MPD1     C 2813   0.916   3.796   9.895  0.1799 -0.1012 -0.7511
  185MPD1    C1 2814   0.829   3.904   9.874  0.8927  0.6711  0.6697
  185MPD1    C2 2815   0.861   4.001   9.779 -0.2078 -0.0620 -0.2330
  185MPD1    C3 2816   0.983   3.989   9.709  0.2187  0.5476 -0.4636
  185MPD1    C4 2817   1.070   3.878   9.736 -0.5236 -0.2360  0.1719
  185MPD1    C5 2818   1.033   3.789   9.829 -0.0869  0.7076 -0.0518
  185MPD1     H 2819   0.799   4.090   9.768 -0.7178 -0.3739  0.1149
  185MPD1    H1 2820   1.164   3.865   9.684  0.3263  1.0247  1.3642
  185MPD1    H2 2821   0.908   3.722   9.974 -1.1017 -1.7119 -2.3774
  185MPD1    H3 2822   1.095   3.708   9.866  2.3762  2.5184 -0.1669
  185MPD1     N 2823   1.025   4.087   9.618  0.2554  0.7953  0.7850
  185MPD1    H5 2824   1.110   4.085   9.562 -0.2836  1.4274 -0.0557
  185MPD1    N1 2825   0.720   3.927   9.960  0.5203 -0.0000  0.0062
  185MPD1    H6 2826   0.641   3.973   9.915  0.0949 -0.6585  0.0899
  185MPD1    H7 2827   0.688   3.845  10.011 -0.1537 -0.1927 -0.7254
  186MPD1     C 2828   4.290   3.560  16.175 -0.0065  0.3550  0.0132
  186MPD1    C1 2829   4.166   3.539  16.229  0.2431 -0.1365  0.1849
  186MPD1    C2 2830   4.121   3.614  16.334 -0.2232  0.2975 -0.3111
  186MPD1    C3 2831   4.192   3.725  16.367  0.6923 -0.3112 -0.1550
  186MPD1    C4 2832   4.308   3.755  16.302  0.3157 -0.6733 -0.5839
  186MPD1    C5 2833   4.356   3.670  16.210  0.7175 -0.2647 -0.0361
  186MPD1     H 2834   4.033   3.588  16.392  0.4248 -1.3594 -0.0826
  186MPD1    H1 2835   4.361   3.849  16.311 -0.5033 -0.3665  0.9795
  186MPD1    H2 2836   4.331   3.496  16.098 -2.6188  0.3209 -1.3619
  186MPD1    H3 2837   4.455   3.697  16.175  1.2592 -0.6949  1.1517
  186MPD1     N 2838   4.148   3.830  16.460  0.2881 -0.3112 -0.3594
  186MPD1    H5 2839   4.202   3.915  16.471  0.5196 -0.3604 -1.0701
  186MPD1    N1 2840   4.095   3.423  16.203 -0.0590  0.3555  0.6879
  186MPD1    H6 2841   3.994   3.427  16.216 -0.1014 -0.3143  0.5509
  186MPD1    H7 2842   4.120   3.387  16.111  0.9604  1.5524  0.4869
  187MPD1     C 2843   2.987   1.687   0.635 -0.0677  0.7489  0.0268
  187MPD1    C1 2844   2.895   1.588   0.601  0.0874 -0.1221  0.4369
  187MPD1    C2 2845   2.892   1.556   0.465 -0.0552  0.1250  0.1097
  187MPD1    C3 2846   2.973   1.616   0.368  0.0858 -0.4352  0.7960
  187MPD1    C4 2847   3.053   1.723   0.408  0.2057  0.9981  0.7275
  187MPD1    C5 2848   3.062   1.752   0.539  0.1382  0.8314 -0.0366
  187MPD1     H 2849   2.833   1.482   0.413 -0.1806  0.3458 -0.0588
  187MPD1    H1 2850   3.105   1.791   0.342 -1.0926  2.3343  1.0700
  187MPD1    H2 2851   2.982   1.723   0.737 -0.8849 -0.1576  0.3057
  187MPD1    H3 2852   3.127   1.834   0.565  1.9004 -0.3890 -0.5798
  187MPD1     N 2853   2.982   1.577   0.231 -0.4890  0.0416  0.3240
  187MPD1    H5 2854   3.059   1.620   0.181 -1.3417  1.0441 -0.1086
  187MPD1    N1 2855   2.802   1.537   0.687  0.1026  0.0658 -0.1215
  187MPD1    H6 2856   2.846   1.523   0.778 -1.6112  0.6328  0.8082
  187MPD1    H7 2857   2.761   1.447   0.664  1.1876 -0.7758  1.2195
  188MPD1     C 2858   2.983   1.179   9.825  0.3995  0.4078  0.4395
  188MPD1    C1 2859   2.945   1.130   9.701 -0.8670 -0.1097 -0.1666
  188MPD1    C2 2860   2.876   1.006   9.701  0.3534 -0.2842  0.3642
  188MPD1    C3 2861   2.834   0.946   9.817 -0.3076  0.2957 -0.4212
  188MPD1    C4 2862   2.860   1.010   9.933 -0.3567 -0.5770 -1.3850
  188MPD1    C5 2863   2.943   1.122   9.940 -0.0041 -0.3363  0.1108
  188MPD1     H 2864   2.871   0.955   9.606 -2.1672 -0.2386  0.4595
  188MPD1    H1 2865   2.839   0.966  10.030 -3.0168 -0.4117 -1.8844
  188MPD1    H2 2866   3.046   1.267   9.820 -1.2441  1.5673 -0.0988
  188MPD1    H3 2867   2.974   1.156  10.037  0.3316 -0.3089 -0.0066
  188MPD1     N 2868   2.766   0.823   9.805  0.1680  0.0962  0.1221
  188MPD1    H5 2869   2.750   0.780   9.895  3.9033  1.0509  1.2689
  188MPD1    N1 2870   2.998   1.196   9.584 -0.8601 -0.0625  0.1627
  188MPD1    H6 2871   3.026   1.288   9.616 -1.9515  0.8037 -1.3923
  188MPD1    H7 2872   2.939   1.195   9.501  1.5198  1.3828 -1.5240
  189MPD1     C 2873   4.613   1.141   0.516 -0.0439  0.0490 -0.2932
  189MPD1    C1 2874   4.484   1.149   0.565 -1.0702  0.4999  0.5858
  189MPD1    C2 2875   4.410   1.261   0.531  0.6267  0.3304  0.1404
  189MPD1    C3 2876   4.477   1.374   0.485  0.0361 -0.5626 -1.2276
  189MPD1    C4 2877   4.618   1.370   0.463 -0.2090  0.0666  0.5268
  189MPD1    C5 2878   4.677   1.248   0.467 -0.0382  0.0110  0.3301
  189MPD1     H 2879   4.305   1.241   0.518  0.7672 -0.9784  1.0914
  189MPD1    H1 2880   4.663   1.458   0.419 -0.9510 -0.8284 -2.0241
  189MPD1    H2 2881   4.674   1.052   0.523  0.1267  0.4598  3.8178
  189MPD1    H3 2882   0.054   1.242   0.426  0.6067  0.1105  1.9020
  189MPD1     N 2883   4.398   1.482   0.467  0.3828 -0.2867  0.1038
  189MPD1    H5 2884   4.300   1.462   0.485  0.1651  1.1520  0.4994
  189MPD1    N1 2885   4.417   1.027   0.591  0.3684 -0.1957 -0.1080
  189MPD1    H6 2886   4.476   0.949   0.619  0.8827  0.5460  0.8855
  189MPD1    H7 2887   4.340   1.033   0.656  0.8608 -3.0290  0.7355
  190MPD1     C 2888   3.612   0.092  16.548  0.0639  0.6481  0.8115
  190MPD1    C1 2889   3.607   0.213  16.481  0.3565  0.4094  0.5198
  190MPD1    C2 2890   3.628   0.223  16.342  0.5294  0.6231  0.3363
  190MPD1    C3 2891   3.643   0.107  16.265 -0.4542 -0.4680 -0.0054
  190MPD1    C4 2892   3.633   4.709  16.328  0.2952  0.4095  0.2596
  190MPD1    C5 2893   3.624   4.703  16.465 -0.5791  0.3325  0.2640
  190MPD1     H 2894   3.642   0.322  16.299 -0.9505  0.3164 -0.8412
  190MPD1    H1 2895   3.650   4.616  16.276  0.5629  1.1200 -0.9204
  190MPD1    H2 2896   3.586   0.084  16.653 -0.4443  0.4548  0.6738
  190MPD1    H3 2897   3.627   4.602  16.506 -1.5551  0.2957  0.2404
  190MPD1     N 2898   3.657   0.122  16.124  0.5297  0.6361  0.5656
  190MPD1    H5 2899   3.660   0.218  16.092  2.9004  0.8634  1.4433
  190MPD1    N1 2900   3.606   0.332  16.556  0.0662  0.0969  0.2822
  190MPD1    H6 2901   3.571   0.308  16.649 -0.5362 -1.7227 -0.4116
  190MPD1    H7 2902   3.547   0.402  16.511  2.0716  3.4301  2.7942
  191MPD1     C 2903   2.346   2.392  12.704 -0.1602 -0.5908  0.3399
  191MPD1    C1 2904   2.333   2.270  12.639 -0.3504 -0.5785 -0.0426
  191MPD1    C2 2905   2.404   2.251  12.528  0.0084  0.0811  0.0411
  191MPD1    C3 2906   2.472   2.349  12.470 -0.6977  0.8570 -0.7380
  191MPD1    C4 2907   2.472   2.474  12.531 -0.3697  0.1438 -0.1691
  191MPD1    C5 2908   2.408   2.499  12.644 -0.3779 -0.1893  0.2262
  191MPD1     H 2909   2.395   2.157  12.475  2.3596 -0.0693 -0.0857
  191MPD1    H1 2910   2.516   2.553  12.472 -0.4994  0.4584  0.1556
  191MPD1    H2 2911   2.300   2.406  12.801  0.5817  0.9593  0.4703
  191MPD1    H3 2912   2.408   2.596  12.693 -0.7530  1.2872 -2.6725
  191MPD1     N 2913   2.551   2.319  12.354 -0.7813  0.0078 -0.3135
  191MPD1    H5 2914   2.540   2.228  12.311  0.8509  0.2085 -1.1513
  191MPD1    N1 2915   2.287   2.157  12.707 -0.2214  0.1507 -0.3018
  191MPD1    H6 2916   2.252   2.098  12.631  1.1600  0.6783 -1.3620
  191MPD1    H7 2917   2.210   2.182  12.767  0.6288  0.1722  0.7813
  192MPD1     C 2918   2.306   1.747  11.827  0.0131  0.0819  0.1152
  192MPD1    C1 2919   2.402   1.798  11.740  0.3604  0.0199 -0.2904
  192MPD1    C2 2920   2.489   1.896  11.783  0.1865 -0.6734  0.4487
  192MPD1    C3 2921   2.490   1.923  11.920 -0.0790  0.3584  0.5151
  192MPD1    C4 2922   2.401   1.864  12.007  0.6829 -0.1014  1.1058
  192MPD1    C5 2923   2.300   1.786  11.960  0.0768  0.3256 -0.6806
  192MPD1     H 2924   2.557   1.947  11.715 -0.4804 -0.3851 -0.0058
  192MPD1    H1 2925   2.412   1.874  12.115  1.9316  0.0264  0.9614
  192MPD1    H2 2926   2.230   1.678  11.791 -1.6633  1.5419  0.7998
  192MPD1    H3 2927   2.225   1.746  12.027  0.2030  0.4007 -0.4944
  192MPD1     N 2928   2.584   2.010  11.983  0.3189  0.4900  0.0271
  192MPD1    H5 2929   2.579   2.020  12.084 -1.7014  2.9045 -0.3086
  192MPD1    N1 2930   2.395   1.775  11.605 -0.1803 -0.2592 -0.2681
  192MPD1    H6 2931   2.342   1.692  11.578  1.0141 -1.7484  1.8938
  192MPD1    H7 2932   2.488   1.775  11.562  0.3296 -1.5170  0.8244
  193MPD1     C 2933   2.763   2.450  16.366 -0.2688 -0.0751  0.1011
  193MPD1    C1 2934   2.745   2.577  16.413 -0.0303  0.2336  0.0042
  193MPD1    C2 2935   2.794   2.607  16.536 -0.7896  0.5108  0.0720
  193MPD1    C3 2936   2.875   2.522  16.609 -0.0381 -0.0579  0.6278
  193MPD1    C4 2937   2.900   2.399  16.554 -0.0407 -1.3970 -0.2136
  193MPD1    C5 2938   2.850   2.371  16.437  0.7626  0.3291 -0.1190
  193MPD1     H 2939   2.773   2.706  16.575 -0.9010  0.7328 -0.5650
  193MPD1    H1 2940   2.956   2.326  16.612 -1.9297 -1.1647  1.9033
  193MPD1    H2 2941   2.708   2.401  16.287 -0.0331  1.2130 -0.8634
  193MPD1    H3 2942   2.867   2.272  16.397 -3.1856  0.4938 -2.1856
  193MPD1     N 2943   2.942   2.553  16.727 -0.8985 -0.4888  0.9686
  193MPD1    H5 2944   3.007   2.480  16.755  0.0001 -0.3639 -0.7713
  193MPD1    N1 2945   2.645   2.654  16.352 -0.0343  0.4100  0.5421
  193MPD1    H6 2946   2.684   2.748  16.364  0.4968 -0.1613  3.1972
  193MPD1    H7 2947   2.642   2.633  16.253  1.7315 -1.6707  0.9359
  194MPD1     C 2948   0.063   4.639  16.732 -0.2104  0.0458  0.0996
  194MPD1    C1 2949   0.021   4.509  16.730 -0.1571  0.1785  0.6340
  194MPD1    C2 2950   0.096   4.422  16.804  0.7301 -0.1623  0.8311
  194MPD1    C3 2951   0.209   4.457  16.880  0.0652 -0.1443  0.1368
  194MPD1    C4 2952   0.241   4.593  16.883  0.1019 -0.2087  0.1444
  194MPD1    C5 2953   0.176   4.681  16.797  0.3551 -0.0794  0.2666
  194MPD1     H 2954   0.051   4.325  16.822 -1.5390  1.0585  1.7726
  194MPD1    H1 2955   0.318   4.627  16.952  0.8989 -0.6376 -0.5316
  194MPD1    H2 2956   0.006   4.716  16.681 -0.5442  0.1293  0.6030
  194MPD1    H3 2957   0.199   0.063  16.806  0.4404 -0.1142  0.4606
  194MPD1     N 2958   0.288   4.364  16.955  0.0486  0.0572  0.1994
  194MPD1    H5 2959   0.364   4.392  17.016 -0.2381  2.6193 -0.6053
  194MPD1    N1 2960   4.615   4.479  16.692 -0.3043  0.4274 -0.7547
  194MPD1    H6 2961   4.588   4.535  16.612 -1.7120  0.3778 -0.3206
  194MPD1    H7 2962   4.604   4.380  16.671 -0.9952  0.5313 -0.8979
  195MPD1     C 2963   2.492   1.093  17.667  0.9448 -0.4936  0.0180
  195MPD1    C1 2964   2.481   1.002  17.561 -0.2154  0.5084 -0.3785
  195MPD1    C2 2965   2.417   0.877  17.582 -0.8338 -0.0057  0.0917
  195MPD1    C3 2966   2.363   0.846   0.010  0.2388 -0.2947 -0.3782
  195MPD1    C4 2967   2.356   0.950   0.099 -0.1886 -0.8104 -0.2018
  195MPD1    C5 2968   2.429   1.066   0.090 -0.2909  0.3967 -0.5358
  195MPD1     H 2969   2.423   0.805  17.502  1.7391  0.4885 -0.1554
  195MPD1    H1 2970   2.313   0.922   0.194 -1.2793 -0.1965 -0.5187
  195MPD1    H2 2971   2.530   1.194  17.659  0.5189 -0.3352 -0.0261
  195MPD1    H3 2972   2.425   1.135   0.174  1.4943 -0.8239  0.5643
  195MPD1     N 2973   2.315   0.720   0.064 -0.4378 -0.0633 -0.4170
  195MPD1    H5 2974   2.271   0.717   0.156  2.5981 -1.2327  1.0033
  195MPD1    N1 2975   2.523   1.037  17.429 -0.3394 -0.7441 -0.1745
  195MPD1    H6 2976   2.543   0.948  17.384  0.2622 -0.2062 -0.9660
  195MPD1    H7 2977   2.596   1.107  17.416 -1.0369  0.0976  0.4397
  196MPD1     C 2978   0.944   0.900   1.066 -0.3352  0.4251 -0.1522
  196MPD1    C1 2979   1.032   0.993   1.119  0.0838  0.1366  0.0902
  196MPD1    C2 2980   1.171   0.975   1.111 -0.9677  0.1952  0.3057
  196MPD1    C3 2981   1.224   0.877   1.029  1.2360  0.1252  0.1820
  196MPD1    C4 2982   1.137   0.804   0.956  0.5038 -0.0006 -0.0469
  196MPD1    C5 2983   1.001   0.809   0.983 -0.1327  0.3721  0.3648
  196MPD1     H 2984   1.234   1.051   1.158  0.2811  0.1563 -1.3338
  196MPD1    H1 2985   1.175   0.729   0.887  2.3693 -0.5858  1.6038
  196MPD1    H2 2986   0.838   0.911   1.088 -0.6773 -0.8404 -1.1680
  196MPD1    H3 2987   0.937   0.734   0.938  0.5700 -1.1118  1.8310
  196MPD1     N 2988   1.361   0.868   0.997  0.5212 -0.9137  0.6118
  196MPD1    H5 2989   1.383   0.810   0.917 -0.3298 -2.1254  1.2351
  196MPD1    N1 2990   0.974   1.099   1.195 -0.0774  0.5796  0.2133
  196MPD1    H6 2991   1.028   1.185   1.184 -1.9512  1.9217  1.5195
  196MPD1    H7 2992   0.878   1.121   1.169 -0.2550 -0.7460 -0.2744
  197MPD1     C 2993   1.878   2.886  17.645 -0.1121 -0.8827  0.0430
  197MPD1    C1 2994   1.881   3.025  17.662 -0.1238  0.4090  0.1408
  197MPD1    C2 2995   1.804   3.105  17.576  0.2762 -0.6070 -0.1376
  197MPD1    C3 2996   1.729   3.049  17.473  0.6929 -0.0906  0.2743
  197MPD1    C4 2997   1.734   2.907  17.463 -0.1403 -1.0391  0.1756
  197MPD1    C5 2998   1.813   2.831  17.542  0.4230  0.0984  0.7793
  197MPD1     H 2999   1.810   3.212  17.584 -1.8387 -0.6311  2.1001
  197MPD1    H1 3000   1.677   2.853  17.388  1.7705 -2.9789  0.1303
  197MPD1    H2 3001   1.943   2.818   0.004  1.0152  0.2188  0.0592
  197MPD1    H3 3002   1.820   2.725  17.522  1.7708  0.7707 -2.2434
  197MPD1     N 3003   1.655   3.117  17.375  0.3708 -0.3756  0.9295
  197MPD1    H5 3004   1.624   3.058  17.298 -3.7038  0.7099  1.7895
  197MPD1    N1 3005   1.981   3.071   0.058  0.1918 -0.0276 -0.2146
  197MPD1    H6 3006   1.972   3.014   0.142 -2.9554  0.9503  0.1163
  197MPD1    H7 3007   1.970   3.168   0.086 -1.6727  0.1858 -1.6833
  198MPD1     C 3008   2.900   1.758  15.613  0.4964  0.0128  0.0722
  198MPD1    C1 3009   3.020   1.788  15.551 -0.1282 -0.0505  0.9917
  198MPD1    C2 3010   3.140   1.737  15.609  0.3367  0.6698  0.1154
  198MPD1    C3 3011   3.136   1.676  15.735 -1.2107 -1.3852  0.2082
  198MPD1    C4 3012   3.015   1.644  15.788  0.0963 -0.5759  0.8195
  198MPD1    C5 3013   2.896   1.691  15.736 -0.7127 -0.5740 -0.5623
  198MPD1     H 3014   3.237   1.763  15.567 -1.5608  1.3104 -3.9459
  198MPD1    H1 3015   3.003   1.597  15.885 -0.0451  0.6129  1.3723
  198MPD1    H2 3016   2.814   1.804  15.567  0.1403  1.3407  2.0811
  198MPD1    H3 3017   2.803   1.678  15.790  0.0654 -1.2395  0.6180
  198MPD1     N 3018   3.259   1.663  15.801 -0.3001  0.3034 -0.0530
  198MPD1    H5 3019   3.335   1.698  15.745  0.0254 -0.5611 -0.1540
  198MPD1    N1 3020   3.025   1.840  15.421  0.4071  0.1454  0.0437
  198MPD1    H6 3021   3.115   1.886  15.408  0.6245 -0.6228 -1.1294
  198MPD1    H7 3022   2.939   1.890  15.398  0.2595 -1.9620 -4.1043
  199MPD1     C 3023   1.126   3.248  10.120  0.7667  0.2769 -0.2380
  199MPD1    C1 3024   1.175   3.292  10.002 -0.0083 -0.6931 -0.6572
  199MPD1    C2 3025   1.075   3.332   9.922  0.1612 -0.3119 -0.6038
  199MPD1    C3 3026   0.945   3.366   9.972  0.4425 -0.1001 -0.6158
  199MPD1    C4 3027   0.921   3.342  10.102 -0.0134 -0.0563  0.6853
  199MPD1    C5 3028   1.011   3.272  10.175 -0.7390  0.0592 -0.7670
  199MPD1     H 3029   1.098   3.346   9.816 -0.6370 -0.5829 -0.8073
  199MPD1    H1 3030   0.833   3.368  10.160 -1.3566  1.0418 -1.8496
  199MPD1    H2 3031   1.205   3.206  10.182 -0.0615 -1.6976 -0.5077
  199MPD1    H3 3032   0.998   3.242  10.278  2.2734  0.3482 -0.2886
  199MPD1     N 3033   0.848   3.435   9.894 -0.0217  0.2763 -0.4168
  199MPD1    H5 3034   0.772   3.479   9.944  0.1936  2.4244 -1.9976
  199MPD1    N1 3035   1.303   3.264   9.964  0.3219  0.2475 -0.2787
  199MPD1    H6 3036   1.342   3.335   9.902  0.9193 -0.6042 -0.8953
  199MPD1    H7 3037   1.370   3.251  10.040 -1.0087 -1.5198  0.5717
  200MPD1     C 3038   4.091   2.712  15.510 -0.0846  0.0653  0.4147
  200MPD1    C1 3039   4.023   2.646  15.414  0.3506 -0.8487  0.1460
  200MPD1    C2 3040   4.105   2.603  15.311 -0.1509  0.7849  0.0948
  200MPD1    C3 3041   4.243   2.619  15.312  0.0344 -0.5890  0.3491
  200MPD1    C4 3042   4.307   2.686  15.415 -0.0609 -0.2553 -1.1589
  200MPD1    C5 3043   4.220   2.736  15.514 -0.2560  0.4288 -0.4565
  200MPD1     H 3044   4.065   2.548  15.227  0.7167 -0.3661  0.4442
  200MPD1    H1 3045   4.413   2.698  15.430 -0.4011  2.1462 -0.6155
  200MPD1    H2 3046   4.036   2.761  15.591  2.3650  0.8898  1.5732
  200MPD1    H3 3047   4.256   2.792  15.600 -0.5651  2.7184 -1.8217
  200MPD1     N 3048   4.317   2.556  15.208 -0.1454 -0.1814 -0.0844
  200MPD1    H5 3049   4.256   2.516  15.136  3.6157 -2.6304 -1.9147
  200MPD1    N1 3050   3.885   2.651  15.407 -0.9829  0.6209  0.0568
  200MPD1    H6 3051   3.852   2.574  15.349 -2.2421 -1.2736  3.2687
  200MPD1    H7 3052   3.837   2.649  15.497  0.2680  1.2914  0.7356
  201MPD1     C 3053   1.632   1.607  13.819  0.0230 -0.3748 -0.3557
  201MPD1    C1 3054   1.748   1.635  13.881  0.2931  0.9330  0.2471
  201MPD1    C2 3055   1.857   1.563  13.835 -0.0030  0.1857 -0.2630
  201MPD1    C3 3056   1.850   1.465  13.741  0.3928  0.3405 -0.1080
  201MPD1    C4 3057   1.726   1.432  13.688 -0.1154  0.3820  0.6085
  201MPD1    C5 3058   1.617   1.501  13.739 -0.2521  0.6843 -0.5677
  201MPD1     H 3059   1.955   1.602  13.864 -1.1837  1.8554  1.5306
  201MPD1    H1 3060   1.715   1.349  13.618 -0.3147  2.0716 -1.3555
  201MPD1    H2 3061   1.535   1.644  13.849  0.8670  1.3891  0.1552
  201MPD1    H3 3062   1.515   1.474  13.714 -0.3928 -0.1952  0.9738
  201MPD1     N 3063   1.972   1.417  13.679  0.1123  0.4054 -0.4597
  201MPD1    H5 3064   2.052   1.471  13.709  1.5909 -1.8716 -0.2442
  201MPD1    N1 3065   1.758   1.731  13.984 -0.7777  0.5669  0.2721
  201MPD1    H6 3066   1.812   1.695  14.063  1.8551  0.1179 -1.7047
  201MPD1    H7 3067   1.666   1.749  14.023 -0.4757 -0.7867  1.6412
  202MPD1     C 3068   2.209   1.575   9.443 -0.3694  0.2210 -0.3449
  202MPD1    C1 3069   2.186   1.451   9.401  0.7286  0.2112 -0.8474
  202MPD1    C2 3070   2.116   1.361   9.490  0.4721  0.2329  0.0781
  202MPD1    C3 3071   2.040   1.407   9.593 -0.2751 -0.8666 -0.1319
  202MPD1    C4 3072   2.038   1.547   9.618 -0.2285  0.5076  0.4856
  202MPD1    C5 3073   2.130   1.628   9.546 -0.2189  0.1452  0.1333
  202MPD1     H 3074   2.088   1.268   9.442 -1.1956 -0.1790  1.8592
  202MPD1    H1 3075   1.980   1.593   9.697 -2.1986 -0.7815 -0.2050
  202MPD1    H2 3076   2.280   1.637   9.390  1.1949 -0.7433  0.6210
  202MPD1    H3 3077   2.133   1.735   9.561  3.2681  0.0709 -0.1791
  202MPD1     N 3078   1.951   1.335   9.674  0.2010 -0.4790  0.2046
  202MPD1    H5 3079   1.890   1.384   9.739 -0.2568 -0.0166 -0.5632
  202MPD1    N1 3080   2.289   1.404   9.316 -0.3301 -0.0849 -0.0271
  202MPD1    H6 3081   2.317   1.476   9.250  1.1583  0.5256  1.2775
  202MPD1    H7 3082   2.268   1.319   9.264 -0.7399  0.7563 -1.2369
  203MPD1     C 3083   1.127   2.163  12.868 -0.0083  0.1136 -1.0032
  203MPD1    C1 3084   1.111   2.092  12.979  0.0876  0.2355 -0.0987
  203MPD1    C2 3085   1.052   1.963  12.965  0.1895  0.2063  0.2108
  203MPD1    C3 3086   1.023   1.899  12.848 -0.0031 -1.3408 -0.1196
  203MPD1    C4 3087   1.063   1.967  12.733 -0.3905  0.2319  0.2598
  203MPD1    C5 3088   1.110   2.094  12.745  0.0107  0.5683 -0.6210
  203MPD1     H 3089   1.021   1.918  13.059 -1.8198  1.8485  0.3354
  203MPD1    H1 3090   1.060   1.934  12.629 -0.0049 -1.1887  0.6952
  203MPD1    H2 3091   1.155   2.267  12.870  0.7142 -0.1199  0.8405
  203MPD1    H3 3092   1.124   2.165  12.664 -3.5961  2.0467  0.0915
  203MPD1     N 3093   0.958   1.766  12.855  0.3811 -0.2819 -0.3147
  203MPD1    H5 3094   0.941   1.723  12.945  2.4239 -1.2283 -0.3791
  203MPD1    N1 3095   1.125   2.155  13.102  0.3408  0.3840 -0.6439
  203MPD1    H6 3096   1.157   2.090  13.173  0.7513  0.9354 -0.3228
  203MPD1    H7 3097   1.180   2.240  13.106  0.6960  0.2427 -2.4253
  204MPD1     C 3098   1.015   2.994  17.623  0.3979  0.2925 -0.2991
  204MPD1    C1 3099   0.957   3.000  17.498  0.4126 -0.5567 -0.0217
  204MPD1    C2 3100   0.893   2.889  17.450 -0.0956  0.6511 -0.1212
  204MPD1    C3 3101   0.890   2.769  17.517  0.1207  0.9214  0.1315
  204MPD1    C4 3102   0.955   2.770  17.646 -0.2573  0.6861 -0.0921
  204MPD1    C5 3103   1.021   2.879  17.693  0.2343 -0.4536 -0.4054
  204MPD1     H 3104   0.863   2.886  17.346  2.0961  0.6712 -0.7503
  204MPD1    H1 3105   0.970   2.679   0.008  1.8225  0.4344 -1.0470
  204MPD1    H2 3106   1.064   3.082  17.664 -0.0407 -0.9517  2.8144
  204MPD1    H3 3107   1.078   2.882   0.091  1.5782  0.4243 -1.2585
  204MPD1     N 3108   0.842   2.659  17.451  0.3053  0.3056 -0.2967
  204MPD1    H5 3109   0.802   2.670  17.358  0.1277 -1.5998 -0.4571
  204MPD1    N1 3110   0.941   3.122  17.433  0.0905 -0.2777 -0.7694
  204MPD1    H6 3111   0.913   3.119  17.335  2.4817  0.8386 -1.5120
  204MPD1    H7 3112   1.029   3.173  17.443 -0.1335 -0.0807  0.2304
  205MPD1     C 3113   4.203   1.232  17.433  0.2980  0.1064 -0.5611
  205MPD1    C1 3114   4.263   1.337  17.503 -0.0316 -0.0173  0.2025
  205MPD1    C2 3115   4.400   1.326  17.532  0.3871  0.0081 -0.2218
  205MPD1    C3 3116   4.476   1.249  17.445  0.3453  0.6171 -0.6778
  205MPD1    C4 3117   4.419   1.150  17.370 -0.4383 -0.1951  0.4530
  205MPD1    C5 3118   4.285   1.139  17.369 -0.5329  0.3707  0.1666
  205MPD1     H 3119   4.441   1.400  17.599  0.6986  0.0083 -0.4118
  205MPD1    H1 3120   4.476   1.078  17.312  0.3414  1.3993 -0.7564
  205MPD1    H2 3121   4.095   1.219  17.432  0.3588 -0.3848 -0.4376
  205MPD1    H3 3122   4.236   1.059  17.313  1.2796 -1.1035  0.6764
  205MPD1     N 3123   4.618   1.263  17.447  0.1768 -0.3035  0.2834
  205MPD1    H5 3124   4.675   1.197  17.395  1.7714  1.6202 -0.4003
  205MPD1    N1 3125   4.191   1.416  17.581  0.3500  0.2522 -0.5025
  205MPD1    H6 3126   4.105   1.426  17.528  1.0106  2.0458 -1.2486
  205MPD1    H7 3127   4.249   1.499  17.590  1.0473 -0.0178 -2.4427
  206MPD1     C 3128   0.654   4.536  16.994  0.0458  0.4259 -0.4824
  206MPD1    C1 3129   0.626   4.449  16.894  0.7600  0.5225 -0.0178
  206MPD1    C2 3130   0.576   4.490  16.771 -0.0883 -0.8320 -0.1684
  206MPD1    C3 3131   0.560   4.622  16.747 -0.1016  0.5917  0.2283
  206MPD1    C4 3132   0.597   4.715  16.844  0.3845  0.6679  0.2815
  206MPD1    C5 3133   0.633   4.666  16.969 -0.0301 -0.1961  0.1250
  206MPD1     H 3134   0.532   4.409  16.715 -0.2400  0.2123 -1.5407
  206MPD1    H1 3135   0.590   0.099  16.831 -0.0318  0.9156  2.4208
  206MPD1    H2 3136   0.702   4.502  17.085 -0.3018  2.2993  0.4067
  206MPD1    H3 3137   0.639   0.009  17.054  0.3052  0.0532 -0.0917
  206MPD1     N 3138   0.510   4.667  16.626 -0.0772  0.4994  0.3670
  206MPD1    H5 3139   0.494   0.043  16.610  0.2357  0.6415  0.9316
  206MPD1    N1 3140   0.621   4.312  16.921  0.1047  0.7294 -0.0752
  206MPD1    H6 3141   0.626   4.253  16.838 -1.2454 -0.0780  0.4288
  206MPD1    H7 3142   0.700   4.289  16.981  0.3004 -0.5207 -0.8146
  207MPD1     C 3143   3.447   3.242   9.868  0.2670  0.4476  0.1501
  207MPD1    C1 3144   3.438   3.105   9.903  0.2006 -0.6625  0.6996
  207MPD1    C2 3145   3.464   3.075  10.039  0.2798  0.2581 -0.2682
  207MPD1    C3 3146   3.489   3.174  10.136 -0.2678 -0.2440  0.3222
  207MPD1    C4 3147   3.497   3.306  10.094 -0.9025 -0.0686 -0.0543
  207MPD1    C5 3148   3.483   3.334   9.966  0.0693 -0.5343 -0.8159
  207MPD1     H 3149   3.464   2.969  10.061 -0.4034  0.4005  0.4287
  207MPD1    H1 3150   3.521   3.384  10.165 -3.2312  0.6825 -0.0965
  207MPD1    H2 3151   3.447   3.278   9.766 -0.3478  0.1389  0.0396
  207MPD1    H3 3152   3.491   3.432   9.922 -0.3036  0.0411  0.4063
  207MPD1     N 3153   3.502   3.150  10.274  0.0761  0.0168  0.0947
  207MPD1    H5 3154   3.520   3.232  10.332  0.4159 -0.4337  0.6352
  207MPD1    N1 3155   3.430   3.001   9.811 -0.3351 -0.0329 -0.0044
  207MPD1    H6 3156   3.385   2.913   9.838 -1.3710  0.0173 -1.5800
  207MPD1    H7 3157   3.398   3.042   9.723  0.4710  0.0014 -0.2841
  208MPD1     C 3158   1.827   1.522  17.572  0.1418 -0.4184 -0.0907
  208MPD1    C1 3159   1.791   1.521   0.005  0.3536  0.4366  1.1981
  208MPD1    C2 3160   1.672   1.453   0.042  0.4521  0.0421 -0.0716
  208MPD1    C3 3161   1.591   1.393  17.638  0.5987  0.5163 -0.5635
  208MPD1    C4 3162   1.628   1.403  17.506  0.6020  0.9322  0.4490
  208MPD1    C5 3163   1.748   1.461  17.472 -0.0081  0.2182 -0.6328
  208MPD1     H 3164   1.643   1.450   0.147  0.3515  0.4348 -0.0849
  208MPD1    H1 3165   1.567   1.369  17.423  1.7819 -1.1019  0.4281
  208MPD1    H2 3166   1.909   1.585  17.539  0.8271 -1.0160  0.4637
  208MPD1    H3 3167   1.778   1.461  17.368 -1.5309  1.7695 -1.0840
  208MPD1     N 3168   1.481   1.316  17.671  0.0759  0.0835  0.1840
  208MPD1    H5 3169   1.455   1.328   0.073  0.5642  0.8740  0.2181
  208MPD1    N1 3170   1.858   1.601   0.100  0.0733  0.1985 -0.6159
  208MPD1    H6 3171   1.954   1.614   0.069  0.5060 -0.6122  0.3925
  208MPD1    H7 3172   1.859   1.565   0.195  0.8962  0.5130 -0.5135
  209MPD1     C 3173   3.023   1.870  11.727 -0.1495 -0.9406 -0.6006
  209MPD1    C1 3174   3.156   1.858  11.761  0.3293 -0.1199  0.5588
  209MPD1    C2 3175   3.256   1.898  11.666 -0.0881  0.7081  0.6134
  209MPD1    C3 3176   3.213   1.938  11.539  0.2146  0.4188  0.4183
  209MPD1    C4 3177   3.077   1.925  11.503  0.3750 -0.0268 -0.2329
  209MPD1    C5 3178   2.986   1.896  11.602  0.4449 -0.2085 -0.2791
  209MPD1     H 3179   3.361   1.883  11.692 -0.0766 -0.0583  0.0954
  209MPD1    H1 3180   3.038   1.933  11.403 -0.2658  1.8565  0.1844
  209MPD1    H2 3181   2.941   1.869  11.798  1.2818  2.4173  1.1106
  209MPD1    H3 3182   2.881   1.901  11.576  0.5491  0.0848 -0.6369
  209MPD1     N 3183   3.308   1.982  11.443  0.0487  0.1547 -0.0597
  209MPD1    H5 3184   3.405   1.985  11.473 -0.1840  2.0839  0.4838
  209MPD1    N1 3185   3.186   1.838  11.896 -0.4682  0.1097 -0.1037
  209MPD1    H6 3186   3.114   1.782  11.941  1.3735  0.0670  2.7363
  209MPD1    H7 3187   3.274   1.790  11.915  1.1379  4.5250  3.4844
  210MPD1     C 3188   4.257   2.246  11.359  0.6376 -0.0181  0.2084
  210MPD1    C1 3189   4.183   2.363  11.341  0.1910  0.2319  0.1117
  210MPD1    C2 3190   4.051   2.340  11.320  0.2439  0.3376  0.1028
  210MPD1    C3 3191   3.989   2.210  11.315 -0.3762 -0.2515 -0.5473
  210MPD1    C4 3192   4.062   2.102  11.333 -0.0102  0.1643 -0.3896
  210MPD1    C5 3193   4.192   2.125  11.356 -0.5366  0.3327  0.2650
  210MPD1     H 3194   3.986   2.425  11.306 -0.1078 -0.3984 -2.7386
  210MPD1    H1 3195   4.021   2.001  11.329 -3.8527  1.6678  0.8276
  210MPD1    H2 3196   4.363   2.255  11.379  1.1165  0.9187 -2.8279
  210MPD1    H3 3197   4.250   2.040  11.390 -0.8332 -0.1602 -0.4746
  210MPD1     N 3198   3.855   2.206  11.285  0.1004 -0.3550 -0.3844
  210MPD1    H5 3199   3.810   2.296  11.273  0.3701 -0.1089  0.4735
  210MPD1    N1 3200   4.253   2.479  11.333 -0.1392  0.7234  0.0571
  210MPD1    H6 3201   4.194   2.561  11.343 -1.3674 -0.1085 -0.3878
  210MPD1    H7 3202   4.324   2.486  11.405  0.3422  1.0241 -0.4438
  211MPD1     C 3203   1.251   1.556  16.731 -0.2329  0.4403 -0.0871
  211MPD1    C1 3204   1.134   1.497  16.690  0.8176  0.0070 -0.0526
  211MPD1    C2 3205   1.044   1.588  16.636 -0.5980  0.3371  0.5196
  211MPD1    C3 3206   1.068   1.722  16.621 -0.9524 -0.0144  0.6184
  211MPD1    C4 3207   1.186   1.771  16.673 -0.6232  0.6561  0.9155
  211MPD1    C5 3208   1.273   1.688  16.731 -0.9155  0.7623  0.8948
  211MPD1     H 3209   0.947   1.550  16.604  0.6934 -0.4414 -2.4543
  211MPD1    H1 3210   1.208   1.876  16.654  0.0865 -0.2134 -3.0664
  211MPD1    H2 3211   1.325   1.503  16.790 -0.5957  0.3427  0.2740
  211MPD1    H3 3212   1.368   1.730  16.759 -0.5942  0.5555  0.1155
  211MPD1     N 3213   0.972   1.805  16.553  0.9989 -0.0558  0.2362
  211MPD1    H5 3214   0.904   1.762  16.491  1.9281 -0.9148 -0.1870
  211MPD1    N1 3215   1.101   1.367  16.707  0.2703 -0.1916 -0.5692
  211MPD1    H6 3216   1.004   1.352  16.733 -0.0235  1.5138 -0.7200
  211MPD1    H7 3217   1.160   1.331  16.782  0.8414  1.3409 -0.2750
  212MPD1     C 3218   0.329   0.277  16.952 -0.0704  0.0354  0.5293
  212MPD1    C1 3219   0.201   0.297  16.913 -0.6137  0.7252 -0.1460
  212MPD1    C2 3220   0.101   0.230  16.980 -0.8066 -0.5713 -0.5346
  212MPD1    C3 3221   0.125   0.145  17.092  0.1869 -0.2741 -0.1003
  212MPD1    C4 3222   0.256   0.146  17.137  0.0418 -0.4428 -0.5812
  212MPD1    C5 3223   0.353   0.211  17.064  0.0905  0.2046 -0.5688
  212MPD1     H 3224   0.001   0.237  16.939 -0.5397 -1.1735 -1.2976
  212MPD1    H1 3225   0.283   0.078  17.217 -0.2317 -0.0220 -0.1299
  212MPD1    H2 3226   0.409   0.324  16.897 -0.0418  0.0673  0.5977
  212MPD1    H3 3227   0.456   0.194  17.091  0.1584  0.8469 -0.4421
  212MPD1     N 3228   0.018   0.084  17.167  0.5280 -0.1851  1.1795
  212MPD1    H5 3229   0.045   0.019  17.240 -0.1554 -1.2212  0.5162
  212MPD1    N1 3230   0.178   0.381  16.802 -0.2678 -0.1891 -0.0234
  212MPD1    H6 3231   0.093   0.359  16.750 -0.6095  0.0500  0.4358
  212MPD1    H7 3232   0.258   0.418  16.751 -1.6466 -0.5053 -2.4238
  213MPD1     C 3233   2.699   0.637  15.992 -0.2061  0.2441 -0.1486
  213MPD1    C1 3234   2.647   0.546  15.903  0.4535 -0.4288 -0.2339
  213MPD1    C2 3235   2.579   0.604  15.791 -0.2072  0.1316  0.5421
  213MPD1    C3 3236   2.598   0.735  15.753  0.6015  0.0673  0.5647
  213MPD1    C4 3237   2.658   0.815  15.843 -0.5645  0.1233 -0.2925
  213MPD1    C5 3238   2.710   0.770  15.960 -0.2427  0.1428 -0.6896
  213MPD1     H 3239   2.517   0.534  15.735  0.0892 -0.1640  0.5880
  213MPD1    H1 3240   2.675   0.921  15.825  1.0853 -0.0426  0.3433
  213MPD1    H2 3241   2.742   0.601  16.085  0.8392 -1.8539 -1.4620
  213MPD1    H3 3242   2.751   0.849  16.022  2.4919 -1.1753 -0.8426
  213MPD1     N 3243   2.542   0.787  15.631  0.2458 -0.6125 -0.3480
  213MPD1    H5 3244   2.488   0.723  15.574  1.3402 -0.8485 -1.1272
  213MPD1    N1 3245   2.606   0.425  15.956 -0.2570  0.0076 -0.4280
  213MPD1    H6 3246   2.589   0.347  15.892  0.2535  0.6068 -1.2920
  213MPD1    H7 3247   2.659   0.389  16.035 -0.2937 -2.0860 -1.3544
  214MPD1     C 3248   1.956   0.558  14.884  0.6438  0.1488  0.5217
  214MPD1    C1 3249   1.988   0.504  15.013  0.4177  0.1056  0.2450
  214MPD1    C2 3250   2.076   0.578  15.094 -0.1808 -0.6010  0.0446
  214MPD1    C3 3251   2.120   0.703  15.059 -0.2853 -0.6035  0.4975
  214MPD1    C4 3252   2.076   0.763  14.949 -0.0713  0.1959  0.6835
  214MPD1    C5 3253   1.990   0.691  14.864 -0.6265  0.1781 -0.3402
  214MPD1     H 3254   2.140   0.521  15.161  0.3745  0.1789  0.1786
  214MPD1    H1 3255   2.115   0.856  14.909 -1.7722  0.9079  0.6886
  214MPD1    H2 3256   1.896   0.515  14.805  1.1522  0.4109 -0.0063
  214MPD1    H3 3257   1.946   0.748  14.783  0.5860 -0.3463 -1.3720
  214MPD1     N 3258   2.226   0.773  15.131 -0.2397  0.1019 -0.2784
  214MPD1    H5 3259   2.255   0.868  15.108  0.6144 -0.6520 -2.2209
  214MPD1    N1 3260   1.961   0.363  15.024  0.4854 -0.3111 -0.2596
  214MPD1    H6 3261   1.871   0.346  14.981  0.2396 -0.1528  0.1917
  214MPD1    H7 3262   1.963   0.338  15.123  2.8206 -1.7734 -0.6660
  215MPD1     C 3263   3.174   1.385  10.367  0.8724 -0.2876  0.4222
  215MPD1    C1 3264   3.174   1.419  10.498 -0.2806  0.0310  0.1230
  215MPD1    C2 3265   3.177   1.549  10.527  0.7996  0.1272 -0.5266
  215MPD1    C3 3266   3.168   1.647  10.435 -0.7596  0.3066 -0.4433
  215MPD1    C4 3267   3.186   1.609  10.302  0.0835  0.0231  0.0046
  215MPD1    C5 3268   3.184   1.477  10.267 -1.0107  0.1954 -0.5616
  215MPD1     H 3269   3.179   1.582  10.630  0.4003  1.7205 -1.0353
  215MPD1    H1 3270   3.193   1.688  10.228 -0.5884  0.4646  0.4140
  215MPD1    H2 3271   3.176   1.280  10.341 -1.5080 -0.1125 -0.5005
  215MPD1    H3 3272   3.186   1.436  10.167  1.9791  0.2447 -0.5107
  215MPD1     N 3273   3.154   1.777  10.483  0.2281 -0.1047  0.4012
  215MPD1    H5 3274   3.166   1.790  10.582  0.5919 -2.1181  0.6092
  215MPD1    N1 3275   3.157   1.319  10.603  0.1696  0.4044 -0.1306
  215MPD1    H6 3276   3.181   1.225  10.572  0.2937  0.8989 -1.5258
  215MPD1    H7 3277   3.200   1.352  10.689 -1.3092 -0.1244  0.8164
  216MPD1     C 3278   4.257   3.064   0.646 -0.2356 -0.3897  0.5042
  216MPD1    C1 3279   4.215   3.190   0.665  0.0712 -0.3206  0.1067
  216MPD1    C2 3280   4.278   3.261   0.761 -0.0926  0.0122 -0.7783
  216MPD1    C3 3281   4.384   3.208   0.831 -0.0355  0.5698 -0.6013
  216MPD1    C4 3282   4.439   3.089   0.790 -0.0542  0.4364  0.7697
  216MPD1    C5 3283   4.372   3.010   0.698 -0.3273 -0.2922  0.2088
  216MPD1     H 3284   4.243   3.361   0.784 -0.1362 -0.0440 -0.6019
  216MPD1    H1 3285   4.529   3.049   0.836  0.8028 -0.0185 -1.2736
  216MPD1    H2 3286   4.210   3.001   0.571 -3.8842  1.4629  1.2711
  216MPD1    H3 3287   4.392   2.909   0.668  0.8546 -0.0722  0.2841
  216MPD1     N 3288   4.440   3.293   0.930  0.5266 -0.1141  0.2082
  216MPD1    H5 3289   4.407   3.389   0.935  1.0538  0.1456 -1.6171
  216MPD1    N1 3290   4.096   3.236   0.602 -0.0162  0.0374 -0.3427
  216MPD1    H6 3291   4.092   3.207   0.505 -0.1472 -0.6332 -0.1402
  216MPD1    H7 3292   4.087   3.337   0.611 -0.8518 -0.1821  1.2779
  217MPD1     C 3293   2.146   1.906   8.000  0.4837 -0.2156  0.1004
  217MPD1    C1 3294   2.115   1.779   8.044  0.1802  0.4735  0.8174
  217MPD1    C2 3295   2.059   1.757   8.171  0.2687 -0.4921 -0.4750
  217MPD1    C3 3296   2.015   1.863   8.247 -0.6441  0.3711 -0.1578
  217MPD1    C4 3297   2.041   1.986   8.198  0.1096 -0.3960  1.1628
  217MPD1    C5 3298   2.116   2.006   8.084 -1.1733  0.0333 -0.2280
  217MPD1     H 3299   2.036   1.655   8.199 -1.1541 -0.5677 -1.9122
  217MPD1    H1 3300   2.002   2.068   8.258 -0.7978 -1.3706  1.8929
  217MPD1    H2 3301   2.190   1.912   7.901  1.5485  0.9834  0.6315
  217MPD1    H3 3302   2.145   2.107   8.055 -0.0954  0.0174  0.7571
  217MPD1     N 3303   1.955   1.844   8.371  0.1303  0.3158 -0.0004
  217MPD1    H5 3304   1.911   1.922   8.420  4.3313  2.1398  0.8720
  217MPD1    N1 3305   2.164   1.661   7.977 -0.6346 -0.6826  0.2441
  217MPD1    H6 3306   2.192   1.681   7.881  0.1251  3.7858  1.4093
  217MPD1    H7 3307   2.095   1.586   7.981 -0.6826 -0.6560 -0.0488
  218MPD1     C 3308   1.854   0.670  11.921  0.5947  0.3968 -0.1875
  218MPD1    C1 3309   1.817   0.693  12.054  0.2364 -1.1285 -0.5010
  218MPD1    C2 3310   1.902   0.761  12.133  0.6670  0.4365 -0.6494
  218MPD1    C3 3311   2.024   0.806  12.091 -0.3178 -0.1923  0.0317
  218MPD1    C4 3312   2.067   0.767  11.967 -0.0648  0.5191 -0.7902
  218MPD1    C5 3313   1.981   0.706  11.883  0.6192 -0.2633 -0.0997
  218MPD1     H 3314   1.864   0.786  12.232  1.5083  1.8765 -0.6875
  218MPD1    H1 3315   2.162   0.798  11.925  0.2110  0.2639 -0.3493
  218MPD1    H2 3316   1.783   0.627  11.851 -0.5528  0.7552  0.7580
  218MPD1    H3 3317   2.024   0.683  11.786  1.7825 -0.7077  0.5357
  218MPD1     N 3318   2.100   0.888  12.171 -0.3793 -0.9590 -0.2909
  218MPD1    H5 3319   2.051   0.937  12.245 -1.0494 -2.1132  0.0263
  218MPD1    N1 3320   1.678   0.701  12.091  0.7211  0.2077 -0.2229
  218MPD1    H6 3321   1.676   0.688  12.192 -1.6402 -1.2826 -0.4619
  218MPD1    H7 3322   1.631   0.621  12.049  2.4409 -1.6913  1.4379
  219MPD1     C 3323   1.559   1.515  12.327  0.2739  0.4686  0.4468
  219MPD1    C1 3324   1.674   1.584  12.370 -0.0417  0.2261 -0.1696
  219MPD1    C2 3325   1.795   1.520  12.348  0.3962 -0.1230  0.2810
  219MPD1    C3 3326   1.804   1.394  12.296 -0.3737  0.0529  0.1900
  219MPD1    C4 3327   1.682   1.323  12.270  0.0879 -0.6064 -0.0004
  219MPD1    C5 3328   1.562   1.387  12.285 -0.1143  0.2559  0.0482
  219MPD1     H 3329   1.878   1.585  12.371  2.2366 -2.8208  1.2504
  219MPD1    H1 3330   1.686   1.221  12.233 -1.0098 -0.8214  0.4745
  219MPD1    H2 3331   1.462   1.560  12.346  0.3997  1.1750 -0.6138
  219MPD1    H3 3332   1.468   1.334  12.268 -0.9313  1.8037 -0.2732
  219MPD1     N 3333   1.926   1.319  12.281 -0.2924  0.0832  0.0009
  219MPD1    H5 3334   1.918   1.220  12.258 -0.8430  0.7193 -2.5410
  219MPD1    N1 3335   1.661   1.719  12.400  0.1566 -0.4847  0.2538
  219MPD1    H6 3336   1.725   1.749  12.474 -0.1204  1.2054 -0.1914
  219MPD1    H7 3337   1.567   1.743  12.430 -0.1144 -0.4296 -0.6448
  220MPD1     C 3338   1.723   3.124   9.860  0.6528  0.1947  0.1550
  220MPD1    C1 3339   1.854   3.124   9.858 -0.0636 -0.3161 -0.1622
  220MPD1    C2 3340   1.921   3.011   9.913  0.0188 -0.3721  0.2585
  220MPD1    C3 3341   1.855   2.902   9.961 -0.1594  0.6328 -0.0520
  220MPD1    C4 3342   1.722   2.898   9.947  0.2342  0.1019 -0.6267
  220MPD1    C5 3343   1.660   3.011   9.901 -0.1633 -0.5278 -0.4846
  220MPD1     H 3344   2.027   3.020   9.932 -0.1268  0.2659  0.7968
  220MPD1    H1 3345   1.659   2.815   9.976  0.7370 -0.5382 -1.3888
  220MPD1    H2 3346   1.654   3.200   9.827  1.0995  1.0054  1.0946
  220MPD1    H3 3347   1.552   3.007   9.898 -0.3093  1.3003  2.8082
  220MPD1     N 3348   1.928   2.795  10.015 -0.0402  0.0808 -0.5588
  220MPD1    H5 3349   2.029   2.804  10.017  0.0395 -1.3766  2.8380
  220MPD1    N1 3350   1.923   3.230   9.809 -0.3411  0.0268 -0.1762
  220MPD1    H6 3351   2.022   3.245   9.790 -0.4554  0.2547 -0.6109
  220MPD1    H7 3352   1.866   3.298   9.759 -0.1602 -0.9051 -1.6465
  221MPD1     C 3353   0.175   1.431  16.968  0.6578 -0.2851  0.3407
  221MPD1    C1 3354   0.287   1.505  16.973  0.6316 -0.3478 -0.2407
  221MPD1    C2 3355   0.386   1.468  16.889 -0.9646  0.2920 -0.1674
  221MPD1    C3 3356   0.368   1.362  16.793  0.2461 -0.1125 -1.0090
  221MPD1    C4 3357   0.244   1.295  16.790 -0.0743 -0.1585  0.4327
  221MPD1    C5 3358   0.150   1.334  16.873  0.3386 -0.0915 -0.2640
  221MPD1     H 3359   0.485   1.509  16.902 -1.1963  0.6586  0.4219
  221MPD1    H1 3360   0.216   1.225  16.712  2.2889 -0.7301  0.1011
  221MPD1    H2 3361   0.097   1.451  17.041  0.9308 -2.7783  1.3280
  221MPD1    H3 3362   0.059   1.275  16.872  0.6417 -0.5518 -0.5399
  221MPD1     N 3363   0.464   1.333  16.696  0.1694 -0.2494 -0.0113
  221MPD1    H5 3364   0.436   1.266  16.625  0.3305  0.4079 -0.7092
  221MPD1    N1 3365   0.313   1.589  17.079 -0.2600  0.2664  0.7744
  221MPD1    H6 3366   0.226   1.635  17.107  0.5694  2.3737 -0.0914
  221MPD1    H7 3367   0.389   1.655  17.062 -0.7803  0.5335 -0.5657
  222MPD1     C 3368   1.285   4.563   0.566  0.0704 -0.4820  0.7922
  222MPD1    C1 3369   1.168   4.557   0.638  0.1072  0.6775 -0.3041
  222MPD1    C2 3370   1.047   4.575   0.564 -0.0345  1.1281 -0.0601
  222MPD1    C3 3371   1.046   4.580   0.426  0.6405  0.1407  0.3956
  222MPD1    C4 3372   1.168   4.587   0.362  0.0436 -0.2362  0.1384
  222MPD1    C5 3373   1.282   4.583   0.432 -0.2432  0.8452  0.1297
  222MPD1     H 3374   0.953   4.579   0.619 -1.2081  1.2319 -2.0733
  222MPD1    H1 3375   1.175   4.570   0.255  0.5147 -1.9255  0.4333
  222MPD1    H2 3376   1.379   4.555   0.620  0.2427 -0.0441  0.5631
  222MPD1    H3 3377   1.372   4.580   0.371 -1.7912  1.0296 -2.2017
  222MPD1     N 3378   0.927   4.582   0.360 -0.1053  0.4099  0.0825
  222MPD1    H5 3379   0.938   4.586   0.259  1.6637 -1.2650  0.2265
  222MPD1    N1 3380   1.177   4.563   0.778  0.3518  0.3167  0.1141
  222MPD1    H6 3381   1.102   4.521   0.833  2.0563 -0.3847  1.9163
  222MPD1    H7 3382   1.262   4.522   0.815  0.7184  0.3109 -0.7505
  223MPD1     C 3383   0.112   4.059  17.555  0.0069 -0.4804  0.3658
  223MPD1    C1 3384   0.144   4.175  17.493 -0.0709  0.3005 -0.0723
  223MPD1    C2 3385   0.234   4.260  17.557 -0.8826 -0.0755  0.5481
  223MPD1    C3 3386   0.294   4.225  17.673  0.3764  0.0847  0.4736
  223MPD1    C4 3387   0.276   4.099   0.031  0.4773 -0.1155  0.2892
  223MPD1    C5 3388   0.181   4.018  17.668 -0.2997 -0.5910 -0.5860
  223MPD1     H 3389   0.247   4.358  17.512  0.2319 -1.3508 -1.9096
  223MPD1    H1 3390   0.333   4.060   0.115 -2.0603 -0.8230  1.6553
  223MPD1    H2 3391   0.028   4.000  17.522 -0.2291 -0.8733  1.6820
  223MPD1    H3 3392   0.152   3.926   0.022  1.0069 -1.4298 -1.3817
  223MPD1     N 3393   0.375   4.330   0.039  0.0793 -0.2854 -0.2597
  223MPD1    H5 3394   0.384   4.416  17.681  3.3079 -1.0163 -0.8660
  223MPD1    N1 3395   0.063   4.227  17.393 -0.0944 -0.1940 -0.2137
  223MPD1    H6 3396   0.105   4.302  17.339  1.3063 -1.5091 -0.9502
  223MPD1    H7 3397   0.028   4.155  17.330  1.2743 -0.0169 -1.1726
  224MPD1     C 3398   1.754   2.286   9.442  0.2384  0.5785  0.2619
  224MPD1    C1 3399   1.628   2.333   9.451  0.1069 -1.3514  0.3495
  224MPD1    C2 3400   1.520   2.245   9.473  0.1453  0.1526 -0.3841
  224MPD1    C3 3401   1.539   2.113   9.504  0.0918 -0.5220  0.2740
  224MPD1    C4 3402   1.673   2.071   9.520 -0.2998 -0.0164  0.9641
  224MPD1    C5 3403   1.778   2.149   9.479 -0.0002  0.0802  0.6543
  224MPD1     H 3404   1.421   2.290   9.467  0.0642  0.3286  2.2758
  224MPD1    H1 3405   1.703   1.968   9.538  0.4137  0.2194  1.1515
  224MPD1    H2 3406   1.842   2.339   9.408  0.8645 -1.9873 -2.1556
  224MPD1    H3 3407   1.879   2.109   9.475 -0.6229 -1.7632  3.3528
  224MPD1     N 3408   1.436   2.023   9.540 -0.0984 -0.2976  0.1276
  224MPD1    H5 3409   1.467   1.934   9.578  1.1223 -0.3053 -0.8756
  224MPD1    N1 3410   1.614   2.472   9.415  0.1274  0.2814  0.2659
  224MPD1    H6 3411   1.524   2.518   9.421  0.3454  0.6793  0.5288
  224MPD1    H7 3412   1.685   2.536   9.450  0.7400 -0.8932  1.1663
  225MPD1     C 3413   2.872   3.121  12.556 -0.1005  0.3513 -0.2576
  225MPD1    C1 3414   2.833   2.987  12.542 -1.0350 -0.3605  0.0296
  225MPD1    C2 3415   2.712   2.976  12.479  0.1256  1.1869 -0.4005
  225MPD1    C3 3416   2.636   3.081  12.427 -0.3059  0.9455 -0.5488
  225MPD1    C4 3417   2.681   3.207  12.454  0.1198 -0.1357  0.4806
  225MPD1    C5 3418   2.797   3.225  12.520 -0.6749  0.1305 -0.6351
  225MPD1     H 3419   2.673   2.875  12.472 -1.4847  1.6821  1.4972
  225MPD1    H1 3420   2.624   3.296  12.431  1.3252  0.5438  0.1552
  225MPD1    H2 3421   2.966   3.134  12.608 -0.5504  0.3970  0.5463
  225MPD1    H3 3422   2.832   3.318  12.565  1.2797  0.4171 -2.7510
  225MPD1     N 3423   2.510   3.068  12.354 -0.3145  0.0246  0.3982
  225MPD1    H5 3424   2.458   3.150  12.326 -2.1530 -1.2449  0.1436
  225MPD1    N1 3425   2.906   2.884  12.598  0.2934  0.2682 -0.1442
  225MPD1    H6 3426   2.898   2.795  12.549 -0.9877  1.7985 -2.7089
  225MPD1    H7 3427   3.005   2.905  12.604  0.1221  0.1813  3.1209
  226MPD1     C 3428   2.914   1.643   9.382  0.5062 -0.2480  0.0343
  226MPD1    C1 3429   2.796   1.599   9.440 -0.1516 -0.0180 -0.2442
  226MPD1    C2 3430   2.735   1.690   9.528  0.3170  0.6629 -0.4437
  226MPD1    C3 3431   2.800   1.802   9.582 -0.6791  0.8157  0.1189
  226MPD1    C4 3432   2.925   1.834   9.529 -0.2366 -0.0559  0.0078
  226MPD1    C5 3433   2.977   1.752   9.434 -0.0266 -0.6556  0.2786
  226MPD1     H 3434   2.639   1.662   9.569  0.3536 -0.2300 -0.9815
  226MPD1    H1 3435   2.968   1.930   9.554  0.9070 -0.3456 -0.8398
  226MPD1    H2 3436   2.962   1.585   9.304 -0.0237  1.7325 -1.7376
  226MPD1    H3 3437   3.054   1.805   9.380 -0.8387  0.1386 -0.0932
  226MPD1     N 3438   2.738   1.880   9.682 -0.2811  0.4222 -0.5840
  226MPD1    H5 3439   2.650   1.856   9.726  0.2961  1.2324  0.9975
  226MPD1    N1 3440   2.723   1.503   9.366  0.0094 -0.2973  0.0490
  226MPD1    H6 3441   2.783   1.425   9.341  2.0761  1.4447 -0.4702
  226MPD1    H7 3442   2.653   1.457   9.425  0.6591  0.0182  1.0651
  227MPD1     C 3443   2.379   1.559  10.373  0.5656 -0.0590 -0.1946
  227MPD1    C1 3444   2.427   1.515  10.250  0.0925 -0.8155  0.3789
  227MPD1    C2 3445   2.443   1.611  10.159  0.0303  0.8163  0.5473
  227MPD1    C3 3446   2.450   1.749  10.195 -0.4877  0.3735  0.5320
  227MPD1    C4 3447   2.430   1.789  10.325  0.7514  0.7922 -0.7040
  227MPD1    C5 3448   2.379   1.694  10.407  0.1267 -0.6767 -0.3352
  227MPD1     H 3449   2.476   1.585  10.059 -1.0760 -0.8425  0.6054
  227MPD1    H1 3450   2.431   1.893  10.355  0.9602  0.3852  0.6837
  227MPD1    H2 3451   2.350   1.489  10.451 -2.2882  0.0421 -1.1374
  227MPD1    H3 3452   2.347   1.725  10.505  1.3915  0.1262 -0.1775
  227MPD1     N 3453   2.483   1.840  10.096  0.3224 -0.6927  0.0732
  227MPD1    H5 3454   2.508   1.807  10.003 -1.2148 -3.2169  0.5326
  227MPD1    N1 3455   2.410   1.376  10.215  0.3027 -0.0626  0.7424
  227MPD1    H6 3456   2.431   1.315  10.294 -1.8567 -0.1576  1.2452
  227MPD1    H7 3457   2.475   1.352  10.140 -1.1798 -0.3138 -0.4691
  228MPD1     C 3458   3.836   1.106  12.976  0.3377 -0.5745 -0.1256
  228MPD1    C1 3459   3.825   1.028  12.865 -0.2210 -0.5577 -0.0625
  228MPD1    C2 3460   3.742   0.920  12.878 -0.1559 -0.2942 -0.4004
  228MPD1    C3 3461   3.662   0.895  12.988 -0.1232 -0.1608  0.4368
  228MPD1    C4 3462   3.668   0.983  13.095  0.3736  0.4157 -0.5079
  228MPD1    C5 3463   3.755   1.089  13.094  0.4155  0.1901 -0.0871
  228MPD1     H 3464   3.726   0.854  12.794  0.1689  1.1883 -1.6352
  228MPD1    H1 3465   3.602   0.979  13.180 -0.4105 -2.4573 -1.2736
  228MPD1    H2 3466   3.907   1.188  12.975  1.6172 -1.6910 -0.5235
  228MPD1    H3 3467   3.755   1.145  13.186 -1.5091 -1.0741  0.6764
  228MPD1     N 3468   3.569   0.778  12.984 -0.4279  0.0402  0.2373
  228MPD1    H5 3469   3.562   0.731  12.895  1.5517  0.0068  0.1081
  228MPD1    N1 3470   3.867   1.074  12.738 -0.0803  0.4280  0.0856
  228MPD1    H6 3471   3.962   1.110  12.734 -0.6707  1.8956 -0.6234
  228MPD1    H7 3472   3.873   0.997  12.671 -1.1502 -1.4657  2.1693
  229MPD1     C 3473   3.534   3.769  15.329  0.2635 -0.1726  0.1324
  229MPD1    C1 3474   3.622   3.807  15.428  0.8870  0.4832 -0.6241
  229MPD1    C2 3475   3.686   3.704  15.495 -0.2029  0.5133  0.0609
  229MPD1    C3 3476   3.695   3.574  15.448  0.2038 -0.5450  0.4212
  229MPD1    C4 3477   3.613   3.544  15.337 -0.1667  0.2232 -0.2164
  229MPD1    C5 3478   3.535   3.643  15.279 -0.1000 -0.9583 -0.4570
  229MPD1     H 3479   3.753   3.735  15.575  0.2039  0.6416 -0.3282
  229MPD1    H1 3480   3.612   3.448  15.287  2.0887  0.4930 -0.7871
  229MPD1    H2 3481   3.467   3.835  15.275  0.7462 -0.2653 -0.5833
  229MPD1    H3 3482   3.469   3.632  15.194 -1.6244  1.0210  0.4755
  229MPD1     N 3483   3.769   3.466  15.507  0.7377  0.3902  0.2609
  229MPD1    H5 3484   3.748   3.373  15.473 -0.5221  0.3795  1.0774
  229MPD1    N1 3485   3.608   3.933  15.484 -0.0054  0.7783  0.3135
  229MPD1    H6 3486   3.593   4.011  15.420  2.4167  1.0819  0.1009
  229MPD1    H7 3487   3.681   3.968  15.545  1.1976  0.4318 -0.9185
  230MPD1     C 3488   4.634   3.148  16.135 -0.0483  1.3231 -0.4889
  230MPD1    C1 3489   4.663   3.127  15.998 -0.4123 -0.4983  0.1551
  230MPD1    C2 3490   4.568   3.156  15.898  0.1031  0.1783 -0.1751
  230MPD1    C3 3491   4.448   3.208  15.939  0.0672 -0.1556 -0.3411
  230MPD1    C4 3492   4.426   3.237  16.073  0.3522  0.6877 -0.3620
  230MPD1    C5 3493   4.516   3.213  16.169 -0.3775  0.6304 -0.0898
  230MPD1     H 3494   4.583   3.134  15.793 -1.3753  0.8259 -0.5240
  230MPD1    H1 3495   4.338   3.287  16.112 -0.2092  1.9681 -3.2929
  230MPD1    H2 3496   4.702   3.123  16.215 -1.4770  3.2993  1.3295
  230MPD1    H3 3497   4.493   3.241  16.271 -1.6406  0.0323 -0.2204
  230MPD1     N 3498   4.341   3.221  15.838  0.0748  0.2005 -0.1208
  230MPD1    H5 3499   4.357   3.191  15.742  0.0693 -0.6215  0.1287
  230MPD1    N1 3500   0.063   3.065  15.958 -0.5614 -0.1312 -0.0579
  230MPD1    H6 3501   0.136   3.098  16.021 -1.1758  0.5024  0.3243
  230MPD1    H7 3502   0.085   3.083  15.861  1.1616 -0.0200  0.3600
  231MPD1     C 3503   1.836   0.955  15.261  0.7185  0.4592  0.5328
  231MPD1    C1 3504   1.820   0.991  15.136  0.2140 -0.5426 -0.2235
  231MPD1    C2 3505   1.907   1.084  15.078 -0.4464 -0.3554  0.4843
  231MPD1    C3 3506   2.021   1.123  15.143 -0.4654 -0.0106 -0.0812
  231MPD1    C4 3507   2.035   1.085  15.273  0.3769  0.7217  0.1217
  231MPD1    C5 3508   1.949   1.002  15.328  0.0719 -0.9418  0.1267
  231MPD1     H 3509   1.892   1.123  14.977 -3.4740 -0.2033  0.9887
  231MPD1    H1 3510   2.122   1.110  15.332  1.6462 -0.4516 -1.2527
  231MPD1    H2 3511   1.770   0.885  15.310  0.0263  0.9198  0.2683
  231MPD1    H3 3512   1.958   0.956  15.426 -1.5376 -1.3446  0.0924
  231MPD1     N 3513   2.109   1.198  15.067  0.1094  0.0164  0.2663
  231MPD1    H5 3514   2.091   1.204  14.967 -0.2333 -0.1076  0.3203
  231MPD1    N1 3515   1.705   0.954  15.070  0.1434 -0.1496  0.6949
  231MPD1    H6 3516   1.634   1.023  15.090  1.0623  1.5552 -1.9710
  231MPD1    H7 3517   1.718   0.978  14.972  2.7119  1.3183  1.3786
  232MPD1     C 3518   2.799   3.951  17.305 -0.5304 -0.1574  0.3563
  232MPD1    C1 3519   2.822   4.005  17.437 -0.1570 -0.1926  0.2457
  232MPD1    C2 3520   2.927   3.956  17.508 -0.1739 -0.4433  0.1828
  232MPD1    C3 3521   2.995   3.840  17.478 -1.0906 -0.1600  0.6628
  232MPD1    C4 3522   2.972   3.783  17.357  0.4312  0.0295  0.1785
  232MPD1    C5 3523   2.876   3.843  17.269  0.3855  0.1883 -0.6346
  232MPD1     H 3524   2.941   3.994  17.608 -3.6662  0.3382  0.3963
  232MPD1    H1 3525   3.030   3.695  17.331  1.2325  1.0255 -1.4348
  232MPD1    H2 3526   2.711   3.978  17.247  0.9145  1.6812 -0.9525
  232MPD1    H3 3527   2.853   3.795  17.174 -0.1535 -1.3449  0.2566
  232MPD1     N 3528   3.094   3.793  17.572  0.6886 -0.0916 -0.3956
  232MPD1    H5 3529   3.112   3.849  17.655 -1.1516 -0.5760  0.3292
  232MPD1    N1 3530   2.749   4.118  17.475 -0.5947  0.0128 -0.6398
  232MPD1    H6 3531   2.661   4.136  17.427 -0.8904  0.1909 -0.0179
  232MPD1    H7 3532   2.726   4.113  17.574  0.3302 -3.7552 -0.5783
  233MPD1     C 3533   4.466   1.827   1.604 -0.3321 -0.3689 -0.2271
  233MPD1    C1 3534   4.431   1.699   1.626 -0.5809  0.1208 -0.5542
  233MPD1    C2 3535   4.499   1.603   1.555  0.3229  0.4212  0.7936
  233MPD1    C3 3536   4.603   1.639   1.471  0.2899  0.2413  0.0994
  233MPD1    C4 3537   4.643   1.770   1.471 -0.2656 -0.4023  0.1396
  233MPD1    C5 3538   4.567   1.863   1.522  0.1596  0.0864  0.0771
  233MPD1     H 3539   4.470   1.499   1.566 -1.7626  0.6936 -2.1227
  233MPD1    H1 3540   0.001   1.792   1.402  0.4670  1.7075  1.6665
  233MPD1    H2 3541   4.426   1.915   1.653 -0.0189  0.0801 -0.7873
  233MPD1    H3 3542   4.581   1.969   1.502 -2.2839  0.5067  0.6623
  233MPD1     N 3543   4.681   1.546   1.401 -0.1452 -0.1496 -0.6070
  233MPD1    H5 3544   0.043   1.583   1.359  0.1110 -0.5498 -0.4406
  233MPD1    N1 3545   4.334   1.659   1.722  0.4319 -0.3054  0.0889
  233MPD1    H6 3546   4.352   1.573   1.774  1.8841  0.4153  0.7725
  233MPD1    H7 3547   4.287   1.729   1.778 -0.2940  1.8523 -3.2618
  234MPD1     C 3548   1.956   0.204   9.600  0.8853 -0.1007  0.3233
  234MPD1    C1 3549   1.898   0.269   9.705  0.0219 -0.3509 -0.3718
  234MPD1    C2 3550   1.843   0.393   9.685 -0.4020  0.1636 -0.0140
  234MPD1    C3 3551   1.871   0.467   9.568  0.1428  0.0481 -0.4208
  234MPD1    C4 3552   1.938   0.397   9.464  0.1292  0.4497 -0.5251
  234MPD1    C5 3553   1.983   0.268   9.481 -0.0833  0.1140 -0.0139
  234MPD1     H 3554   1.781   0.438   9.761  0.8280 -0.1167  1.1379
  234MPD1    H1 3555   1.956   0.439   9.366  1.3685  1.5834  0.1931
  234MPD1    H2 3556   1.986   0.100   9.605  0.2793 -0.2903  0.0423
  234MPD1    H3 3557   2.023   0.214   9.396 -4.4182  2.0139 -3.2824
  234MPD1     N 3558   1.830   0.601   9.549 -0.5013 -0.0007 -0.0787
  234MPD1    H5 3559   1.792   0.652   9.628 -2.2333  0.7877 -1.4263
  234MPD1    N1 3560   1.846   0.187   9.807  0.0970  0.2647 -0.5408
  234MPD1    H6 3561   1.832   0.251   9.884 -0.2721  0.2570 -0.6006
  234MPD1    H7 3562   1.905   0.109   9.835  0.3200  0.5175 -0.3011
  235MPD1     C 3563   4.301   3.173   9.911  0.3298  0.2435  0.6736
  235MPD1    C1 3564   4.294   3.292   9.979 -0.1882  0.7398  0.0969
  235MPD1    C2 3565   4.376   3.396   9.937 -0.5619 -0.2454  0.4306
  235MPD1    C3 3566   4.484   3.375   9.846  0.5535 -0.1440 -0.1515
  235MPD1    C4 3567   4.492   3.247   9.795 -0.4698  0.3108  0.3742
  235MPD1    C5 3568   4.394   3.152   9.811  0.6058  0.2184 -0.2556
  235MPD1     H 3569   4.362   3.495   9.978 -0.1796 -0.5098  1.1932
  235MPD1    H1 3570   4.579   3.227   9.734  1.3442  2.1248  2.3444
  235MPD1    H2 3571   4.224   3.099   9.928 -1.4736  1.7114 -1.1537
  235MPD1    H3 3572   4.400   3.051   9.774  2.1391  0.2968 -0.1869
  235MPD1     N 3573   4.570   3.484   9.814 -0.4701  0.4358 -0.1869
  235MPD1    H5 3574   4.528   3.573   9.838  2.5244  1.7402  0.2323
  235MPD1    N1 3575   4.186   3.314  10.069 -0.1365  0.3198  0.8489
  235MPD1    H6 3576   4.140   3.232  10.107  0.1583 -0.5678 -0.7220
  235MPD1    H7 3577   4.221   3.364  10.151 -0.2306  0.6686  0.6760
  236MPD1     C 3578   2.472   4.045  10.408 -0.3556 -0.1246  0.3676
  236MPD1    C1 3579   2.477   3.932  10.331  0.5130 -0.6331 -0.6780
  236MPD1    C2 3580   2.572   3.831  10.354  0.5735 -0.6403  0.3159
  236MPD1    C3 3581   2.650   3.843  10.468  0.2854 -0.3234  0.7940
  236MPD1    C4 3582   2.638   3.951  10.553 -0.6319 -0.0838  0.1058
  236MPD1    C5 3583   2.558   4.059  10.516  0.6484  0.1866 -0.7559
  236MPD1     H 3584   2.572   3.751  10.281  1.3947 -0.1938 -0.1815
  236MPD1    H1 3585   2.706   3.953  10.638  1.1476 -1.3227 -1.2830
  236MPD1    H2 3586   2.403   4.129  10.399 -0.6811 -0.0828  3.3840
  236MPD1    H3 3587   2.543   4.146  10.579  1.5821 -0.2468  0.0759
  236MPD1     N 3588   2.738   3.746  10.510 -0.8711  0.6290  0.5203
  236MPD1    H5 3589   2.763   3.757  10.607 -1.0809 -1.5020  0.8150
  236MPD1    N1 3590   2.375   3.908  10.243  0.3931  0.0408  0.7240
  236MPD1    H6 3591   2.417   3.882  10.154 -0.4857  0.5619  0.1561
  236MPD1    H7 3592   2.310   3.985  10.229 -0.4091 -0.4340  1.8952
  237MPD1     C 3593   2.578   1.683  15.924  0.8754 -0.4198  0.8756
  237MPD1    C1 3594   2.589   1.812  15.977  0.0320 -0.0434  0.0337
  237MPD1    C2 3595   2.500   1.909  15.930 -0.4911  0.6787  0.0696
  237MPD1    C3 3596   2.435   1.890  15.806  0.1362 -0.3599  0.1787
  237MPD1    C4 3597   2.442   1.766  15.750 -0.3878 -0.4705 -0.5054
  237MPD1    C5 3598   2.510   1.665  15.809 -0.3473 -0.0771 -0.1266
  237MPD1     H 3599   2.484   2.008  15.972 -0.7546 -0.6559  3.1584
  237MPD1    H1 3600   2.395   1.754  15.654 -1.7409  0.3461  0.0462
  237MPD1    H2 3601   2.628   1.596  15.965  1.4583 -1.0997 -1.2703
  237MPD1    H3 3602   2.504   1.578  15.745  2.6490 -0.8157  0.6106
  237MPD1     N 3603   2.362   1.986  15.734  0.0833 -0.1220 -0.3328
  237MPD1    H5 3604   2.321   1.954  15.647 -1.3709  1.7594 -0.3408
  237MPD1    N1 3605   2.664   1.838  16.091 -0.2764  0.6296  0.2356
  237MPD1    H6 3606   2.735   1.770  16.115 -1.1497 -1.2785 -2.6644
  237MPD1    H7 3607   2.687   1.935  16.114 -1.1886  0.6354  1.1357
  238MPD1     C 3608   3.766   0.357  15.212  0.6069  0.1988  0.2157
  238MPD1    C1 3609   3.748   0.482  15.261 -0.2840 -0.4757 -0.2103
  238MPD1    C2 3610   3.738   0.578  15.163 -0.2421  0.4942 -0.1772
  238MPD1    C3 3611   3.706   0.558  15.031 -0.2850 -0.4223 -0.2168
  238MPD1    C4 3612   3.727   0.430  14.986 -0.0792 -0.9797 -0.2011
  238MPD1    C5 3613   3.762   0.331  15.076  0.1253  0.3217  0.9480
  238MPD1     H 3614   3.717   0.678  15.200 -2.0937  0.5659 -1.4096
  238MPD1    H1 3615   3.721   0.399  14.882 -2.3489  1.0989 -0.6918
  238MPD1    H2 3616   3.802   0.278  15.277 -0.8065  0.3275  1.1618
  238MPD1    H3 3617   3.785   0.229  15.047  1.4281  0.5101  1.3295
  238MPD1     N 3618   3.659   0.659  14.932  0.2579  0.1413 -0.4793
  238MPD1    H5 3619   3.648   0.632  14.835 -0.2025 -0.4218 -0.2769
  238MPD1    N1 3620   3.764   0.522  15.395 -0.9632  0.3649  0.5360
  238MPD1    H6 3621   3.715   0.459  15.459  1.1259  2.0289  3.8116
  238MPD1    H7 3622   3.733   0.618  15.408  1.3870  1.0774  0.8136
  239MPD1     C 3623   3.915   1.456  14.832  0.0414  0.8899 -0.4920
  239MPD1    C1 3624   4.015   1.548  14.844  0.0413 -0.1385 -0.3431
  239MPD1    C2 3625   4.014   1.658  14.759  0.0767 -0.0571 -0.0188
  239MPD1    C3 3626   3.910   1.685  14.674 -0.0813 -0.7146  0.2057
  239MPD1    C4 3627   3.802   1.598  14.673  0.0164 -0.3632 -0.2861
  239MPD1    C5 3628   3.808   1.486  14.751  0.8354  1.2278 -0.0102
  239MPD1     H 3629   4.095   1.729  14.755  0.9922 -1.1692 -1.2406
  239MPD1    H1 3630   3.722   1.604  14.600  0.4893  0.9001 -0.6926
  239MPD1    H2 3631   3.917   1.363  14.887 -0.5166 -0.3752 -2.5955
  239MPD1    H3 3632   3.726   1.418  14.734  0.5423  2.0689 -1.9184
  239MPD1     N 3633   3.899   1.794  14.583 -0.4310  0.3909 -0.2854
  239MPD1    H5 3634   3.815   1.786  14.525 -0.3423  0.7332 -0.4590
  239MPD1    N1 3635   4.133   1.514  14.916  0.4990  0.1932  0.0180
  239MPD1    H6 3636   4.196   1.592  14.932  1.9678 -0.9608 -0.1993
  239MPD1    H7 3637   4.113   1.462  15.002  0.1531 -0.6557 -0.5838
  240MPD1     C 3638   3.480   1.902  13.359  0.0774  0.1523  0.0036
  240MPD1    C1 3639   3.537   1.783  13.358  0.3740  0.3538  0.0134
  240MPD1    C2 3640   3.546   1.716  13.482 -0.1273 -0.3695  0.1390
  240MPD1    C3 3641   3.497   1.771  13.603 -0.0485  0.7877  0.6602
  240MPD1    C4 3642   3.444   1.897  13.590  0.3288 -0.6468  0.2050
  240MPD1    C5 3643   3.431   1.959  13.470  0.6625 -0.4671  0.2271
  240MPD1     H 3644   3.590   1.617  13.476  1.0662  0.2368 -0.9624
  240MPD1    H1 3645   3.413   1.960  13.673  1.3537 -1.9363  1.5582
  240MPD1    H2 3646   3.471   1.948  13.262 -0.5337 -0.0594 -0.0427
  240MPD1    H3 3647   3.391   2.059  13.481  0.4597 -0.3373 -1.5846
  240MPD1     N 3648   3.499   1.692  13.720 -0.4903  0.4141 -0.2409
  240MPD1    H5 3649   3.540   1.599  13.715 -0.8608  0.2245  0.2975
  240MPD1    N1 3650   3.564   1.715  13.237 -0.1075 -0.0201  0.2104
  240MPD1    H6 3651   3.644   1.652  13.229  0.6801  0.8578  1.2509
  240MPD1    H7 3652   3.582   1.780  13.161  1.7659  1.4567  1.9273
  241MPD1     C 3653   4.003   0.947  14.069  0.1120  0.4036 -0.0914
  241MPD1    C1 3654   4.029   1.046  13.977  0.5244  0.6740 -0.1481
  241MPD1    C2 3655   3.939   1.150  13.968  0.7134 -0.1806 -0.1250
  241MPD1    C3 3656   3.847   1.162  14.069  1.1720 -0.7735 -0.1494
  241MPD1    C4 3657   3.829   1.066  14.170 -0.1984 -0.4654  0.8781
  241MPD1    C5 3658   3.911   0.960  14.168  0.5383 -0.0649  0.3409
  241MPD1     H 3659   3.946   1.216  13.883  0.7905  1.8116  1.4225
  241MPD1    H1 3660   3.754   1.079  14.246  0.2536  0.5276  1.1621
  241MPD1    H2 3661   4.072   0.863  14.070 -1.1949 -0.6475  0.1847
  241MPD1    H3 3662   3.884   0.880  14.237  0.3254  0.4635  0.8724
  241MPD1     N 3663   3.735   1.255  14.076  0.6601 -0.0152 -0.9485
  241MPD1    H5 3664   3.658   1.245  14.142  1.1884  3.1112  0.1649
  241MPD1    N1 3665   4.107   1.025  13.871  0.7940 -0.6420 -0.6729
  241MPD1    H6 3666   4.042   0.989  13.801 -0.4942 -0.5947  0.4971
  241MPD1    H7 3667   4.131   1.116  13.833 -2.0308  0.2555 -0.3523
  242MPD1     C 3668   3.346   0.036  15.986 -0.8049  0.9935 -0.5104
  242MPD1    C1 3669   3.291   0.104  15.874 -0.6399  0.8874 -0.2916
  242MPD1    C2 3670   3.296   0.034  15.754  0.0463 -0.2012 -0.1503
  242MPD1    C3 3671   3.356   4.632  15.742 -0.0636 -0.2132 -0.4364
  242MPD1    C4 3672   3.416   4.572  15.854 -0.3961  0.5593 -0.7692
  242MPD1    C5 3673   3.391   4.634  15.974  0.1499  0.1561 -0.4005
  242MPD1     H 3674   3.243   0.085  15.675 -2.2205  0.0633  1.5234
  242MPD1    H1 3675   3.454   4.470  15.857  0.7404  0.9831 -0.4918
  242MPD1    H2 3676   3.332   0.083  16.083 -0.2992  1.3142 -0.5887
  242MPD1    H3 3677   3.422   4.584  16.065  1.8184  3.3092  0.7606
  242MPD1     N 3678   3.368   4.568  15.619 -0.3101  0.2220  0.5627
  242MPD1    H5 3679   3.418   4.479  15.623 -0.2595  0.3273  2.1803
  242MPD1    N1 3680   3.229   0.226  15.883 -0.7490  0.0285  0.9892
  242MPD1    H6 3681   3.212   0.249  15.786 -1.5327  0.6463  1.2732
  242MPD1    H7 3682   3.278   0.295  15.940 -1.1070 -0.9776  2.5320
  243MPD1     C 3683   1.189   2.304   0.591  0.4839  0.5491  0.0706
  243MPD1    C1 3684   1.065   2.287   0.647 -0.0123 -0.2912  0.7581
  243MPD1    C2 3685   0.952   2.331   0.573 -0.1574  0.5738 -0.1185
  243MPD1    C3 3686   0.966   2.414   0.461 -0.0156  0.5091  0.4365
  243MPD1    C4 3687   1.094   2.451   0.434 -0.5129  0.0825  0.1576
  243MPD1    C5 3688   1.199   2.388   0.489 -0.3021  0.1239  0.2805
  243MPD1     H 3689   0.855   2.308   0.614 -0.1901  0.8996 -0.0136
  243MPD1    H1 3690   1.127   2.520   0.358  0.2105 -2.3526 -1.7696
  243MPD1    H2 3691   1.280   2.258   0.629  0.7596  0.6332 -0.4816
  243MPD1    H3 3692   1.302   2.402   0.460 -0.7333 -0.0544 -1.3126
  243MPD1     N 3693   0.852   2.475   0.405 -0.3426 -0.0404  0.2437
  243MPD1    H5 3694   0.764   2.428   0.421 -0.3802  0.4894  1.6388
  243MPD1    N1 3695   1.049   2.191   0.750  0.4232 -0.1841  0.4135
  243MPD1    H6 3696   0.974   2.230   0.807  0.4574  2.7983 -1.5979
  243MPD1    H7 3697   1.124   2.174   0.816  0.6493 -2.1107 -0.3301
  244MPD1     C 3698   0.314   1.933   0.019 -0.1260  0.3053  0.2544
  244MPD1    C1 3699   0.414   1.944   0.112  0.5400 -0.3140 -0.2098
  244MPD1    C2 3700   0.478   2.063   0.126 -0.0502  0.1018 -0.0549
  244MPD1    C3 3701   0.461   2.165   0.040 -0.1956  0.4742  0.3892
  244MPD1    C4 3702   0.372   2.148  17.627  0.5099  0.5990 -0.0546
  244MPD1    C5 3703   0.290   2.034  17.627 -0.4796 -0.0932  0.1938
  244MPD1     H 3704   0.549   2.073   0.207 -2.3578  0.7715  1.8819
  244MPD1    H1 3705   0.344   2.238  17.574  1.3115  2.3565  2.5046
  244MPD1    H2 3706   0.248   1.850  17.693  0.3286 -0.0128  0.0866
  244MPD1    H3 3707   0.202   2.024  17.565  0.0222  2.9337 -0.9980
  244MPD1     N 3708   0.524   2.287   0.077  0.4955 -0.5125  0.0565
  244MPD1    H5 3709   0.578   2.284   0.164 -1.2122  2.2717  1.1891
  244MPD1    N1 3710   0.433   1.843   0.203  0.5434  0.2448  0.0611
  244MPD1    H6 3711   0.408   1.749   0.175  1.2013 -0.6292  2.4179
  244MPD1    H7 3712   0.530   1.844   0.234  0.4525 -2.9860  0.3711
  245MPD1     C 3713   1.942   3.678  13.737 -0.1764  0.5182 -0.4597
  245MPD1    C1 3714   2.008   3.785  13.792  0.3905 -0.2526  0.7147
  245MPD1    C2 3715   2.037   3.883  13.706  0.1635  0.2254 -0.4002
  245MPD1    C3 3716   1.987   3.899  13.583 -0.5537  0.7626  0.6197
  245MPD1    C4 3717   1.903   3.801  13.544 -0.2488  0.6388 -0.2103
  245MPD1    C5 3718   1.876   3.690  13.621 -0.1730  0.1457 -0.9108
  245MPD1     H 3719   2.099   3.963  13.745 -0.1536  1.1213 -1.7467
  245MPD1    H1 3720   1.847   3.814  13.451 -0.9971  1.0643  0.2962
  245MPD1    H2 3721   1.930   3.588  13.797  2.7792  0.2822 -0.2248
  245MPD1    H3 3722   1.806   3.614  13.588 -0.4783 -1.1296  2.6559
  245MPD1     N 3723   2.021   4.007  13.501 -0.7382 -0.3065  0.7936
  245MPD1    H5 3724   2.074   4.081  13.546 -0.7366 -1.5714  2.8523
  245MPD1    N1 3725   2.086   3.768  13.912 -0.0658  0.0889  0.4123
  245MPD1    H6 3726   2.111   3.852  13.965  1.4669 -2.0811  3.1449
  245MPD1    H7 3727   2.031   3.713  13.978 -0.0984 -0.5468 -0.1493
  246MPD1     C 3728   2.260   0.835   9.697  0.0053  0.2805  0.0549
  246MPD1    C1 3729   2.170   0.736   9.661 -0.2374  0.9033  0.7436
  246MPD1    C2 3730   2.187   0.677   9.535 -0.1314  0.7916  0.1680
  246MPD1    C3 3731   2.291   0.715   9.453 -0.0412 -0.4890 -0.4960
  246MPD1    C4 3732   2.372   0.816   9.492 -0.2846  0.1450 -0.2312
  246MPD1    C5 3733   2.360   0.872   9.615  0.3005  0.7451  0.4379
  246MPD1     H 3734   2.127   0.589   9.515  1.8582 -0.4465 -0.4416
  246MPD1    H1 3735   2.435   0.861   9.415 -0.2630 -0.8440 -0.7958
  246MPD1    H2 3736   2.252   0.889   9.791  2.8565  2.5939 -1.0608
  246MPD1    H3 3737   2.417   0.961   9.636 -1.3390  2.0604 -0.7860
  246MPD1     N 3738   2.307   0.641   9.338 -0.3013 -0.1618  0.0387
  246MPD1    H5 3739   2.246   0.563   9.317  0.4461 -0.0488 -2.6115
  246MPD1    N1 3740   2.123   0.655   9.765  0.3245 -0.3209  0.3034
  246MPD1    H6 3741   2.092   0.710   9.845  3.2491 -1.3654  2.1233
  246MPD1    H7 3742   2.052   0.586   9.740  0.5573 -0.4367 -0.0421
  247MPD1     C 3743   1.204   4.496  16.306  0.4367  0.3050  0.4624
  247MPD1    C1 3744   1.287   4.463  16.416  0.4334 -0.0807  0.1088
  247MPD1    C2 3745   1.345   4.338  16.416 -0.1162 -1.4826  0.5516
  247MPD1    C3 3746   1.305   4.232  16.330 -0.3445  0.1001  0.5792
  247MPD1    C4 3747   1.214   4.269  16.233 -0.3792 -0.0965  0.0723
  247MPD1    C5 3748   1.163   4.394  16.222  0.2197  1.0173 -0.1483
  247MPD1     H 3749   1.429   4.323  16.483  1.0878  2.2281 -0.1067
  247MPD1    H1 3750   1.166   4.188  16.180 -1.8692  0.6983  0.1995
  247MPD1    H2 3751   1.158   4.593  16.299  0.8890  0.4406 -0.6651
  247MPD1    H3 3752   1.091   4.413  16.144 -0.0656 -0.6867 -0.2989
  247MPD1     N 3753   1.348   4.097  16.345 -0.6663  0.2867 -0.1600
  247MPD1    H5 3754   1.332   4.035  16.266 -3.3328  1.7208 -0.7584
  247MPD1    N1 3755   1.332   4.561  16.506 -0.4157 -0.0476  0.7498
  247MPD1    H6 3756   1.266   4.637  16.522  1.2384  1.1307  2.0177
  247MPD1    H7 3757   1.367   4.518  16.591  0.0682  1.9639  1.5744
  248MPD1     C 3758   2.389   3.535   0.040 -0.1506  0.3778  0.4271
  248MPD1    C1 3759   2.384   3.410   0.102 -0.6454  0.0309  0.0232
  248MPD1    C2 3760   2.349   3.399   0.231 -0.3402  0.2403 -0.1764
  248MPD1    C3 3761   2.294   3.511   0.297  0.6051  0.2156 -0.8781
  248MPD1    C4 3762   2.278   3.630   0.224  0.5120 -1.3620 -0.8550
  248MPD1    C5 3763   2.322   3.640   0.097 -0.2472  0.1503 -0.2717
  248MPD1     H 3764   2.349   3.303   0.282  0.2960  0.0132 -0.6037
  248MPD1    H1 3765   2.232   3.719   0.267  1.7155 -0.1325 -2.0892
  248MPD1    H2 3766   2.431   3.546  17.636  0.5521 -0.5362  0.6135
  248MPD1    H3 3767   2.329   3.731   0.039  0.1709 -0.7297 -1.6126
  248MPD1     N 3768   2.262   3.501   0.433 -1.1094  0.1338  0.1934
  248MPD1    H5 3769   2.276   3.412   0.479 -0.6663 -0.2162 -0.6199
  248MPD1    N1 3770   2.446   3.306   0.033  0.6115 -0.3283 -0.2097
  248MPD1    H6 3771   2.435   3.297  17.627  3.3576  1.7469 -0.6799
  248MPD1    H7 3772   2.400   3.221   0.065 -1.9510  0.8867 -0.6287
  249MPD1     C 3773   3.907   2.031  11.013  0.4032  0.0024  0.2301
  249MPD1    C1 3774   3.953   2.153  10.973 -0.7912 -0.0262 -0.4951
  249MPD1    C2 3775   3.876   2.207  10.876 -0.7123  0.7676 -0.2270
  249MPD1    C3 3776   3.758   2.152  10.830 -0.9373 -0.1189  0.1758
  249MPD1    C4 3777   3.710   2.033  10.888 -0.4050 -0.1276 -0.0714
  249MPD1    C5 3778   3.791   1.974  10.978 -0.0736 -0.7174  0.5448
  249MPD1     H 3779   3.904   2.306  10.843  2.2576 -0.3293 -0.9562
  249MPD1    H1 3780   3.621   1.983  10.851 -1.0245  1.3959 -0.6529
  249MPD1    H2 3781   3.973   1.971  11.075 -1.7434 -0.0714  2.4023
  249MPD1    H3 3782   3.766   1.874  11.012 -2.9876  0.6531  2.4281
  249MPD1     N 3783   3.691   2.212  10.721 -0.2042 -0.0017 -0.1275
  249MPD1    H5 3784   3.735   2.295  10.683 -2.2174  0.6635 -1.0003
  249MPD1    N1 3785   4.086   2.194  10.999 -1.1844 -0.2200 -0.1365
  249MPD1    H6 3786   4.114   2.161  11.091 -0.4351  0.9429  0.0425
  249MPD1    H7 3787   4.103   2.294  10.987 -1.0029 -0.0667  1.4296
  250MPD2     C 3788   0.354   2.474  12.843 -0.5991 -0.1611 -0.0500
  250MPD2    C1 3789   0.264   2.532  12.925 -0.2655 -0.7200 -0.7809
  250MPD2    C2 3790   0.140   2.472  12.938 -0.2431  0.0223 -0.4655
  250MPD2    C3 3791   0.120   2.342  12.875  0.3689  0.1625  0.1801
  250MPD2    C4 3792   0.221   2.288  12.789 -0.1068  0.0383 -0.3142
  250MPD2    C5 3793   0.335   2.357  12.781  0.1423  0.5576  0.0690
  250MPD2     H 3794   0.071   2.527  13.001 -0.9586 -1.1780 -0.2040
  250MPD2    H1 3795   0.211   2.197  12.732 -1.6167  1.0414 -1.6462
  250MPD2    H2 3796   0.452   2.520  12.841 -0.2234 -1.0035 -0.7828
  250MPD2    H3 3797   0.407   2.314  12.712  0.6488 -0.5316  1.2946
  250MPD2     N 3798   4.722   2.276  12.883 -0.5186 -0.1735  0.4266
  250MPD2    H5 3799   4.714   2.191  12.827  0.7844  1.0786 -1.6398
  250MPD2    N1 3800   0.310   2.647  12.995  0.3456 -0.7143  0.1798
  250MPD2    H7 3801   0.408   2.670  12.980 -0.5682  1.8780 -1.9359
  251TMC3    C1 3802   0.337   2.818  13.129  0.5411  0.2870  0.1507
  251TMC3    C2 3803   0.292   2.936  13.158 -0.5927 -0.9257 -1.0219
  251TMC3    C3 3804   0.383   3.022  13.219  0.0369 -0.3002  0.0745
  251TMC3    C4 3805   0.466   2.778  13.147 -0.1220  0.2998  0.2731
  251TMC3    C5 3806   0.555   2.863  13.210  0.4092 -0.0912  0.4712
  251TMC3    C6 3807   0.515   2.989  13.245  0.3852  0.0750  0.0699
  251TMC3     C 3808   0.242   2.734  13.070 -0.9181 -0.2418 -0.0035
  251TMC3     O 3809   0.121   2.749  13.083  0.5622  0.1019  0.5229
  251TMC3     H 3810   0.186   2.957  13.168  0.1431  2.6906 -0.4808
  251TMC3    H1 3811   0.510   2.680  13.131  0.6587  0.5559  0.8657
  251TMC3    H2 3812   0.583   3.062  13.287  0.1838 -0.6063  1.5784
  251TMC3    C7 3813   0.690   2.823  13.240  0.2982 -0.8426  0.2455
  251TMC3    C8 3814   0.331   3.150  13.271  0.1794  0.2201 -0.2842
  251TMC3    O1 3815   0.715   2.702  13.249 -0.4123 -0.1796 -0.6109
  251TMC3    O2 3816   0.392   3.196  13.361  0.8696 -0.1029  0.2997
  252TMC3    C1 3817   1.272   4.368   8.834 -0.0811  0.1701  0.1704
  252TMC3    C2 3818   1.351   4.259   8.841 -0.2354  0.3122 -0.0759
  252TMC3    C3 3819   1.319   4.159   8.926  0.2768 -0.3143  0.9993
  252TMC3    C4 3820   1.166   4.383   8.925  0.2859 -0.4434  0.0189
  252TMC3    C5 3821   1.130   4.273   8.997  0.1974 -0.0165  0.2862
  252TMC3    C6 3822   1.202   4.155   8.993  0.6204 -0.6334 -0.0697
  252TMC3     C 3823   1.322   4.494   8.773 -0.8390 -0.0107 -1.0003
  252TMC3     O 3824   1.414   4.475   8.693 -0.0313 -0.5782  0.1617
  252TMC3     H 3825   1.445   4.252   8.788 -0.3963 -0.9307 -0.1946
  252TMC3    H1 3826   1.110   4.475   8.938 -0.4444 -0.6591 -1.6180
  252TMC3    H2 3827   1.176   4.079   9.066  0.2409 -0.4654 -0.0294
  252TMC3    C7 3828   1.012   4.279   9.081 -0.6959  0.4359 -0.4399
  252TMC3    C8 3829   1.426   4.065   8.952 -0.4522  0.2092  0.4796
  252TMC3    O1 3830   0.985   4.391   9.114 -0.0375 -0.3917  0.2145
  252TMC3    O2 3831   1.504   4.034   8.859  0.6421  0.2679 -0.0941
  253MPD2     C 3832   1.542   1.956  15.204 -0.1422  0.4153  0.6119
  253MPD2    C1 3833   1.446   2.033  15.154 -0.4692 -0.4213  0.3092
  253MPD2    C2 3834   1.458   2.176  15.176 -0.1376 -0.1909  0.3414
  253MPD2    C3 3835   1.573   2.236  15.223  0.6134 -0.8141  0.5499
  253MPD2    C4 3836   1.664   2.147  15.274  0.5279 -0.5417 -0.6414
  253MPD2    C5 3837   1.644   2.013  15.276  0.5015  0.3445 -0.3392
  253MPD2     H 3838   1.370   2.227  15.139  0.2462 -0.9942 -1.6628
  253MPD2    H1 3839   1.753   2.189  15.318 -0.0382 -1.2267  1.1672
  253MPD2    H2 3840   1.551   1.848  15.195 -1.2578  0.2086  1.8487
  253MPD2    H3 3841   1.727   1.953  15.312 -1.4668 -1.1228  1.7206
  253MPD2     N 3842   1.598   2.373  15.235  0.5368 -0.2739  0.4308
  253MPD2    H5 3843   1.686   2.390  15.283  0.2452 -0.3230  0.9885
  253MPD2    N1 3844   1.328   1.994  15.090  0.5922  0.3044  0.5884
  253MPD2    H7 3845   1.263   2.071  15.074 -0.9319 -1.3168 -1.0698
  254TMC3    C1 3846   1.544   2.598  15.294  0.0579 -0.1504 -0.1924
  254TMC3    C2 3847   1.444   2.687  15.296  0.7265 -0.4139  0.3348
  254TMC3    C3 3848   1.424   2.762  15.403  0.1964 -0.8316 -0.0245
  254TMC3    C4 3849   1.625   2.578  15.401 -0.2077  0.1477  0.2717
  254TMC3    C5 3850   1.591   2.642  15.517 -0.2177  0.2585  0.6646
  254TMC3    C6 3851   1.490   2.737  15.521 -0.2494  0.0208 -0.2910
  254TMC3     C 3852   1.512   2.478  15.214  0.0807  1.1065  0.7685
  254TMC3     O 3853   1.395   2.481  15.181 -0.0677  0.3856 -0.4799
  254TMC3     H 3854   1.377   2.701  15.212  0.8618  0.3207  0.3486
  254TMC3    H1 3855   1.692   2.495  15.421 -0.1800  0.4422  1.3768
  254TMC3    H2 3856   1.469   2.786  15.615  0.3037 -0.6129  0.1655
  254TMC3    C7 3857   1.643   2.596  15.639 -0.4499 -0.7202  0.3958
  254TMC3    C8 3858   1.292   2.813  15.425  0.7251  0.2024  0.5062
  254TMC3    O1 3859   1.563   2.605  15.733 -0.1384  0.2033  0.3803
  254TMC3    O2 3860   1.269   2.920  15.371  0.2111  0.0110 -0.2094
  255MPD2     C 3861   0.643   0.167   9.133 -0.4075 -0.6068 -0.2076
  255MPD2    C1 3862   0.752   0.216   9.071  0.2825  0.4161 -0.2336
  255MPD2    C2 3863   0.872   0.147   9.081 -0.0220  0.3954  0.2276
  255MPD2    C3 3864   0.885   0.028   9.156 -0.7672  0.5134 -0.4280
  255MPD2    C4 3865   0.772   4.695   9.213 -0.7957  0.0383  0.6465
  255MPD2    C5 3866   0.655   0.040   9.192 -0.0097  0.2208 -0.4658
  255MPD2     H 3867   0.963   0.186   9.037  0.5734 -1.2057  0.0142
  255MPD2    H1 3868   0.774   4.598   9.262  0.8791  0.8670  2.1694
  255MPD2    H2 3869   0.548   0.219   9.132  1.9300  3.6898 -0.7808
  255MPD2    H3 3870   0.561   0.012   9.237 -0.5407 -0.1424 -1.8157
  255MPD2     N 3871   1.017   4.678   9.164  0.0457  0.0710  0.1178
  255MPD2    H5 3872   1.016   4.578   9.180  2.0536  0.1300  0.5318
  255MPD2    N1 3873   0.744   0.341   9.013 -0.4244  0.4023 -0.5834
  255MPD2    H7 3874   0.669   0.401   9.047 -0.2149  1.0723 -1.2876
  256TMC3    C1 3875   0.810   0.534   8.903 -0.0834 -0.1927 -0.2430
  256TMC3    C2 3876   0.911   0.626   8.884 -0.4805  0.2870  0.5705
  256TMC3    C3 3877   0.873   0.749   8.841  0.1276 -0.3493  0.3490
  256TMC3    C4 3878   0.680   0.558   8.861 -0.1004 -0.4260  0.2241
  256TMC3    C5 3879   0.654   0.677   8.801 -0.6861 -0.4683  0.7714
  256TMC3    C6 3880   0.751   0.775   8.791  0.1968 -0.0902 -0.0980
  256TMC3     C 3881   0.848   0.403   8.935  0.6906  0.5311 -0.2020
  256TMC3     O 3882   0.966   0.377   8.908  0.3640 -0.2239  0.6281
  256TMC3     H 3883   1.012   0.596   8.910  0.1530  3.9635  2.4509
  256TMC3    H1 3884   0.599   0.486   8.865 -0.0874 -0.4525  0.0384
  256TMC3    H2 3885   0.736   0.866   8.733 -0.1644 -0.4071 -0.4968
  256TMC3    C7 3886   0.517   0.705   8.753  0.5870  0.2287 -0.6983
  256TMC3    C8 3887   0.982   0.851   8.838 -0.9861  0.1224 -0.3004
  256TMC3    O1 3888   0.449   0.628   8.689 -0.2844  0.3713 -0.1058
  256TMC3    O2 3889   1.099   0.806   8.835  0.2343  0.0234  0.2091
  257MPD2     C 3890   3.883   2.693  13.115 -0.4827  0.5065  0.1418
  257MPD2    C1 3891   3.810   2.603  13.036  0.0800 -0.6893 -0.7030
  257MPD2    C2 3892   3.760   2.488  13.095  0.7595  0.0396 -0.0222
  257MPD2    C3 3893   3.793   2.459  13.232  0.5009 -0.1784  0.1232
  257MPD2    C4 3894   3.874   2.550  13.303  0.4886 -0.3100  0.1139
  257MPD2    C5 3895   3.919   2.667  13.244  0.7870 -0.1325  0.0459
  257MPD2     H 3896   3.713   2.418  13.027  0.9278  0.4486 -0.5515
  257MPD2    H1 3897   3.924   2.528  13.397  1.1569 -0.1179 -0.2016
  257MPD2    H2 3898   3.938   2.774  13.068 -1.9685  0.8130 -1.0559
  257MPD2    H3 3899   3.989   2.730  13.296 -0.0430  2.3039 -1.8055
  257MPD2     N 3900   3.774   2.325  13.282  0.3447  0.8403 -0.4767
  257MPD2    H5 3901   3.729   2.259  13.220 -0.6440 -0.0811  1.2356
  257MPD2    N1 3902   3.787   2.651  12.901  0.0500 -0.4334 -0.4224
  257MPD2    H7 3903   3.851   2.720  12.862 -0.1833  0.3801  0.6373
  258TMC3    C1 3904   3.829   2.125  13.412  0.3541  0.3672 -0.6758
  258TMC3    C2 3905   3.823   2.047  13.296  0.6048  0.1600 -0.7093
  258TMC3    C3 3906   3.862   1.916  13.306 -0.1515  0.5112 -0.0477
  258TMC3    C4 3907   3.861   2.069  13.535  0.2952 -0.4425 -0.1200
  258TMC3    C5 3908   3.892   1.939  13.532 -0.2615 -0.3683 -0.2816
  258TMC3    C6 3909   3.893   1.856  13.418 -0.8332 -0.0809  0.1646
  258TMC3     C 3910   3.831   2.273  13.395 -0.4169 -0.2922 -0.4380
  258TMC3     O 3911   3.890   2.334  13.480  0.2134 -0.3100 -0.4175
  258TMC3     H 3912   3.806   2.091  13.198  2.3252  0.5387 -0.8437
  258TMC3    H1 3913   3.840   2.125  13.625 -0.0825  1.2556 -1.2738
  258TMC3    H2 3914   3.938   1.757  13.418  0.5844  0.5459 -1.6354
  258TMC3    C7 3915   3.888   1.854  13.654 -0.2666  0.1085  0.0547
  258TMC3    C8 3916   3.841   1.846  13.183 -0.1288 -0.4758 -0.5341
  258TMC3    O1 3917   3.941   1.747  13.654 -0.3539 -0.0598 -0.3021
  258TMC3    O2 3918   3.763   1.886  13.096  0.4045  0.4182  0.1529
  259MPD2     C 3919   2.672   2.941   1.549  0.5234 -0.2979  0.4925
  259MPD2    C1 3920   2.669   3.073   1.514  0.5699 -0.3834 -0.1104
  259MPD2    C2 3921   2.751   3.112   1.414 -0.1110  0.2151  1.5565
  259MPD2    C3 3922   2.836   3.022   1.349  0.0183 -0.0059  0.3011
  259MPD2    C4 3923   2.834   2.890   1.384 -0.0026  0.2577  0.5775
  259MPD2    C5 3924   2.749   2.851   1.482 -0.5141  0.7281 -0.6164
  259MPD2     H 3925   2.736   3.210   1.370  2.5025  0.5406  1.4226
  259MPD2    H1 3926   2.899   2.812   1.345 -0.8426 -0.2490  0.2007
  259MPD2    H2 3927   2.600   2.896   1.616 -0.1520 -1.7332 -1.1882
  259MPD2    H3 3928   2.737   2.747   1.509  0.7353  0.4482 -1.1310
  259MPD2     N 3929   2.901   3.067   1.231  0.3806  0.5257 -0.0633
  259MPD2    H5 3930   2.879   3.159   1.194  1.2458  0.8996  0.3637
  259MPD2    N1 3931   2.578   3.157   1.589  0.1364 -0.9224 -0.6706
  259MPD2    H7 3932   2.525   3.115   1.665  3.0383 -1.6366  0.9587
  260TMC3    C1 3933   3.048   3.060   1.040 -0.2866 -0.1782 -0.1709
  260TMC3    C2 3934   3.052   3.196   1.032  0.7024  0.2569  0.8227
  260TMC3    C3 3935   3.097   3.254   0.919  0.2832  1.0068  0.0208
  260TMC3    C4 3936   3.114   2.977   0.948  0.0856 -0.2370 -0.0786
  260TMC3    C5 3937   3.159   3.035   0.835 -0.4385 -0.0460  0.6133
  260TMC3    C6 3938   3.147   3.171   0.820  0.7785  0.7580  0.4209
  260TMC3     C 3939   2.999   2.996   1.162 -0.6472 -0.3514  0.6353
  260TMC3     O 3940   3.049   2.887   1.186  0.5882  0.1562  0.3693
  260TMC3     H 3941   3.017   3.263   1.110  1.5440 -0.3458  1.7197
  260TMC3    H1 3942   3.113   2.869   0.958 -2.7882  0.1501  3.9101
  260TMC3    H2 3943   3.182   3.207   0.724 -1.8450  1.3051 -0.3106
  260TMC3    C7 3944   3.231   2.963   0.734 -0.0666 -0.3310 -0.8263
  260TMC3    C8 3945   3.047   3.386   0.888  0.0648  0.0681 -0.0633
  260TMC3    O1 3946   3.288   3.029   0.648  0.0617  0.4117 -0.1555
  260TMC3    O2 3947   2.971   3.441   0.969 -0.5604  0.1439  0.1792
  261MPD2     C 3948   4.394   2.013  12.365 -0.8304 -0.0223  0.0644
  261MPD2    C1 3949   4.403   2.126  12.437 -0.5879  0.6902  0.0407
  261MPD2    C2 3950   4.443   2.237  12.370 -0.0386 -0.4108  0.0388
  261MPD2    C3 3951   4.467   2.239  12.234  0.0912 -0.7772  0.0098
  261MPD2    C4 3952   4.438   2.124  12.163  0.9505 -0.1831  0.3196
  261MPD2    C5 3953   4.396   2.011  12.227 -0.0818  0.4179 -0.4288
  261MPD2     H 3954   4.482   2.311  12.439 -1.9940  2.3183 -1.7765
  261MPD2    H1 3955   4.457   2.124  12.056 -0.2241 -3.4001  0.1040
  261MPD2    H2 3956   4.359   1.919  12.405  0.5875 -0.9806 -0.9679
  261MPD2    H3 3957   4.373   1.925  12.165 -1.5652  0.4004  0.1304
  261MPD2     N 3958   4.530   2.346  12.167 -0.5839 -0.5943  0.6316
  261MPD2    H5 3959   4.550   2.324  12.070  0.3913  0.3649  0.6175
  261MPD2    N1 3960   4.394   2.122  12.579  0.2159 -0.2935  0.4270
  261MPD2    H7 3961   4.406   2.214  12.620 -0.7499 -0.4678  1.0925
  262TMC3    C1 3962   4.615   2.560  12.129  0.1513 -0.3805 -0.4818
  262TMC3    C2 3963   4.586   2.694  12.140  0.1561 -0.1930  0.0825
  262TMC3    C3 3964   4.663   2.780  12.073 -0.2699  0.2233 -0.6140
  262TMC3    C4 3965   0.000   2.510  12.062  0.4278 -0.6814 -0.3412
  262TMC3    C5 3966   0.076   2.608  11.997 -0.7288 -0.1875  0.0943
  262TMC3    C6 3967   0.048   2.743  12.001 -0.4555  0.1865  0.0317
  262TMC3     C 3968   4.552   2.465  12.225 -0.3847  0.8529  0.0648
  262TMC3     O 3969   4.504   2.513  12.324 -0.3232 -0.1893 -0.3432
  262TMC3     H 3970   4.508   2.729  12.206 -0.2675 -1.0081  0.0136
  262TMC3    H1 3971   0.038   2.411  12.084  1.4529 -0.2057  0.0358
  262TMC3    H2 3972   0.100   2.818  11.943 -0.1517  1.1458  1.5493
  262TMC3    C7 3973   0.155   2.546  11.891 -0.3946 -0.5353  0.3152
  262TMC3    C8 3974   4.604   2.909  12.034 -0.2598 -0.0556 -0.5760
  262TMC3    O1 3975   0.170   2.429  11.891  0.0320  0.1469 -0.7102
  262TMC3    O2 3976   4.674   2.985  11.976 -0.2451 -0.5761 -0.0227
  263MPD2     C 3977   0.538   1.638  11.798  0.2585 -0.0412 -0.2149
  263MPD2    C1 3978   0.636   1.585  11.719  0.2631 -0.8050  0.5819
  263MPD2    C2 3979   0.722   1.666  11.641 -0.3087 -0.0149 -0.1004
  263MPD2    C3 3980   0.696   1.799  11.631 -0.2023 -0.1375  0.1335
  263MPD2    C4 3981   0.593   1.856  11.704  0.2519  0.2331  0.3388
  263MPD2    C5 3982   0.516   1.774  11.781  0.0382  0.3173 -0.3981
  263MPD2     H 3983   0.808   1.624  11.591  1.4358  1.7868  1.4026
  263MPD2    H1 3984   0.565   1.960  11.690 -0.8312 -0.1714 -0.5730
  263MPD2    H2 3985   0.467   1.581  11.857  1.2645  0.8309  1.8243
  263MPD2    H3 3986   0.440   1.828  11.837 -0.4267 -0.0967 -0.6290
  263MPD2     N 3987   0.765   1.872  11.528  0.0531 -0.0974  0.0733
  263MPD2    H5 3988   0.822   1.809  11.472  1.5194 -0.2108  1.6902
  263MPD2    N1 3989   0.665   1.451  11.741 -0.6053 -0.1175  0.3752
  263MPD2    H7 3990   0.595   1.403  11.797 -0.9491  1.0102  0.9211
  264TMC3    C1 3991   0.852   2.046  11.411  0.4811  0.3022  0.5910
  264TMC3    C2 3992   0.928   2.152  11.444 -0.2175 -0.2639 -0.1709
  264TMC3    C3 3993   1.040   2.182  11.370  0.0559 -0.4570  0.2366
  264TMC3    C4 3994   0.894   1.957  11.314 -0.2213 -0.7779  0.4944
  264TMC3    C5 3995   1.010   1.979  11.247  0.3146  0.0165 -0.1186
  264TMC3    C6 3996   1.078   2.094  11.270 -0.2347 -0.7377  1.3419
  264TMC3     C 3997   0.755   2.004  11.503  0.2218 -0.3867  0.4368
  264TMC3     O 3998   0.705   2.087  11.578 -0.7894 -0.0891  0.0040
  264TMC3     H 3999   0.892   2.212  11.527  1.4067 -0.4099  0.6424
  264TMC3    H1 4000   0.829   1.884  11.267 -0.2330  0.0572 -0.7854
  264TMC3    H2 4001   1.162   2.114  11.204  0.2863 -0.7448  2.0082
  264TMC3    C7 4002   1.031   1.915  11.115 -0.3582 -0.5967  0.4617
  264TMC3    C8 4003   1.076   2.320  11.341 -0.3667  0.2790  0.1999
  264TMC3    O1 4004   1.143   1.875  11.083  0.3731 -0.4955  0.1935
  264TMC3    O2 4005   1.156   2.338  11.257  0.3988  0.3795  0.4296
  265MPD2     C 4006   2.648   2.120  15.529  0.2716  0.8622 -0.1148
  265MPD2    C1 4007   2.742   2.202  15.473 -0.5972  0.1459  0.1132
  265MPD2    C2 4008   2.821   2.150  15.375  0.1882  0.6421 -0.5324
  265MPD2    C3 4009   2.785   2.034  15.301 -0.2638 -0.0899  0.1585
  265MPD2    C4 4010   2.672   1.969  15.347  0.3141 -0.6446 -0.6593
  265MPD2    C5 4011   2.611   2.007  15.461  0.6267 -0.3046  0.3791
  265MPD2     H 4012   2.908   2.207  15.342  0.6736  0.2469  0.0694
  265MPD2    H1 4013   2.627   1.882  15.302  1.8223 -1.6480 -0.2494
  265MPD2    H2 4014   2.581   2.143  15.612  2.7206  3.1671  1.2256
  265MPD2    H3 4015   2.535   1.941  15.501  0.9996 -0.7840  0.2975
  265MPD2     N 4016   2.855   1.983  15.190  0.1224 -0.0151  0.6113
  265MPD2    H5 4017   2.824   1.893  15.157 -0.1404  1.0971 -2.1915
  265MPD2    N1 4018   2.791   2.323  15.534 -0.5864 -0.1279 -0.3297
  265MPD2    H7 4019   2.861   2.384  15.494  0.5305  2.5214  5.5758
  266TMC3    C1 4020   2.823   2.472  15.714 -0.5713 -0.0476 -0.4942
  266TMC3    C2 4021   2.857   2.465  15.846 -0.6743 -0.2533 -0.2323
  266TMC3    C3 4022   2.866   2.581  15.924  0.0117  0.2734 -0.2147
  266TMC3    C4 4023   2.812   2.589  15.654  0.5337 -0.0987 -0.4123
  266TMC3    C5 4024   2.832   2.705  15.721 -0.2781  0.0495  0.5215
  266TMC3    C6 4025   2.858   2.708  15.864 -0.5003  0.4167 -0.8382
  266TMC3     C 4026   2.756   2.355  15.665  0.2489 -0.0343  0.3615
  266TMC3     O 4027   2.701   2.297  15.753 -0.1489  0.2406  0.3632
  266TMC3     H 4028   2.868   2.367  15.891  0.3075  0.4015  0.9241
  266TMC3    H1 4029   2.765   2.598  15.556  1.8968  3.0370 -0.7839
  266TMC3    H2 4030   2.869   2.797  15.925 -1.9749 -0.2945  0.4774
  266TMC3    C7 4031   2.803   2.827  15.650 -0.2684 -0.9808 -0.2009
  266TMC3    C8 4032   2.947   2.568  16.046  0.8014  0.1483  0.1212
  266TMC3    O1 4033   2.703   2.838  15.586  0.7687 -0.3474 -0.5623
  266TMC3    O2 4034   2.993   2.453  16.060  0.8889 -0.0557 -0.2305
  267MPD2     C 4035   0.282   4.094   0.869  0.4585 -0.5660 -0.1912
  267MPD2    C1 4036   0.316   3.963   0.843  0.5397 -0.1796 -0.7275
  267MPD2    C2 4037   0.249   3.857   0.914  0.0599  0.8519 -0.3881
  267MPD2    C3 4038   0.144   3.879   0.997 -0.4418 -0.2465 -0.2451
  267MPD2    C4 4039   0.104   4.012   1.020 -0.4642  0.3790  0.4095
  267MPD2    C5 4040   0.179   4.112   0.959 -0.4459 -0.4465  0.1079
  267MPD2     H 4041   0.279   3.756   0.890  2.3133  0.9272  2.0504
  267MPD2    H1 4042   0.025   4.037   1.089  0.9659 -1.0387  2.5637
  267MPD2    H2 4043   0.337   4.179   0.830  0.2244  0.2337  1.2439
  267MPD2    H3 4044   0.154   4.215   0.982  2.7158  0.2664  0.2976
  267MPD2     N 4045   0.065   3.784   1.067  0.5773  0.4232  0.2429
  267MPD2    H5 4046   4.698   3.820   1.098  0.3716 -0.7716  1.0449
  267MPD2    N1 4047   0.395   3.928   0.734  0.4527  0.0798 -0.3061
  267MPD2    H7 4048   0.409   3.829   0.716  3.8933  1.0928 -3.1331
  268TMC3    C1 4049   0.574   3.950   0.577 -0.3332 -0.1597  0.0321
  268TMC3    C2 4050   0.634   4.024   0.476  0.0038  0.0366  0.1592
  268TMC3    C3 4051   0.717   3.962   0.388  0.5395 -0.6289 -0.3478
  268TMC3    C4 4052   0.603   3.816   0.574  0.2714 -0.9973 -0.2562
  268TMC3    C5 4053   0.693   3.763   0.483 -0.2781 -0.3219 -0.3090
  268TMC3    C6 4054   0.745   3.835   0.381  0.0437 -0.2939 -0.2889
  268TMC3     C 4055   0.475   4.011   0.663 -0.5841 -0.0702 -0.0034
  268TMC3     O 4056   0.460   4.130   0.637  0.0894 -0.1095 -0.3020
  268TMC3     H 4057   0.607   4.128   0.461  1.9050  0.6144  0.6929
  268TMC3    H1 4058   0.562   3.759   0.657 -1.9391  1.0913  0.1165
  268TMC3    H2 4059   0.805   3.787   0.305 -0.0325  0.8861 -1.1018
  268TMC3    C7 4060   0.745   3.634   0.533  0.4639  0.3496  0.1360
  268TMC3    C8 4061   0.773   4.054   0.294  0.3405 -0.5456 -0.4901
  268TMC3    O1 4062   0.667   3.576   0.612 -0.3516 -0.1134  0.0922
  268TMC3    O2 4063   0.813   4.158   0.346  0.2235  0.4171  0.1837
  269MPD2     C 4064   0.763   2.537  15.721 -0.2976 -1.0552 -0.1741
  269MPD2    C1 4065   0.668   2.554  15.809 -0.7192 -0.5804  0.2196
  269MPD2    C2 4066   0.596   2.672  15.816 -0.0887  0.0103 -0.4424
  269MPD2    C3 4067   0.626   2.773  15.727  1.0047 -0.2620 -0.6666
  269MPD2    C4 4068   0.723   2.745  15.627 -0.4636  0.4592 -0.9573
  269MPD2    C5 4069   0.792   2.626  15.622  0.3857  0.5007  0.3294
  269MPD2     H 4070   0.530   2.681  15.901  0.8923  1.8828  0.1291
  269MPD2    H1 4071   0.748   2.815  15.548  2.5166  1.5586  0.9704
  269MPD2    H2 4072   0.832   2.454  15.719 -0.1687 -0.9486 -0.2050
  269MPD2    H3 4073   0.868   2.609  15.546 -2.5018  2.7054 -3.0159
  269MPD2     N 4074   0.567   2.901  15.746  0.4096 -0.3920 -0.2262
  269MPD2    H5 4075   0.494   2.907  15.817  1.2405 -4.1386  0.9730
  269MPD2    N1 4076   0.648   2.441  15.894 -1.3217 -1.0601  0.1854
  269MPD2    H7 4077   0.709   2.362  15.881  0.6480  0.9812 -2.8497
  270TMC3    C1 4078   0.538   2.307  16.058 -0.4651  0.3465 -0.2683
  270TMC3    C2 4079   0.411   2.246  16.069 -0.0624 -0.7228  0.0157
  270TMC3    C3 4080   0.397   2.113  16.112  0.1586  0.3830 -0.2967
  270TMC3    C4 4081   0.651   2.233  16.076 -0.6850 -0.2821  0.1115
  270TMC3    C5 4082   0.629   2.109  16.127 -0.4997 -0.6754 -0.3917
  270TMC3    C6 4083   0.512   2.050  16.146  0.2670  0.6263  0.1523
  270TMC3     C 4084   0.548   2.435  15.989  0.4799  0.8881 -0.4799
  270TMC3     O 4085   0.446   2.501  15.992 -0.2976 -0.1614 -0.0308
  270TMC3     H 4086   0.323   2.309  16.073 -0.6325 -1.4853 -0.5888
  270TMC3    H1 4087   0.753   2.263  16.055 -0.8972 -0.4226 -1.1187
  270TMC3    H2 4088   0.504   1.948  16.180 -1.3243  0.7235  0.0724
  270TMC3    C7 4089   0.727   2.016  16.084 -0.9977 -1.1138 -0.0161
  270TMC3    C8 4090   0.315   2.040  16.031  1.0921  0.7630 -0.3148
  270TMC3    O1 4091   0.846   2.041  16.082  0.1779 -0.4148 -0.2146
  270TMC3    O2 4092   0.370   1.943  15.982 -0.2393 -0.1554  0.4112
  271MPD2     C 4093   4.086   2.318  14.590  0.4670  0.7645 -0.1484
  271MPD2    C1 4094   4.007   2.287  14.694 -0.5856 -0.2785 -0.1677
  271MPD2    C2 4095   3.879   2.324  14.696  0.6324 -0.1379  0.7867
  271MPD2    C3 4096   3.824   2.378  14.577  0.7962  0.4529 -0.9071
  271MPD2    C4 4097   3.909   2.413  14.467  0.0009  0.5792 -0.1663
  271MPD2    C5 4098   4.042   2.378  14.482  0.0367  0.3960 -0.2576
  271MPD2     H 4099   3.820   2.315  14.787  1.1253  0.7003  1.1953
  271MPD2    H1 4100   3.880   2.468  14.378 -1.1285 -1.4268 -1.0290
  271MPD2    H2 4101   4.194   2.307  14.595  0.6757  2.6638 -0.3288
  271MPD2    H3 4102   4.114   2.403  14.405 -0.7938 -0.3122 -1.2719
  271MPD2     N 4103   3.684   2.408  14.568  0.3322 -0.4220 -0.2275
  271MPD2    H5 4104   3.655   2.463  14.487  0.1391 -1.1669 -0.6646
  271MPD2    N1 4105   4.062   2.220  14.804  1.1300  0.2328 -1.2284
  271MPD2    H7 4106   3.988   2.200  14.872  2.0313  0.5241 -0.1656
  272TMC3    C1 4107   4.195   2.076  14.930  0.2486  0.2550  0.1398
  272TMC3    C2 4108   4.270   1.958  14.919  0.4431 -0.1841  0.1239
  272TMC3    C3 4109   4.341   1.916  15.025 -0.1871 -0.1661 -0.6872
  272TMC3    C4 4110   4.178   2.141  15.054 -0.1431  0.0782  0.1544
  272TMC3    C5 4111   4.252   2.090  15.157  0.5982 -0.1572 -0.0520
  272TMC3    C6 4112   4.332   1.975  15.152  0.3898 -0.2310 -0.3709
  272TMC3     C 4113   4.178   2.149  14.805  0.5689  0.1368 -0.5851
  272TMC3     O 4114   4.272   2.142  14.726 -0.4738 -0.1995 -0.1426
  272TMC3     H 4115   4.292   1.910  14.824 -1.1240 -3.1073  1.2573
  272TMC3    H1 4116   4.130   2.239  15.060  0.2827  0.3777 -1.1659
  272TMC3    H2 4117   4.369   1.932  15.245  1.2098 -0.4657 -0.8123
  272TMC3    C7 4118   4.245   2.163  15.285  0.2475  0.3005 -0.3860
  272TMC3    C8 4119   4.373   1.777  15.020 -0.2593 -0.4434  0.0098
  272TMC3    O1 4120   4.145   2.227  15.317  0.0926 -0.1741  0.3497
  272TMC3    O2 4121   4.304   1.719  14.932 -0.2180 -0.1401 -0.0137
  273MPD2     C 4122   0.626   4.688  11.506  0.1608  0.0876  0.4795
  273MPD2    C1 4123   0.753   4.711  11.556 -0.0133  0.6850  0.5224
  273MPD2    C2 4124   0.848   0.030  11.469  0.0272  0.9005 -0.4371
  273MPD2    C3 4125   0.827   0.062  11.340  0.1104 -0.3012  0.3027
  273MPD2    C4 4126   0.701   0.030  11.288 -0.0293 -0.6785 -0.3366
  273MPD2    C5 4127   0.603   4.706  11.375  0.3759 -0.1750 -0.4565
  273MPD2     H 4128   0.945   0.056  11.510  0.9381 -2.8845 -0.1977
  273MPD2    H1 4129   0.671   0.064  11.190 -0.0896  2.2192  0.6974
  273MPD2    H2 4130   0.542   4.656  11.567  0.3438  0.7349  1.0670
  273MPD2    H3 4131   0.501   4.703  11.338  0.5544  0.7732 -1.0256
  273MPD2     N 4132   0.922   0.119  11.257 -0.5383 -0.0960  0.5776
  273MPD2    H5 4133   0.878   0.150  11.170  0.0160 -3.1878 -0.8050
  273MPD2    N1 4134   0.772   4.690  11.694 -0.3359  0.1890  0.2024
  273MPD2    H7 4135   0.689   4.687  11.752 -0.2105  1.2572  0.4471
  274TMC3    C1 4136   1.109   0.261  11.202  0.5055  0.2843 -0.0520
  274TMC3    C2 4137   1.069   0.267  11.067  0.4622 -0.6442  0.5203
  274TMC3    C3 4138   1.114   0.372  11.001 -0.0402 -0.3425  0.1327
  274TMC3    C4 4139   1.186   0.358  11.265  0.0948 -0.5775  0.4057
  274TMC3    C5 4140   1.217   0.470  11.194  0.0937 -0.2531 -0.0706
  274TMC3    C6 4141   1.196   0.474  11.060 -0.7824 -0.3071 -0.0206
  274TMC3     C 4142   1.050   0.154  11.282 -0.3725  0.0811 -0.0313
  274TMC3     O 4143   1.110   0.146  11.391  0.3024 -0.2692 -0.0794
  274TMC3     H 4144   0.999   0.195  11.028 -0.8284  1.9602 -2.0310
  274TMC3    H1 4145   1.210   0.352  11.370  0.9780  3.6590  0.4415
  274TMC3    H2 4146   1.192   0.570  11.010  0.5890 -0.8035 -1.0982
  274TMC3    C7 4147   1.208   0.589  11.278  0.2191 -0.0321  0.5616
  274TMC3    C8 4148   1.040   0.416  10.881 -0.7093  0.0325 -0.4059
  274TMC3    O1 4149   1.143   0.574  11.380  0.2210  0.5835  0.2037
  274TMC3    O2 4150   0.931   0.366  10.849  0.3759 -0.0096  0.6243
  275MPD2     C 4151   1.046   2.907  14.477  0.2053 -0.3694 -0.4899
  275MPD2    C1 4152   1.072   2.811  14.574  0.0806 -0.3846 -0.1818
  275MPD2    C2 4153   0.983   2.706  14.601 -0.4174 -0.0927 -0.1270
  275MPD2    C3 4154   0.854   2.718  14.549 -0.4334 -0.9408  0.5968
  275MPD2    C4 4155   0.825   2.811  14.446  0.8491 -0.0158 -0.0517
  275MPD2    C5 4156   0.924   2.902  14.411  0.4610 -0.3645  0.1759
  275MPD2     H 4157   1.009   2.635  14.678  1.9245 -1.1005 -1.8395
  275MPD2    H1 4158   0.724   2.831  14.411  0.9612  2.5686  1.0667
  275MPD2    H2 4159   1.118   2.981  14.444  0.1633  0.3315  0.9833
  275MPD2    H3 4160   0.898   2.981  14.342  1.3634  0.7268  1.0895
  275MPD2     N 4161   0.747   2.636  14.586 -0.3134  0.0096  0.5900
  275MPD2    H5 4162   0.653   2.637  14.549  0.0370 -1.7130 -0.3244
  275MPD2    N1 4163   1.185   2.817  14.654 -0.3986 -0.1231 -0.3563
  275MPD2    H7 4164   1.198   2.734  14.710  0.5657 -1.2087 -2.2129
  276TMC3    C1 4165   1.383   2.903  14.752 -0.3325 -0.0808 -0.1041
  276TMC3    C2 4166   1.434   2.776  14.776  0.0200  0.2538  0.8868
  276TMC3    C3 4167   1.540   2.764  14.861 -0.0598 -0.2497 -0.1966
  276TMC3    C4 4168   1.444   3.015  14.807  0.2661 -0.0017 -0.1537
  276TMC3    C5 4169   1.555   2.997  14.888 -0.3155 -0.0933  0.7269
  276TMC3    C6 4170   1.593   2.874  14.923 -0.6329 -1.0388 -0.7041
  276TMC3     C 4171   1.274   2.924  14.660 -0.1618 -0.2031 -0.1790
  276TMC3     O 4172   1.264   3.038  14.616  0.7332  0.0704  0.1095
  276TMC3     H 4173   1.390   2.691  14.723  0.8819  0.8100 -0.7292
  276TMC3    H1 4174   1.397   3.112  14.793  1.7718  0.4416 -2.1935
  276TMC3    H2 4175   1.675   2.865  14.993 -1.8684  1.1173  1.0260
  276TMC3    C7 4176   1.624   3.102  14.951  0.0243 -0.2445 -0.4057
  276TMC3    C8 4177   1.612   2.638  14.880  0.1776 -0.9637  0.0960
  276TMC3    O1 4178   1.708   3.078  15.040  0.4283 -0.3291 -0.3367
  276TMC3    O2 4179   1.715   2.632  14.946  0.8730 -0.3962  0.5658
  277MPD2     C 4180   3.090   2.825  13.828  0.3023  0.2126  0.4531
  277MPD2    C1 4181   3.011   2.785  13.719 -0.2897  0.1386 -0.3231
  277MPD2    C2 4182   2.928   2.671  13.726  0.0884  0.7614 -0.1209
  277MPD2    C3 4183   2.930   2.601  13.847 -0.5263  0.0809 -0.1724
  277MPD2    C4 4184   3.001   2.646  13.956  0.4285  0.9601 -0.8579
  277MPD2    C5 4185   3.085   2.754  13.945 -0.0329 -0.3014  0.3106
  277MPD2     H 4186   2.859   2.639  13.649  1.3264 -1.6413 -0.2268
  277MPD2    H1 4187   2.989   2.596  14.052  1.8423 -4.1134 -3.3333
  277MPD2    H2 4188   3.158   2.908  13.815  1.7398 -1.1956 -1.1053
  277MPD2    H3 4189   3.132   2.783  14.038  0.1484  0.8805 -0.1460
  277MPD2     N 4190   2.845   2.486  13.840  0.2067  0.4218 -1.5503
  277MPD2    H5 4191   2.783   2.474  13.761 -0.7421 -0.2227 -0.7083
  277MPD2    N1 4192   3.033   2.864  13.599  0.3193  0.3305  0.0516
  277MPD2    H7 4193   3.105   2.936  13.599  1.7690 -1.1263  1.9317
  278TMC3    C1 4194   2.700   2.313  13.915  0.3316  0.6584  0.2237
  278TMC3    C2 4195   2.692   2.210  14.000 -0.4288 -0.3126  0.0524
  278TMC3    C3 4196   2.582   2.128  13.984 -0.0649  0.0473  0.8127
  278TMC3    C4 4197   2.608   2.348  13.826 -0.0038  0.4067 -0.4782
  278TMC3    C5 4198   2.495   2.260  13.811  0.0999  0.0574  0.0734
  278TMC3    C6 4199   2.484   2.144  13.887  0.8216 -0.5471 -0.8410
  278TMC3     C 4200   2.814   2.402  13.946 -0.0756  0.4733 -0.2435
  278TMC3     O 4201   2.850   2.406  14.066  0.5555  0.2743  0.7417
  278TMC3     H 4202   2.774   2.192  14.068 -1.4364 -2.4933  0.6893
  278TMC3    H1 4203   2.596   2.442  13.772 -1.0312 -0.2491 -1.3869
  278TMC3    H2 4204   2.398   2.077  13.883 -1.4167  2.1261  2.9339
  278TMC3    C7 4205   2.379   2.326  13.756 -0.8626 -0.4270  0.1008
  278TMC3    C8 4206   2.618   1.988  14.029  0.2623  0.5756  0.0135
  278TMC3    O1 4207   2.396   2.417  13.678  0.4381 -0.1738 -0.4297
  278TMC3    O2 4208   2.717   1.972  14.105  0.5945  0.3837  0.2103
  279MPD2     C 4209   2.419   1.944   0.222 -0.1245 -0.0188  0.4464
  279MPD2    C1 4210   2.349   1.894   0.112 -0.0789  0.0619  0.6709
  279MPD2    C2 4211   2.352   1.966  17.689 -0.6337  0.3046  0.2699
  279MPD2    C3 4212   2.424   2.085  17.679 -0.9011  0.2731 -0.4398
  279MPD2    C4 4213   2.496   2.132   0.094 -0.0004 -0.5951  0.9460
  279MPD2    C5 4214   2.484   2.066   0.216  0.7587 -0.0131 -0.0119
  279MPD2     H 4215   2.312   1.932  17.594  1.8462  0.2609 -0.7460
  279MPD2    H1 4216   2.559   2.220   0.092  0.5071 -0.9823 -0.5218
  279MPD2    H2 4217   2.404   1.896   0.318  1.0475  0.6862  0.9845
  279MPD2    H3 4218   2.524   2.104   0.309 -1.5556 -0.6426  1.2480
  279MPD2     N 4219   2.423   2.171  17.564 -0.5702 -0.3387  0.0336
  279MPD2    H5 4220   2.474   2.257  17.580 -2.8961  0.9409  0.6862
  279MPD2    N1 4221   2.282   1.772   0.127  0.1883 -0.1575  0.5880
  279MPD2    H7 4222   2.315   1.700   0.190  2.1339  2.0884  2.1300
  280TMC3    C1 4223   2.089   1.847   0.002  0.5032 -1.2104 -0.4483
  280TMC3    C2 4224   2.041   1.837  17.573  0.3484  0.6890 -0.0676
  280TMC3    C3 4225   1.988   1.954  17.522 -0.2167 -0.1565  0.4300
  280TMC3    C4 4226   2.058   1.948   0.091 -0.0307  0.5703 -0.3258
  280TMC3    C5 4227   1.982   2.055   0.035  0.6810 -1.2626 -0.4164
  280TMC3    C6 4228   1.940   2.054  17.598  0.2982  0.7592  0.8347
  280TMC3     C 4229   2.171   1.738   0.046 -0.6044 -0.5207 -0.3076
  280TMC3     O 4230   2.125   1.625   0.021 -0.2632  0.2660  0.9971
  280TMC3     H 4231   2.077   1.750  17.519 -1.2373 -0.1689  0.2403
  280TMC3    H1 4232   2.091   1.945   0.194  0.8395 -1.0996 -0.6610
  280TMC3    H2 4233   1.887   2.138  17.555 -1.0452 -0.9269 -0.7732
  280TMC3    C7 4234   1.961   2.171   0.111 -0.9348 -0.4704  0.0087
  280TMC3    C8 4235   1.973   1.974  17.377 -0.1047 -0.4603  0.5812
  280TMC3    O1 4236   2.060   2.219   0.167  0.1617  0.2168  0.6627
  280TMC3    O2 4237   1.966   2.092  17.339  0.0107 -0.4187  0.2403
  281TMC3    C1 4238   0.897   2.638  13.600 -1.1403 -0.3331 -0.0750
  281TMC3    C2 4239   1.019   2.629  13.538  0.3147 -0.9304 -0.0135
  281TMC3    C3 4240   1.042   2.523  13.455  0.1473  0.7239  0.3391
  281TMC3    C4 4241   0.804   2.533  13.594  0.3748  0.1012  0.1343
  281TMC3    C5 4242   0.834   2.426  13.515  0.2313  0.2177 -1.0381
  281TMC3    C6 4243   0.955   2.425  13.455 -0.0313  0.1996  0.1019
  281TMC3     C 4244   0.857   2.774  13.633  0.7291 -0.6349 -0.2750
  281TMC3     O 4245   0.930   2.867  13.589  0.6517  0.4236 -0.0356
  281TMC3     H 4246   1.091   2.710  13.549 -0.0286 -0.8298  1.5262
  281TMC3    H1 4247   0.715   2.541  13.656 -0.1574  1.2896 -0.7683
  281TMC3    H2 4248   0.985   2.340  13.395 -2.2830  0.3864 -1.2612
  281TMC3    C7 4249   0.754   2.303  13.514 -0.5106 -0.1195  0.7141
  281TMC3    C8 4250   1.145   2.521  13.351 -0.0393 -1.0332 -0.1641
  281TMC3    O1 4251   0.770   2.224  13.424  0.4509  0.0500  0.5912
  281TMC3    O2 4252   1.192   2.410  13.329 -0.1165  0.0268  0.4049
  282MPD2     C 4253   2.943   4.077  15.412  0.0166 -0.1964 -0.3862
  282MPD2    C1 4254   2.809   4.101  15.425  1.2538 -0.0746  0.7900
  282MPD2    C2 4255   2.722   4.065  15.327 -0.3033 -0.5654  0.3769
  282MPD2    C3 4256   2.776   4.021  15.208  0.1748  0.1419 -0.3548
  282MPD2    C4 4257   2.910   3.991  15.190 -0.3227 -0.3635  0.2694
  282MPD2    C5 4258   2.991   4.024  15.292  0.0043 -0.3240 -0.3256
  282MPD2     H 4259   2.617   4.088  15.341 -0.2910 -0.2465 -0.0384
  282MPD2    H1 4260   2.950   3.950  15.098 -0.8096 -2.2717  0.9156
  282MPD2    H2 4261   3.004   4.111  15.495 -0.3177 -0.3185 -0.0904
  282MPD2    H3 4262   3.099   4.012  15.284  0.3818  2.7053  0.3271
  282MPD2     N 4263   2.686   3.998  15.103  0.4276  0.1709 -0.6054
  282MPD2    H5 4264   2.591   4.032  15.112  0.1909 -0.7885  0.5679
  282MPD2    N1 4265   2.751   4.158  15.549  0.5716 -0.0101 -0.4045
  282MPD2    H7 4266   2.657   4.195  15.538  0.4465 -0.1077  0.3055
  283TMC3    C1 4267   2.718   4.193  15.776 -0.3162 -0.6600 -0.2298
  283TMC3    C2 4268   2.648   4.307  15.743  0.2474 -0.7319 -0.4229
  283TMC3    C3 4269   2.541   4.337  15.822  0.2705  0.1183  0.0547
  283TMC3    C4 4270   2.684   4.106  15.868  0.1316 -0.0974  0.5594
  283TMC3    C5 4271   2.576   4.130  15.942 -0.7695 -0.6683 -0.4681
  283TMC3    C6 4272   2.505   4.248  15.920  0.0200 -0.5573 -0.3178
  283TMC3     C 4273   2.799   4.139  15.673 -0.0368  0.8062 -0.2746
  283TMC3     O 4274   2.891   4.071  15.706 -0.4943 -0.0463  0.6326
  283TMC3     H 4275   2.686   4.379  15.671 -1.1645 -0.4548 -0.8920
  283TMC3    H1 4276   2.719   4.004  15.857  2.9012  0.8780  0.2828
  283TMC3    H2 4277   2.414   4.269  15.976  1.1892 -2.9315  2.4646
  283TMC3    C7 4278   2.492   4.011  15.963 -0.4340 -0.1938 -0.5802
  283TMC3    C8 4279   2.503   4.477  15.838 -0.0603 -0.5780  0.9046
  283TMC3    O1 4280   2.374   4.022  15.926 -0.0780  0.0684  0.0099
  283TMC3    O2 4281   2.438   4.499  15.937  0.0661  0.4972  0.2610
  284MPD2     C 4282   1.030   3.505  12.446 -0.2990  0.3104  0.0132
  284MPD2    C1 4283   1.110   3.402  12.413  0.5718  0.2032 -0.1147
  284MPD2    C2 4284   1.071   3.270  12.444 -0.3194  0.4327 -0.4446
  284MPD2    C3 4285   0.944   3.243  12.494  0.0909  0.4718  0.3239
  284MPD2    C4 4286   0.859   3.348  12.518  0.4296 -0.0238 -0.1238
  284MPD2    C5 4287   0.900   3.479  12.492 -0.1891 -0.3870 -0.4016
  284MPD2     H 4288   1.134   3.189  12.410 -0.8570 -0.2862  0.2689
  284MPD2    H1 4289   0.758   3.323  12.549  0.8786 -1.4800  0.1611
  284MPD2    H2 4290   1.052   3.609  12.429 -0.4477  0.4780  0.8486
  284MPD2    H3 4291   0.826   3.558  12.503  0.3896 -0.0587  1.1689
  284MPD2     N 4292   0.896   3.116  12.512  0.9434  0.1019  0.9982
  284MPD2    H5 4293   0.801   3.112  12.548  0.5506 -0.6956 -0.1338
  284MPD2    N1 4294   1.238   3.437  12.346  0.2102 -0.4749 -0.3539
  284MPD2    H7 4295   1.275   3.530  12.358 -1.0847 -0.2424  1.8855
  285TMC3    C1 4296   1.379   3.434  12.166 -0.1331 -0.0141  0.6620
  285TMC3    C2 4297   1.470   3.361  12.091  0.1281 -0.5088  0.6370
  285TMC3    C3 4298   1.552   3.433  12.012 -0.0738  0.3182 -0.1070
  285TMC3    C4 4299   1.367   3.571  12.153 -0.1472  0.0267 -0.4146
  285TMC3    C5 4300   1.455   3.640  12.072  0.3028 -0.5578  0.3839
  285TMC3    C6 4301   1.545   3.572  12.003 -0.2752 -0.1863  0.1073
  285TMC3     C 4302   1.297   3.354  12.255 -0.4693  0.0899 -0.0588
  285TMC3     O 4303   1.297   3.235  12.241  0.4251 -0.7874  0.7301
  285TMC3     H 4304   1.464   3.253  12.097  1.7635 -0.8326 -4.1413
  285TMC3    H1 4305   1.298   3.634  12.208 -1.7220 -1.7476 -0.3682
  285TMC3    H2 4306   1.604   3.620  11.926 -1.5979  1.8175  0.3284
  285TMC3    C7 4307   1.404   3.775  12.031  0.7816  0.0632 -1.0157
  285TMC3    C8 4308   1.608   3.364  11.902  0.2570 -0.1767 -1.0889
  285TMC3    O1 4309   1.486   3.853  11.988 -0.1256  0.2056 -0.6764
  285TMC3    O2 4310   1.550   3.258  11.876 -0.0370  0.5258 -0.2982
  286MPD2     C 4311   1.070   1.966   1.506 -0.1490 -0.2325  0.3222
  286MPD2    C1 4312   1.059   1.967   1.366 -0.2608 -0.1376 -0.3130
  286MPD2    C2 4313   1.150   1.899   1.287  0.2771  0.4027  0.4620
  286MPD2    C3 4314   1.256   1.824   1.348  0.2602  0.3202 -0.4220
  286MPD2    C4 4315   1.263   1.823   1.482  0.2448 -0.9375  0.4845
  286MPD2    C5 4316   1.178   1.895   1.557 -0.2526  0.3889 -0.3153
  286MPD2     H 4317   1.140   1.909   1.179  3.9790  2.0355  0.2534
  286MPD2    H1 4318   1.348   1.777   1.531  0.6162  0.7396  1.4501
  286MPD2    H2 4319   0.994   2.007   1.571  0.2289  0.0799  0.5689
  286MPD2    H3 4320   1.193   1.907   1.663  0.1697  0.8479 -0.4272
  286MPD2     N 4321   1.361   1.762   1.281 -0.4047  0.4540 -0.0607
  286MPD2    H5 4322   1.436   1.718   1.334 -1.2535  0.7010  1.3318
  286MPD2    N1 4323   0.953   2.034   1.306 -0.0815 -0.4320  0.7181
  286MPD2    H7 4324   0.956   2.032   1.205  0.0609  1.4225  0.6779
  287TMC3    C1 4325   1.498   1.676   1.123 -0.0170  0.0242 -0.0463
  287TMC3    C2 4326   1.488   1.598   1.008  0.1238 -0.5277 -0.7355
  287TMC3    C3 4327   1.599   1.528   0.969  0.4583 -0.3712  0.2322
  287TMC3    C4 4328   1.609   1.681   1.203 -0.4173  0.1997  0.1712
  287TMC3    C5 4329   1.709   1.599   1.164  0.0147 -0.0650 -0.3545
  287TMC3    C6 4330   1.702   1.518   1.055  0.2090 -0.0627 -0.5838
  287TMC3     C 4331   1.384   1.763   1.146  0.3438 -0.3055  0.2111
  287TMC3     O 4332   1.324   1.810   1.047 -0.6145  0.1679  0.7067
  287TMC3     H 4333   1.402   1.607   0.943 -1.3478 -1.9025  1.0567
  287TMC3    H1 4334   1.607   1.747   1.289 -0.9695 -0.1573  0.4350
  287TMC3    H2 4335   1.789   1.455   1.037  0.5217  0.4518 -0.8547
  287TMC3    C7 4336   1.816   1.585   1.261 -0.5182 -0.2701 -0.0012
  287TMC3    C8 4337   1.601   1.469   0.833 -0.8027  0.4263 -0.6220
  287TMC3    O1 4338   1.803   1.652   1.361  0.1644 -0.0050 -0.1851
  287TMC3    O2 4339   1.494   1.466   0.774 -0.5353  0.0566  0.3519
  288TMC3    C1 4340   3.220   1.792  14.288  0.4519 -0.4208 -0.2330
  288TMC3    C2 4341   3.118   1.811  14.382 -0.4460  0.1481 -0.1651
  288TMC3    C3 4342   3.037   1.913  14.357 -0.1670 -0.6450  0.0761
  288TMC3    C4 4343   3.230   1.868  14.174 -0.1431  0.0840 -0.0288
  288TMC3    C5 4344   3.123   1.951  14.147  0.1628  0.2282  0.2093
  288TMC3    C6 4345   3.028   1.977  14.237 -0.8687 -0.1973  0.8552
  288TMC3     C 4346   3.331   1.706  14.327  0.6348 -0.2204  0.2167
  288TMC3     O 4347   3.444   1.729  14.290  0.3182 -0.0866 -0.0472
  288TMC3     H 4348   3.114   1.766  14.480  1.2442  0.4352  0.0426
  288TMC3    H1 4349   3.318   1.853  14.114  0.1412 -4.2676  1.4888
  288TMC3    H2 4350   2.949   2.050  14.220  0.3302  1.4544  2.3258
  288TMC3    C7 4351   3.132   2.058  14.048  0.1797 -0.7172 -0.0733
  288TMC3    C8 4352   2.925   1.956  14.440  0.4703 -0.0272 -0.1132
  288TMC3    O1 4353   3.030   2.098  13.997  0.0884 -0.8373  0.1806
  288TMC3    O2 4354   2.907   2.070  14.468 -0.1626 -0.6685  0.0493
  289MPD2     C 4355   3.182   1.040  14.218 -0.5810 -0.3550 -0.2833
  289MPD2    C1 4356   3.159   1.177  14.210  0.0432 -0.0685  0.5818
  289MPD2    C2 4357   3.028   1.229  14.236  0.5298  0.0658  0.0026
  289MPD2    C3 4358   2.920   1.143  14.252  0.9445  0.1408 -0.1772
  289MPD2    C4 4359   2.944   1.006  14.261  0.1095  0.4557  0.4844
  289MPD2    C5 4360   3.076   0.954  14.247  0.3635  0.4577  0.5025
  289MPD2     H 4361   3.001   1.333  14.222 -0.5810 -0.3458 -0.9425
  289MPD2    H1 4362   2.864   0.938  14.291  1.0235 -1.0890 -0.5539
  289MPD2    H2 4363   3.278   0.997  14.191 -0.3003 -0.8138  1.4491
  289MPD2    H3 4364   3.092   0.847  14.247  2.3746  0.7620  1.4870
  289MPD2     N 4365   2.787   1.188  14.288 -0.2861 -0.0599 -0.9909
  289MPD2    H5 4366   2.723   1.109  14.296 -0.3808  0.0991 -0.2056
  289MPD2    N1 4367   3.255   1.259  14.154  0.0479 -1.0496  0.0755
  289MPD2    H7 4368   3.348   1.217  14.152  0.9956  1.0958 -0.2565
  290TMC3    C1 4369   2.602   1.329  14.341  0.8674 -0.5265  0.6924
  290TMC3    C2 4370   2.566   1.441  14.412 -0.0319  0.0497  0.2343
  290TMC3    C3 4371   2.436   1.447  14.438  0.2436  0.0353 -0.1070
  290TMC3    C4 4372   2.515   1.230  14.305 -0.3895  0.1969 -0.1138
  290TMC3    C5 4373   2.385   1.243  14.351 -0.0238  0.0614  0.1608
  290TMC3    C6 4374   2.344   1.348  14.423 -0.1692 -0.1541  0.1580
  290TMC3     C 4375   2.746   1.322  14.306 -0.2598  0.3502  0.0818
  290TMC3     O 4376   2.809   1.425  14.274 -0.0174  0.3261 -0.5081
  290TMC3     H 4377   2.635   1.515  14.450  1.0842 -0.0227 -1.5934
  290TMC3    H1 4378   2.540   1.147  14.239 -0.1175  0.6373 -0.5616
  290TMC3    H2 4379   2.239   1.354  14.448 -0.4405  1.3979 -1.3371
  290TMC3    C7 4380   2.285   1.153  14.313 -0.3518  0.2906  0.5697
  290TMC3    C8 4381   2.397   1.567  14.509 -0.0425  0.1262 -0.6477
  290TMC3    O1 4382   2.165   1.189  14.312 -0.4104 -0.8227  0.6528
  290TMC3    O2 4383   2.300   1.551  14.584  0.0484 -0.1028  0.1402
  291MPD2     C 4384   1.648   0.517   0.537 -0.4982  0.5174 -0.9559
  291MPD2    C1 4385   1.631   0.440   0.425  0.4588  0.4010 -0.1669
  291MPD2    C2 4386   1.740   0.416   0.345 -0.3008 -0.2221  0.1977
  291MPD2    C3 4387   1.870   0.463   0.374  0.0142  0.2699 -0.0336
  291MPD2    C4 4388   1.882   0.539   0.489  0.4979 -0.1661 -0.0741
  291MPD2    C5 4389   1.769   0.561   0.573 -0.2250 -0.5447  0.4394
  291MPD2     H 4390   1.721   0.378   0.246  1.1081  0.4698 -0.3446
  291MPD2    H1 4391   1.971   0.596   0.513 -0.4417  0.5629  1.6819
  291MPD2    H2 4392   1.572   0.547   0.608  0.9926  1.6842  0.1773
  291MPD2    H3 4393   1.798   0.611   0.665  0.5112 -0.6827  0.2765
  291MPD2     N 4394   1.974   0.440   0.285  0.3047  0.3467  0.0757
  291MPD2    H5 4395   2.063   0.487   0.299 -0.4763  1.5783  0.9365
  291MPD2    N1 4396   1.512   0.380   0.384  0.3205  0.2537  0.7796
  291MPD2    H7 4397   1.513   0.319   0.302 -2.0682  0.6788  0.4386
  292TMC3    C1 4398   1.300   0.294   0.385  0.2749  0.0398  0.1648
  292TMC3    C2 4399   1.172   0.329   0.370  0.9037  0.3309  0.7260
  292TMC3    C3 4400   1.098   0.277   0.269  0.5615  0.2880 -0.1482
  292TMC3    C4 4401   1.352   0.200   0.298 -0.4887  0.2839 -0.6006
  292TMC3    C5 4402   1.283   0.150   0.191 -0.3222 -0.0255 -0.1185
  292TMC3    C6 4403   1.153   0.194   0.169  0.2140  1.3592  0.3936
  292TMC3     C 4404   1.393   0.386   0.451 -0.2853  1.3139  0.4613
  292TMC3     O 4405   1.356   0.423   0.560  0.7132 -0.4804  0.5399
  292TMC3     H 4406   1.139   0.413   0.431  0.8038  1.2875 -0.6396
  292TMC3    H1 4407   1.453   0.162   0.302 -0.1838  1.1314 -0.0489
  292TMC3    H2 4408   1.099   0.147   0.087  0.1133  2.1699 -0.0033
  292TMC3    C7 4409   1.347   0.056   0.100  0.2256  0.3378  0.2773
  292TMC3    C8 4410   0.958   0.250   0.303 -0.6650  0.1562  0.0527
  292TMC3    O1 4411   1.433   4.707   0.148 -0.0177 -0.0456  1.1594
  292TMC3    O2 4412   0.893   0.199   0.216  0.1875  0.0772  0.5715
  293MPD2     C 4413   4.114   2.408  12.524 -0.2154  0.4583 -0.0176
  293MPD2    C1 4414   4.006   2.366  12.599 -0.7380 -0.2730  0.2480
  293MPD2    C2 4415   4.027   2.349  12.737  0.8436 -0.2019  0.8239
  293MPD2    C3 4416   4.146   2.384  12.796 -0.3066  0.2006 -0.7312
  293MPD2    C4 4417   4.252   2.432  12.714 -0.1108  0.0754 -0.1688
  293MPD2    C5 4418   4.235   2.433  12.579  0.0328 -0.3436 -0.5118
  293MPD2     H 4419   3.939   2.313  12.789 -0.8406  1.0234 -1.2332
  293MPD2    H1 4420   4.352   2.468  12.735  0.1769 -0.3353 -0.8179
  293MPD2    H2 4421   4.109   2.411  12.416  1.9230 -2.2232 -0.1645
  293MPD2    H3 4422   4.314   2.458  12.509 -1.5921  2.5735 -1.2996
  293MPD2     N 4423   4.156   2.384  12.936 -0.0129  0.2328 -0.1620
  293MPD2    H5 4424   4.073   2.354  12.987  0.2225 -3.3477 -1.8380
  293MPD2    N1 4425   3.887   2.345  12.525  0.1665  0.2751 -0.0102
  293MPD2    H7 4426   3.892   2.352  12.423  1.2382 -2.0211 -0.1100
  294TMC3    C1 4427   3.672   2.321  12.466  0.4123  0.1276 -0.0100
  294TMC3    C2 4428   3.553   2.252  12.477  0.3383  0.3554  0.1987
  294TMC3    C3 4429   3.488   2.226  12.362 -0.4149  0.0637 -0.3722
  294TMC3    C4 4430   3.715   2.375  12.341 -0.4368 -0.5315 -0.7595
  294TMC3    C5 4431   3.639   2.346  12.232 -0.9602  0.1541 -0.2182
  294TMC3    C6 4432   3.533   2.265  12.239 -0.3254  0.2566 -0.0970
  294TMC3     C 4433   3.764   2.308  12.573 -0.3391  0.4415 -0.4955
  294TMC3     O 4434   3.728   2.260  12.678  0.2428 -0.5082 -0.1679
  294TMC3     H 4435   3.523   2.206  12.571  0.2521  0.8103  0.3932
  294TMC3    H1 4436   3.805   2.433  12.323  0.3231 -1.2841  0.6086
  294TMC3    H2 4437   3.482   2.241  12.146  0.7012 -0.2035 -0.5435
  294TMC3    C7 4438   3.707   2.390  12.111  0.1950 -0.5134 -0.2576
  294TMC3    C8 4439   3.398   2.111  12.377 -0.3820 -0.3275 -0.3249
  294TMC3    O1 4440   3.740   2.507  12.116 -0.1057 -0.3703 -0.0506
  294TMC3    O2 4441   3.334   2.103  12.481  0.1969 -0.2967  0.1144
  295MPD2     C 4442   4.213   0.521   0.028  0.1949  0.0756  0.4217
  295MPD2    C1 4443   4.275   0.601   0.123 -0.0439  0.9432  0.5995
  295MPD2    C2 4444   4.195   0.634   0.235 -1.2017 -0.3720 -0.1933
  295MPD2    C3 4445   4.064   0.597   0.249  0.1732 -0.0695 -0.2151
  295MPD2    C4 4446   4.008   0.525   0.141 -0.3295  0.0163 -0.7018
  295MPD2    C5 4447   4.084   0.482   0.036  0.2149  0.1140  0.3366
  295MPD2     H 4448   4.253   0.678   0.314 -2.1199  0.0980  0.2191
  295MPD2    H1 4449   3.909   0.483   0.157 -0.1716 -0.1369 -0.1142
  295MPD2    H2 4450   4.270   0.492  17.636  0.9058  1.6226  0.3720
  295MPD2    H3 4451   4.037   0.415  17.660  0.3495  1.0583 -0.6409
  295MPD2     N 4452   3.995   0.627   0.367  0.5988  0.3104 -0.0634
  295MPD2    H5 4453   3.896   0.602   0.363  0.3321  1.2857  0.6009
  295MPD2    N1 4454   4.417   0.620   0.133 -0.1570 -0.1680  0.2054
  295MPD2    H7 4455   4.453   0.660   0.219 -0.8096 -1.2229  0.9716
  296TMC3    C1 4456   3.939   0.731   0.575  0.0640  0.2732  0.4271
  296TMC3    C2 4457   3.972   0.732   0.704 -0.1241 -0.9947 -0.4222
  296TMC3    C3 4458   3.870   0.722   0.795 -0.1716  0.3453  0.0330
  296TMC3    C4 4459   3.810   0.727   0.530  0.0560  0.1448 -0.0933
  296TMC3    C5 4460   3.711   0.726   0.623 -0.0604  0.3701 -0.8215
  296TMC3    C6 4461   3.740   0.719   0.759 -0.5280 -0.0719  0.2094
  296TMC3     C 4462   4.045   0.687   0.479  0.2274  0.4073 -0.2983
  296TMC3     O 4463   4.161   0.715   0.509 -0.0029  0.1685 -0.2964
  296TMC3     H 4464   4.077   0.747   0.724 -0.4789 -0.0883  0.7237
  296TMC3    H1 4465   3.771   0.712   0.430  2.4881 -1.0504 -0.8593
  296TMC3    H2 4466   3.661   0.725   0.834 -1.6017 -3.2726 -0.6853
  296TMC3    C7 4467   3.589   0.668   0.575  0.3726 -0.1288 -0.2247
  296TMC3    C8 4468   3.889   0.790   0.922  0.1283  0.0803 -0.0577
  296TMC3    O1 4469   3.549   0.689   0.462  0.0982  0.1157 -0.4379
  296TMC3    O2 4470   3.803   0.867   0.962  0.3760  0.7859  0.0078
  297MPD2     C 4471   1.822   2.760  16.524  0.0060  0.7015  0.1315
  297MPD2    C1 4472   1.849   2.841  16.410 -0.2998  0.2349  0.3387
  297MPD2    C2 4473   1.930   2.951  16.424  0.0753  1.0079  0.1302
  297MPD2    C3 4474   1.977   2.982  16.546  0.3289  0.1964 -1.3235
  297MPD2    C4 4475   1.935   2.920  16.661  0.2583 -0.9271  0.2291
  297MPD2    C5 4476   1.863   2.803  16.651  0.5500  0.2971 -0.1952
  297MPD2     H 4477   1.940   3.009  16.333 -1.4500 -0.7222 -1.1687
  297MPD2    H1 4478   1.956   2.962  16.759 -0.5677 -0.5276  0.2347
  297MPD2    H2 4479   1.757   2.673  16.521  2.4989 -1.2218  1.1904
  297MPD2    H3 4480   1.827   2.753  16.740 -0.2216  3.2181  1.1406
  297MPD2     N 4481   2.059   3.101  16.567  0.5321 -0.1322  0.2537
  297MPD2    H5 4482   2.065   3.142  16.659 -1.0629  0.7904 -0.0613
  297MPD2    N1 4483   1.796   2.818  16.282  0.7677  0.4033  0.5085
  297MPD2    H7 4484   1.808   2.892  16.214  1.1331  1.2689  1.5114
  298TMC3    C1 4485   1.640   2.749  16.129  0.6289 -0.9476 -0.2676
  298TMC3    C2 4486   1.692   2.828  16.029  0.0092 -0.2899  0.4916
  298TMC3    C3 4487   1.609   2.859  15.926 -0.2414 -0.5324 -0.5738
  298TMC3    C4 4488   1.508   2.720  16.135  0.6658  0.1531  0.6466
  298TMC3    C5 4489   1.427   2.767  16.039 -0.5669  0.5582 -0.1519
  298TMC3    C6 4490   1.480   2.834  15.929 -0.1861 -0.0788  1.0622
  298TMC3     C 4491   1.717   2.719  16.246 -0.2868  0.4760  0.5049
  298TMC3     O 4492   1.684   2.626  16.315 -0.2625 -0.2012  0.4365
  298TMC3     H 4493   1.800   2.842  16.037  0.2648 -0.2059 -3.0057
  298TMC3    H1 4494   1.470   2.678  16.228  2.6035 -1.0933  0.8762
  298TMC3    H2 4495   1.413   2.864  15.849  2.3802 -0.1054 -1.1044
  298TMC3    C7 4496   1.305   2.830  16.095 -0.4771  1.0713 -0.8307
  298TMC3    C8 4497   1.661   2.932  15.811 -0.0293 -0.0968  0.6709
  298TMC3    O1 4498   1.273   2.800  16.208 -0.1246 -0.0356 -0.1585
  298TMC3    O2 4499   1.588   2.961  15.717  0.3555  0.0553  0.1487
  299MPD2     C 4500   2.366   2.527  10.550  0.1145 -0.0456  0.1917
  299MPD2    C1 4501   2.455   2.626  10.519 -0.6634  0.4724  0.1297
  299MPD2    C2 4502   2.412   2.733  10.442  0.3677  0.7360  0.6261
  299MPD2    C3 4503   2.277   2.751  10.421 -0.7596  0.0994 -0.6475
  299MPD2    C4 4504   2.189   2.650  10.450  0.4492  0.2621 -0.6301
  299MPD2    C5 4505   2.232   2.545  10.512  0.0365  0.4210 -0.0426
  299MPD2     H 4506   2.484   2.802  10.400  2.2266 -0.3042  2.1050
  299MPD2    H1 4507   2.090   2.656  10.406  0.4292 -1.7353 -0.8465
  299MPD2    H2 4508   2.394   2.438  10.606 -1.6768 -0.0878  1.0039
  299MPD2    H3 4509   2.149   2.480  10.539 -0.4181  1.1244  0.2535
  299MPD2     N 4510   2.235   2.872  10.359 -0.3029 -0.0360 -0.2261
  299MPD2    H5 4511   2.135   2.883  10.345 -0.7288  0.2680  3.1342
  299MPD2    N1 4512   2.586   2.610  10.567 -0.4732 -0.0818  0.0383
  299MPD2    H7 4513   2.613   2.519  10.602  0.1953  0.2116  0.2721
  300TMC3    C1 4514   2.206   3.100  10.322 -0.0600 -0.3373  0.2846
  300TMC3    C2 4515   2.205   3.193  10.416 -0.0077  0.3899  0.0075
  300TMC3    C3 4516   2.089   3.245  10.468 -0.2776 -0.9098  0.2322
  300TMC3    C4 4517   2.087   3.057  10.258 -0.2342  0.2771  0.0493
  300TMC3    C5 4518   1.970   3.093  10.328 -0.3455  0.1737  0.4874
  300TMC3    C6 4519   1.974   3.187  10.430 -0.4100  0.4605 -0.8641
  300TMC3     C 4520   2.303   2.990  10.334  0.3193 -0.1793 -0.9359
  300TMC3     O 4521   2.422   3.018  10.338  0.2167  0.1783 -0.5469
  300TMC3     H 4522   2.295   3.188  10.476  0.5614  0.6925 -0.8154
  300TMC3    H1 4523   2.090   2.998  10.167 -2.1511  0.2447  0.0171
  300TMC3    H2 4524   1.885   3.235  10.470 -0.0527  1.8875 -1.7672
  300TMC3    C7 4525   1.906   2.972  10.365  0.1032 -0.5197  0.1233
  300TMC3    C8 4526   2.097   3.354  10.562 -0.1032 -0.5682  0.3765
  300TMC3    O1 4527   1.945   2.881  10.295  0.0430 -0.2368  0.6100
  300TMC3    O2 4528   2.009   3.438  10.552  0.1250  0.6032 -0.3543
  301MPD2     C 4529   3.277   3.683   1.573 -0.2063  0.0112  0.3906
  301MPD2    C1 4530   3.263   3.765   1.453  0.3273 -0.3355 -0.1232
  301MPD2    C2 4531   3.362   3.765   1.358 -0.1004 -0.4903 -0.7306
  301MPD2    C3 4532   3.468   3.674   1.371  0.2634  0.4914 -0.1760
  301MPD2    C4 4533   3.473   3.580   1.474 -0.6706 -0.7617 -0.7148
  301MPD2    C5 4534   3.386   3.595   1.576  0.0463 -0.1186  0.0486
  301MPD2     H 4535   3.351   3.826   1.269  1.3340  0.1510 -0.4681
  301MPD2    H1 4536   3.555   3.508   1.482 -0.3400 -0.2038  0.9426
  301MPD2    H2 4537   3.196   3.671   1.643 -0.5918 -2.1250 -0.4228
  301MPD2    H3 4538   3.395   3.533   1.665  0.7453  2.0963  1.5035
  301MPD2     N 4539   3.566   3.656   1.267 -0.2394 -0.8070  0.0411
  301MPD2    H5 4540   3.635   3.585   1.287  0.2067 -0.6135 -0.8066
  301MPD2    N1 4541   3.155   3.866   1.439  0.4710 -0.7151  0.0558
  301MPD2    H7 4542   3.154   3.924   1.356 -2.4009 -0.1707  0.4653
  302TMC3    C1 4543   3.678   3.682   1.057  0.2899  0.2281  0.2932
  302TMC3    C2 4544   3.742   3.563   1.080 -0.4686 -0.3018 -0.0434
  302TMC3    C3 4545   3.797   3.496   0.974  0.0690  0.3126 -0.6952
  302TMC3    C4 4546   3.633   3.717   0.930  0.3032 -0.4636  0.3725
  302TMC3    C5 4547   3.688   3.646   0.825 -0.0864 -0.1548 -0.1951
  302TMC3    C6 4548   3.767   3.536   0.846 -0.4222  0.5040 -0.3386
  302TMC3     C 4549   3.587   3.735   1.158  0.4455 -0.2793 -0.2355
  302TMC3     O 4550   3.516   3.829   1.126  0.2034  0.1833 -0.5039
  302TMC3     H 4551   3.759   3.530   1.182  0.4022 -0.5070 -0.2522
  302TMC3    H1 4552   3.590   3.816   0.921  1.7680 -0.0723 -2.2805
  302TMC3    H2 4553   3.807   3.488   0.758  0.9200  0.5332  0.2435
  302TMC3    C7 4554   3.636   3.680   0.701  0.1755  0.0547  0.8057
  302TMC3    C8 4555   3.901   3.392   0.996 -0.0259 -0.3010 -0.6201
  302TMC3    O1 4556   3.706   3.697   0.603 -0.1985 -0.3201 -0.7390
  302TMC3    O2 4557   3.936   3.329   0.897  0.2170 -0.0172 -0.6381
  303MPD2     C 4558   0.159   2.591   9.755 -0.1094 -0.1825  0.2091
  303MPD2    C1 4559   0.024   2.582   9.783  0.3068  0.0440  0.1246
  303MPD2    C2 4560   4.681   2.687   9.842 -0.7477  0.0358  0.4610
  303MPD2    C3 4561   0.023   2.800   9.874 -0.0360 -0.1543  0.2462
  303MPD2    C4 4562   0.160   2.808   9.856  0.0359  0.1897  0.1253
  303MPD2    C5 4563   0.223   2.706   9.790 -0.0361  0.7762  0.9601
  303MPD2     H 4564   4.576   2.676   9.868 -1.0578  0.7696 -0.4575
  303MPD2    H1 4565   0.228   2.886   9.887  0.6833 -0.8191  1.2290
  303MPD2    H2 4566   0.208   2.511   9.701  2.4984  1.8828 -0.4800
  303MPD2    H3 4567   0.330   2.712   9.771 -0.5850  0.9203 -2.0677
  303MPD2     N 4568   4.682   2.901   9.952  0.2637  0.3031 -0.3006
  303MPD2    H5 4569   0.016   2.957  10.014  1.9303 -1.8904  0.1180
  303MPD2    N1 4570   4.671   2.466   9.756  0.3135  0.0081 -0.1387
  303MPD2    H7 4571   4.573   2.465   9.781  0.4020  0.8991  0.2516
  304TMC3    C1 4572   4.627   2.239   9.700  0.1023  0.6812  0.8891
  304TMC3    C2 4573   4.662   2.109   9.722  0.6516  0.3035  0.3105
  304TMC3    C3 4574   4.563   2.019   9.704 -0.5243 -0.1484 -0.2207
  304TMC3    C4 4575   4.499   2.274   9.652 -0.0367  0.0006  0.0449
  304TMC3    C5 4576   4.408   2.176   9.619 -0.3955  0.3682  0.7695
  304TMC3    C6 4577   4.444   2.049   9.652  0.1596  0.1765  0.0868
  304TMC3     C 4578   0.001   2.343   9.734 -0.2597 -0.7345 -0.3518
  304TMC3     O 4579   0.114   2.300   9.762 -0.8233 -0.2505  0.0709
  304TMC3     H 4580   0.018   2.078   9.789  0.1644 -1.8409 -0.1252
  304TMC3    H1 4581   4.476   2.378   9.637 -1.3980 -0.1699  0.9291
  304TMC3    H2 4582   4.366   1.977   9.630 -0.2347  0.5587  0.2433
  304TMC3    C7 4583   4.275   2.209   9.678  0.5431  0.3167  0.4158
  304TMC3    C8 4584   4.554   1.946   9.831 -0.1589 -0.5642  0.0581
  304TMC3    O1 4585   4.235   2.120   9.757 -0.1698 -0.3163 -0.2780
  304TMC3    O2 4586   4.645   1.879   9.872 -0.0665  0.3093 -0.4408
  305MPD2     C 4587   2.440   3.972  14.149 -0.3124 -0.0631 -0.3350
  305MPD2    C1 4588   2.571   3.933  14.146 -0.1956  0.2564 -1.6368
  305MPD2    C2 4589   2.615   3.855  14.040 -0.1600  0.4835 -0.6114
  305MPD2    C3 4590   2.534   3.831  13.931 -0.1269 -0.0246 -0.0034
  305MPD2    C4 4591   2.406   3.881  13.936  0.7432 -0.3492 -0.2849
  305MPD2    C5 4592   2.359   3.950  14.042 -0.4182  0.1649 -1.1976
  305MPD2     H 4593   2.713   3.809  14.050  0.0200  0.8245 -0.7949
  305MPD2    H1 4594   2.339   3.874  13.851 -1.3041  2.0027  1.1371
  305MPD2    H2 4595   2.408   4.021  14.241  0.6732  0.5431 -0.3157
  305MPD2    H3 4596   2.254   3.977  14.050 -0.0518  0.4785  2.5700
  305MPD2     N 4597   2.568   3.765  13.815  0.4320 -0.1182  0.4404
  305MPD2    H5 4598   2.509   3.779  13.734 -0.8872  0.4927  1.5153
  305MPD2    N1 4599   2.637   3.946  14.270  0.3051  0.0584  0.1147
  305MPD2    H7 4600   2.597   3.995  14.349 -0.1472  0.3658 -0.3083
  306TMC3    C1 4601   2.793   3.890  14.442  0.1902  0.5300 -0.4506
  306TMC3    C2 4602   2.870   3.791  14.501 -0.6496 -0.5036  1.0641
  306TMC3    C3 4603   2.942   3.835  14.615 -0.5689 -0.0478  0.5033
  306TMC3    C4 4604   2.788   4.014  14.487  0.9098  0.0078  0.0359
  306TMC3    C5 4605   2.866   4.053  14.594  0.7699 -0.3346  0.7059
  306TMC3    C6 4606   2.947   3.961  14.661  0.4526  0.0829 -0.1344
  306TMC3     C 4607   2.739   3.867  14.310 -0.3910  0.0093 -0.2559
  306TMC3     O 4608   2.783   3.760  14.265  0.4461 -0.7264 -0.7037
  306TMC3     H 4609   2.879   3.692  14.458 -0.1948 -0.7419  1.7053
  306TMC3    H1 4610   2.737   4.097  14.440 -2.1584 -1.1272  1.3297
  306TMC3    H2 4611   2.987   3.975  14.761  0.1880  1.7814 -0.2709
  306TMC3    C7 4612   2.795   4.147  14.670 -0.1043 -0.1085 -0.2449
  306TMC3    C8 4613   3.005   3.726  14.693 -0.7056  0.1681 -0.2179
  306TMC3    O1 4614   2.682   4.169  14.647 -0.6749 -0.0232 -0.2105
  306TMC3    O2 4615   3.091   3.753  14.772  0.4018  0.4611  0.0001
  307MPD2     C 4616   0.324   1.005   0.697 -0.2666 -0.2287 -0.2290
  307MPD2    C1 4617   0.334   1.140   0.680  0.4319  0.1531 -0.1134
  307MPD2    C2 4618   0.244   1.221   0.748 -0.1605  0.0220  0.9060
  307MPD2    C3 4619   0.137   1.171   0.814  0.0649 -0.3712 -0.4350
  307MPD2    C4 4620   0.132   1.036   0.824  0.1275 -0.0396 -0.2820
  307MPD2    C5 4621   0.222   0.948   0.770  0.7849 -0.4132  0.3517
  307MPD2     H 4622   0.249   1.329   0.739 -0.9449 -0.0565 -0.5553
  307MPD2    H1 4623   0.044   0.990   0.869 -0.0613  2.0873  1.5220
  307MPD2    H2 4624   0.404   0.939   0.663 -1.2777 -0.4189 -2.2767
  307MPD2    H3 4625   0.218   0.840   0.777  1.6162 -0.3544  1.9319
  307MPD2     N 4626   0.040   1.258   0.863 -0.1158  0.0654 -0.7104
  307MPD2    H5 4627   0.074   1.353   0.859 -2.5238  0.9277 -1.0728
  307MPD2    N1 4628   0.436   1.204   0.610  0.0630 -0.1027 -0.3829
  307MPD2    H7 4629   0.439   1.306   0.616  1.4466 -0.1439 -0.2272
  308TMC3    C1 4630   4.410   1.499   0.910  0.3549  0.3871  0.4924
  308TMC3    C2 4631   4.484   1.605   0.962 -0.1596  0.2903  0.2586
  308TMC3    C3 4632   4.604   1.572   1.004  0.4507 -0.2454 -0.5307
  308TMC3    C4 4633   4.442   1.370   0.905  0.4400 -0.0105  0.1173
  308TMC3    C5 4634   4.571   1.347   0.943  0.1859  0.5807 -0.0119
  308TMC3    C6 4635   4.654   1.443   0.988  0.2474 -0.1103 -0.1705
  308TMC3     C 4636   4.295   1.526   0.829 -0.2068 -0.8966  0.1088
  308TMC3     O 4637   4.228   1.437   0.791 -0.5805 -0.0162  0.3317
  308TMC3     H 4638   4.434   1.700   0.983  1.1980  1.3813 -1.4918
  308TMC3    H1 4639   4.384   1.297   0.850  1.2797 -0.2819 -0.3956
  308TMC3    H2 4640   0.029   1.420   1.030 -0.4031 -0.8822  0.9315
  308TMC3    C7 4641   4.631   1.229   0.897 -0.2396 -0.2914 -0.2114
  308TMC3    C8 4642   4.696   1.669   1.066 -0.4142 -0.2135  0.3371
  308TMC3    O1 4643   4.569   1.128   0.883  0.7409  0.3953  0.2171
  308TMC3    O2 4644   0.074   1.623   1.118  0.5408 -0.0127  0.0120
  309MPD2     C 4645   4.654   2.913  17.332 -0.0741 -0.4140 -0.2102
  309MPD2    C1 4646   4.595   2.919  17.213 -0.3015  0.1464  0.1609
  309MPD2    C2 4647   4.460   2.917  17.210 -0.7291  0.2884 -0.4185
  309MPD2    C3 4648   4.388   2.895  17.325 -0.7844  0.2927  0.0767
  309MPD2    C4 4649   4.450   2.893  17.447 -0.7823 -0.0101 -0.5337
  309MPD2    C5 4650   4.586   2.889  17.446  0.3600  0.2687  0.1085
  309MPD2     H 4651   4.415   2.934  17.113 -0.7371 -0.0914 -0.4847
  309MPD2    H1 4652   4.396   2.878  17.540  1.4756 -1.3961  0.5567
  309MPD2    H2 4653   0.039   2.914  17.340 -0.0160 -0.5232 -1.0455
  309MPD2    H3 4654   4.646   2.884  17.536  0.8204 -2.0162 -0.3427
  309MPD2     N 4655   4.244   2.886  17.320  0.2959  0.0563  0.4610
  309MPD2    H5 4656   4.200   2.898  17.411 -2.3636  0.4345 -0.8929
  309MPD2    N1 4657   4.668   2.934  17.093  0.4153  1.0401  0.4412
  309MPD2    H7 4658   4.609   2.913  17.013 -0.0902  2.0509  0.5457
  310TMC3    C1 4659   0.116   2.938  16.936  0.6463  0.1949  0.3842
  310TMC3    C2 4660   0.027   3.004  16.855  1.0260  0.4044  0.0331
  310TMC3    C3 4661   0.057   2.999  16.718 -0.1537 -0.8269 -0.5822
  310TMC3    C4 4662   0.226   2.879  16.885  0.3983  0.2706  0.0406
  310TMC3    C5 4663   0.248   2.876  16.749  0.1228 -1.1015  0.9387
  310TMC3    C6 4664   0.165   2.932  16.660 -0.4280 -0.0311 -0.5411
  310TMC3     C 4665   0.081   2.927  17.073 -0.6486  0.5371  0.2509
  310TMC3     O 4666   0.174   2.901  17.149  0.3203 -0.2519  0.1260
  310TMC3     H 4667   4.661   3.051  16.895 -1.2666 -1.8036 -2.4714
  310TMC3    H1 4668   0.294   2.829  16.953 -0.9976  0.1840  1.3676
  310TMC3    H2 4669   0.183   2.928  16.554  2.5709  0.2836 -0.0532
  310TMC3    C7 4670   0.356   2.793  16.697  0.4689 -0.4550  0.7532
  310TMC3    C8 4671   4.692   3.051  16.626  0.2555  0.1193  0.2508
  310TMC3    O1 4672   0.380   2.697  16.770 -0.3986  0.4260  1.0673
  310TMC3    O2 4673   4.697   3.009  16.508  0.7873 -0.2499  0.1975
  311MPD2     C 4674   1.915   3.606  12.719 -0.4694 -0.9706  0.3521
  311MPD2    C1 4675   1.919   3.735  12.773 -0.0074 -0.1283  0.2669
  311MPD2    C2 4676   1.836   3.766  12.884  0.0772 -0.3971  0.8454
  311MPD2    C3 4677   1.733   3.681  12.926  0.4742 -0.1166 -0.6227
  311MPD2    C4 4678   1.734   3.552  12.865 -0.3438 -0.4116 -0.1664
  311MPD2    C5 4679   1.826   3.521  12.765  0.4267 -0.3387  0.1224
  311MPD2     H 4680   1.845   3.866  12.925 -3.1790 -0.6267  2.0944
  311MPD2    H1 4681   1.663   3.477  12.898  0.0804  0.8625  3.6508
  311MPD2    H2 4682   1.977   3.563  12.641 -0.0997 -0.0962  0.1688
  311MPD2    H3 4683   1.808   3.428  12.713 -0.6925 -0.7121  1.1609
  311MPD2     N 4684   1.630   3.730  13.010 -0.5213  0.2293 -0.0561
  311MPD2    H5 4685   1.656   3.821  13.047 -0.3690  0.3406 -0.4431
  311MPD2    N1 4686   2.014   3.842  12.732 -0.0560  0.5413 -0.3675
  311MPD2    H7 4687   2.001   3.934  12.772  1.3912  1.6452 -2.4869
  312TMC3    C1 4688   1.434   3.723  13.151 -0.3825 -0.8764 -0.0249
  312TMC3    C2 4689   1.302   3.731  13.109  0.7183  0.0648 -0.4072
  312TMC3    C3 4690   1.235   3.843  13.147  0.3518 -0.1342 -0.3475
  312TMC3    C4 4691   1.491   3.823  13.225 -0.4679  0.5519 -0.6559
  312TMC3    C5 4692   1.411   3.928  13.263  0.1333 -0.4715  0.0618
  312TMC3    C6 4693   1.281   3.947  13.225  0.7489  0.1583 -0.6203
  312TMC3     C 4694   1.511   3.663  13.045  0.2472  0.7118 -0.2383
  312TMC3     O 4695   1.467   3.562  12.991 -0.8785 -0.5555  0.6970
  312TMC3     H 4696   1.262   3.654  13.044 -0.1174  0.9054 -0.8713
  312TMC3    H1 4697   1.599   3.824  13.236 -0.3950 -0.4737 -1.3787
  312TMC3    H2 4698   1.239   4.044  13.250 -5.2203 -2.5758 -0.2040
  312TMC3    C7 4699   1.451   3.998  13.378 -0.2934  0.9299  0.5232
  312TMC3    C8 4700   1.091   3.845  13.121 -0.5532  0.1045 -0.3024
  312TMC3    O1 4701   1.398   4.106  13.402 -0.4180 -0.8626 -0.2572
  312TMC3    O2 4702   1.029   3.739  13.130  0.8171  0.5425  0.0374
  313MPD2     C 4703   1.329   2.868  10.817  0.4397  0.0508 -0.1066
  313MPD2    C1 4704   1.393   2.948  10.725  0.3331  0.4161 -0.3465
  313MPD2    C2 4705   1.456   2.905  10.605  0.3772 -0.4661 -0.0396
  313MPD2    C3 4706   1.459   2.770  10.579 -0.1399  0.0613  0.2741
  313MPD2    C4 4707   1.399   2.683  10.671  0.1410  0.1617 -0.2743
  313MPD2    C5 4708   1.342   2.729  10.788 -0.0510  0.5179  0.2237
  313MPD2     H 4709   1.507   2.977  10.542  0.6174 -1.0541 -0.5062
  313MPD2    H1 4710   1.403   2.575  10.662 -0.2802  0.0614  0.6844
  313MPD2    H2 4711   1.281   2.902  10.908 -1.6634 -0.9961 -0.8295
  313MPD2    H3 4712   1.281   2.656  10.840  1.2100 -1.3778 -0.9550
  313MPD2     N 4713   1.519   2.725  10.456 -0.4295  0.0726 -0.3261
  313MPD2    H5 4714   1.551   2.798  10.393  3.7976 -0.6659  0.9522
  313MPD2    N1 4715   1.410   3.087  10.741 -0.0519  0.3665 -0.4183
  313MPD2    H7 4716   1.462   3.126  10.664  0.3288 -1.9422 -1.3004
  314TMC3    C1 4717   1.388   3.296  10.845  0.0894 -0.1929  0.3458
  314TMC3    C2 4718   1.476   3.368  10.918  0.2196 -0.1327 -0.9927
  314TMC3    C3 4719   1.500   3.495  10.870 -1.3177  0.1152 -0.0298
  314TMC3    C4 4720   1.341   3.327  10.722  0.1718  0.2971  0.3952
  314TMC3    C5 4721   1.378   3.450  10.671 -0.0202  0.1494  0.8675
  314TMC3    C6 4722   1.452   3.535  10.748  0.2663  0.7396 -0.2866
  314TMC3     C 4723   1.391   3.150  10.865  0.1575  0.0230  0.2490
  314TMC3     O 4724   1.365   3.122  10.984 -0.4347  0.6138 -0.0370
  314TMC3     H 4725   1.512   3.338  11.016 -0.0522  3.6533  0.2673
  314TMC3    H1 4726   1.270   3.263  10.671  2.4296 -2.7858  1.1000
  314TMC3    H2 4727   1.473   3.631  10.702 -1.6543  0.6301 -1.3643
  314TMC3    C7 4728   1.327   3.486  10.540 -0.2760  0.4195 -0.2423
  314TMC3    C8 4729   1.556   3.597  10.962 -0.1509 -0.4607 -0.0645
  314TMC3    O1 4730   1.243   3.407  10.497 -0.3599 -0.3381 -0.4899
  314TMC3    O2 4731   1.598   3.697  10.903 -0.6151 -0.8069  0.3582
  315MPD2     C 4732   0.984   2.100  17.300  0.0168  0.4267  0.2883
  315MPD2    C1 4733   1.042   2.121  17.420  0.2349 -0.1264  0.4504
  315MPD2    C2 4734   1.089   2.239  17.459 -0.1446 -0.1365 -0.1855
  315MPD2    C3 4735   1.107   2.339  17.369 -1.0797 -0.3570  0.1825
  315MPD2    C4 4736   1.070   2.318  17.238 -0.6276  0.2026 -0.0986
  315MPD2    C5 4737   1.014   2.202  17.203  0.2395 -0.0562 -0.0338
  315MPD2     H 4738   1.133   2.258  17.557 -1.4664 -0.7524  0.5230
  315MPD2    H1 4739   1.089   2.385  17.155  2.0492 -1.0713 -0.5072
  315MPD2    H2 4740   0.939   2.006  17.271 -1.1749  0.7722  1.0416
  315MPD2    H3 4741   1.010   2.183  17.096 -1.4070 -1.3471  0.2543
  315MPD2     N 4742   1.170   2.457  17.420  1.1097  0.1224 -0.1886
  315MPD2    H5 4743   1.185   2.461  17.520 -1.5773  0.3368  0.1985
  315MPD2    N1 4744   1.050   2.018  17.518  0.0599 -0.3382 -0.2834
  315MPD2    H7 4745   1.092   2.052  17.604  2.3337  0.8203 -1.8346
  316TMC3    C1 4746   1.264   2.670  17.419 -0.4476  0.0703  0.6654
  316TMC3    C2 4747   1.354   2.646  17.515  0.4251 -0.2609  0.5983
  316TMC3    C3 4748   1.405   2.750  17.587  0.0433  0.4951  0.0402
  316TMC3    C4 4749   1.229   2.794  17.380 -0.3892  0.3308  0.0214
  316TMC3    C5 4750   1.303   2.893  17.439 -0.6084  0.2392  0.9504
  316TMC3    C6 4751   1.399   2.873  17.530  0.5708  0.2167  0.3989
  316TMC3     C 4752   1.183   2.572  17.349  0.1803  0.1704 -0.0803
  316TMC3     O 4753   1.123   2.603  17.250 -0.0734 -0.2793  0.0391
  316TMC3     H 4754   1.379   2.543  17.532 -1.9147 -0.7209  1.3231
  316TMC3    H1 4755   1.160   2.825  17.302  0.2791 -1.3564 -1.2373
  316TMC3    H2 4756   1.460   2.951  17.573 -0.4202  1.1288  0.1471
  316TMC3    C7 4757   1.293   3.031  17.388 -0.5008  0.1841  0.8756
  316TMC3    C8 4758   1.504   2.732  17.688  0.5617 -0.1013  0.3079
  316TMC3    O1 4759   1.304   3.126  17.463 -0.1519 -0.0347 -0.0647
  316TMC3    O2 4760   1.529   2.827   0.071  0.4086  0.4121 -0.1929
  317MPD2     C 4761   2.577   0.973  12.642  0.1089 -0.0669 -0.4048
  317MPD2    C1 4762   2.615   0.840  12.652  0.5389  0.7811  0.5868
  317MPD2    C2 4763   2.677   0.793  12.771 -0.9029 -0.3073  0.8943
  317MPD2    C3 4764   2.696   0.886  12.876  0.0461 -0.1476  0.1985
  317MPD2    C4 4765   2.667   1.021  12.856  0.7476 -0.5658  0.0894
  317MPD2    C5 4766   2.615   1.065  12.737  0.5448  0.3887  0.3055
  317MPD2     H 4767   2.697   0.687  12.776  2.1896  0.2145 -0.6816
  317MPD2    H1 4768   2.689   1.098  12.930 -1.2660 -0.9147  1.0459
  317MPD2    H2 4769   2.546   1.025  12.553  0.5276  0.4001 -0.2764
  317MPD2    H3 4770   2.603   1.171  12.724 -1.1496 -0.2927 -3.5045
  317MPD2     N 4771   2.752   0.837  13.001  0.8011 -0.8889 -0.4783
  317MPD2    H5 4772   2.776   0.738  12.998  2.1478 -0.5879  0.3390
  317MPD2    N1 4773   2.589   0.741  12.549 -0.1732  0.4226 -0.4352
  317MPD2    H7 4774   2.625   0.647  12.563 -0.8763 -0.0473 -1.7386
  318TMC3    C1 4775   2.876   0.827  13.190 -0.6057  0.8161 -0.1365
  318TMC3    C2 4776   2.815   0.719  13.245  0.3820 -0.4998 -0.7138
  318TMC3    C3 4777   2.876   0.667  13.353  0.1766 -0.1376 -0.3650
  318TMC3    C4 4778   2.987   0.884  13.248  0.2461  0.3746  0.1002
  318TMC3    C5 4779   3.044   0.820  13.354 -0.1043 -0.2303 -0.2701
  318TMC3    C6 4780   2.991   0.710  13.414 -0.6824  0.4494  0.3997
  318TMC3     C 4781   2.802   0.910  13.100 -0.6746  0.1868  0.4959
  318TMC3     O 4782   2.821   1.029  13.108  0.1299 -0.6413 -0.2937
  318TMC3     H 4783   2.717   0.694  13.206  0.7513 -0.1384 -1.9047
  318TMC3    H1 4784   3.025   0.978  13.208 -0.3723  0.7687  0.4385
  318TMC3    H2 4785   3.053   0.650  13.479 -0.7204 -0.0953 -0.0613
  318TMC3    C7 4786   3.150   0.889  13.417 -0.3402 -0.1701 -0.5596
  318TMC3    C8 4787   2.819   0.547  13.402 -0.0376  0.2464 -0.7190
  318TMC3    O1 4788   3.152   1.013  13.397 -1.4289 -0.0300  0.7784
  318TMC3    O2 4789   2.832   0.500  13.513  0.2766 -0.0979 -0.3014
  319MPD2     C 4790   4.365   2.327  16.607 -0.1025  0.0212  0.1420
  319MPD2    C1 4791   4.274   2.340  16.704  0.8552  0.4529  0.2093
  319MPD2    C2 4792   4.138   2.325  16.673  0.1801  0.1612  0.0582
  319MPD2    C3 4793   4.100   2.288  16.545 -0.1495 -0.4067  0.3470
  319MPD2    C4 4794   4.194   2.272  16.451  0.5177 -0.1531  0.7726
  319MPD2    C5 4795   4.325   2.305  16.480 -0.3042  0.1751  0.4562
  319MPD2     H 4796   4.062   2.334  16.749 -2.4919  0.2180 -2.5898
  319MPD2    H1 4797   4.169   2.247  16.349  1.7940 -0.3167  0.5023
  319MPD2    H2 4798   4.471   2.324  16.628  0.0779  3.1654 -0.3818
  319MPD2    H3 4799   4.403   2.274  16.412  0.4140 -0.1088  1.4105
  319MPD2     N 4800   3.963   2.271  16.507  0.4930 -0.6510 -0.1524
  319MPD2    H5 4801   3.954   2.265  16.406  0.8706  0.8356 -0.2721
  319MPD2    N1 4802   4.307   2.370  16.839  0.5533 -0.2045 -0.0018
  319MPD2    H7 4803   4.234   2.375  16.910 -0.7156 -2.5798 -1.1270
  320TMC3    C1 4804   3.722   2.267  16.537 -0.0612  0.2533 -0.5618
  320TMC3    C2 4805   3.716   2.336  16.419  0.9170 -0.2530  0.3125
  320TMC3    C3 4806   3.602   2.320  16.347 -0.1464  0.5017 -0.7385
  320TMC3    C4 4807   3.638   2.168  16.581 -0.0756  0.6543 -0.0897
  320TMC3    C5 4808   3.524   2.157  16.507  0.0419  0.4371 -0.0932
  320TMC3    C6 4809   3.511   2.223  16.385 -0.3619 -0.6947  0.3641
  320TMC3     C 4810   3.856   2.272  16.600 -0.4666 -0.4542 -0.3690
  320TMC3     O 4811   3.859   2.253  16.719  0.0045 -0.4162  0.0516
  320TMC3     H 4812   3.791   2.408  16.389  1.3618 -0.2400  1.4529
  320TMC3    H1 4813   3.663   2.110  16.669 -0.1873  0.9367  0.1316
  320TMC3    H2 4814   3.414   2.221  16.336  0.1945  1.2286 -0.8116
  320TMC3    C7 4815   3.435   2.043  16.537 -0.5064  0.1705 -0.2551
  320TMC3    C8 4816   3.567   2.421  16.253  0.3696  0.4466  0.4079
  320TMC3    O1 4817   3.476   1.954  16.610  0.1017  0.0391  0.1727
  320TMC3    O2 4818   3.606   2.534  16.273 -0.6435 -0.2986  0.4613
  321TMC3    C1 4819   4.435   2.385  17.034 -0.1764 -0.1525  0.5985
  321TMC3    C2 4820   4.321   2.337  17.099  0.3638 -0.4062 -0.3293
  321TMC3    C3 4821   4.306   2.369  17.231 -0.6689  1.0395 -0.0883
  321TMC3    C4 4822   4.524   2.472  17.096 -0.1617 -0.4659 -0.1238
  321TMC3    C5 4823   4.501   2.500  17.229  0.3135 -0.3563 -0.3829
  321TMC3    C6 4824   4.394   2.451  17.291  0.2258 -0.0422  0.1132
  321TMC3     C 4825   4.436   2.382  16.888 -0.0940 -0.1498 -0.0997
  321TMC3     O 4826   4.545   2.410  16.839 -0.3340  0.5176 -0.2130
  321TMC3     H 4827   4.263   2.259  17.051 -0.3580  0.6623 -1.2028
  321TMC3    H1 4828   4.612   2.511  17.046 -0.2123 -0.3205 -0.0984
  321TMC3    H2 4829   4.367   2.492  17.387 -1.6049  1.5116 -1.0517
  321TMC3    C7 4830   4.621   2.502  17.312  0.1495  0.8388 -0.5350
  321TMC3    C8 4831   4.296   2.259  17.318  0.1888  0.7746  0.4815
  321TMC3    O1 4832   4.712   2.585  17.288  0.1739  0.1147  0.5516
  321TMC3    O2 4833   4.372   2.264  17.409 -0.7202 -0.3973  0.0565
  322MPD2     C 4834   2.535   3.268  14.160  0.0242 -0.5429  0.5671
  322MPD2    C1 4835   2.574   3.249  14.290  0.6626 -1.0676 -0.0097
  322MPD2    C2 4836   2.506   3.152  14.365  0.6571 -0.2018 -0.2896
  322MPD2    C3 4837   2.416   3.069  14.302  0.0620 -0.2137  0.0405
  322MPD2    C4 4838   2.377   3.085  14.169  0.1987  0.2877  0.4349
  322MPD2    C5 4839   2.440   3.183  14.100  0.2307  0.5053  0.0850
  322MPD2     H 4840   2.538   3.148  14.469  0.4960  2.4089 -0.1350
  322MPD2    H1 4841   2.304   3.022  14.119  1.4583  1.0846 -2.4107
  322MPD2    H2 4842   2.578   3.337  14.089 -3.5697  0.6898 -0.4375
  322MPD2    H3 4843   2.413   3.202  13.996 -0.4057  3.6206  0.8031
  322MPD2     N 4844   2.360   2.974  14.383 -0.2614  0.2162  0.6695
  322MPD2    H5 4845   2.385   2.977  14.481 -1.6675 -0.6047  1.0483
  322MPD2    N1 4846   2.686   3.325  14.341 -0.0365 -0.6174 -0.4334
  322MPD2    H7 4847   2.727   3.393  14.278 -1.4349 -0.9034 -1.6230
  323TMC3    C1 4848   2.881   3.324  14.479 -0.0525 -0.0226  0.2749
  323TMC3    C2 4849   2.936   3.419  14.404  0.1858 -0.3369 -0.7888
  323TMC3    C3 4850   3.070   3.438  14.422  0.0130 -0.2059  0.3658
  323TMC3    C4 4851   2.959   3.237  14.553 -0.1028  0.6969 -0.0414
  323TMC3    C5 4852   3.097   3.250  14.547 -0.6658 -0.6865  0.0263
  323TMC3    C6 4853   3.152   3.359  14.494 -0.5049 -0.0920 -0.2637
  323TMC3     C 4854   2.742   3.297  14.464 -0.0902  0.3173 -0.1408
  323TMC3     O 4855   2.703   3.232  14.562 -0.2493  0.0908 -0.3212
  323TMC3     H 4856   2.871   3.493  14.358  0.4912  0.2768 -0.2285
  323TMC3    H1 4857   2.920   3.150  14.605  1.4333  1.0321  1.7054
  323TMC3    H2 4858   3.259   3.358  14.479 -0.3528 -0.9584  0.8870
  323TMC3    C7 4859   3.171   3.159  14.628  0.0551  0.3731 -0.2184
  323TMC3    C8 4860   3.143   3.518  14.314  0.3038  0.2138 -0.5123
  323TMC3    O1 4861   3.111   3.112  14.724 -0.2022 -0.1040  0.2185
  323TMC3    O2 4862   3.251   3.566  14.344  0.5537  0.3954  0.0837
  324MPD2     C 4863   4.135   3.921  14.517  0.5082  0.6973  0.2877
  324MPD2    C1 4864   4.054   4.013  14.579  0.4568 -0.6381  0.1576
  324MPD2    C2 4865   3.916   3.981  14.596  0.1839  0.4233  0.3501
  324MPD2    C3 4866   3.861   3.866  14.544  0.0690  0.1986 -0.6679
  324MPD2    C4 4867   3.944   3.773  14.481 -0.0869  0.1306 -0.6837
  324MPD2    C5 4868   4.074   3.801  14.464  0.2767 -0.2685  0.5319
  324MPD2     H 4869   3.862   4.055  14.654  2.0216  1.9003  0.2007
  324MPD2    H1 4870   3.903   3.679  14.446  0.0770 -0.8516  1.7610
  324MPD2    H2 4871   4.243   3.926  14.511  0.5340  1.0596  1.0402
  324MPD2    H3 4872   4.150   3.736  14.422 -0.8568 -0.1487 -1.7104
  324MPD2     N 4873   3.724   3.832  14.556 -0.4540 -0.6267  0.4569
  324MPD2    H5 4874   3.690   3.762  14.490  0.5624  0.9000 -1.6983
  324MPD2    N1 4875   4.111   4.128  14.641  0.0656 -0.4784 -0.3799
  324MPD2    H7 4876   4.047   4.201  14.671  3.1722  2.1868 -0.2532
  325TMC3    C1 4877   3.493   3.873  14.602 -0.0823 -0.5733 -0.6703
  325TMC3    C2 4878   3.461   3.864  14.472 -0.0663 -0.1926  0.2375
  325TMC3    C3 4879   3.334   3.893  14.439  0.1660 -0.0252 -0.1843
  325TMC3    C4 4880   3.407   3.925  14.700 -0.3942  0.1571 -0.4371
  325TMC3    C5 4881   3.287   3.975  14.649 -0.0769 -0.2144 -0.1180
  325TMC3    C6 4882   3.246   3.958  14.521  0.1253  1.0569 -0.6131
  325TMC3     C 4883   3.637   3.898  14.629  0.7407  0.7109  0.4867
  325TMC3     O 4884   3.657   3.982  14.715 -0.1253  0.9407 -0.1067
  325TMC3     H 4885   3.535   3.832  14.400 -0.4411 -1.7839  0.5689
  325TMC3    H1 4886   3.428   3.930  14.807  0.7506  1.6949 -0.7413
  325TMC3    H2 4887   3.151   3.996  14.484 -0.3884  1.7909  1.4571
  325TMC3    C7 4888   3.266   4.111  14.698  0.1226  0.7726 -0.0171
  325TMC3    C8 4889   3.321   3.925  14.296  0.0271  0.2237 -0.8409
  325TMC3    O1 4890   3.165   4.174  14.658 -0.2273 -0.2650 -0.4654
  325TMC3    O2 4891   3.425   3.951  14.239  0.8816  0.4958  0.0544
  326MPD2     C 4892   0.307   0.760  11.037 -0.3223 -0.5046  0.2144
  326MPD2    C1 4893   0.427   0.782  10.972 -0.6063 -0.2863  0.5193
  326MPD2    C2 4894   0.545   0.750  11.040 -0.0475  0.2440 -0.0944
  326MPD2    C3 4895   0.541   0.691  11.167 -0.4935 -0.5211  0.2606
  326MPD2    C4 4896   0.424   0.675  11.233  0.3516  0.6398  0.0511
  326MPD2    C5 4897   0.308   0.711  11.160 -0.2922  0.0889 -0.6623
  326MPD2     H 4898   0.640   0.753  10.987 -0.6095 -0.0999 -1.1281
  326MPD2    H1 4899   0.425   0.631  11.332  0.4914  1.5386  0.4424
  326MPD2    H2 4900   0.211   0.783  10.990 -0.6552  1.2070  1.7042
  326MPD2    H3 4901   0.211   0.698  11.208  1.0454 -0.8795  1.7727
  326MPD2     N 4902   0.652   0.655  11.242 -0.5341  0.1879  0.2524
  326MPD2    H5 4903   0.644   0.605  11.329  1.3630  0.6872  0.6984
  326MPD2    N1 4904   0.443   0.823  10.838 -0.3004  0.0625  0.2124
  326MPD2    H7 4905   0.541   0.828  10.812 -0.5114 -4.0973 -1.3595
  327TMC3    C1 4906   0.428   0.890  10.623  0.4138 -0.8701 -1.0319
  327TMC3    C2 4907   0.357   0.970  10.532 -0.0344 -0.3326  0.5586
  327TMC3    C3 4908   0.398   0.963  10.398 -0.6177  0.5508 -0.4339
  327TMC3    C4 4909   0.534   0.807  10.589  0.6259  0.6335  0.1062
  327TMC3    C5 4910   0.571   0.816  10.455  0.7667 -0.6108 -0.0076
  327TMC3    C6 4911   0.499   0.884  10.356 -0.0263  0.3405 -0.0345
  327TMC3     C 4912   0.353   0.867  10.741  0.3581 -0.6832  0.5847
  327TMC3     O 4913   0.230   0.878  10.742  0.5483 -0.1052 -0.3956
  327TMC3     H 4914   0.274   1.030  10.567  0.9434  1.1256  0.4014
  327TMC3    H1 4915   0.580   0.734  10.654 -0.8673  0.6432  1.1536
  327TMC3    H2 4916   0.544   0.896  10.258  2.3084 -1.0303  0.8747
  327TMC3    C7 4917   0.705   0.774  10.421 -0.1773  0.5280 -0.2355
  327TMC3    C8 4918   0.356   1.062  10.298  0.0292 -0.0246  0.2922
  327TMC3    O1 4919   0.755   0.827  10.324 -0.6433 -0.0506 -0.5536
  327TMC3    O2 4920   0.311   1.169  10.341 -0.2037  0.0728  0.1632
  328MPD2     C 4921   3.241   0.098  16.741  0.8225 -0.1985  0.8646
  328MPD2    C1 4922   3.146   0.119  16.839 -0.2453  0.6958  0.2161
  328MPD2    C2 4923   3.119   0.252  16.872 -0.2365  0.3754  0.0610
  328MPD2    C3 4924   3.181   0.358  16.800 -0.5628  0.1322 -0.2389
  328MPD2    C4 4925   3.268   0.332  16.694 -0.5118 -0.9679  0.4542
  328MPD2    C5 4926   3.288   0.201  16.665 -0.3502 -0.0478 -0.4027
  328MPD2     H 4927   3.058   0.279  16.958 -3.2038 -1.8228 -1.3538
  328MPD2    H1 4928   3.329   0.398  16.634 -0.8715 -0.4424  0.6679
  328MPD2    H2 4929   3.270   4.720  16.716 -0.9627 -0.9150  1.7489
  328MPD2    H3 4930   3.351   0.176  16.581  0.5328 -0.2375  0.3165
  328MPD2     N 4931   3.174   0.492  16.837 -0.3628 -0.0618  0.0618
  328MPD2    H5 4932   3.215   0.567  16.782 -1.2804 -0.6180 -1.3949
  328MPD2    N1 4933   3.113   0.006  16.918 -0.2913  0.1910 -0.1498
  328MPD2    H7 4934   3.146   4.644  16.874  0.5620 -0.1250  1.0909
  329TMC3    C1 4935   3.043   4.621  17.108 -0.3463  0.3199 -0.3580
  329TMC3    C2 4936   2.951   4.611  17.209 -0.3908 -0.0347 -0.3440
  329TMC3    C3 4937   2.988   4.526  17.309 -0.7517 -0.3633  0.6774
  329TMC3    C4 4938   3.151   4.541  17.088 -0.1337 -0.3749  0.0734
  329TMC3    C5 4939   3.170   4.441  17.180  0.1222 -0.4083  0.3403
  329TMC3    C6 4940   3.099   4.437  17.297 -0.3581 -0.0602  0.5847
  329TMC3     C 4941   3.025   0.006  17.020  0.3814 -0.3513 -0.4075
  329TMC3     O 4942   2.947   0.094  17.055  0.5665 -0.4513  0.2639
  329TMC3     H 4943   2.859   4.669  17.203 -0.3761 -0.3642 -3.7544
  329TMC3    H1 4944   3.223   4.539  17.007 -2.8288  1.9171 -2.3715
  329TMC3    H2 4945   3.104   4.347  17.358  1.2510 -0.5135 -0.2111
  329TMC3    C7 4946   3.252   4.328  17.151  0.2132  0.4960 -0.0770
  329TMC3    C8 4947   2.893   4.495  17.416  0.7144 -0.0193  0.2736
  329TMC3    O1 4948   3.278   4.255  17.244 -0.4049 -0.1331  0.8064
  329TMC3    O2 4949   2.905   4.385  17.469  0.1803 -0.5482  0.1694
  330TMC3    C1 4950   1.476   0.338   9.715 -0.2093 -0.2363 -0.0889
  330TMC3    C2 4951   1.456   0.214   9.646 -0.3279 -0.0465  0.4643
  330TMC3    C3 4952   1.452   0.093   9.713 -0.7951  0.5005  0.7444
  330TMC3    C4 4953   1.501   0.335   9.844  0.5044  0.4277 -0.0320
  330TMC3    C5 4954   1.516   0.213   9.904  0.7280  0.3503 -0.9025
  330TMC3    C6 4955   1.494   0.090   9.844 -0.0291 -0.4437 -0.4054
  330TMC3     C 4956   1.435   0.467   9.657  0.5832 -0.7994 -0.4557
  330TMC3     O 4957   1.406   0.558   9.733 -0.6596 -0.3156 -0.6349
  330TMC3     H 4958   1.412   0.217   9.547  1.1062  0.2056 -0.1704
  330TMC3    H1 4959   1.508   0.425   9.903  1.4143  0.3632 -0.0396
  330TMC3    H2 4960   1.492   4.718   9.896  0.4450  0.5045  1.3339
  330TMC3    C7 4961   1.556   0.225  10.047 -1.2604 -0.0648  0.1149
  330TMC3    C8 4962   1.444   4.695   9.642 -0.4737  0.6146 -0.2728
  330TMC3    O1 4963   1.525   0.325  10.112 -0.1408  0.1279 -0.0495
  330TMC3    O2 4964   1.502   4.687   9.538 -0.3984  0.4446  0.0964
  331MPD2     C 4965   3.624   4.208  11.607  0.1554 -0.2354  0.4474
  331MPD2    C1 4966   3.651   4.254  11.734  0.5251 -0.3928 -0.2482
  331MPD2    C2 4967   3.758   4.212  11.805  0.2162  0.5967 -0.4934
  331MPD2    C3 4968   3.838   4.109  11.764  0.9110 -0.3982 -0.4035
  331MPD2    C4 4969   3.810   4.060  11.639 -0.4545 -0.3265 -0.5025
  331MPD2    C5 4970   3.701   4.104  11.572 -0.1243  0.5939 -0.3321
  331MPD2     H 4971   3.784   4.247  11.904 -1.3380  0.1084  0.0886
  331MPD2    H1 4972   3.866   3.974  11.602  1.9862  0.7085  0.7556
  331MPD2    H2 4973   3.549   4.244  11.539 -1.3479  0.5213  2.5199
  331MPD2    H3 4974   3.678   4.047  11.483  1.9199  0.7331 -0.9539
  331MPD2     N 4975   3.941   4.073  11.848 -0.4542  0.8092 -0.3136
  331MPD2    H5 4976   3.953   4.118  11.938 -0.9626  0.9476 -0.3174
  331MPD2    N1 4977   3.575   4.370  11.779  0.4656  0.0835 -0.4382
  331MPD2    H7 4978   3.519   4.416  11.708  0.0515  0.1063 -0.0960
  332TMC3    C1 4979   4.153   3.974  11.904  0.1279  0.1994 -0.1932
  332TMC3    C2 4980   4.195   4.094  11.955  0.2507  0.1411 -0.1126
  332TMC3    C3 4981   4.285   4.099  12.049 -0.4823 -0.6496  0.3792
  332TMC3    C4 4982   4.211   3.859  11.949 -0.0754 -0.4698  0.1294
  332TMC3    C5 4983   4.307   3.872  12.050  0.2811  0.7691  0.1917
  332TMC3    C6 4984   4.343   3.992  12.107 -0.6419 -0.4746  1.3692
  332TMC3     C 4985   4.029   3.970  11.824  0.4451 -0.4543 -0.0423
  332TMC3     O 4986   4.018   3.878  11.745  0.7138 -0.3068 -0.6285
  332TMC3     H 4987   4.163   4.195  11.930 -1.2901 -1.3004 -3.9394
  332TMC3    H1 4988   4.182   3.762  11.911 -1.5259  0.1106 -0.2391
  332TMC3    H2 4989   4.403   4.000  12.197 -0.2201  2.8060  0.7982
  332TMC3    C7 4990   4.341   3.752  12.124  0.2129  0.0713 -0.4911
  332TMC3    C8 4991   4.298   4.217  12.134 -0.1417 -0.3612  0.1216
  332TMC3    O1 4992   4.263   3.656  12.129 -0.4435 -0.4140 -0.2067
  332TMC3    O2 4993   4.195   4.277  12.163  0.0767 -0.3906  0.2969
  333MPD2     C 4994   4.107   3.827  11.062  0.3539  0.3953 -0.4211
  333MPD2    C1 4995   4.216   3.798  11.147 -0.0269 -0.2104 -0.3602
  333MPD2    C2 4996   4.207   3.696  11.239 -0.4128  0.3101 -1.2689
  333MPD2    C3 4997   4.090   3.632  11.261  0.1056 -0.5212 -0.3875
  333MPD2    C4 4998   3.980   3.652  11.174 -0.4282 -0.0970 -0.0087
  333MPD2    C5 4999   3.996   3.749  11.078 -0.3093 -0.5410 -0.1054
  333MPD2     H 5000   4.295   3.670  11.296 -0.5877  1.8569 -0.2800
  333MPD2    H1 5001   3.884   3.600  11.174 -1.3235  1.5564  2.0182
  333MPD2    H2 5002   4.105   3.912  10.995 -2.2627  1.5241  1.1085
  333MPD2    H3 5003   3.913   3.764  11.009 -1.5453 -1.7136  1.1290
  333MPD2     N 5004   4.087   3.545  11.372 -0.2473 -0.3785 -0.3897
  333MPD2    H5 5005   4.172   3.531  11.426  0.7432 -0.8489 -2.0809
  333MPD2    N1 5006   4.327   3.892  11.136  0.4303 -0.1854 -0.2192
  333MPD2    H7 5007   4.316   3.964  11.065 -0.0003  0.2344  0.2703
  334TMC3    C1 5008   4.555   3.973  11.154 -0.0078  0.4391  0.0506
  334TMC3    C2 5009   4.673   3.900  11.148 -0.1730  0.0721 -0.0577
  334TMC3    C3 5010   0.052   3.961  11.085  0.5612  0.2349  0.2803
  334TMC3    C4 5011   4.524   4.088  11.092 -0.3669  0.3497 -0.0002
  334TMC3    C5 5012   4.625   4.136  11.009  0.4609  0.5005  0.2457
  334TMC3    C6 5013   0.024   4.075  11.012  0.1055  0.1129  0.5882
  334TMC3     C 5014   4.447   3.890  11.209  0.0036  0.1123 -0.0427
  334TMC3     O 5015   4.476   3.819  11.305  0.7835 -0.5285 -0.2629
  334TMC3     H 5016   4.685   3.804  11.195 -0.2601  1.1830  2.2273
  334TMC3    H1 5017   4.444   4.143  11.139  0.1562  0.5321  0.6797
  334TMC3    H2 5018   0.107   4.124  10.963  1.3782 -1.7714  0.8843
  334TMC3    C7 5019   4.610   4.264  10.958 -0.1058 -0.0063 -0.1440
  334TMC3    C8 5020   0.149   3.875  11.029  0.1224 -0.6877 -0.5160
  334TMC3    O1 5021   4.712   4.323  10.929 -0.0630 -0.1562  0.9763
  334TMC3    O2 5022   0.130   3.758  11.024  0.1604 -0.0482  0.3436
  335TMC3    C1 5023   3.980   0.893  17.616  0.2780  0.2368  0.2455
  335TMC3    C2 5024   3.906   0.906  17.508  0.1359  1.0562  1.1339
  335TMC3    C3 5025   3.946   0.854  17.385 -0.5725 -0.9930  0.1654
  335TMC3    C4 5026   4.094   0.823  17.617 -0.1914  0.2577  0.0451
  335TMC3    C5 5027   4.142   0.788  17.494  0.1395  0.4289 -0.1072
  335TMC3    C6 5028   4.075   0.806  17.376 -0.4151  0.3451  0.5875
  335TMC3     C 5029   3.916   0.937   0.046  0.1537  0.5077  0.5115
  335TMC3     O 5030   3.795   0.957   0.042 -0.3645  0.1721  0.2906
  335TMC3     H 5031   3.803   0.941  17.504 -0.0354  0.4581  0.4531
  335TMC3    H1 5032   4.148   0.789   0.009  0.8050 -0.1421 -0.7329
  335TMC3    H2 5033   4.110   0.769  17.280  2.7705  1.4970  1.3022
  335TMC3    C7 5034   4.282   0.756  17.483 -0.0425 -0.0044  0.0317
  335TMC3    C8 5035   3.845   0.796  17.295 -0.9796 -0.3347 -0.0459
  335TMC3    O1 5036   4.309   0.669  17.394 -0.1125 -0.1946  0.3289
  335TMC3    O2 5037   3.731   0.763  17.334 -0.0143  0.5103  0.1180
  336MPD2     C 5038   3.827   3.440  16.448  0.2444  0.1896 -0.2453
  336MPD2    C1 5039   3.777   3.360  16.351  0.7907  0.3185  0.4172
  336MPD2    C2 5040   3.776   3.219  16.361  0.2431 -0.2489 -0.3257
  336MPD2    C3 5041   3.827   3.164  16.475 -0.2804 -0.4026 -0.4966
  336MPD2    C4 5042   3.890   3.252  16.572  0.0988  0.5453 -0.6579
  336MPD2    C5 5043   3.886   3.388  16.557  0.7255  0.2126  0.6336
  336MPD2     H 5044   3.732   3.155  16.285 -2.6554  1.6522 -0.2437
  336MPD2    H1 5045   3.940   3.210  16.659  2.4028  1.0771 -1.7153
  336MPD2    H2 5046   3.835   3.548  16.443  1.9302  0.0512 -0.4798
  336MPD2    H3 5047   3.947   3.448  16.624 -0.8645  3.3569 -0.7767
  336MPD2     N 5048   3.827   3.025  16.499 -0.2426  0.6187  0.0020
  336MPD2    H5 5049   3.879   2.993  16.580  0.0514 -1.9105 -1.1856
  336MPD2    N1 5050   3.726   3.411  16.228  0.3602 -0.1553  0.2905
  336MPD2    H7 5051   3.691   3.338  16.167  1.4280  0.4146 -1.0086
  337TMC3    C1 5052   3.672   3.560  16.055  0.9515  0.8616 -0.3123
  337TMC3    C2 5053   3.535   3.532  16.052 -0.1898 -0.5504  0.1485
  337TMC3    C3 5054   3.452   3.609  15.968  0.3047 -0.1594 -0.3556
  337TMC3    C4 5055   3.723   3.663  15.983 -0.0601  1.0027 -0.1792
  337TMC3    C5 5056   3.641   3.728  15.898  0.8789 -0.0726 -1.1294
  337TMC3    C6 5057   3.503   3.708  15.891 -0.3233 -0.5433  0.4361
  337TMC3     C 5058   3.744   3.536  16.175 -0.3917  0.5456 -0.1779
  337TMC3     O 5059   3.798   3.636  16.219 -0.8070 -0.2051 -0.8743
  337TMC3     H 5060   3.489   3.470  16.128 -2.0222 -0.5661 -0.9760
  337TMC3    H1 5061   3.830   3.681  15.981  0.1892 -0.6081 -0.8576
  337TMC3    H2 5062   3.443   3.775  15.830  1.0723 -0.4906 -0.8561
  337TMC3    C7 5063   3.705   3.852  15.855  0.8454 -0.6801 -1.1003
  337TMC3    C8 5064   3.312   3.590  15.983 -0.6740  0.1131 -0.1194
  337TMC3    O1 5065   3.632   3.945  15.859 -0.1874 -0.1670  0.5901
  337TMC3    O2 5066   3.274   3.529  16.083  0.5741 -0.2435  0.3902
  338MPD2     C 5067   4.010   2.643   1.033  0.0231 -0.4577 -0.2264
  338MPD2    C1 5068   3.966   2.675   0.911 -0.3599 -0.0023 -0.0848
  338MPD2    C2 5069   3.876   2.773   0.905  0.1326  1.0092 -0.0644
  338MPD2    C3 5070   3.842   2.853   1.015 -0.1439  0.3143 -0.3130
  338MPD2    C4 5071   3.893   2.814   1.141  0.3544  0.1196 -0.4452
  338MPD2    C5 5072   3.983   2.711   1.144  0.7284 -0.2630 -0.0906
  338MPD2     H 5073   3.831   2.797   0.809  1.5134  0.9535 -0.7299
  338MPD2    H1 5074   3.873   2.872   1.230 -0.7322 -1.1620  0.1400
  338MPD2    H2 5075   4.072   2.556   1.047  1.1828  0.6339  1.4909
  338MPD2    H3 5076   4.010   2.686   1.246 -1.3791 -0.1134  0.5088
  338MPD2     N 5077   3.756   2.967   1.000 -0.0159  0.2620  0.0183
  338MPD2    H5 5078   3.714   2.986   0.910  4.0312 -0.4572 -1.9922
  338MPD2    N1 5079   3.994   2.606   0.792  0.3028  0.7660  0.5313
  338MPD2    H7 5080   3.946   2.639   0.709 -0.4492 -0.2966  0.5471
  339TMC3    C1 5081   3.628   3.152   1.040 -0.7045 -0.1358 -0.3876
  339TMC3    C2 5082   3.550   3.225   1.127  0.6477 -0.4275 -0.4144
  339TMC3    C3 5083   3.456   3.304   1.068 -0.0846 -0.0052  0.4403
  339TMC3    C4 5084   3.605   3.160   0.906 -0.0033  0.1337 -0.0430
  339TMC3    C5 5085   3.513   3.241   0.845 -0.1150 -0.0407  0.2620
  339TMC3    C6 5086   3.428   3.304   0.933  0.0644 -0.2912  0.2897
  339TMC3     C 5087   3.723   3.054   1.102  0.4943  0.1558  0.3249
  339TMC3     O 5088   3.744   3.065   1.221  0.5075  0.5667 -0.1556
  339TMC3     H 5089   3.573   3.219   1.233  1.3755 -3.5579 -0.7619
  339TMC3    H1 5090   3.669   3.109   0.836  0.6605  0.9757 -0.0529
  339TMC3    H2 5091   3.368   3.383   0.890 -1.5473 -1.7234 -0.1150
  339TMC3    C7 5092   3.526   3.290   0.712  0.4377  1.5349 -0.1578
  339TMC3    C8 5093   3.346   3.366   1.147 -0.0089  0.3419 -0.1607
  339TMC3    O1 5094   3.445   3.373   0.675 -0.9325 -0.4773 -0.0831
  339TMC3    O2 5095   3.281   3.454   1.099 -0.2632 -0.1408  0.5019
  340MPD2     C 5096   0.220   1.078   8.575 -0.3425  0.3295 -0.9006
  340MPD2    C1 5097   0.242   0.948   8.529  0.3684 -0.4547  0.3028
  340MPD2    C2 5098   0.314   0.862   8.608  0.1588 -0.0322  0.3544
  340MPD2    C3 5099   0.391   0.918   8.708 -0.7542  0.2112 -0.1868
  340MPD2    C4 5100   0.379   1.048   8.741 -0.5565 -0.5569  0.3222
  340MPD2    C5 5101   0.288   1.133   8.680 -0.1622  0.5583  0.0669
  340MPD2     H 5102   0.317   0.756   8.583 -0.7798  0.1156 -0.4079
  340MPD2    H1 5103   0.442   1.086   8.821 -0.8827  1.5916 -0.4238
  340MPD2    H2 5104   0.166   1.147   8.510 -0.2222 -0.4937 -1.8732
  340MPD2    H3 5105   0.271   1.234   8.714  0.3495  0.4333  0.6784
  340MPD2     N 5106   0.493   0.842   8.765  0.0067 -0.1892  0.2611
  340MPD2    H5 5107   0.561   0.890   8.823  0.1190 -1.5032  1.1892
  340MPD2    N1 5108   0.170   0.907   8.411  0.4541  0.9060  0.1975
  340MPD2    H7 5109   0.084   0.955   8.388 -0.3407 -0.0387  1.1739
  341TMC3    C1 5110   0.328   0.749   8.326  0.2434  0.4092 -0.4229
  341TMC3    C2 5111   0.341   0.610   8.319  0.3395  0.1475 -0.0154
  341TMC3    C3 5112   0.462   0.550   8.326  0.7464  0.2503 -0.1084
  341TMC3    C4 5113   0.434   0.821   8.328  0.2389 -0.6685  0.4997
  341TMC3    C5 5114   0.559   0.762   8.338 -0.0297 -0.2641 -0.0878
  341TMC3    C6 5115   0.575   0.628   8.331  0.3214  0.1637  0.1452
  341TMC3     C 5116   0.191   0.791   8.347 -0.6030 -0.3397  0.1257
  341TMC3     O 5117   0.108   0.724   8.288  0.3440 -0.3908 -0.2741
  341TMC3     H 5118   0.250   0.550   8.327 -0.1816  1.1304  1.4314
  341TMC3    H1 5119   0.418   0.928   8.329  1.5165 -0.4787  0.2589
  341TMC3    H2 5120   0.678   0.594   8.327 -0.3640 -1.7176 -2.0932
  341TMC3    C7 5121   0.688   0.835   8.355  0.0633 -0.4124  0.4331
  341TMC3    C8 5122   0.466   0.425   8.399 -0.5079  0.3799 -0.1530
  341TMC3    O1 5123   0.790   0.777   8.393  0.2383 -0.4041 -0.3936
  341TMC3    O2 5124   0.360   0.363   8.422 -0.0329  0.3898  0.2768
  342MPD2     C 5125   1.888   3.566  17.067 -0.0178  0.3849 -0.0969
  342MPD2    C1 5126   1.918   3.559  17.199 -0.1034 -0.1675  0.1950
  342MPD2    C2 5127   1.891   3.675  17.280 -0.3059  0.2818  0.3761
  342MPD2    C3 5128   1.832   3.787  17.227 -0.0578  0.0629 -0.2371
  342MPD2    C4 5129   1.801   3.783  17.093  0.0740 -0.7669 -0.0162
  342MPD2    C5 5130   1.830   3.678  17.013 -0.4631 -0.3106 -0.1163
  342MPD2     H 5131   1.933   3.680  17.379 -1.0760  1.5834  0.6405
  342MPD2    H1 5132   1.762   3.874  17.048  0.1811 -1.8083 -2.2075
  342MPD2    H2 5133   1.906   3.482  17.001 -0.1511  0.1041  0.2210
  342MPD2    H3 5134   1.817   3.677  16.906  1.3248  0.3417 -0.3377
  342MPD2     N 5135   1.808   3.910  17.297 -0.4145 -0.0873 -0.5559
  342MPD2    H5 5136   1.771   3.987  17.243  0.9201  0.2447 -1.0108
  342MPD2    N1 5137   1.968   3.441  17.261 -0.7984  0.1910 -0.1829
  342MPD2    H7 5138   2.000   3.446  17.357 -1.2407 -1.9656  0.0904
  343TMC3    C1 5139   2.032   3.222  17.298 -0.0778 -0.8227  0.0734
  343TMC3    C2 5140   2.155   3.257  17.350 -0.1007  0.3650 -0.1263
  343TMC3    C3 5141   2.255   3.169  17.361 -0.0550  0.3960 -0.1185
  343TMC3    C4 5142   2.024   3.097  17.253  0.1531  0.2550  0.6308
  343TMC3    C5 5143   2.132   3.010  17.262 -0.3539  0.1542  0.3912
  343TMC3    C6 5144   2.250   3.036  17.324  0.1380 -0.4545  0.0215
  343TMC3     C 5145   1.979   3.318  17.203 -0.5636 -0.4043 -0.0962
  343TMC3     O 5146   1.949   3.275  17.091  0.5982  0.5957 -0.0526
  343TMC3     H 5147   2.184   3.361  17.361 -2.3260  1.1239 -1.4668
  343TMC3    H1 5148   1.935   3.067  17.199  0.6176 -0.4073  0.2354
  343TMC3    H2 5149   2.334   2.967  17.325  1.9045  1.7290  1.5474
  343TMC3    C7 5150   2.084   2.873  17.274 -0.0993  0.7523  0.8788
  343TMC3    C8 5151   2.390   3.226  17.375  0.4855  0.8964 -0.2812
  343TMC3    O1 5152   2.022   2.833  17.178  0.0777 -0.1685 -0.6163
  343TMC3    O2 5153   2.407   3.325  17.442 -0.4035  0.0446 -0.1147
  344MPD2     C 5154   3.189   3.144  10.801 -0.8121  0.3849 -0.6954
  344MPD2    C1 5155   3.146   3.076  10.692  0.0796  0.2588  0.0836
  344MPD2    C2 5156   3.145   3.145  10.573  0.0272 -0.4331 -0.1055
  344MPD2    C3 5157   3.203   3.271  10.558  0.6681  0.3246  0.1902
  344MPD2    C4 5158   3.250   3.332  10.676 -0.9307 -0.0203  0.1026
  344MPD2    C5 5159   3.244   3.266  10.796 -0.3626  0.1106  0.1681
  344MPD2     H 5160   3.101   3.099  10.486 -2.3143 -1.4405  1.6186
  344MPD2    H1 5161   3.286   3.435  10.674 -0.6390 -0.0985  1.0193
  344MPD2    H2 5162   3.192   3.095  10.898  2.2236  0.5970 -0.6741
  344MPD2    H3 5163   3.291   3.312  10.882 -1.0525  0.5175  0.3275
  344MPD2     N 5164   3.209   3.350  10.440 -0.0895  0.6969 -0.5854
  344MPD2    H5 5165   3.247   3.444  10.451  0.8404  0.5427 -2.4829
  344MPD2    N1 5166   3.074   2.956  10.695  0.6040  0.0625 -0.0472
  344MPD2    H7 5167   3.043   2.919  10.606  0.9652  0.0058 -0.1481
  345TMC3    C1 5168   3.158   3.444  10.234 -0.4526 -0.2265  0.3397
  345TMC3    C2 5169   3.268   3.525  10.241  0.0903 -0.8496 -0.2785
  345TMC3    C3 5170   3.266   3.645  10.178 -0.4858  0.4679  0.4973
  345TMC3    C4 5171   3.048   3.487  10.167 -0.5196  0.1330  0.1183
  345TMC3    C5 5172   3.053   3.607  10.102  0.1200  0.1786 -0.6949
  345TMC3    C6 5173   3.164   3.687  10.100 -0.1589  0.8366  0.1009
  345TMC3     C 5174   3.152   3.326  10.313  0.5962 -0.1444  0.3824
  345TMC3     O 5175   3.081   3.233  10.281 -0.3956  0.0243 -0.1158
  345TMC3     H 5176   3.353   3.487  10.295  0.8412  0.0305 -0.8355
  345TMC3    H1 5177   2.951   3.446  10.191 -1.4062  1.9175 -0.3995
  345TMC3    H2 5178   3.156   3.780  10.045 -0.6596 -0.1572 -1.4896
  345TMC3    C7 5179   2.933   3.674  10.076 -0.0770 -0.3258  0.1816
  345TMC3    C8 5180   3.375   3.736  10.210 -1.1560 -0.4221 -0.1163
  345TMC3    O1 5181   2.937   3.798  10.062 -0.2563 -0.6351  0.3251
  345TMC3    O2 5182   3.469   3.685  10.272 -0.3151  0.2218  0.0264
  346MPD2     C 5183   2.700   0.598  14.428 -0.1902  0.7395 -0.1968
  346MPD2    C1 5184   2.759   0.482  14.377 -0.2109  0.0184 -0.3623
  346MPD2    C2 5185   2.821   0.401  14.470  0.4767 -0.0225 -0.1702
  346MPD2    C3 5186   2.832   0.433  14.610 -0.3546  0.9348  0.2736
  346MPD2    C4 5187   2.760   0.542  14.653  0.2481  0.0745 -0.0004
  346MPD2    C5 5188   2.699   0.623  14.561 -0.2490  0.2449  0.0709
  346MPD2     H 5189   2.854   0.300  14.446  0.7824 -0.2985  1.4167
  346MPD2    H1 5190   2.748   0.568  14.758  1.0434  0.3961  0.0121
  346MPD2    H2 5191   2.643   0.672  14.373 -2.3179  1.2116  2.6405
  346MPD2    H3 5192   2.652   0.715  14.593 -1.4345 -0.3384  0.0046
  346MPD2     N 5193   2.898   0.343  14.695 -0.0883 -0.3320 -0.3971
  346MPD2    H5 5194   2.919   0.255  14.650 -1.4069 -0.4845 -0.7237
  346MPD2    N1 5195   2.761   0.439  14.239  0.5683 -0.4654  0.0498
  346MPD2    H7 5196   2.803   0.350  14.218 -2.4904 -1.7096 -0.8939
  347TMC3    C1 5197   2.954   0.233  14.897 -0.2133 -0.0881  0.2819
  347TMC3    C2 5198   3.002   0.123  14.821 -0.0989  0.0764  0.3459
  347TMC3    C3 5199   3.024   0.009  14.900 -0.9700  0.0018 -0.3108
  347TMC3    C4 5200   2.949   0.229  15.034 -0.2913  0.2606 -0.2219
  347TMC3    C5 5201   2.956   0.115  15.099 -0.0321 -0.1556 -0.2869
  347TMC3    C6 5202   3.004   0.004  15.038 -0.3249 -0.1670 -0.1436
  347TMC3     C 5203   2.902   0.355  14.832 -0.8791 -0.2804  0.8163
  347TMC3     O 5204   2.868   0.443  14.909 -0.1768 -0.0364 -0.4932
  347TMC3     H 5205   3.018   0.122  14.713  1.4734  0.7952  0.5776
  347TMC3    H1 5206   2.937   0.330  15.074  1.9142  0.4357 -0.0052
  347TMC3    H2 5207   3.015   4.644  15.107 -0.5939 -0.3151 -0.2782
  347TMC3    C7 5208   2.946   0.113  15.249 -0.1505  0.1804  0.1667
  347TMC3    C8 5209   3.112   4.642  14.839  0.5271 -0.0736  0.4317
  347TMC3    O1 5210   2.936   0.003  15.301 -0.2331  0.5657  0.7616
  347TMC3    O2 5211   3.088   4.606  14.723  0.4199  0.3934  0.2634
  348MPD2     C 5212   1.384   4.231  12.068 -0.8185 -0.0737  0.7115
  348MPD2    C1 5213   1.492   4.294  12.025  0.0837 -0.0880  0.0682
  348MPD2    C2 5214   1.483   4.391  11.923 -0.1070  0.3190  0.4000
  348MPD2    C3 5215   1.365   4.423  11.862  0.6201  0.8215  0.1599
  348MPD2    C4 5216   1.252   4.348  11.896 -0.4967  0.5492 -0.0198
  348MPD2    C5 5217   1.264   4.255  12.003  0.2626 -0.7005  0.6067
  348MPD2     H 5218   1.575   4.436  11.890  0.0095  1.0857  1.7440
  348MPD2    H1 5219   1.153   4.354  11.852 -0.3140  0.9820 -0.3663
  348MPD2    H2 5220   1.383   4.153  12.144  0.2808  1.6201  2.4502
  348MPD2    H3 5221   1.182   4.191  12.032 -0.6763  0.7726  1.1963
  348MPD2     N 5222   1.367   4.517  11.756  0.0085  0.2055  0.3419
  348MPD2    H5 5223   1.445   4.582  11.751 -0.3387  0.5494 -0.6885
  348MPD2    N1 5224   1.616   4.280  12.088  0.2722 -0.2756 -0.2970
  348MPD2    H7 5225   1.690   4.334  12.044 -0.1702 -0.5584 -1.3896
  349TMC3    C1 5226   1.784   4.193  12.225  0.2544 -0.4264 -0.0203
  349TMC3    C2 5227   1.835   4.066  12.251 -0.6783 -0.5050  0.6670
  349TMC3    C3 5228   1.958   4.039  12.191  0.6767  0.0096  0.0941
  349TMC3    C4 5229   1.859   4.292  12.165  0.2732 -0.3084 -0.4822
  349TMC3    C5 5230   1.970   4.257  12.098  0.3696 -0.3940 -0.6976
  349TMC3    C6 5231   2.026   4.132  12.115  0.2464 -0.5039  0.5501
  349TMC3     C 5232   1.642   4.190  12.185  0.3642 -1.2563 -0.1991
  349TMC3     O 5233   1.570   4.110  12.245  0.2721 -0.0386 -0.7557
  349TMC3     H 5234   1.770   3.997  12.303 -1.3677 -0.4831 -0.1551
  349TMC3    H1 5235   1.815   4.391  12.153  0.5853 -0.1102 -0.0056
  349TMC3    H2 5236   2.120   4.107  12.068 -0.3998 -2.9326  0.5634
  349TMC3    C7 5237   1.942   4.270  11.961 -0.5532 -0.2518  0.2092
  349TMC3    C8 5238   2.009   3.900  12.216 -0.4594  0.4305  0.0690
  349TMC3    O1 5239   1.898   4.170  11.905 -0.4298  0.1609 -0.4396
  349TMC3    O2 5240   1.949   3.825  12.287  0.3676 -0.2766 -0.6646
  350MPD2     C 5241   0.833   2.889   9.980  0.4384 -0.0449 -0.3428
  350MPD2    C1 5242   0.834   2.753   9.995 -0.1482 -0.3106  0.3580
  350MPD2    C2 5243   0.951   2.695  10.028  0.4620 -0.6174  0.2750
  350MPD2    C3 5244   1.067   2.769  10.027  0.4471 -0.4788  0.3457
  350MPD2    C4 5245   1.067   2.905  10.005 -0.0843  0.2652  0.1286
  350MPD2    C5 5246   0.946   2.967   9.989  0.5624  0.8593 -0.0686
  350MPD2     H 5247   0.963   2.590  10.054  0.0497 -0.3322  1.6574
  350MPD2    H1 5248   1.156   2.966  10.007 -0.8256  1.3955 -1.3476
  350MPD2    H2 5249   0.737   2.936   9.960 -0.0248 -0.8538  0.0181
  350MPD2    H3 5250   0.944   3.075   9.981 -0.5250  0.7970 -0.6286
  350MPD2     N 5251   1.181   2.704  10.069  0.3544 -0.4102 -0.3723
  350MPD2    H5 5252   1.171   2.605  10.089  0.7018 -0.8015 -2.1318
  350MPD2    N1 5253   0.725   2.668   9.998 -0.7601  0.2457 -0.0088
  350MPD2    H7 5254   0.734   2.567   9.994  1.2362  0.4111  0.6742
  351TMC3    C1 5255   0.503   2.594  10.000  0.3019 -0.3927  0.7314
  351TMC3    C2 5256   0.546   2.483   9.942  0.6334  0.1482 -0.2951
  351TMC3    C3 5257   0.474   2.365   9.956  0.2436  0.9619  0.1798
  351TMC3    C4 5258   0.383   2.605  10.062  0.4931  0.8559 -0.3204
  351TMC3    C5 5259   0.312   2.496  10.064  0.1776 -0.1898 -0.0525
  351TMC3    C6 5260   0.349   2.367  10.018 -0.1011 -0.4294 -0.2870
  351TMC3     C 5261   0.593   2.709   9.997 -0.3421  0.4700 -0.2283
  351TMC3     O 5262   0.544   2.822  10.014 -0.9296  0.2067 -0.1442
  351TMC3     H 5263   0.636   2.478   9.881  0.0798 -1.9150 -0.9294
  351TMC3    H1 5264   0.356   2.699  10.110  1.1532  1.5567 -1.3111
  351TMC3    H2 5265   0.290   2.277  10.029  0.0422 -0.6622 -1.4586
  351TMC3    C7 5266   0.174   2.504  10.115 -0.5369 -0.4875  0.9771
  351TMC3    C8 5267   0.535   2.244   9.919 -0.1550 -0.3668  0.3473
  351TMC3    O1 5268   0.142   2.607  10.174 -0.1402  0.0477 -0.1772
  351TMC3    O2 5269   0.635   2.255   9.850  0.0171 -0.1463  0.0829
  352MPD2     C 5270   3.092   4.444   0.840  0.3626  0.7016 -0.1685
  352MPD2    C1 5271   2.987   4.497   0.909  0.0909  0.3786 -0.7394
  352MPD2    C2 5272   2.933   4.416   1.013  0.1895 -0.4325 -0.2411
  352MPD2    C3 5273   2.994   4.299   1.058  0.7661 -0.1450  0.1248
  352MPD2    C4 5274   3.095   4.252   0.987  0.0462  0.0014 -0.6104
  352MPD2    C5 5275   3.140   4.322   0.876  0.4364 -0.2744  0.9802
  352MPD2     H 5276   2.845   4.452   1.065 -1.7613 -0.8651 -3.1982
  352MPD2    H1 5277   3.148   4.160   1.005 -0.2954 -0.3639 -1.4350
  352MPD2    H2 5278   3.130   4.503   0.758 -0.0375  0.1096 -0.7814
  352MPD2    H3 5279   3.219   4.283   0.813 -1.2830 -0.0495 -1.3005
  352MPD2     N 5280   2.957   4.222   1.168 -0.5521 -0.2021  0.3068
  352MPD2    H5 5281   3.009   4.135   1.182 -0.0629  0.0849  0.2920
  352MPD2    N1 5282   2.937   4.625   0.875 -0.0103  0.3777  0.3699
  352MPD2    H7 5283   2.984   4.665   0.794 -2.3376 -0.5096 -1.4080
  353TMC3    C1 5284   2.867   4.167   1.372 -0.0079  0.1502 -0.4120
  353TMC3    C2 5285   2.967   4.077   1.395  0.4083 -0.2803 -0.2424
  353TMC3    C3 5286   2.942   3.974   1.481  0.1674 -0.2155  0.9302
  353TMC3    C4 5287   2.749   4.161   1.438  0.7267  0.3081  0.1931
  353TMC3    C5 5288   2.725   4.051   1.520 -0.0439 -0.2750 -0.9068
  353TMC3    C6 5289   2.826   3.960   1.552  0.1437  0.2612 -0.4083
  353TMC3     C 5290   2.876   4.268   1.270 -0.0091  0.2790 -0.2608
  353TMC3     O 5291   2.793   4.358   1.270 -0.0088 -0.3523  0.2931
  353TMC3     H 5292   3.064   4.091   1.349 -0.0006 -1.2074 -1.3879
  353TMC3    H1 5293   2.664   4.221   1.407 -0.2396 -0.6644  0.9228
  353TMC3    H2 5294   2.807   3.879   1.622  0.6166  0.7569  0.2891
  353TMC3    C7 5295   2.591   4.022   1.555 -0.7874  0.7620 -0.3335
  353TMC3    C8 5296   3.042   3.874   1.518  0.3713 -0.2887 -0.8229
  353TMC3    O1 5297   2.548   4.095   1.646  0.7931  0.4122 -0.2759
  353TMC3    O2 5298   3.022   3.810   1.623  0.3974 -0.3098  0.6042
  354TMC3    C1 5299   1.114   0.855  13.741 -0.3093 -0.3770  0.2259
  354TMC3    C2 5300   1.061   0.979  13.716 -0.2665 -0.0826  0.1400
  354TMC3    C3 5301   1.128   1.047  13.614 -0.3008  0.4736 -0.5684
  354TMC3    C4 5302   1.225   0.796  13.681 -0.1602  0.6428 -0.1360
  354TMC3    C5 5303   1.277   0.866  13.573 -0.0279  0.2271  0.4204
  354TMC3    C6 5304   1.243   0.997  13.561  0.5213 -0.4424  0.2658
  354TMC3     C 5305   1.065   0.787  13.864  0.2024 -0.6206 -0.2975
  354TMC3     O 5306   0.946   0.810  13.894 -0.3499 -0.1188  0.4299
  354TMC3     H 5307   0.979   1.033  13.763  0.2429  0.1208  0.7799
  354TMC3    H1 5308   1.233   0.688  13.684  1.7174  0.8400  2.5309
  354TMC3    H2 5309   1.283   1.064  13.485  0.9337  0.3737  1.2079
  354TMC3    C7 5310   1.334   0.795  13.463  0.0935  0.3325 -0.5372
  354TMC3    C8 5311   1.045   1.125  13.519 -0.3100  0.1232  0.3236
  354TMC3    O1 5312   1.416   0.706  13.482 -0.5827 -0.0411 -0.0427
  354TMC3    O2 5313   1.085   1.121  13.402  0.1981  0.4980 -0.2464
  355MPD2     C 5314   1.114   1.518  12.292 -1.2820  0.1572  0.2473
  355MPD2    C1 5315   1.154   1.524  12.161 -0.2663  0.7724  0.1033
  355MPD2    C2 5316   1.249   1.611  12.125 -1.0879  0.3368 -0.0490
  355MPD2    C3 5317   1.296   1.707  12.220  0.1029 -0.9005 -0.0554
  355MPD2    C4 5318   1.249   1.705  12.350  0.2259  0.0949  0.3173
  355MPD2    C5 5319   1.160   1.607  12.388 -0.1646  1.0838 -0.1785
  355MPD2     H 5320   1.289   1.614  12.024  1.7238  2.7290  1.1333
  355MPD2    H1 5321   1.296   1.775  12.418 -0.3126  0.1003  0.6844
  355MPD2    H2 5322   1.047   1.438  12.322 -1.0110  0.1080  0.7107
  355MPD2    H3 5323   1.119   1.599  12.488 -1.3413 -3.7416 -1.0264
  355MPD2     N 5324   1.395   1.804  12.192  0.5910 -0.3369 -0.1464
  355MPD2    H5 5325   1.422   1.865  12.268  0.8306  1.0180 -1.3321
  355MPD2    N1 5326   1.097   1.427  12.081  0.2484 -0.7568 -0.1604
  355MPD2    H7 5327   1.065   1.343  12.129 -0.0136 -0.0775  0.8429
  356TMC3    C1 5328   1.524   1.954  12.059 -0.5579  0.4786 -0.0187
  356TMC3    C2 5329   1.557   1.992  11.936  0.1480  0.2196 -0.1154
  356TMC3    C3 5330   1.658   2.081  11.923 -0.9018  0.3807  0.8096
  356TMC3    C4 5331   1.596   1.995  12.172  0.4913  0.5764  0.5643
  356TMC3    C5 5332   1.695   2.086  12.147  0.6763 -0.1114  1.0542
  356TMC3    C6 5333   1.723   2.128  12.026 -0.1855 -0.2047 -0.1759
  356TMC3     C 5334   1.437   1.837  12.067  0.6530  0.4911 -0.7360
  356TMC3     O 5335   1.404   1.787  11.966  0.7119 -0.2085 -0.0169
  356TMC3     H 5336   1.507   1.959  11.846 -0.9111  0.7602  0.2682
  356TMC3    H1 5337   1.580   1.958  12.273  0.5488  0.1308  0.4123
  356TMC3    H2 5338   1.816   2.181  12.010 -0.0559  0.0601  1.5492
  356TMC3    C7 5339   1.756   2.126  12.266  0.4682 -0.0363  0.9959
  356TMC3    C8 5340   1.686   2.137  11.790 -0.9280 -0.3859 -0.2870
  356TMC3    O1 5341   1.766   2.051  12.363 -0.1047  0.0742 -0.5612
  356TMC3    O2 5342   1.660   2.074  11.688  0.6388 -0.8776 -0.0736
  357MPD2     C 5343   0.703   1.738   1.103  0.0914  0.1734  0.0969
  357MPD2    C1 5344   0.745   1.610   1.150  0.8076  0.0768 -0.4944
  357MPD2    C2 5345   0.646   1.528   1.208 -0.2361 -0.6650  0.5668
  357MPD2    C3 5346   0.513   1.576   1.215  0.3542  0.2672 -0.0609
  357MPD2    C4 5347   0.479   1.703   1.175  0.0477  0.6969 -0.1311
  357MPD2    C5 5348   0.572   1.775   1.114 -0.5655  0.2107  0.8488
  357MPD2     H 5349   0.673   1.433   1.252 -0.3599 -0.9483  0.0364
  357MPD2    H1 5350   0.374   1.732   1.173  0.2380  1.4842  1.4758
  357MPD2    H2 5351   0.767   1.807   1.049  0.2392 -0.9465 -1.1592
  357MPD2    H3 5352   0.538   1.872   1.080 -0.3729 -0.4046 -1.0953
  357MPD2     N 5353   0.405   1.496   1.262 -0.6122 -0.2026  0.0933
  357MPD2    H5 5354   0.316   1.542   1.276 -0.0795  1.5196 -2.2382
  357MPD2    N1 5355   0.872   1.569   1.118 -0.1179 -0.3195 -0.4600
  357MPD2    H7 5356   0.917   1.629   1.049 -0.2082 -0.4148 -0.6017
  358TMC3    C1 5357   1.060   1.437   1.126 -0.1729 -0.7097 -0.6269
  358TMC3    C2 5358   1.070   1.379   1.006 -0.0184 -0.1891  0.0278
  358TMC3    C3 5359   1.187   1.325   0.968 -0.1011 -0.3386  0.7471
  358TMC3    C4 5360   1.151   1.419   1.229 -0.4096 -0.0723  0.8661
  358TMC3    C5 5361   1.265   1.342   1.196 -0.2709  0.7424  0.3902
  358TMC3    C6 5362   1.287   1.309   1.060  0.4463 -0.4377  0.1593
  358TMC3     C 5363   0.931   1.458   1.177 -0.2602  0.0118  0.1825
  358TMC3     O 5364   0.898   1.396   1.277 -0.6070 -0.1440  0.7655
  358TMC3     H 5365   0.981   1.373   0.944  0.4274 -0.6156 -0.5665
  358TMC3    H1 5366   1.144   1.471   1.324  0.0664 -2.6901  2.3510
  358TMC3    H2 5367   1.371   1.246   1.034  0.5077  0.9270 -3.0392
  358TMC3    C7 5368   1.382   1.352   1.289  0.0430  0.5002 -0.2758
  358TMC3    C8 5369   1.188   1.257   0.844  0.7327 -1.0995 -0.4623
  358TMC3    O1 5370   1.367   1.440   1.374  0.1298  0.4745  0.1862
  358TMC3    O2 5371   1.288   1.253   0.776  0.3504  0.0520 -0.6671
  359MPD2     C 5372   0.728   0.423  12.322  0.3532  0.3843 -0.2771
  359MPD2    C1 5373   0.780   0.306  12.367  0.1633  1.1677 -0.1549
  359MPD2    C2 5374   0.808   0.288  12.501 -0.3053  0.0551 -0.6816
  359MPD2    C3 5375   0.774   0.385  12.589  0.9189 -0.0701  0.0886
  359MPD2    C4 5376   0.704   0.497  12.550  0.1170  1.2086  0.1242
  359MPD2    C5 5377   0.693   0.519  12.415 -0.9801 -0.2466  0.2268
  359MPD2     H 5378   0.834   0.188  12.535  1.5868  1.4373  1.8262
  359MPD2    H1 5379   0.658   0.574  12.609 -2.1150  0.3985 -0.5756
  359MPD2    H2 5380   0.719   0.443  12.216  2.1457  0.4440 -0.4206
  359MPD2    H3 5381   0.660   0.617  12.384 -0.2929 -0.6470 -1.7381
  359MPD2     N 5382   0.768   0.354  12.726 -0.2236 -0.0326  0.3477
  359MPD2    H5 5383   0.699   0.407  12.778 -0.2537 -1.5988  1.8958
  359MPD2    N1 5384   0.810   0.200  12.288 -0.1249  1.1604  0.4981
  359MPD2    H7 5385   0.826   0.112  12.335  1.3374  1.1155 -0.0810
  360TMC3    C1 5386   0.834   0.062  12.103 -0.8604 -0.3829  0.4180
  360TMC3    C2 5387   0.935   4.721  12.168 -0.0453 -0.3010  0.3980
  360TMC3    C3 5388   1.022   4.649  12.091  0.0756 -0.2592 -0.3869
  360TMC3    C4 5389   0.806   0.034  11.972 -0.6214  0.0236 -0.6126
  360TMC3    C5 5390   0.885   4.677  11.903  0.6636  0.4542  0.3851
  360TMC3    C6 5391   0.995   4.626  11.959  0.6484  0.0362  0.3764
  360TMC3     C 5392   0.798   0.195  12.154 -1.1458 -0.6107  0.1545
  360TMC3     O 5393   0.762   0.277  12.075 -0.2480  0.5065 -0.1572
  360TMC3     H 5394   0.969   0.015  12.269  0.1368  0.3779  0.2179
  360TMC3    H1 5395   0.735   0.101  11.925 -0.1851  1.2202  0.4432
  360TMC3    H2 5396   1.064   4.555  11.915  1.4847  2.0338 -1.5320
  360TMC3    C7 5397   0.894   4.691  11.760 -0.2173  0.3083  0.2616
  360TMC3    C8 5398   1.154   4.626  12.157 -0.4531  0.7381  0.2027
  360TMC3    O1 5399   1.006   4.680  11.708  0.0968  0.2618 -0.9180
  360TMC3    O2 5400   1.146   4.579  12.271  0.0866 -0.3553  0.1790
  361MPD2     C 5401   2.583   3.896  16.799 -0.4389  0.0658  0.3534
  361MPD2    C1 5402   2.621   4.000  16.876  0.6358  0.9756  0.7159
  361MPD2    C2 5403   2.751   4.002  16.928  0.3132  0.4607 -0.5511
  361MPD2    C3 5404   2.834   3.900  16.888  0.2028  0.6787  0.6330
  361MPD2    C4 5405   2.795   3.801  16.802 -0.2838  0.6817  0.2239
  361MPD2    C5 5406   2.670   3.792  16.754  0.0772  0.0999  0.3874
  361MPD2     H 5407   2.784   4.084  16.991 -0.7317 -0.2267  0.9012
  361MPD2    H1 5408   2.858   3.718  16.771  0.7042  0.7186  2.1016
  361MPD2    H2 5409   2.480   3.891  16.766 -0.0739 -0.5586 -0.6975
  361MPD2    H3 5410   2.638   3.716  16.684  2.5565 -1.2097  0.6713
  361MPD2     N 5411   2.970   3.892  16.933  0.0653  0.1377  0.4184
  361MPD2    H5 5412   3.019   3.809  16.901 -0.5050 -0.2298  0.4786
  361MPD2    N1 5413   2.543   4.112  16.912  0.0823  0.4516 -0.1531
  361MPD2    H7 5414   2.577   4.193  16.963 -0.8934  1.7036 -1.4838
  362TMC3    C1 5415   2.368   4.257  16.892 -0.3008 -0.3458  0.3407
  362TMC3    C2 5416   2.331   4.274  17.021  0.4518 -0.2877 -0.5535
  362TMC3    C3 5417   2.234   4.359  17.059 -0.7085 -0.7470  0.5015
  362TMC3    C4 5418   2.299   4.315  16.795  0.3249 -0.0998 -0.1041
  362TMC3    C5 5419   2.200   4.403  16.830  0.1801  0.2292  0.3249
  362TMC3    C6 5420   2.170   4.433  16.960  0.4599  0.1482  0.3343
  362TMC3     C 5421   2.422   4.136  16.847 -0.7836 -0.4001 -0.4422
  362TMC3     O 5422   2.379   4.094  16.741 -0.0695  0.2324 -0.1458
  362TMC3     H 5423   2.371   4.209  17.098  0.3837  2.5278  1.8584
  362TMC3    H1 5424   2.327   4.314  16.691 -0.1888  1.5055 -0.2695
  362TMC3    H2 5425   2.115   4.525  16.977  0.4018  0.7070 -2.7082
  362TMC3    C7 5426   2.160   4.493  16.725  0.2276  0.0088  0.4451
  362TMC3    C8 5427   2.205   4.374  17.203  0.3857 -0.0203 -0.2245
  362TMC3    O1 5428   2.172   4.611  16.750  0.6090 -0.3466 -0.0501
  362TMC3    O2 5429   2.276   4.309  17.286 -0.2212  0.0437  0.0350
  363TMC3    C1 5430   1.387   2.263   9.821 -0.2530  0.4194 -0.5562
  363TMC3    C2 5431   1.335   2.144   9.865  0.2665  0.4637  0.0769
  363TMC3    C3 5432   1.430   2.047   9.894  0.2449 -0.1458 -0.3611
  363TMC3    C4 5433   1.522   2.288   9.815  0.2203 -1.2503  0.3780
  363TMC3    C5 5434   1.614   2.193   9.854  0.3391 -0.5918  0.7066
  363TMC3    C6 5435   1.567   2.069   9.902 -1.3757  0.6436 -0.0369
  363TMC3     C 5436   1.297   2.366   9.774  0.4080  0.4644 -0.6394
  363TMC3     O 5437   1.360   2.467   9.738  0.7807  0.1657  0.8255
  363TMC3     H 5438   1.229   2.121   9.863  0.1528  1.0195 -0.5004
  363TMC3    H1 5439   1.562   2.379   9.772  1.4993 -1.5714  0.8891
  363TMC3    H2 5440   1.641   1.993   9.922 -0.5331  1.0480 -1.5554
  363TMC3    C7 5441   1.755   2.221   9.836 -0.6139 -0.5820  0.0562
  363TMC3    C8 5442   1.375   1.926   9.952  0.1765  0.7941 -0.1539
  363TMC3    O1 5443   1.830   2.128   9.866  0.0930  0.3942 -0.3201
  363TMC3    O2 5444   1.255   1.930   9.986 -0.1441 -0.0431  0.4789
  364MPD2     C 5445   0.239   1.223   9.827 -0.7197 -0.4707  0.6538
  364MPD2    C1 5446   0.233   1.288   9.950  0.1360  0.2638 -0.1859
  364MPD2    C2 5447   0.269   1.222  10.064  0.2683 -0.0393  0.2404
  364MPD2    C3 5448   0.308   1.091  10.060 -0.4160 -0.2922  0.3775
  364MPD2    C4 5449   0.310   1.030   9.938 -0.5446  0.1126 -0.3618
  364MPD2    C5 5450   0.270   1.092   9.823  0.1973 -0.0488  0.6153
  364MPD2     H 5451   0.270   1.278  10.157 -2.0403 -0.9848  0.8334
  364MPD2    H1 5452   0.331   0.925   9.927  0.5337 -0.0555  3.1752
  364MPD2    H2 5453   0.218   1.280   9.737  2.0017 -1.6249 -0.7120
  364MPD2    H3 5454   0.273   1.045   9.726 -1.1539  2.5832 -0.7109
  364MPD2     N 5455   0.345   1.011  10.170  0.5562 -0.1070  0.3490
  364MPD2    H5 5456   0.372   0.915  10.153 -2.7167 -0.9257 -0.2392
  364MPD2    N1 5457   0.215   1.426   9.935  0.3302 -0.4561 -0.9798
  364MPD2    H7 5458   0.195   1.462   9.843  1.0554 -0.4841 -1.1480
  365TMC3    C1 5459   0.240   1.660   9.987 -0.6057  0.2018  0.2707
  365TMC3    C2 5460   0.291   1.697   9.870 -0.8347 -0.7115  0.5284
  365TMC3    C3 5461   0.277   1.826   9.831 -0.6313 -0.1902 -0.0593
  365TMC3    C4 5462   0.202   1.751  10.082  0.2618 -0.0648 -0.5886
  365TMC3    C5 5463   0.204   1.882  10.042 -0.5954  0.0972 -0.5669
  365TMC3    C6 5464   0.227   1.920   9.911  0.4870 -0.1589  0.0097
  365TMC3     C 5465   0.245   1.519  10.028 -0.1481  0.2759  0.4385
  365TMC3     O 5466   0.271   1.505  10.144  0.1005 -0.2003  0.4079
  365TMC3     H 5467   0.318   1.616   9.804 -1.6815  1.1936 -2.1804
  365TMC3    H1 5468   0.170   1.720  10.180 -1.0950  1.3810 -0.5904
  365TMC3    H2 5469   0.213   2.024   9.883  0.1027 -0.5273 -1.1613
  365TMC3    C7 5470   0.202   1.985  10.142 -0.5111  0.1693 -0.2732
  365TMC3    C8 5471   0.333   1.860   9.701  0.1944  0.6251  0.8135
  365TMC3    O1 5472   0.192   2.102  10.103  0.5255 -0.0797  0.4093
  365TMC3    O2 5473   0.271   1.959   9.647 -0.7274  0.0513  0.6389
  366MPD2     C 5474   3.132   2.216  15.567 -0.1687 -0.3015 -0.9936
  366MPD2    C1 5475   3.243   2.293  15.548  0.2658 -0.4254  0.7790
  366MPD2    C2 5476   3.368   2.243  15.592 -0.1318 -0.3751 -0.3954
  366MPD2    C3 5477   3.377   2.120  15.648 -0.6598  0.2661 -0.1837
  366MPD2    C4 5478   3.262   2.055  15.675 -0.3930 -0.5984  0.3410
  366MPD2    C5 5479   3.137   2.103  15.645 -0.2264  0.1575 -0.0219
  366MPD2     H 5480   3.458   2.296  15.564  0.0516 -0.3653  0.2132
  366MPD2    H1 5481   3.273   1.966  15.734 -0.0229 -0.4964  0.4256
  366MPD2    H2 5482   3.038   2.232  15.516 -0.0435  1.2982 -0.7237
  366MPD2    H3 5483   3.053   2.036  15.662 -1.0172  0.8774 -1.1309
  366MPD2     N 5484   3.507   2.068  15.678  0.0256 -0.0576  0.0864
  366MPD2    H5 5485   3.588   2.127  15.658 -0.0055 -0.1843 -0.3994
  366MPD2    N1 5486   3.246   2.421  15.495  0.4616 -0.6055 -0.5037
  366MPD2    H7 5487   3.338   2.465  15.492  0.1637  0.1421  1.7684
  367TMC3    C1 5488   3.180   2.643  15.472 -0.9390 -0.2350  0.2170
  367TMC3    C2 5489   3.290   2.682  15.540 -0.2414  0.3264 -0.7999
  367TMC3    C3 5490   3.317   2.815  15.545 -0.3501 -0.5741  0.5426
  367TMC3    C4 5491   3.092   2.738  15.421  0.4540  0.0209 -0.0032
  367TMC3    C5 5492   3.129   2.868  15.428  0.3632 -0.3316  0.3487
  367TMC3    C6 5493   3.238   2.913  15.496  0.6258  0.6450 -0.4051
  367TMC3     C 5494   3.138   2.499  15.465 -0.0909  0.1643  0.4791
  367TMC3     O 5495   3.017   2.482  15.461 -0.2068  0.5339  0.0264
  367TMC3     H 5496   3.350   2.611  15.596 -1.6696 -1.3348 -1.3633
  367TMC3    H1 5497   3.002   2.709  15.368 -0.0834  2.5754 -0.4565
  367TMC3    H2 5498   3.263   3.017  15.482  0.9042  0.2910 -2.4891
  367TMC3    C7 5499   3.042   2.972  15.374 -0.3862 -0.1755 -0.4918
  367TMC3    C8 5500   3.425   2.861  15.627  0.1896 -0.1045 -0.2035
  367TMC3    O1 5501   3.061   3.090  15.411 -0.1231  0.7741 -1.0118
  367TMC3    O2 5502   3.489   2.779  15.689 -0.0922 -0.3599  0.1777
  368MPD2     C 5503   4.062   0.058  13.597  0.2955 -0.0623  0.5262
  368MPD2    C1 5504   4.104   0.177  13.552  0.0692  0.1130  0.0414
  368MPD2    C2 5505   4.228   0.222  13.593  0.0062  0.5040 -0.3726
  368MPD2    C3 5506   4.297   0.147  13.682 -0.1087 -0.0248 -0.0496
  368MPD2    C4 5507   4.251   0.026  13.730 -0.1571 -0.2736 -0.1985
  368MPD2    C5 5508   4.130   4.705  13.684 -0.7405  0.1566  0.4862
  368MPD2     H 5509   4.263   0.318  13.557 -2.8526  0.9655 -1.9238
  368MPD2    H1 5510   4.312   4.683  13.790 -0.6137 -0.9954 -0.5331
  368MPD2    H2 5511   3.969   0.018  13.558  0.7857 -1.0658  0.3893
  368MPD2    H3 5512   4.096   4.603  13.696 -0.0895  0.2166  2.8059
  368MPD2     N 5513   4.431   0.188  13.714 -0.1325 -0.2440 -0.0392
  368MPD2    H5 5514   4.484   0.120  13.768  3.1374  1.7875 -0.7539
  368MPD2    N1 5515   4.016   0.244  13.470  0.1589  0.4798  0.2379
  368MPD2    H7 5516   3.922   0.214  13.445  0.1845 -2.8686  4.2481
  369TMC3    C1 5517   3.951   0.408  13.305  0.0317  0.0388  0.0184
  369TMC3    C2 5518   3.991   0.466  13.192  0.1527 -0.9539 -0.0057
  369TMC3    C3 5519   3.896   0.483  13.091  0.6220  0.3838  0.5204
  369TMC3    C4 5520   3.814   0.391  13.322 -0.4162 -0.0693  0.1394
  369TMC3    C5 5521   3.726   0.400  13.219  0.7923  0.2071  0.1507
  369TMC3    C6 5522   3.765   0.444  13.100  0.2500  0.6033  0.8788
  369TMC3     C 5523   4.049   0.351  13.395 -0.2308  0.3642  0.4930
  369TMC3     O 5524   4.163   0.386  13.366 -0.3200  0.6131 -0.5320
  369TMC3     H 5525   4.094   0.494  13.174  0.1690 -1.4241 -0.6761
  369TMC3    H1 5526   3.782   0.361  13.421 -0.2375 -0.7754 -0.0179
  369TMC3    H2 5527   3.698   0.451  13.016  0.2025  0.1445  0.8792
  369TMC3    C7 5528   3.610   0.308  13.223 -0.1645 -0.2807  0.6211
  369TMC3    C8 5529   3.921   0.563  12.968  0.4092 -0.0576  0.6394
  369TMC3    O1 5530   3.566   0.286  13.335 -0.2178 -0.1185  0.3124
  369TMC3    O2 5531   3.837   0.574  12.878 -0.2363  0.1645  0.0793
  370TMC3    C1 5532   4.065   0.186  16.274 -0.5508  0.2025  0.2966
  370TMC3    C2 5533   4.048   0.151  16.407  0.4158 -0.5325  0.3623
  370TMC3    C3 5534   3.987   0.032  16.437 -0.2506 -0.1540  0.2639
  370TMC3    C4 5535   4.046   0.095  16.176 -0.2490 -0.2315 -0.6391
  370TMC3    C5 5536   4.007   4.691  16.215  0.4383 -0.5278  0.7444
  370TMC3    C6 5537   3.982   4.654  16.346  0.2195 -1.1804  0.1471
  370TMC3     C 5538   4.115   0.317  16.240 -0.4290 -0.1308 -0.0521
  370TMC3     O 5539   4.137   0.341  16.122 -0.4578 -0.0023  0.0837
  370TMC3     H 5540   4.068   0.221  16.487 -1.7179  0.6747 -0.1643
  370TMC3    H1 5541   4.071   0.108  16.072 -2.1069 -1.3592 -1.2210
  370TMC3    H2 5542   3.919   4.566  16.356 -1.4042  0.0212  0.5005
  370TMC3    C7 5543   4.044   4.582  16.126 -0.2104 -0.5540  0.2043
  370TMC3    C8 5544   3.949   0.001  16.573  0.0099  0.1257  0.2116
  370TMC3    O1 5545   4.036   4.598  16.007 -0.3736 -0.3032  0.0455
  370TMC3    O2 5546   3.918   4.611  16.604  0.1211  0.6387  0.4232
  371TMC3    C1 5547   0.535   3.133  15.729  0.4034 -0.2532 -0.4534
  371TMC3    C2 5548   0.467   3.133  15.849  0.7175  0.2343  0.2048
  371TMC3    C3 5549   0.406   3.248  15.885  0.1861 -0.0245  0.4473
  371TMC3    C4 5550   0.515   3.239  15.643  0.2070 -0.2447  0.6634
  371TMC3    C5 5551   0.452   3.352  15.681 -0.4618  0.3141  0.4763
  371TMC3    C6 5552   0.401   3.368  15.810 -0.6546  0.5871  0.3303
  371TMC3     C 5553   0.595   3.014  15.670 -1.2103 -0.3477 -0.2281
  371TMC3     O 5554   0.669   3.032  15.578  0.2324 -0.5322  0.2937
  371TMC3     H 5555   0.475   3.051  15.919 -1.7334 -0.2582 -0.0936
  371TMC3    H1 5556   0.565   3.232  15.547  0.3180 -0.7000  0.7538
  371TMC3    H2 5557   0.376   3.464  15.853  0.0213  1.3137 -0.8928
  371TMC3    C7 5558   0.443   3.473  15.595 -0.2318 -1.0704  0.2808
  371TMC3    C8 5559   0.320   3.234  16.004  0.3962  0.3696  0.5859
  371TMC3    O1 5560   0.347   3.547  15.611  0.6745 -0.0673 -0.1032
  371TMC3    O2 5561   0.307   3.125  16.054 -0.1161  0.6580 -0.0357
  372MPD2     C 5562   0.431   0.247  13.940 -0.7876  0.0887  0.8774
  372MPD2    C1 5563   0.513   0.140  13.906  0.9758  0.3295  0.1765
  372MPD2    C2 5564   0.466   0.010  13.883  0.8250  0.3919 -0.3224
  372MPD2    C3 5565   0.327   4.715  13.892  0.8330 -0.7337 -0.1440
  372MPD2    C4 5566   0.244   0.092  13.933  0.0839  0.1994 -0.3892
  372MPD2    C5 5567   0.295   0.217  13.948 -0.0637 -0.3363  0.4765
  372MPD2     H 5568   0.541   4.660  13.854  1.2151  0.1406  1.3756
  372MPD2    H1 5569   0.142   0.082  13.967  0.1105  0.3824 -0.2572
  372MPD2    H2 5570   0.470   0.346  13.960 -1.2063  0.6249 -1.0368
  372MPD2    H3 5571   0.230   0.297  13.982 -0.4018 -0.0095 -0.9799
  372MPD2     N 5572   0.283   4.591  13.861  0.1351  0.1306 -0.2579
  372MPD2    H5 5573   0.357   4.532  13.823 -1.4262 -1.9029 -0.1655
  372MPD2    N1 5574   0.653   0.161  13.896  0.4917  0.0896  0.6558
  372MPD2    H7 5575   0.700   0.074  13.875  0.4164  0.3203 -0.4767
  373TMC3    C1 5576   0.137   4.399  13.844 -0.2618  0.2106  0.0255
  373TMC3    C2 5577   0.033   4.337  13.905  0.4568 -0.0003  0.3100
  373TMC3    C3 5578   0.016   4.203  13.902  1.0421 -0.1850  0.5997
  373TMC3    C4 5579   0.228   4.339  13.767  0.2730  0.1193  0.0419
  373TMC3    C5 5580   0.213   4.206  13.770  0.2057  0.0614 -0.5872
  373TMC3    C6 5581   0.113   4.138  13.832 -0.7705 -0.3235  0.6585
  373TMC3     C 5582   0.158   4.540  13.887  0.3489 -0.3394 -0.0779
  373TMC3     O 5583   0.066   4.592  13.953 -0.5311 -0.3411 -0.0512
  373TMC3     H 5584   4.693   4.396  13.971  1.2249  0.5131  0.5900
  373TMC3    H1 5585   0.295   4.396  13.703  3.2258 -2.0539  1.2177
  373TMC3    H2 5586   0.107   4.031  13.821 -0.1647 -0.2300 -0.4904
  373TMC3    C7 5587   0.316   4.125  13.699  0.3248 -0.9125 -0.3399
  373TMC3    C8 5588   0.007   4.136  14.027 -0.4451 -0.2779  0.1103
  373TMC3    O1 5589   0.297   4.003  13.685 -0.0430 -0.3246  0.0266
  373TMC3    O2 5590   0.064   4.029  14.047 -0.0442 -0.3392 -0.4492
  374TMC3    C1 5591   1.214   4.354   9.370 -0.3235 -0.1366  0.6336
  374TMC3    C2 5592   1.202   4.486   9.413 -0.0288  0.5095 -0.4858
  374TMC3    C3 5593   1.092   4.522   9.495  0.1879 -0.1073  0.0178
  374TMC3    C4 5594   1.125   4.257   9.427 -0.2464  0.7163  0.6116
  374TMC3    C5 5595   1.021   4.300   9.509 -0.3949 -0.3598 -0.5437
  374TMC3    C6 5596   0.993   4.434   9.523  0.7963 -0.3102 -0.6789
  374TMC3     C 5597   1.332   4.314   9.295 -0.3994  0.0171 -0.8348
  374TMC3     O 5598   1.360   4.194   9.293 -0.1081  0.2165 -0.6637
  374TMC3     H 5599   1.286   4.551   9.389  0.8074 -0.2354  0.3901
  374TMC3    H1 5600   1.137   4.157   9.387  0.5915  1.7118 -1.6367
  374TMC3    H2 5601   0.902   4.467   9.571  0.8039 -0.4414 -0.5722
  374TMC3    C7 5602   0.969   4.211   9.611  0.3898 -0.4505 -0.6689
  374TMC3    C8 5603   1.074   4.661   9.509  0.3148  0.0382 -0.0771
  374TMC3    O1 5604   0.885   4.266   9.674  0.3827 -0.8471  0.0578
  374TMC3    O2 5605   1.139   0.021   9.444 -0.1438 -0.2321 -0.5363
  375MPD2     C 5606   0.797   0.228  17.177  0.1900 -0.5830  0.0771
  375MPD2    C1 5607   0.750   0.314  17.077 -0.2561  0.2104 -0.1062
  375MPD2    C2 5608   0.797   0.284  16.955 -0.4493 -0.0582 -0.0207
  375MPD2    C3 5609   0.882   0.176  16.924 -0.2176 -0.3621  0.1186
  375MPD2    C4 5610   0.925   0.096  17.025 -0.2003  0.4492 -0.8625
  375MPD2    C5 5611   0.887   0.127  17.155 -0.4320  0.6852 -0.2915
  375MPD2     H 5612   0.763   0.349  16.876  0.8691  1.1855  0.4334
  375MPD2    H1 5613   0.977   0.002  17.017 -0.3099  0.2178  1.2206
  375MPD2    H2 5614   0.757   0.245  17.276  1.6767 -0.1526  0.6085
  375MPD2    H3 5615   0.921   0.064  17.236  0.9529 -0.0491 -1.4542
  375MPD2     N 5616   0.945   0.149  16.796 -0.4164 -0.8389  0.2275
  375MPD2    H5 5617   1.002   0.066  16.796  1.2248  0.2988 -1.7888
  375MPD2    N1 5618   0.656   0.414  17.094  0.5935  0.0401 -0.1183
  375MPD2    H7 5619   0.627   0.466  17.011  0.3348  0.3941  0.1928
  376TMC3    C1 5620   1.008   0.167  16.567 -0.1331 -0.5961  0.2882
  376TMC3    C2 5621   1.143   0.199  16.573  0.4143 -0.4041 -0.4880
  376TMC3    C3 5622   1.222   0.171  16.464 -0.2622  0.8017 -0.3250
  376TMC3    C4 5623   0.950   0.147  16.447  0.4053 -0.8203  0.3550
  376TMC3    C5 5624   1.038   0.126  16.341 -0.8075 -0.4008 -0.1688
  376TMC3    C6 5625   1.174   0.135  16.341 -0.1141  0.2802  0.0667
  376TMC3     C 5626   0.918   0.209  16.679 -0.2152 -0.4469  1.2091
  376TMC3     O 5627   0.829   0.289  16.650  0.1673  0.3403 -0.1776
  376TMC3     H 5628   1.181   0.236  16.667 -0.7872 -0.8874  0.1791
  376TMC3    H1 5629   0.844   0.123  16.441  0.0181  0.6862  1.1243
  376TMC3    H2 5630   1.240   0.127  16.255 -0.4182  0.6170 -0.1990
  376TMC3    C7 5631   0.967   0.123  16.216 -0.2394 -0.6410 -0.0009
  376TMC3    C8 5632   1.335   0.257  16.447  0.3737  0.3682  0.2839
  376TMC3    O1 5633   0.858   0.181  16.212  0.1351  0.1199  0.2255
  376TMC3    O2 5634   1.329   0.329  16.347 -0.5977  0.0988  0.2894
  377MPD2     C 5635   3.084   0.170  12.328  0.0538  0.6206 -0.2186
  377MPD2    C1 5636   3.150   0.127  12.440 -0.2528 -0.5448 -0.8400
  377MPD2    C2 5637   3.079   0.041  12.525  0.0990  0.7646  0.5835
  377MPD2    C3 5638   2.950   0.001  12.495 -0.9880 -0.0392 -0.1098
  377MPD2    C4 5639   2.883   0.057  12.386 -0.2446  0.8654 -0.7341
  377MPD2    C5 5640   2.950   0.143  12.304 -0.1685  0.1701  0.4242
  377MPD2     H 5641   3.133   4.715  12.605 -0.8819 -1.7910 -0.3442
  377MPD2    H1 5642   2.788   0.017  12.352 -0.6693 -1.6725  3.4998
  377MPD2    H2 5643   3.138   0.240  12.264 -0.6368  0.6598 -0.7592
  377MPD2    H3 5644   2.897   0.196  12.225 -0.8187  0.0918  0.8069
  377MPD2     N 5645   2.884   4.624  12.560  0.0979 -0.5048  0.2397
  377MPD2    H5 5646   2.787   4.617  12.531  0.0167 -0.1786  0.4440
  377MPD2    N1 5647   3.287   0.158  12.457 -0.5164  0.3520 -0.7697
  377MPD2    H7 5648   3.328   0.212  12.381  0.3401 -0.7138 -1.0611
  378TMC3    C1 5649   3.671   0.303  12.432 -0.2894  0.9050  0.8041
  378TMC3    C2 5650   3.542   0.250  12.442 -1.0677  0.0764  0.3852
  378TMC3    C3 5651   3.511   0.181  12.552 -0.8479  0.4514 -0.4020
  378TMC3    C4 5652   3.762   0.290  12.536 -0.0763 -0.3486 -0.0328
  378TMC3    C5 5653   3.716   0.216  12.645  0.5875 -0.0861  0.5738
  378TMC3    C6 5654   3.593   0.157  12.651  0.2615  0.8496 -0.1358
  378TMC3     C 5655   3.701   0.390  12.317 -0.0242 -0.3925 -0.0880
  378TMC3     O 5656   3.605   0.415  12.241 -0.0210  0.3284 -0.1519
  378TMC3     H 5657   3.469   0.267  12.364 -0.2065  1.5578 -0.0992
  378TMC3    H1 5658   3.860   0.337  12.533 -0.6627  0.7895 -1.1360
  378TMC3    H2 5659   3.573   0.112  12.747  1.5002  0.5447 -0.0245
  378TMC3    C7 5660   3.791   0.204  12.767 -0.1212  0.5117  0.3816
  378TMC3    C8 5661   3.373   0.123  12.561  0.4815 -0.4070 -0.3690
  378TMC3    O1 5662   3.738   0.189  12.874  0.2293 -0.1690  0.1456
  378TMC3    O2 5663   3.339   0.080  12.674 -0.0772 -0.0077  0.5938
  379MPD2     C 5664   4.301   3.360  16.517  0.1198 -0.3472 -0.5572
  379MPD2    C1 5665   4.328   3.232  16.473  0.1239 -0.2027  0.0120
  379MPD2    C2 5666   4.441   3.167  16.519  0.0157  0.0509 -0.2884
  379MPD2    C3 5667   4.527   3.225  16.610  0.1825 -0.0004  0.7487
  379MPD2    C4 5668   4.493   3.345  16.664  0.3873  0.5445 -0.6460
  379MPD2    C5 5669   4.388   3.417  16.610 -0.6171 -0.9406 -0.4235
  379MPD2     H 5670   4.472   3.069  16.484 -0.2963 -0.4907  0.9713
  379MPD2    H1 5671   4.562   3.390  16.735 -2.4335  1.1601  1.6569
  379MPD2    H2 5672   4.214   3.418  16.487  1.5180  2.4397  0.8073
  379MPD2    H3 5673   4.369   3.518  16.645 -0.9420 -0.2948 -2.4383
  379MPD2     N 5674   4.638   3.162  16.672  0.2986  0.0893  0.2754
  379MPD2    H5 5675   4.671   3.202  16.759 -0.0801  1.8629 -0.4156
  379MPD2    N1 5676   4.239   3.167  16.380  0.5153 -0.2094  0.6157
  379MPD2    H7 5677   4.181   3.231  16.327 -1.9080 -2.1405  0.9362
  380TMC3    C1 5678   4.189   3.005  16.226  0.2999 -0.2521 -0.3427
  380TMC3    C2 5679   4.251   2.905  16.155 -1.3551 -0.1067 -0.5506
  380TMC3    C3 5680   4.207   2.878  16.030 -0.3473  0.2063 -0.0965
  380TMC3    C4 5681   4.083   3.082  16.175 -0.3205  0.3191  0.2067
  380TMC3    C5 5682   4.044   3.049  16.050  0.1391 -0.3322  1.1088
  380TMC3    C6 5683   4.103   2.948  15.977 -0.6566  0.1850 -0.2846
  380TMC3     C 5684   4.241   3.034  16.357  0.2529  0.8358 -0.2861
  380TMC3     O 5685   4.284   2.939  16.422  0.1652 -0.6996  0.6428
  380TMC3     H 5686   4.342   2.865  16.200 -1.2204 -1.5089 -2.0647
  380TMC3    H1 5687   4.039   3.169  16.222  0.9829  0.8000  0.5102
  380TMC3    H2 5688   4.066   2.936  15.876 -3.4628 -1.9136  1.0039
  380TMC3    C7 5689   3.920   3.121  16.002 -0.1318  0.5580 -0.2240
  380TMC3    C8 5690   4.295   2.811  15.936 -0.1880  0.0268  0.4562
  380TMC3    O1 5691   3.890   3.227  16.056 -0.1539 -0.4264  0.6664
  380TMC3    O2 5692   4.309   2.869  15.830 -0.1397  0.0337  0.1836
  381TMC3    C1 5693   4.021   3.955  16.610  0.3533  0.9821 -0.2799
  381TMC3    C2 5694   4.088   4.059  16.564 -0.6185 -0.3051  0.1690
  381TMC3    C3 5695   4.093   4.172  16.634 -0.2647  0.2337 -0.1113
  381TMC3    C4 5696   3.961   3.961  16.736 -0.0927 -0.0886  0.9069
  381TMC3    C5 5697   3.975   4.074  16.804 -0.8295  0.2944  0.2594
  381TMC3    C6 5698   4.039   4.187  16.751 -0.0732 -0.1777 -0.1620
  381TMC3     C 5699   4.030   3.828  16.528 -0.4897 -0.0025 -0.4230
  381TMC3     O 5700   3.958   3.737  16.561  0.0852 -0.0545  0.3600
  381TMC3     H 5701   4.121   4.058  16.461  0.0881 -0.9161  0.4042
  381TMC3    H1 5702   3.922   3.867  16.775 -0.5497 -1.4718 -2.9564
  381TMC3    H2 5703   4.065   4.269  16.817 -0.3314  0.9247 -1.4242
  381TMC3    C7 5704   3.911   4.089  16.935 -0.3008 -0.0827 -0.2435
  381TMC3    C8 5705   4.206   4.253  16.592 -0.3142  0.0925  0.0533
  381TMC3    O1 5706   3.897   3.990  17.007 -0.3978 -0.2946  0.4457
  381TMC3    O2 5707   4.290   4.200  16.527 -0.0401 -0.4763  0.6179
  382MPD2     C 5708   3.578   1.489  17.127  0.1809  0.1887  0.3141
  382MPD2    C1 5709   3.514   1.596  17.188  0.2563  1.0214  0.2423
  382MPD2    C2 5710   3.422   1.572  17.285 -0.3722  0.1211  0.1091
  382MPD2    C3 5711   3.392   1.438  17.325 -0.6180  0.3327  0.1427
  382MPD2    C4 5712   3.453   1.334  17.257 -0.0653  0.4064  0.0154
  382MPD2    C5 5713   3.545   1.362  17.160 -0.2325 -0.0698  0.4607
  382MPD2     H 5714   3.371   1.653  17.337  2.5732  1.0429  1.5512
  382MPD2    H1 5715   3.428   1.228  17.264 -0.1265  0.3003 -1.9468
  382MPD2    H2 5716   3.654   1.495  17.050 -1.0484  0.9861 -0.8408
  382MPD2    H3 5717   3.590   1.284  17.099 -0.1041 -1.5138  2.4024
  382MPD2     N 5718   3.297   1.398  17.418  0.2847  0.3508  0.2109
  382MPD2    H5 5719   3.285   1.297  17.430 -1.2027  0.3420 -1.2716
  382MPD2    N1 5720   3.532   1.730  17.143  0.0846  0.2656  0.2419
  382MPD2    H7 5721   3.474   1.798  17.190 -0.2794 -0.2481  0.5334
  383TMC3    C1 5722   3.124   1.411  17.578 -0.5196 -0.2943 -0.3490
  383TMC3    C2 5723   3.040   1.336  17.498  0.0603 -0.1127 -0.1275
  383TMC3    C3 5724   2.916   1.311  17.549 -0.3150  0.0737 -0.3224
  383TMC3    C4 5725   3.081   1.478  17.689  0.2370 -0.1979  0.5092
  383TMC3    C5 5726   2.953   1.454   0.030 -0.2924 -0.9795  0.1909
  383TMC3    C6 5727   2.870   1.369  17.657 -0.4905  0.3341 -0.7604
  383TMC3     C 5728   3.220   1.481  17.495  0.0168  0.2671  0.2941
  383TMC3     O 5729   3.231   1.600  17.523  0.8453 -0.1640  0.2124
  383TMC3     H 5730   3.074   1.290  17.406 -3.3939 -1.4631 -0.7291
  383TMC3    H1 5731   3.153   1.523   0.061  0.0152 -0.9497  1.2532
  383TMC3    H2 5732   2.773   1.334  17.691  0.7966 -2.2584  0.2580
  383TMC3    C7 5733   2.912   1.474   0.169 -0.9682  0.1943  0.3671
  383TMC3    C8 5734   2.830   1.226  17.472 -0.0218 -0.1704 -0.4211
  383TMC3    O1 5735   2.810   1.412   0.202 -0.0341  0.0476 -0.2249
  383TMC3    O2 5736   2.708   1.238  17.467 -0.2545 -0.3184  0.3896
  384MPD2     C 5737   0.267   3.074  11.957  0.8185  0.5834  0.0124
  384MPD2    C1 5738   0.290   2.986  12.061  0.4636 -0.4893 -0.3257
  384MPD2    C2 5739   0.356   2.865  12.042  0.3560 -0.6226 -0.8550
  384MPD2    C3 5740   0.420   2.834  11.914  0.4451  0.0691 -0.2198
  384MPD2    C4 5741   0.415   2.926  11.819 -0.0322  0.1297  0.6968
  384MPD2    C5 5742   0.331   3.042  11.838 -0.0565 -0.7019  0.2493
  384MPD2     H 5743   0.361   2.793  12.123  2.1579  2.2268  1.5349
  384MPD2    H1 5744   0.459   2.903  11.722 -0.7795  0.5328  0.2581
  384MPD2    H2 5745   0.224   3.172  11.970  0.9756  0.6706 -0.1328
  384MPD2    H3 5746   0.333   3.109  11.753 -0.7449  1.3835  1.8954
  384MPD2     N 5747   0.481   2.711  11.887  0.0036  0.6746 -0.0122
  384MPD2    H5 5748   0.513   2.699  11.792 -0.7148 -2.7845  0.1718
  384MPD2    N1 5749   0.233   3.018  12.189  0.1351 -0.4227  0.2964
  384MPD2    H7 5750   0.239   2.948  12.263  3.0518  0.9380  1.3420
  385TMC3    C1 5751   0.558   2.490  11.932 -0.0407  0.2622  0.3714
  385TMC3    C2 5752   0.513   2.443  11.808  1.0079  1.0992  0.5191
  385TMC3    C3 5753   0.452   2.319  11.809 -0.1397 -0.5849 -0.5776
  385TMC3    C4 5754   0.566   2.405  12.046  0.9150  1.2951 -0.3834
  385TMC3    C5 5755   0.516   2.277  12.033  0.2181  0.3906 -0.1283
  385TMC3    C6 5756   0.462   2.239  11.920 -0.3009 -0.3171 -0.3612
  385TMC3     C 5757   0.497   2.610  11.981 -0.8578  0.0291 -0.2082
  385TMC3     O 5758   0.454   2.603  12.094 -0.3470  0.0802 -0.8441
  385TMC3     H 5759   0.486   2.508  11.726 -1.1278 -1.0165 -0.4609
  385TMC3    H1 5760   0.597   2.447  12.141  0.8660  4.2992 -1.6946
  385TMC3    H2 5761   0.426   2.137  11.923  2.1337 -1.1071  1.6152
  385TMC3    C7 5762   0.433   2.245  12.150 -0.5574  0.3072 -0.7301
  385TMC3    C8 5763   0.422   2.259  11.684 -0.5953  0.0749  0.4489
  385TMC3    O1 5764   0.408   2.128  12.179  0.4111  0.6657  0.1284
  385TMC3    O2 5765   0.485   2.271  11.580  0.2078  0.0170 -0.0419
  386TMC3    C1 5766   0.205   0.566  12.053  0.9457 -1.0293  0.9743
  386TMC3    C2 5767   0.260   0.546  11.929 -0.1461 -0.3407  0.4385
  386TMC3    C3 5768   0.229   0.639  11.833  0.1950  0.1967 -0.6339
  386TMC3    C4 5769   0.133   0.682  12.079  0.1532  0.6436 -0.4986
  386TMC3    C5 5770   0.098   0.765  11.973 -0.0554 -0.5030  0.7611
  386TMC3    C6 5771   0.139   0.739  11.848  0.0133 -0.1190 -0.7672
  386TMC3     C 5772   0.248   0.487  12.163  0.2199 -0.2901  0.0796
  386TMC3     O 5773   0.223   0.536  12.273  0.2432 -0.2229  0.5776
  386TMC3     H 5774   0.333   0.468  11.910  0.4084 -0.2530  2.1691
  386TMC3    H1 5775   0.093   0.707  12.177  0.2665 -2.8578  0.4359
  386TMC3    H2 5776   0.128   0.817  11.773  0.1947 -1.3170 -2.0540
  386TMC3    C7 5777   4.685   0.817  11.983 -0.3088 -0.1537 -0.5201
  386TMC3    C8 5778   0.221   0.592  11.698 -0.0566  0.5852 -0.0325
  386TMC3    O1 5779   4.609   0.757  12.059 -0.4261  0.0152  0.5682
  386TMC3    O2 5780   0.145   0.651  11.621 -0.0249  0.5775  0.3595
  387MPD2     C 5781   2.352   0.124   9.500 -0.2428 -0.2646  0.2634
  387MPD2    C1 5782   2.326   0.158   9.632  0.0121 -0.3398  0.5436
  387MPD2    C2 5783   2.302   0.053   9.722 -0.2593  0.2226 -0.2377
  387MPD2    C3 5784   2.286   4.644   9.684 -0.6704  0.2328 -0.2622
  387MPD2    C4 5785   2.304   4.615   9.548 -0.5936  0.2724  0.4285
  387MPD2    C5 5786   2.336   4.718   9.460 -0.6741  0.9543 -0.1242
  387MPD2     H 5787   2.295   0.083   9.826  1.5431  3.0483 -0.9502
  387MPD2    H1 5788   2.308   4.512   9.513 -0.1130  0.3058  0.3838
  387MPD2    H2 5789   2.376   0.198   9.425  2.9935  0.1969  1.7308
  387MPD2    H3 5790   2.354   4.700   9.355  0.2424 -3.0654  0.7341
  387MPD2     N 5791   2.267   4.548   9.784  0.2745  0.3003 -0.4951
  387MPD2    H5 5792   2.276   4.581   9.879 -1.3654  0.4752 -0.4042
  387MPD2    N1 5793   2.347   0.289   9.688  0.7092 -0.9758 -0.0885
  387MPD2    H7 5794   2.318   0.302   9.785  1.1176 -0.1953 -0.0767
  388TMC3    C1 5795   2.504   0.463   9.718 -0.4857 -0.4383 -0.5038
  388TMC3    C2 5796   2.562   0.578   9.664  0.1294 -0.5403 -0.5230
  388TMC3    C3 5797   2.673   0.631   9.729  0.3768 -0.2592  0.4137
  388TMC3    C4 5798   2.565   0.400   9.824 -0.2932  0.3223 -0.5256
  388TMC3    C5 5799   2.678   0.455   9.881  0.4297 -0.8192  0.4939
  388TMC3    C6 5800   2.736   0.570   9.835 -0.3532 -0.0428 -0.0781
  388TMC3     C 5801   2.421   0.381   9.626 -0.4626  0.5723 -0.3031
  388TMC3     O 5802   2.431   0.390   9.506  0.5225  0.1047  0.0014
  388TMC3     H 5803   2.524   0.612   9.569  0.1309 -0.6818 -0.5750
  388TMC3    H1 5804   2.523   0.306   9.858  0.9901 -0.0635  0.0150
  388TMC3    H2 5805   2.835   0.597   9.868 -0.7490  0.6764  0.4966
  388TMC3    C7 5806   2.752   0.370   9.966  0.2206  0.4302  0.0648
  388TMC3    C8 5807   2.718   0.762   9.695 -0.0656 -0.4828  0.6120
  388TMC3    O1 5808   2.819   0.420  10.059  0.7269  0.2408  0.4851
  388TMC3    O2 5809   2.700   0.809   9.581 -0.0886  0.3254 -0.2996
  389MPD2     C 5810   2.018   3.143  11.815 -0.2412 -0.0853 -0.2252
  389MPD2    C1 5811   2.044   3.053  11.714  0.2276  0.1768  0.0052
  389MPD2    C2 5812   1.945   2.957  11.682 -0.0809  0.3235  0.9821
  389MPD2    C3 5813   1.835   2.951  11.765  0.3696  0.1182  0.7390
  389MPD2    C4 5814   1.827   3.028  11.873  0.2809  0.0529 -0.3758
  389MPD2    C5 5815   1.911   3.131  11.895 -0.9517  0.5989 -0.2122
  389MPD2     H 5816   1.960   2.889  11.599  0.9817 -0.1076  1.5237
  389MPD2    H1 5817   1.738   3.034  11.933  0.5912  2.4147 -0.1398
  389MPD2    H2 5818   2.091   3.218  11.841  0.5091 -1.2755  1.0632
  389MPD2    H3 5819   1.890   3.190  11.983  0.3976  0.5103  0.1706
  389MPD2     N 5820   1.722   2.866  11.743  0.5348 -0.5861 -0.2782
  389MPD2    H5 5821   1.650   2.865  11.814 -0.7747  2.2696 -1.5622
  389MPD2    N1 5822   2.149   3.090  11.630 -0.4960 -0.1125  0.3663
  389MPD2    H7 5823   2.199   3.177  11.644  0.7253 -1.0702  1.9563
  390TMC3    C1 5824   1.568   2.733  11.632 -0.7206  0.5598 -0.0481
  390TMC3    C2 5825   1.552   2.605  11.600  0.3216 -0.4146  0.2497
  390TMC3    C3 5826   1.425   2.553  11.600 -0.9130  0.2202 -0.5176
  390TMC3    C4 5827   1.466   2.822  11.647  0.0520  0.1476 -1.1853
  390TMC3    C5 5828   1.342   2.765  11.662  0.1521 -0.3753 -0.2534
  390TMC3    C6 5829   1.329   2.631  11.646 -0.4777  0.0119 -0.0455
  390TMC3     C 5830   1.705   2.788  11.635 -0.5413  0.0098  0.1783
  390TMC3     O 5831   1.783   2.758  11.548  0.1672  0.1625  0.2136
  390TMC3     H 5832   1.636   2.537  11.591  1.2626  0.9432 -1.2216
  390TMC3    H1 5833   1.494   2.922  11.678 -0.8856 -0.2834  1.0709
  390TMC3    H2 5834   1.229   2.591  11.663 -0.3760  0.3136  1.2896
  390TMC3    C7 5835   1.232   2.851  11.717 -0.0500 -0.8752  0.0815
  390TMC3    C8 5836   1.421   2.417  11.653  0.1687  0.4914 -0.2423
  390TMC3    O1 5837   1.246   2.971  11.696 -0.3548  0.2610  0.1238
  390TMC3    O2 5838   1.409   2.330  11.569 -0.3364 -0.2701  0.3443
  391MPD2     C 5839   0.973   4.546  11.081 -0.5106  0.0116 -0.2872
  391MPD2    C1 5840   1.101   4.584  11.058 -0.0664 -0.2821 -0.9081
  391MPD2    C2 5841   1.143   4.619  10.933 -0.8315 -0.1434  0.0988
  391MPD2    C3 5842   1.050   4.637  10.838  0.6543 -0.2068  0.3938
  391MPD2    C4 5843   0.917   4.604  10.862 -0.6665  0.1722  0.4803
  391MPD2    C5 5844   0.879   4.553  10.980 -0.7906 -0.1917  0.0963
  391MPD2     H 5845   1.250   4.625  10.917 -1.0507 -2.3451 -2.0372
  391MPD2    H1 5846   0.836   4.630  10.795  2.8927  0.7171 -3.5768
  391MPD2    H2 5847   0.934   4.506  11.174  0.7651  0.9676  0.6509
  391MPD2    H3 5848   0.778   4.519  10.997 -1.4008  1.4052 -0.2898
  391MPD2     N 5849   1.098   4.685  10.708 -0.1642 -0.4925  0.4717
  391MPD2    H5 5850   1.198   4.685  10.696 -0.4404  1.6720 -1.9667
  391MPD2    N1 5851   1.182   4.583  11.170  0.0508  0.3055  0.1935
  391MPD2    H7 5852   1.133   4.547  11.252 -1.9796 -1.2449 -1.6932
  392TMC3    C1 5853   1.118   0.045  10.500  1.3704  0.1278 -0.7025
  392TMC3    C2 5854   1.110   0.009  10.367  0.7883  0.0042 -0.8011
  392TMC3    C3 5855   1.188   0.069  10.269  0.4637  0.6319 -0.0567
  392TMC3    C4 5856   1.219   0.133  10.534 -0.2223  0.8382  0.3039
  392TMC3    C5 5857   1.310   0.177  10.439 -0.1137 -0.3669 -0.5919
  392TMC3    C6 5858   1.298   0.148  10.305 -0.5288  0.2668  0.4354
  392TMC3     C 5859   1.027   4.716  10.598 -0.2061  0.2204  0.3182
  392TMC3     O 5860   0.913   4.701  10.561  0.9065 -0.5714 -0.6882
  392TMC3     H 5861   1.036   4.657  10.341 -1.0840  1.4404  0.4067
  392TMC3    H1 5862   1.229   0.167  10.637  1.0616  1.4228 -0.0222
  392TMC3    H2 5863   1.360   0.190  10.227 -1.3137 -0.4028 -0.5618
  392TMC3    C7 5864   1.406   0.277  10.485 -0.3570 -0.2930 -0.3029
  392TMC3    C8 5865   1.152   0.051  10.129  1.0295  0.1733  0.0019
  392TMC3    O1 5866   1.427   0.288  10.607  0.5468  0.2687  0.0447
  392TMC3    O2 5867   1.101   4.665  10.102  0.2002 -0.8167 -0.5447
  393TMC3    C1 5868   0.580   2.436  10.494  0.6073 -0.5246 -0.1229
  393TMC3    C2 5869   0.476   2.396  10.582 -0.1922 -0.6253  0.7640
  393TMC3    C3 5870   0.507   2.304  10.672  0.3212 -0.0587  0.5133
  393TMC3    C4 5871   0.700   2.374  10.491  0.0302  0.0768 -0.5891
  393TMC3    C5 5872   0.721   2.265  10.577 -0.0305  0.7936 -0.5290
  393TMC3    C6 5873   0.625   2.235  10.669 -0.2935 -0.4703  0.1055
  393TMC3     C 5874   0.567   2.562  10.430 -0.4176 -0.7458 -0.5383
  393TMC3     O 5875   0.456   2.611  10.436 -0.7687 -0.2271  0.1953
  393TMC3     H 5876   0.381   2.447  10.575  0.7432  0.7682 -1.6273
  393TMC3    H1 5877   0.768   2.391  10.408  0.9492  0.0094  0.1559
  393TMC3    H2 5878   0.652   2.168  10.749 -1.6331 -0.7887  0.2745
  393TMC3    C7 5879   0.853   2.230  10.621 -0.5686  0.0882 -0.1466
  393TMC3    C8 5880   0.426   2.290  10.789  0.0196 -0.1176  0.2924
  393TMC3    O1 5881   0.881   2.215  10.738  0.3532 -0.0518 -0.0409
  393TMC3    O2 5882   0.474   2.218  10.874  0.0562 -0.3195 -0.4675
  394TMC3    C1 5883   2.288   3.094  11.452  0.1429  0.0898  0.1228
  394TMC3    C2 5884   2.268   3.229  11.425 -0.0383 -0.1997 -0.6035
  394TMC3    C3 5885   2.355   3.291  11.349  0.1997  0.1823 -0.2448
  394TMC3    C4 5886   2.403   3.027  11.402  0.1979  0.5826  0.0612
  394TMC3    C5 5887   2.490   3.102  11.336  0.8957 -0.6991 -0.2607
  394TMC3    C6 5888   2.472   3.235  11.304 -0.1685  0.4201 -0.3795
  394TMC3     C 5889   2.196   3.019  11.529 -0.4520  0.0435  0.2107
  394TMC3     O 5890   2.173   2.903  11.501  0.3915 -0.0960  0.2770
  394TMC3     H 5891   2.177   3.279  11.456 -0.9247 -2.3289  0.2059
  394TMC3    H1 5892   2.416   2.920  11.412  1.7409  0.7513 -0.1252
  394TMC3    H2 5893   2.550   3.283  11.247 -1.0505  1.8198 -0.4104
  394TMC3    C7 5894   2.580   3.045  11.235  0.1397 -0.0244  0.4173
  394TMC3    C8 5895   2.287   3.377  11.258  0.1704  0.2538 -0.0585
  394TMC3    O1 5896   2.693   3.081  11.236 -0.3536 -0.2550  0.1430
  394TMC3    O2 5897   2.204   3.458  11.303 -0.3368 -0.4243 -0.3070
  395TMC3    C1 5898   1.611   0.671  14.242  0.4347 -0.1708  0.5160
  395TMC3    C2 5899   1.497   0.711  14.307 -0.8685  0.0380 -0.1118
  395TMC3    C3 5900   1.500   0.803  14.404  0.7677  0.2239 -0.0729
  395TMC3    C4 5901   1.730   0.708  14.303 -0.2478  0.8710 -0.5944
  395TMC3    C5 5902   1.724   0.772  14.421  0.3481  0.2517  0.3035
  395TMC3    C6 5903   1.611   0.833  14.468  0.0890  0.7150 -0.8682
  395TMC3     C 5904   1.602   0.527  14.231 -0.1786 -0.7147  0.8297
  395TMC3     O 5905   1.539   0.474  14.320  0.1900 -0.4121  0.6154
  395TMC3     H 5906   1.399   0.698  14.264 -0.1704  0.9291 -2.0158
  395TMC3    H1 5907   1.827   0.687  14.261 -0.8802 -2.6165 -0.3014
  395TMC3    H2 5908   1.615   0.861  14.572  2.6211 -3.4411  0.1012
  395TMC3    C7 5909   1.848   0.827  14.484 -0.1995  0.6062 -0.6132
  395TMC3    C8 5910   1.390   0.759  14.495 -0.4411  0.7581  0.1563
  395TMC3    O1 5911   1.843   0.941  14.527 -0.5775 -0.8865 -0.2434
  395TMC3    O2 5912   1.345   0.838  14.572  0.1096 -0.3301 -0.1987
  396MPD2     C 5913   1.523   1.466  16.519  0.7545  0.3538  0.2799
  396MPD2    C1 5914   1.607   1.518  16.615 -0.4899 -0.4668  0.1432
  396MPD2    C2 5915   1.671   1.638  16.580 -0.4205  0.1292 -0.0575
  396MPD2    C3 5916   1.651   1.699  16.454 -0.2708  0.0840 -0.4564
  396MPD2    C4 5917   1.567   1.640  16.366 -0.6127  0.3236  0.2634
  396MPD2    C5 5918   1.503   1.522  16.397 -0.0283  0.5444  0.6534
  396MPD2     H 5919   1.751   1.669  16.647  0.2652 -3.1014  0.6497
  396MPD2    H1 5920   1.537   1.679  16.270  1.0734 -2.3808 -1.3742
  396MPD2    H2 5921   1.464   1.378  16.540 -2.0000  1.9667 -0.6645
  396MPD2    H3 5922   1.423   1.485  16.335 -0.5588  0.1264  1.5882
  396MPD2     N 5923   1.711   1.823  16.425 -0.2717  0.0485  0.0875
  396MPD2    H5 5924   1.789   1.853  16.482 -0.1517 -2.2771  1.1402
  396MPD2    N1 5925   1.619   1.461  16.748 -0.1903  0.1661  0.4359
  396MPD2    H7 5926   1.570   1.374  16.768 -0.3150 -0.3107 -1.8959
  397TMC3    C1 5927   1.682   1.427  16.961 -0.4551 -0.6901  0.3471
  397TMC3    C2 5928   1.810   1.399  16.985 -0.2799  0.2135  0.8489
  397TMC3    C3 5929   1.858   1.270  16.970 -0.0350 -0.4995  0.3610
  397TMC3    C4 5930   1.597   1.320  16.944  0.2546  0.1996  0.1112
  397TMC3    C5 5931   1.643   1.191  16.966 -0.1587 -0.2770  0.3069
  397TMC3    C6 5932   1.772   1.167  16.994  0.5667  0.7292 -0.7944
  397TMC3     C 5933   1.684   1.521  16.854 -0.3468  0.2508  0.0209
  397TMC3     O 5934   1.740   1.631  16.867  0.2385  0.2572  0.8944
  397TMC3     H 5935   1.873   1.485  16.962 -1.0681  0.1427 -1.6094
  397TMC3    H1 5936   1.488   1.320  16.943  0.2386  2.0295  1.3737
  397TMC3    H2 5937   1.799   1.063  16.978  1.4220  0.9475 -0.7539
  397TMC3    C7 5938   1.546   1.109  17.029 -0.3683 -0.0194 -0.0158
  397TMC3    C8 5939   1.907   1.258  16.838  0.1931  0.9340 -0.2636
  397TMC3    O1 5940   1.428   1.125  17.003  0.4357 -0.0633 -0.3610
  397TMC3    O2 5941   1.866   1.173  16.758  0.5000 -0.2911  0.6881
  398MPD2     C 5942   4.453   2.268   0.179  0.1973  0.1306 -0.1321
  398MPD2    C1 5943   4.483   2.195   0.291  0.1720  0.0707 -0.1249
  398MPD2    C2 5944   4.583   2.236   0.376 -0.2378  0.1179 -0.5222
  398MPD2    C3 5945   4.667   2.348   0.344 -0.7604  1.2579  0.2742
  398MPD2    C4 5946   4.631   2.424   0.233  0.3464  0.2434  0.0619
  398MPD2    C5 5947   4.524   2.385   0.158  0.0701 -0.1642 -0.7058
  398MPD2     H 5948   4.624   2.174   0.455  0.8686  1.0832 -0.3290
  398MPD2    H1 5949   4.683   2.516   0.209 -0.6480  0.1143 -2.5210
  398MPD2    H2 5950   4.376   2.242   0.108  3.4304  0.2545 -3.6936
  398MPD2    H3 5951   4.517   2.440   0.065 -0.1868  1.3410  0.2072
  398MPD2     N 5952   0.062   2.359   0.410 -0.1917  0.5261 -0.2040
  398MPD2    H5 5953   0.083   2.292   0.483  0.7122  1.2041  0.1552
  398MPD2    N1 5954   4.411   2.082   0.338  0.1624  0.1120 -0.2162
  398MPD2    H7 5955   4.454   2.019   0.405 -0.3643 -0.1363 -0.1133
  399TMC3    C1 5956   4.265   1.904   0.318 -0.6867 -0.2599  0.0899
  399TMC3    C2 5957   4.350   1.819   0.388  0.6043 -0.7818 -0.5732
  399TMC3    C3 5958   4.322   1.687   0.394  0.0246  0.9109 -0.1355
  399TMC3    C4 5959   4.149   1.857   0.260  0.2501  0.1006 -0.4215
  399TMC3    C5 5960   4.119   1.722   0.275  0.0227  0.2579 -0.3040
  399TMC3    C6 5961   4.207   1.633   0.338  0.0682  0.0178  0.0023
  399TMC3     C 5962   4.294   2.039   0.283 -1.1787 -0.6867 -0.3058
  399TMC3     O 5963   4.217   2.107   0.215 -0.3198 -0.8140  0.3774
  399TMC3     H 5964   4.446   1.855   0.421  0.4269 -0.4022 -0.4680
  399TMC3    H1 5965   4.080   1.920   0.205  2.0470  0.3725 -2.3622
  399TMC3    H2 5966   4.187   1.527   0.333  1.3926 -0.2121 -0.4725
  399TMC3    C7 5967   3.997   1.664   0.235 -0.0908 -0.5729 -1.1307
  399TMC3    C8 5968   4.437   1.605   0.423 -0.3458  0.4192 -0.6512
  399TMC3    O1 5969   3.963   1.559   0.290 -0.3976  0.1678  0.0056
  399TMC3    O2 5970   4.546   1.660   0.429 -0.2106 -0.1227 -0.2395
  400TMC3    C1 5971   3.049   0.692  16.881 -0.3172 -0.1466  0.2349
  400TMC3    C2 5972   2.922   0.735  16.866 -0.1158  0.5126  0.1686
  400TMC3    C3 5973   2.893   0.864  16.857  0.0939 -0.2023  0.1732
  400TMC3    C4 5974   3.150   0.787  16.891  0.0648 -0.3922 -0.1015
  400TMC3    C5 5975   3.118   0.919  16.888  0.1567 -0.7113  0.6611
  400TMC3    C6 5976   2.988   0.960  16.866 -0.1203  0.2915 -0.2980
  400TMC3     C 5977   3.074   0.549  16.914 -0.3142  0.4492  0.1809
  400TMC3     O 5978   2.992   0.497  16.987  0.0701  0.2064 -0.0434
  400TMC3     H 5979   2.843   0.661  16.867  0.9123 -0.6188 -1.9438
  400TMC3    H1 5980   3.255   0.760  16.902  0.2063  0.7697  1.3449
  400TMC3    H2 5981   2.958   1.062  16.845  0.8416  0.5458 -0.4216
  400TMC3    C7 5982   3.227   1.007  16.854 -0.6566  0.4717 -0.4886
  400TMC3    C8 5983   2.779   0.899  16.773 -0.4530 -0.1582 -0.2164
  400TMC3    O1 5984   3.322   0.960  16.791 -0.7263 -0.2158  0.8520
  400TMC3    O2 5985   2.748   1.016  16.763 -0.0745 -0.1334  0.4941
  401MPD2     C 5986   0.536   4.175   1.184 -0.0263  0.4573 -0.4710
  401MPD2    C1 5987   0.667   4.195   1.142 -0.4062  0.0172 -0.1767
  401MPD2    C2 5988   0.732   4.093   1.077 -0.2273  0.2804  0.0471
  401MPD2    C3 5989   0.681   3.967   1.080  0.5375 -0.1579  0.2207
  401MPD2    C4 5990   0.548   3.952   1.115 -0.3969  0.4713 -0.4606
  401MPD2    C5 5991   0.471   4.058   1.168  0.1483 -0.1425  0.2636
  401MPD2     H 5992   0.831   4.111   1.034  0.2983 -0.2694  1.0270
  401MPD2    H1 5993   0.494   3.858   1.116 -1.2206  0.9491  2.3758
  401MPD2    H2 5994   0.476   4.255   1.226 -0.8670  1.0080 -2.7105
  401MPD2    H3 5995   0.371   4.050   1.210  0.1372  1.0030  0.4530
  401MPD2     N 5996   0.764   3.867   1.026  0.6923 -0.1377  0.6658
  401MPD2    H5 5997   0.861   3.889   1.006  0.6989 -1.9109 -1.2766
  401MPD2    N1 5998   0.738   4.312   1.173 -0.1904 -0.2606  0.5207
  401MPD2    H7 5999   0.837   4.299   1.186 -0.0735 -0.4181 -0.5075
  402TMC3    C1 6000   0.833   3.657   0.944  0.1378  0.4571  0.1591
  402TMC3    C2 6001   0.853   3.531   0.993  0.1776  0.4870  0.5424
  402TMC3    C3 6002   0.962   3.457   0.944 -0.5283 -0.5743 -0.1992
  402TMC3    C4 6003   0.922   3.717   0.859 -0.3723  0.3009  0.0772
  402TMC3    C5 6004   1.034   3.647   0.822 -0.1479 -0.6807 -0.5577
  402TMC3    C6 6005   1.062   3.518   0.865  0.6620 -0.4343  0.2147
  402TMC3     C 6006   0.731   3.735   1.015 -0.6190  0.7350 -0.3032
  402TMC3     O 6007   0.629   3.682   1.058 -0.3887 -0.1416  0.4308
  402TMC3     H 6008   0.796   3.503   1.081 -0.5512 -1.3240 -0.5043
  402TMC3    H1 6009   0.897   3.813   0.815 -0.8137 -0.3679 -1.1545
  402TMC3    H2 6010   1.152   3.464   0.837  1.6595  1.5567 -0.4215
  402TMC3    C7 6011   1.111   3.717   0.722 -0.1750  0.4812  0.1679
  402TMC3    C8 6012   0.995   3.335   1.021 -0.3960 -0.4168  0.7525
  402TMC3    O1 6013   1.068   3.822   0.673 -0.2005 -0.5590  0.6550
  402TMC3    O2 6014   1.113   3.318   1.042 -0.0228 -0.3522  0.2144
  403MPD2     C 6015   4.530   2.925  13.326  0.1720 -0.2169  0.2559
  403MPD2    C1 6016   4.435   2.878  13.406  0.0040 -0.1918 -0.2358
  403MPD2    C2 6017   4.402   2.941  13.523 -0.4343 -0.3176  0.6212
  403MPD2    C3 6018   4.465   3.058  13.559  0.2355  0.0399  1.2583
  403MPD2    C4 6019   4.572   3.103  13.480 -0.0361  0.0460  0.3057
  403MPD2    C5 6020   4.613   3.028  13.367 -0.3317 -0.1900 -0.8063
  403MPD2     H 6021   4.316   2.907  13.579  0.6198 -1.5480  1.4918
  403MPD2    H1 6022   4.628   3.194  13.499 -0.5842  0.1671  1.3296
  403MPD2    H2 6023   4.553   2.875  13.233  1.5980  1.0757 -0.0741
  403MPD2    H3 6024   4.699   3.065  13.312 -1.4218  2.3770 -0.7811
  403MPD2     N 6025   4.411   3.125  13.673  0.3093  0.8040  0.2893
  403MPD2    H5 6026   4.333   3.080  13.720  1.6102 -2.9296 -1.0762
  403MPD2    N1 6027   4.380   2.755  13.367  0.5400  0.2789 -0.5051
  403MPD2    H7 6028   4.405   2.724  13.274  0.8226 -2.1266  0.3744
  404TMC3    C1 6029   4.269   2.548  13.362 -0.2673 -0.4474  0.0050
  404TMC3    C2 6030   4.230   2.430  13.425 -0.5270  0.4297  1.0582
  404TMC3    C3 6031   4.206   2.323  13.347 -0.1443 -0.4904  0.4898
  404TMC3    C4 6032   4.280   2.547  13.224 -0.0838 -0.1359  0.0028
  404TMC3    C5 6033   4.237   2.442  13.147  0.1545  0.8437  0.1625
  404TMC3    C6 6034   4.214   2.318  13.207 -0.1532 -0.0107 -0.1073
  404TMC3     C 6035   4.283   2.678  13.436 -0.1963  0.5613  0.0804
  404TMC3     O 6036   4.235   2.681  13.553  0.6785 -0.4908  0.1798
  404TMC3     H 6037   4.246   2.428  13.533 -0.3377  1.1277  1.0417
  404TMC3    H1 6038   4.276   2.641  13.171  0.6638 -0.9015 -1.4143
  404TMC3    H2 6039   4.194   2.222  13.162  0.5116  1.1285 -2.8471
  404TMC3    C7 6040   4.256   2.447  13.003  0.1989 -0.3335  0.1338
  404TMC3    C8 6041   4.200   2.196  13.417 -0.5474 -0.2142 -0.8160
  404TMC3    O1 6042   4.350   2.518  12.964 -0.3090 -0.3043 -0.4146
  404TMC3    O2 6043   4.199   2.093  13.353 -0.3621 -1.0614 -0.7427
  405MPD2     C 6044   0.174   2.893  15.002  0.3040 -0.2141  0.4333
  405MPD2    C1 6045   0.080   2.850  14.908  0.8459 -0.3771 -0.5371
  405MPD2    C2 6046   0.024   2.945  14.830  0.0615 -0.5518  0.0526
  405MPD2    C3 6047   0.052   3.074  14.854 -0.0882  0.1003  0.9678
  405MPD2    C4 6048   0.142   3.119  14.950  0.0105 -0.4922 -0.2642
  405MPD2    C5 6049   0.199   3.028  15.033 -0.2719  0.3122 -0.2204
  405MPD2     H 6050   4.672   2.922  14.756  1.0250  0.5095 -1.2703
  405MPD2    H1 6051   0.172   3.223  14.956 -0.8772 -0.3612  2.1319
  405MPD2    H2 6052   0.217   2.816  15.065 -1.8423 -2.3141 -0.6650
  405MPD2    H3 6053   0.277   3.050  15.105 -1.5984  3.9294  0.0698
  405MPD2     N 6054   4.705   3.164  14.773  0.2946 -0.3358 -0.4451
  405MPD2    H5 6055   4.659   3.112  14.699  0.0824 -0.7574 -0.0152
  405MPD2    N1 6056   0.045   2.712  14.900 -0.1913 -0.2382  0.0792
  405MPD2    H7 6057   0.093   2.644  14.959 -1.8558 -1.0661  0.4799
  406TMC3    C1 6058   4.410   3.501  14.682  0.0725  0.3148 -0.6317
  406TMC3    C2 6059   4.356   3.421  14.584 -0.4578  0.0705  0.1770
  406TMC3    C3 6060   4.411   3.299  14.551 -0.2399 -0.3652  0.3662
  406TMC3    C4 6061   4.516   3.456  14.752 -0.3054  0.3572 -0.5123
  406TMC3    C5 6062   4.576   3.338  14.712  0.0075 -0.3668  0.4614
  406TMC3    C6 6063   4.530   3.262  14.602 -0.1766  0.0872  0.4062
  406TMC3     C 6064   4.309   3.573  14.752 -0.4079  0.6955  1.4196
  406TMC3     O 6065   4.350   3.673  14.814  0.1844  0.2597  0.7689
  406TMC3     H 6066   4.276   3.463  14.523 -0.4291 -0.2981 -0.1146
  406TMC3    H1 6067   4.534   3.510  14.844  1.4593  0.0808 -0.7115
  406TMC3    H2 6068   4.579   3.175  14.560 -0.1708  1.4043 -2.3013
  406TMC3    C7 6069   4.687   3.297  14.799  0.2134 -0.3198  0.2281
  406TMC3    C8 6070   4.309   3.204  14.592  0.1459  0.1118 -0.6998
  406TMC3    O1 6071   0.006   3.372  14.884  0.0368 -0.3870  0.4366
  406TMC3    O2 6072   4.199   3.250  14.620 -0.2997 -0.1352 -0.5058
  407MPD2     C 6073   1.784   4.257   9.899  0.3533  0.3984  0.1096
  407MPD2    C1 6074   1.860   4.344   9.824  0.5929 -0.4213 -0.6110
  407MPD2    C2 6075   1.913   4.452   9.894 -0.4726 -0.3393 -0.4593
  407MPD2    C3 6076   1.930   4.453  10.032 -0.0797  0.2651 -0.4449
  407MPD2    C4 6077   1.864   4.351  10.108 -0.3410 -0.3384 -0.0628
  407MPD2    C5 6078   1.786   4.264  10.038 -0.2129  0.2223 -0.1839
  407MPD2     H 6079   1.970   4.524   9.837  0.1666 -0.7968 -0.4043
  407MPD2    H1 6080   1.858   4.353  10.216  0.5181 -0.1867 -0.0167
  407MPD2    H2 6081   1.727   4.178   9.852  1.3739  0.5407 -1.3658
  407MPD2    H3 6082   1.719   4.197  10.090 -1.5105  1.1974 -0.6106
  407MPD2     N 6083   1.989   4.560  10.105  0.2257 -0.4246  0.1534
  407MPD2    H5 6084   1.986   4.548  10.206  1.2379  1.8729  0.4483
  407MPD2    N1 6085   1.882   4.330   9.685 -0.4887 -0.6908  0.0748
  407MPD2    H7 6086   1.931   4.403   9.634 -1.0612 -0.3988 -0.0525
  408TMC3    C1 6087   1.913   4.225   9.479 -0.5345  0.4847  0.0638
  408TMC3    C2 6088   1.988   4.113   9.451 -0.3197  0.5671 -0.6559
  408TMC3    C3 6089   2.099   4.140   9.379  0.1290 -0.9200 -0.6947
  408TMC3    C4 6090   1.946   4.345   9.433 -0.8105 -0.2923 -0.1670
  408TMC3    C5 6091   2.063   4.368   9.369  0.1431  0.0446 -0.0362
  408TMC3    C6 6092   2.137   4.261   9.331 -0.5193  0.3047  0.6645
  408TMC3     C 6093   1.857   4.216   9.612  0.4759 -0.1298 -0.0344
  408TMC3     O 6094   1.807   4.108   9.638 -0.2988 -0.5779 -0.0525
  408TMC3     H 6095   1.967   4.017   9.495 -0.9063  0.9989  0.0091
  408TMC3    H1 6096   1.874   4.423   9.454 -0.0335  0.1241  0.9845
  408TMC3    H2 6097   2.230   4.270   9.274 -0.7158  3.4688  0.8508
  408TMC3    C7 6098   2.095   4.485   9.301  0.2170 -0.1339 -0.3033
  408TMC3    C8 6099   2.204   4.054   9.410 -0.2685 -0.1207 -0.2413
  408TMC3    O1 6100   2.212   4.498   9.264  0.3567 -0.4187  0.8128
  408TMC3    O2 6101   2.185   3.930   9.419  0.4087  0.0088  1.1928
  409MPD2     C 6102   1.647   0.698  16.904 -0.6971  0.4181 -0.0453
  409MPD2    C1 6103   1.736   0.690  17.009  0.3339  0.5014 -0.4415
  409MPD2    C2 6104   1.846   0.773  17.004  0.0628 -0.1948 -0.3467
  409MPD2    C3 6105   1.889   0.834  16.886  0.2806 -0.0019  0.5087
  409MPD2    C4 6106   1.795   0.844  16.791 -0.2842 -0.1805  0.8569
  409MPD2    C5 6107   1.684   0.770  16.797  0.7975  0.6203  0.1108
  409MPD2     H 6108   1.905   0.786  17.094 -1.5577  0.8683  0.5691
  409MPD2    H1 6109   1.818   0.879  16.691  1.7082 -2.1817  0.6192
  409MPD2    H2 6110   1.552   0.647  16.903  0.7086 -2.2175 -2.1176
  409MPD2    H3 6111   1.617   0.757  16.713 -0.7998  1.2224  1.2920
  409MPD2     N 6112   2.013   0.900  16.873 -0.4728  0.0007 -0.1013
  409MPD2    H5 6113   2.032   0.946  16.785 -2.3771 -0.1616 -0.5968
  409MPD2    N1 6114   1.721   0.613  17.123  0.0802  0.3515 -0.2233
  409MPD2    H7 6115   1.793   0.625  17.193 -0.9617  0.0587  0.8925
  410TMC3    C1 6116   2.226   0.989  16.902 -0.6919 -0.1844 -0.6918
  410TMC3    C2 6117   2.334   0.994  16.975  0.1014  0.4375  0.2092
  410TMC3    C3 6118   2.418   1.098  16.949  0.0861 -0.9932  0.0715
  410TMC3    C4 6119   2.203   1.077  16.800 -0.2216 -0.6221 -1.0284
  410TMC3    C5 6120   2.291   1.183  16.780 -0.2394 -0.0653  0.7898
  410TMC3    C6 6121   2.407   1.194  16.855 -0.2362  0.2492  0.0595
  410TMC3     C 6122   2.116   0.912  16.963 -0.3084  0.4072  1.2076
  410TMC3     O 6123   2.125   0.873  17.076 -0.6006 -0.2500 -0.1742
  410TMC3     H 6124   2.341   0.931  17.063  0.9093 -0.5525 -0.5636
  410TMC3    H1 6125   2.114   1.077  16.737  0.6173  1.1518 -2.2097
  410TMC3    H2 6126   2.475   1.277  16.840  2.1225 -1.7558 -0.4591
  410TMC3    C7 6127   2.283   1.236  16.645  0.3098 -0.1782 -0.5179
  410TMC3    C8 6128   2.534   1.113  17.032 -0.0344  0.0491 -0.6468
  410TMC3    O1 6129   2.204   1.191  16.562  0.2060  0.4693 -0.4190
  410TMC3    O2 6130   2.603   1.213  17.040  0.5537 -0.2367  0.1430
  411MPD2     C 6131   2.325   1.536  14.111  0.5011 -0.0301  0.8449
  411MPD2    C1 6132   2.195   1.534  14.151 -0.8989  0.0582  0.0665
  411MPD2    C2 6133   2.104   1.440  14.103 -0.7091 -0.3803 -0.4728
  411MPD2    C3 6134   2.157   1.326  14.037  0.6769  0.4336 -0.6272
  411MPD2    C4 6135   2.287   1.337  13.991  0.0843 -0.0833 -0.3784
  411MPD2    C5 6136   2.371   1.436  14.032  1.0916  0.5943 -0.6065
  411MPD2     H 6137   1.997   1.449  14.112 -0.6275 -1.0639  1.0790
  411MPD2    H1 6138   2.341   1.260  13.937 -0.0688  0.6586 -1.5972
  411MPD2    H2 6139   2.381   1.628  14.118 -3.2266  2.1768  1.7536
  411MPD2    H3 6140   2.478   1.425  14.018  1.0021 -0.9442 -0.1418
  411MPD2     N 6141   2.069   1.221  13.984 -0.2496  0.1255  0.6482
  411MPD2    H5 6142   2.106   1.159  13.912  0.1414  1.1434 -0.0376
  411MPD2    N1 6143   2.155   1.654  14.211 -0.2927 -0.2089 -0.1751
  411MPD2    H7 6144   2.226   1.726  14.226  1.2020 -1.7344  0.1017
  412TMC3    C1 6145   1.880   1.088  13.944 -0.7099 -0.1036 -0.1149
  412TMC3    C2 6146   1.740   1.092  13.952  0.1290 -0.1642 -0.1297
  412TMC3    C3 6147   1.676   1.032  13.852 -0.5121 -0.0015  0.3333
  412TMC3    C4 6148   1.943   1.039  13.832 -0.1842 -0.2746  0.4877
  412TMC3    C5 6149   1.871   0.951  13.757  1.0376  0.4302 -0.5900
  412TMC3    C6 6150   1.737   0.943  13.771  0.2104 -0.1275 -0.1571
  412TMC3     C 6151   1.940   1.200  14.015 -0.0623 -0.3456  0.2760
  412TMC3     O 6152   1.872   1.261  14.098  0.0220 -0.6098  0.1956
  412TMC3     H 6153   1.692   1.167  14.013  0.0773  1.2261 -1.8632
  412TMC3    H1 6154   2.051   1.046  13.822 -0.5529  2.0100 -1.8829
  412TMC3    H2 6155   1.679   0.882  13.704 -2.0223  0.7269  0.9943
  412TMC3    C7 6156   1.923   0.913  13.625  0.3783 -0.6168 -0.3710
  412TMC3    C8 6157   1.576   1.118  13.784 -0.0429 -0.2975 -0.2573
  412TMC3    O1 6158   2.014   0.980  13.571 -0.2831 -0.1461  0.1168
  412TMC3    O2 6159   1.506   1.198  13.848 -0.1017  0.3627  0.2917
  413MPD2     C 6160   3.959   4.393  15.402 -0.7760 -0.0463  0.0937
  413MPD2    C1 6161   3.860   4.311  15.370  0.4413  0.5738  0.0848
  413MPD2    C2 6162   3.896   4.177  15.362 -0.1205 -0.4112 -0.6688
  413MPD2    C3 6163   4.024   4.126  15.378 -0.3467  0.4236 -0.3087
  413MPD2    C4 6164   4.125   4.220  15.409 -0.4775  0.0682  0.3553
  413MPD2    C5 6165   4.089   4.350  15.420 -0.1969  0.2496 -0.0917
  413MPD2     H 6166   3.820   4.100  15.347 -1.4856  0.9477 -0.7185
  413MPD2    H1 6167   4.227   4.185  15.415 -0.4839  0.0263  0.2224
  413MPD2    H2 6168   3.949   4.500  15.412 -0.2613  0.0626 -0.5370
  413MPD2    H3 6169   4.169   4.421  15.438  1.5912 -1.8714  0.2788
  413MPD2     N 6170   4.042   3.987  15.371 -0.1373  0.0361 -0.6757
  413MPD2    H5 6171   3.961   3.932  15.344 -0.2985  0.4006 -0.9422
  413MPD2    N1 6172   3.721   4.355  15.362 -0.0971  0.3433 -0.6774
  413MPD2    H7 6173   3.708   4.455  15.373  0.7444  0.3927 -0.1324
  414TMC3    C1 6174   4.135   3.773  15.390 -0.1486 -0.2000  0.1329
  414TMC3    C2 6175   4.203   3.700  15.479 -0.3949 -0.1905 -0.2133
  414TMC3    C3 6176   4.195   3.561  15.456  0.5567 -0.2079 -0.6736
  414TMC3    C4 6177   4.053   3.724  15.287 -0.8904 -0.8252  0.3781
  414TMC3    C5 6178   4.055   3.591  15.270  0.0098 -0.2297 -0.0265
  414TMC3    C6 6179   4.119   3.507  15.356  0.3179 -0.5322  0.4636
  414TMC3     C 6180   4.151   3.916  15.406 -0.1617  0.0653 -0.2828
  414TMC3     O 6181   4.262   3.949  15.442 -0.1896 -0.0554  0.2821
  414TMC3     H 6182   4.271   3.748  15.549 -0.4582 -0.5738  0.1116
  414TMC3    H1 6183   4.011   3.793  15.215  0.3908 -1.3712 -0.8941
  414TMC3    H2 6184   4.109   3.401  15.340 -1.5029 -0.1568 -0.9182
  414TMC3    C7 6185   3.979   3.548  15.156 -0.4254  0.1153  0.4616
  414TMC3    C8 6186   4.306   3.472  15.488  0.4264 -0.6394  0.2661
  414TMC3    O1 6187   3.883   3.619  15.128  0.4401  0.3063 -0.0992
  414TMC3    O2 6188   4.321   3.370  15.422 -0.7606 -0.4285  0.6331
  415TMC3    C1 6189   4.541   3.009  10.098  0.0303 -0.1656 -0.3575
  415TMC3    C2 6190   4.616   3.128  10.098  0.7258  0.2337  0.1654
  415TMC3    C3 6191   4.600   3.209  10.206  0.0252  0.0687  0.4780
  415TMC3    C4 6192   4.452   2.969  10.190 -0.4331  0.1080  0.5577
  415TMC3    C5 6193   4.450   3.048  10.301 -0.2259 -0.3656 -0.1391
  415TMC3    C6 6194   4.528   3.162  10.313  0.4434 -0.3820  0.9406
  415TMC3     C 6195   4.552   2.915   9.991 -1.2031  1.0975 -0.1438
  415TMC3     O 6196   4.456   2.853   9.946  0.1873 -0.4184  0.2876
  415TMC3     H 6197   4.663   3.159  10.006 -2.0113  2.1739 -0.5585
  415TMC3    H1 6198   4.407   2.871  10.182  0.3591 -0.1118 -1.2701
  415TMC3    H2 6199   4.518   3.228  10.399 -1.1977 -1.0519  1.2494
  415TMC3    C7 6200   4.417   2.981  10.424  0.6304  0.1575 -0.1042
  415TMC3    C8 6201   4.650   3.349  10.207  0.3924 -0.0417  0.2802
  415TMC3    O1 6202   4.484   3.004  10.526 -0.1742  0.1549  0.1149
  415TMC3    O2 6203   4.601   3.423  10.293 -0.4484 -0.3308  0.0793
  416MPD2     C 6204   1.158   1.110  11.303 -0.1407  0.0530 -0.2139
  416MPD2    C1 6205   1.116   1.012  11.394 -0.2821  0.2215  0.6247
  416MPD2    C2 6206   1.137   0.877  11.362 -0.6905 -0.3265  0.0866
  416MPD2    C3 6207   1.212   0.838  11.252  0.2048  0.5024 -0.3873
  416MPD2    C4 6208   1.266   0.934  11.173 -0.0960  1.2505  0.4735
  416MPD2    C5 6209   1.222   1.061  11.194 -0.1056  0.2193  0.6095
  416MPD2     H 6210   1.105   0.801  11.433  1.0261 -0.3484  0.8370
  416MPD2    H1 6211   1.324   0.911  11.084 -0.8269  1.0740  0.0350
  416MPD2    H2 6212   1.152   1.217  11.321 -2.0199 -0.4145  1.8331
  416MPD2    H3 6213   1.262   1.135  11.125  1.1385 -0.7531  0.2957
  416MPD2     N 6214   1.243   0.705  11.214 -0.0713 -0.3419 -0.6345
  416MPD2    H5 6215   1.303   0.686  11.135 -0.4346  0.0440 -0.9967
  416MPD2    N1 6216   1.046   1.058  11.504 -0.2148  0.1076  0.4147
  416MPD2    H7 6217   1.016   1.155  11.502 -3.2123 -0.7796  1.6493
  417TMC3    C1 6218   0.911   1.062  11.702 -0.1597 -0.4208 -0.0204
  417TMC3    C2 6219   0.911   1.031  11.837 -0.1010  0.5297 -0.4706
  417TMC3    C3 6220   0.836   1.110  11.913  0.3754  0.2061 -0.0823
  417TMC3    C4 6221   0.840   1.162  11.644 -0.2714 -0.3966 -0.4458
  417TMC3    C5 6222   0.766   1.239  11.726 -0.3044  0.2054  0.1155
  417TMC3    C6 6223   0.759   1.212  11.862  0.1171 -0.2541  0.4054
  417TMC3     C 6224   0.999   0.983  11.613 -0.0130  0.0884 -0.2365
  417TMC3     O 6225   1.018   0.862  11.636 -0.2299  0.3259 -0.6060
  417TMC3     H 6226   0.981   0.957  11.875 -0.3443  0.4116 -0.2554
  417TMC3    H1 6227   0.838   1.175  11.536 -0.1310 -0.0962 -0.4118
  417TMC3    H2 6228   0.705   1.278  11.928 -1.7423 -0.8658 -0.4934
  417TMC3    C7 6229   0.758   1.379  11.677  0.2983  0.3835  0.0636
  417TMC3    C8 6230   0.827   1.094  12.058 -0.1456  0.1898 -0.0617
  417TMC3    O1 6231   0.832   1.407  11.581 -0.1403  0.3542  0.0625
  417TMC3    O2 6232   0.762   1.183  12.113  0.9080 -0.2461 -0.4391
  418TMC3    C1 6233   0.431   2.290   0.509 -0.2033 -0.2805  0.2536
  418TMC3    C2 6234   0.369   2.386   0.434 -0.0377 -0.3494  0.3763
  418TMC3    C3 6235   0.250   2.440   0.485 -0.0239  0.6876 -0.3550
  418TMC3    C4 6236   0.371   2.226   0.610  0.1322 -0.2364 -0.2446
  418TMC3    C5 6237   0.254   2.279   0.661 -0.5796 -0.7849 -0.0023
  418TMC3    C6 6238   0.192   2.387   0.600 -0.3872 -0.5805  0.2235
  418TMC3     C 6239   0.561   2.245   0.476 -0.5264  0.1457  0.0480
  418TMC3     O 6240   0.629   2.317   0.408 -0.2314  0.5165 -0.3979
  418TMC3     H 6241   0.415   2.419   0.342 -0.3212 -1.8513 -0.2964
  418TMC3    H1 6242   0.424   2.158   0.675  0.2133  1.9517  1.9855
  418TMC3    H2 6243   0.092   2.414   0.631 -0.1627  1.1367 -0.5164
  418TMC3    C7 6244   0.170   2.196   0.741  0.2194  0.5017 -0.2535
  418TMC3    C8 6245   0.158   2.446   0.382 -0.1783 -0.0047 -0.4280
  418TMC3    O1 6246   0.060   2.179   0.692  0.1193 -0.0144  0.4847
  418TMC3    O2 6247   0.184   2.526   0.293  0.4653 -0.7007  0.2056
  419MPD2     C 6248   3.580   0.890  12.194  0.0337 -0.2963  0.5676
  419MPD2    C1 6249   3.487   0.996  12.192 -0.0362  0.8024  0.1044
  419MPD2    C2 6250   3.408   1.015  12.303  0.9293  0.1697  0.1542
  419MPD2    C3 6251   3.420   0.932  12.413 -0.4141  0.0125  0.0474
  419MPD2    C4 6252   3.497   0.819  12.411 -0.1522 -0.1243  0.3679
  419MPD2    C5 6253   3.575   0.802  12.301  0.1114  0.4286 -0.2830
  419MPD2     H 6254   3.338   1.098  12.303  0.5361 -0.1677  0.6410
  419MPD2    H1 6255   3.497   0.740  12.485 -2.4592  0.0782  0.5814
  419MPD2    H2 6256   3.642   0.881  12.105  1.4202  2.9897  1.1824
  419MPD2    H3 6257   3.638   0.714  12.290 -0.2990  0.4323 -2.7079
  419MPD2     N 6258   3.346   0.966  12.525  0.0243  0.5522 -0.0294
  419MPD2    H5 6259   3.289   1.050  12.517 -0.2979  0.3569  0.2147
  419MPD2    N1 6260   3.483   1.106  12.097  0.0748  0.2156  0.2378
  419MPD2    H7 6261   3.399   1.162  12.099 -0.2957 -0.3370  0.2310
  420TMC3    C1 6262   3.262   0.981  12.742 -0.2740  0.8615  0.5676
  420TMC3    C2 6263   3.137   1.006  12.690  0.2543  0.1080  0.1323
  420TMC3    C3 6264   3.053   1.094  12.748 -0.2576 -0.1581  0.7774
  420TMC3    C4 6265   3.302   1.034  12.856  0.8767 -0.0947  0.2224
  420TMC3    C5 6266   3.207   1.116  12.920  0.0893 -0.2168  0.5472
  420TMC3    C6 6267   3.088   1.155  12.861  0.1562 -0.1819  0.5038
  420TMC3     C 6268   3.361   0.919  12.653 -0.2247 -0.7632 -0.6015
  420TMC3     O 6269   3.444   0.847  12.702  0.2897  0.3643  0.2301
  420TMC3     H 6270   3.097   0.956  12.602 -0.1363  1.2478 -0.3456
  420TMC3    H1 6271   3.401   1.031  12.900  0.5175  1.7655  1.1577
  420TMC3    H2 6272   3.024   1.219  12.920  0.0325 -1.2012  1.4677
  420TMC3    C7 6273   3.239   1.176  13.048  0.1514 -0.3299  0.0723
  420TMC3    C8 6274   2.962   1.162  12.652  0.0033 -1.0764  0.0458
  420TMC3    O1 6275   3.144   1.215  13.119  0.3493 -0.2633  0.3027
  420TMC3    O2 6276   2.958   1.113  12.541 -0.1559 -0.2832 -0.0590
  421TMC3    C1 6277   4.418   3.266  13.859  0.0386  0.8544  0.5116
  421TMC3    C2 6278   4.440   3.394  13.901 -0.1528  0.4602  0.3241
  421TMC3    C3 6279   4.446   3.424  14.030  0.0759 -0.1688 -0.2539
  421TMC3    C4 6280   4.399   3.161  13.952 -0.3297 -0.3799 -0.0634
  421TMC3    C5 6281   4.403   3.198  14.083 -0.5421 -0.2824 -0.8590
  421TMC3    C6 6282   4.425   3.327  14.128 -0.3325 -0.0114 -0.2268
  421TMC3     C 6283   4.457   3.245  13.723  0.4048  0.5010  0.2130
  421TMC3     O 6284   4.531   3.326  13.669  0.2385 -0.0115  0.5113
  421TMC3     H 6285   4.464   3.470  13.828  0.4378  0.1143  0.1529
  421TMC3    H1 6286   4.374   3.060  13.925 -0.2146 -0.3325 -0.3400
  421TMC3    H2 6287   4.439   3.354  14.232  1.7568  0.3337 -0.6025
  421TMC3    C7 6288   4.393   3.094  14.178 -0.0515 -0.4535  0.0875
  421TMC3    C8 6289   4.530   3.532  14.062  0.3709 -0.0135 -0.1035
  421TMC3    O1 6290   4.347   3.124  14.289 -0.4750  0.4921 -0.1981
  421TMC3    O2 6291   4.623   3.551  13.988  0.3863 -0.0698  0.4748
  422TMC3    C1 6292   2.370   4.001  12.456  0.1249 -0.2008  1.1270
  422TMC3    C2 6293   2.320   4.125  12.432 -0.4015 -0.1220 -0.3342
  422TMC3    C3 6294   2.197   4.152  12.501  0.7339  0.4081  0.2391
  422TMC3    C4 6295   2.300   3.899  12.516 -0.0282  0.1362  0.4533
  422TMC3    C5 6296   2.177   3.926  12.578  1.5585 -0.3186 -0.0315
  422TMC3    C6 6297   2.131   4.057  12.570  0.4093  0.3411  0.4471
  422TMC3     C 6298   2.482   3.960  12.360  0.1133  0.0351  0.0836
  422TMC3     O 6299   2.493   4.019  12.255  0.3753 -0.8883 -0.0841
  422TMC3     H 6300   2.379   4.202  12.383 -1.5895  1.8852  1.3852
  422TMC3    H1 6301   2.338   3.797  12.520 -1.4420 -0.4111 -0.2204
  422TMC3    H2 6302   2.038   4.076  12.621  0.2399 -0.6862  0.5282
  422TMC3    C7 6303   2.114   3.812  12.644 -1.0757  1.0716  0.0302
  422TMC3    C8 6304   2.163   4.294  12.515 -0.3504  0.1366 -0.2388
  422TMC3    O1 6305   2.158   3.701  12.628  0.1719 -0.5404  0.0542
  422TMC3    O2 6306   2.247   4.377  12.485  0.1682 -0.3186 -0.3211
  423MPD2     C 6307   2.942   0.542   0.363  0.0464  0.0574 -0.0775
  423MPD2    C1 6308   2.927   0.406   0.373 -0.2940  0.4567 -0.3958
  423MPD2    C2 6309   3.014   0.335   0.293 -0.0504  0.4856 -0.8876
  423MPD2    C3 6310   3.111   0.394   0.224 -0.1078  0.1533 -0.7636
  423MPD2    C4 6311   3.124   0.527   0.206 -0.4548 -0.1280  0.9422
  423MPD2    C5 6312   3.037   0.596   0.277  0.0050  0.5419  0.1901
  423MPD2     H 6313   3.002   0.227   0.285  0.4188  0.3815 -0.2094
  423MPD2    H1 6314   3.195   0.571   0.136 -3.5582  0.8778 -1.5433
  423MPD2    H2 6315   2.885   0.615   0.419 -0.2665 -2.4321  2.8313
  423MPD2    H3 6316   3.054   0.701   0.258  0.5832 -0.0231 -2.4237
  423MPD2     N 6317   3.199   0.320   0.146  0.1244  0.2139  0.2416
  423MPD2    H5 6318   3.260   0.361   0.076  0.7042  0.1949  0.7352
  423MPD2    N1 6319   2.837   0.352   0.468 -0.2397 -1.0528 -0.3049
  423MPD2    H7 6320   2.794   0.410   0.539  2.5127  1.1416 -0.4623
  424TMC3    C1 6321   2.794   0.211   0.650  0.7442  0.4999 -0.5106
  424TMC3    C2 6322   2.823   0.093   0.711 -0.0028  0.6814  0.2535
  424TMC3    C3 6323   2.794   0.087   0.853 -0.0265  0.5980  0.3848
  424TMC3    C4 6324   2.750   0.323   0.711  0.3360  0.2841 -0.3663
  424TMC3    C5 6325   2.728   0.310   0.851  0.4698 -0.6443  0.4809
  424TMC3    C6 6326   2.751   0.201   0.922  0.0594  0.3292 -0.4380
  424TMC3     C 6327   2.847   0.225   0.512 -0.2989  0.5361  0.1803
  424TMC3     O 6328   2.906   0.126   0.473 -0.0134  0.2583  0.1530
  424TMC3     H 6329   2.845   4.723   0.660  0.1587  0.1740  1.2598
  424TMC3    H1 6330   2.727   0.415   0.659  1.7137 -0.2817 -1.9688
  424TMC3    H2 6331   2.754   0.200   1.030  1.3035 -0.6631 -0.4823
  424TMC3    C7 6332   2.738   0.441   0.909 -0.0943  0.2329  0.4085
  424TMC3    C8 6333   2.831   4.693   0.934  0.1017  0.3180  1.1998
  424TMC3    O1 6334   2.816   0.515   0.847  0.2198 -0.3252 -0.3097
  424TMC3    O2 6335   2.771   4.672   1.039 -0.1142 -0.5824  0.0781
  425MPD2     C 6336   2.474   4.135   0.137 -0.0513 -0.1433  0.1043
  425MPD2    C1 6337   2.431   4.060   0.031 -0.5889  0.4516  0.7011
  425MPD2    C2 6338   2.298   4.072  17.688 -0.6419 -0.5392 -0.1214
  425MPD2    C3 6339   2.214   4.166   0.054 -0.5098  0.2012  0.6068
  425MPD2    C4 6340   2.263   4.244   0.157  0.1683  0.8180  0.5146
  425MPD2    C5 6341   2.390   4.222   0.202  0.3479  0.3940 -0.5317
  425MPD2     H 6342   2.256   4.013  17.607  2.0759 -0.2046 -1.7888
  425MPD2    H1 6343   2.204   4.316   0.214  2.3656  0.9456  2.6043
  425MPD2    H2 6344   2.572   4.125   0.182  0.0648  0.1037 -0.0934
  425MPD2    H3 6345   2.421   4.273   0.292  0.7720  0.7854 -0.8923
  425MPD2     N 6346   2.081   4.165   0.002 -0.4434  0.0686  0.5582
  425MPD2    H5 6347   2.062   4.113  17.612  1.6635 -1.8133  1.2296
  425MPD2    N1 6348   2.524   3.961  17.682 -0.0580 -0.0779 -0.7087
  425MPD2    H7 6349   2.616   3.957   0.030 -1.1279 -0.5818  1.5561
  426TMC3    C1 6350   2.602   3.778  17.537  0.3126  0.1126 -1.2651
  426TMC3    C2 6351   2.589   3.704  17.422 -0.1702  0.0072  0.4852
  426TMC3    C3 6352   2.672   3.606  17.393  0.1390  0.0570  0.6836
  426TMC3    C4 6353   2.680   3.733  17.641  0.1559  0.4963 -0.5038
  426TMC3    C5 6354   2.750   3.618  17.611  0.0578  1.2947 -1.1602
  426TMC3    C6 6355   2.754   3.555  17.487  0.2778  0.0313 -0.9738
  426TMC3     C 6356   2.503   3.876  17.571 -0.3698 -0.2126  0.3283
  426TMC3     O 6357   2.410   3.888  17.487 -0.0574  0.0128 -0.5399
  426TMC3     H 6358   2.519   3.748  17.351 -0.5725  0.0219  0.8927
  426TMC3    H1 6359   2.693   3.798   0.031  2.5260 -1.8333  0.8859
  426TMC3    H2 6360   2.826   3.477  17.464 -1.6122 -1.7509 -0.7449
  426TMC3    C7 6361   2.806   3.554   0.031  0.7503 -0.4275 -0.5982
  426TMC3    C8 6362   2.691   3.545  17.265 -0.1316  0.2354 -0.2942
  426TMC3    O1 6363   2.916   3.507   0.014 -0.1073  0.1243  0.1455
  426TMC3    O2 6364   2.806   3.520  17.222 -0.8362  0.2714 -0.1488
  427MPD2     C 6365   0.621   0.776  15.156  0.8792  0.2488  0.6554
  427MPD2    C1 6366   0.696   0.878  15.119 -0.0221  0.0445 -0.0912
  427MPD2    C2 6367   0.651   1.006  15.142 -0.1076 -0.1162 -1.0265
  427MPD2    C3 6368   0.533   1.031  15.214  0.5698 -0.2520 -0.2837
  427MPD2    C4 6369   0.456   0.927  15.262 -0.3400 -0.3630 -1.1202
  427MPD2    C5 6370   0.504   0.797  15.236 -0.7931 -0.5642 -0.2579
  427MPD2     H 6371   0.717   1.088  15.114  2.1647 -1.6503 -0.2050
  427MPD2    H1 6372   0.367   0.947  15.320  0.5687 -1.1928  0.5643
  427MPD2    H2 6373   0.653   0.674  15.141  2.4018  0.5532  1.7318
  427MPD2    H3 6374   0.449   0.712  15.275 -2.5290  0.9234  0.5536
  427MPD2     N 6375   0.481   1.157  15.247 -0.3475 -0.3105 -0.4241
  427MPD2    H5 6376   0.387   1.159  15.285 -0.5063  3.9182 -0.9775
  427MPD2    N1 6377   0.815   0.853  15.047  0.1367 -0.0144 -0.2938
  427MPD2    H7 6378   0.872   0.934  15.027 -1.2850  0.5195 -2.1597
  428TMC3    C1 6379   0.999   0.739  14.962  0.4047 -0.4880  0.4388
  428TMC3    C2 6380   1.062   0.624  14.956  0.0285 -0.3409 -0.4225
  428TMC3    C3 6381   1.195   0.626  14.915 -0.2031 -0.0989  0.5816
  428TMC3    C4 6382   1.061   0.860  14.931 -0.1648 -0.2693  0.2393
  428TMC3    C5 6383   1.183   0.855  14.877  0.5413 -0.5353 -0.1784
  428TMC3    C6 6384   1.255   0.738  14.868  0.2836  0.0711 -0.5511
  428TMC3     C 6385   0.860   0.734  15.000  0.1443  0.0935  0.1104
  428TMC3     O 6386   0.799   0.626  14.987 -0.6582  0.3093 -0.4475
  428TMC3     H 6387   1.010   0.534  14.987 -0.9021  1.4098  3.1515
  428TMC3    H1 6388   1.007   0.951  14.905 -0.8025 -0.7308 -0.0623
  428TMC3    H2 6389   1.351   0.732  14.819  0.4814  3.4491 -0.6234
  428TMC3    C7 6390   1.244   0.980  14.894 -0.4857  0.3702  0.5073
  428TMC3    C8 6391   1.279   0.510  14.918  0.2399 -0.2200 -0.3210
  428TMC3    O1 6392   1.196   1.072  14.963 -0.3445 -0.1824 -0.0728
  428TMC3    O2 6393   1.380   0.508  14.851  0.1676 -0.0435  0.1490
  429MPD2     C 6394   2.593   1.653  17.687 -0.1061  0.9206  0.1985
  429MPD2    C1 6395   2.609   1.582  17.568 -0.0545 -0.7748 -0.2376
  429MPD2    C2 6396   2.708   1.622  17.483  0.5726 -0.3668  0.2581
  429MPD2    C3 6397   2.788   1.726  17.510  0.3037 -0.2885  0.1148
  429MPD2    C4 6398   2.774   1.794  17.623  0.4848 -0.4994 -0.1489
  429MPD2    C5 6399   2.682   1.748   0.019 -0.4044  0.0081 -0.4397
  429MPD2     H 6400   2.729   1.573  17.389  0.5330  1.9741 -0.9799
  429MPD2    H1 6401   2.844   1.874  17.648 -1.8962  0.8766  2.1158
  429MPD2    H2 6402   2.514   1.634   0.063  0.4950 -1.3443  0.2709
  429MPD2    H3 6403   2.674   1.789   0.118  0.0011  1.0875 -0.8563
  429MPD2     N 6404   2.893   1.755  17.418 -0.9048 -0.2351  0.2782
  429MPD2    H5 6405   2.912   1.683  17.349  2.6466  1.6817 -0.7831
  429MPD2    N1 6406   2.513   1.489  17.525 -0.0712  0.4761 -0.1778
  429MPD2    H7 6407   2.525   1.450  17.433  0.1571  1.3219 -0.5102
  430TMC3    C1 6408   3.038   1.873  17.307  0.9694 -0.5990 -0.2488
  430TMC3    C2 6409   3.008   1.990  17.235  0.1834 -0.2380  0.4395
  430TMC3    C3 6410   3.039   1.980  17.099 -0.5058  0.0545 -0.0907
  430TMC3    C4 6411   3.083   1.759  17.250 -0.1613  0.5131 -0.2625
  430TMC3    C5 6412   3.114   1.757  17.118 -0.1465  0.5848 -0.3219
  430TMC3    C6 6413   3.087   1.867  17.036  0.8450  0.3788 -0.3774
  430TMC3     C 6414   2.978   1.862  17.432  0.8914 -0.7216 -0.3332
  430TMC3     O 6415   2.957   1.967  17.484  0.2008  0.4135  0.0096
  430TMC3     H 6416   3.002   2.084  17.289  2.3747  0.0591  0.1680
  430TMC3    H1 6417   3.110   1.672  17.309 -2.3649  0.1792  0.2662
  430TMC3    H2 6418   3.106   1.870  16.930 -1.3569 -1.9967 -0.8545
  430TMC3    C7 6419   3.131   1.625  17.059  0.2414  0.3692 -0.4314
  430TMC3    C8 6420   2.960   2.061  17.005  0.3072 -0.2870  0.2821
  430TMC3    O1 6421   3.082   1.535  17.124  0.2502 -0.8922  0.0515
  430TMC3    O2 6422   2.986   2.049  16.884  0.0206 -0.1711 -0.4350
  431MPD2     C 6423   3.247   1.856  12.350  0.0836  0.2658 -0.0175
  431MPD2    C1 6424   3.339   1.898  12.251  0.1310 -0.1138 -0.3226
  431MPD2    C2 6425   3.377   1.804  12.156  0.3969  0.4137  0.2633
  431MPD2    C3 6426   3.318   1.676  12.148  0.3393  0.9735 -0.5737
  431MPD2    C4 6427   3.234   1.642  12.241  0.0468 -0.2535  0.1562
  431MPD2    C5 6428   3.203   1.731  12.342 -0.3215 -0.1939 -0.1657
  431MPD2     H 6429   3.452   1.831  12.082  1.7659 -2.0317  0.7845
  431MPD2    H1 6430   3.180   1.548  12.238 -0.3522 -0.0454  0.7445
  431MPD2    H2 6431   3.234   1.906  12.446 -3.2383 -0.2761 -0.1925
  431MPD2    H3 6432   3.130   1.699  12.414 -0.0936  0.0823  0.1887
  431MPD2     N 6433   3.358   1.577  12.056  0.8709 -0.3886  0.1938
  431MPD2    H5 6434   3.303   1.492  12.064  3.6653 -2.3661 -1.4909
  431MPD2    N1 6435   3.405   2.020  12.267 -0.4780 -0.0195 -0.1524
  431MPD2    H7 6436   3.474   2.046  12.197 -1.7126  1.9551 -0.6448
  432TMC3    C1 6437   3.461   1.462  11.883 -0.1890 -0.3423  0.0978
  432TMC3    C2 6438   3.519   1.479  11.758 -0.4483 -0.1339 -0.5075
  432TMC3    C3 6439   3.592   1.369  11.711 -0.5686 -0.1161  0.6758
  432TMC3    C4 6440   3.463   1.349  11.959 -0.0644 -0.1686  1.1638
  432TMC3    C5 6441   3.543   1.247  11.914 -0.3318 -0.0438 -0.5271
  432TMC3    C6 6442   3.605   1.258  11.788  0.1178  0.4705 -0.0892
  432TMC3     C 6443   3.441   1.590  11.948 -0.1275 -0.0050 -0.0983
  432TMC3     O 6444   3.487   1.694  11.906 -0.0025 -0.8173  0.9309
  432TMC3     H 6445   3.527   1.569  11.698  1.9147  1.0933  1.6314
  432TMC3    H1 6446   3.442   1.357  12.065  1.0730 -1.3131  1.4790
  432TMC3    H2 6447   3.669   1.176  11.757  0.3900  0.4002  0.6501
  432TMC3    C7 6448   3.568   1.127  11.989  0.8226  0.7867  0.0469
  432TMC3    C8 6449   3.688   1.389  11.596 -0.3349 -0.5036  0.3478
  432TMC3    O1 6450   3.661   1.058  11.951 -0.5116 -0.1632  0.3492
  432TMC3    O2 6451   3.647   1.475  11.516  0.2271 -0.2429  0.8993
  433MPD2     C 6452   2.012   0.528  11.099 -0.1821  0.0634  0.8928
  433MPD2    C1 6453   1.966   0.400  11.104 -0.1089 -0.3270  0.2727
  433MPD2    C2 6454   1.928   0.353  11.235 -0.8101  0.1606  0.5607
  433MPD2    C3 6455   1.947   0.433  11.341  0.2396  0.6553  0.4125
  433MPD2    C4 6456   1.993   0.560  11.323  0.1782 -0.0311 -0.6635
  433MPD2    C5 6457   2.023   0.606  11.210 -0.1737  0.9245 -0.8720
  433MPD2     H 6458   1.884   0.256  11.252  1.7731 -1.4465 -1.8869
  433MPD2    H1 6459   2.019   0.618  11.411 -0.6711  1.1846 -1.1992
  433MPD2    H2 6460   2.036   0.572  11.003  0.8549 -1.6907  0.3491
  433MPD2    H3 6461   2.059   0.708  11.212  1.2111  0.4174  0.0679
  433MPD2     N 6462   1.912   0.379  11.466 -0.3608  0.5753 -0.1124
  433MPD2    H5 6463   1.861   0.291  11.466  2.7451 -1.2109 -0.8363
  433MPD2    N1 6464   1.977   0.324  10.985 -0.4476 -0.4028  0.2053
  433MPD2    H7 6465   2.026   0.364  10.906 -0.1526  2.1065  1.6475
  434TMC3    C1 6466   2.054   0.134  10.886  0.2761 -0.3588  0.3888
  434TMC3    C2 6467   2.178   0.131  10.939 -0.6022  0.3022 -0.2319
  434TMC3    C3 6468   2.244   0.007  10.939 -0.5305 -0.0520 -1.0787
  434TMC3    C4 6469   1.992   0.023  10.837  1.1919 -0.3381 -0.3082
  434TMC3    C5 6470   2.063   4.628  10.838 -0.1918 -1.6063  0.9088
  434TMC3    C6 6471   2.190   4.615  10.883 -0.2498 -0.2507 -0.9715
  434TMC3     C 6472   1.961   0.190  10.983  0.2900  0.6803 -0.1064
  434TMC3     O 6473   1.914   0.116  11.070 -0.4569 -0.6367  0.0400
  434TMC3     H 6474   2.214   0.216  10.995  1.9219 -1.9669  1.6212
  434TMC3    H1 6475   1.886   0.017  10.817  1.2412 -3.5306  0.4361
  434TMC3    H2 6476   2.244   4.521  10.887 -1.8899 -1.1006  1.1081
  434TMC3    C7 6477   1.997   4.524  10.757 -0.5838  0.0388  0.1886
  434TMC3    C8 6478   2.367   0.005  11.014  0.2217  0.8535  0.1802
  434TMC3    O1 6479   1.912   4.563  10.676 -0.1990  0.6538  0.1968
  434TMC3    O2 6480   2.375   0.087  11.103 -0.4931 -0.2420  0.1209
  435MPD2     C 6481   4.198   4.702  15.544 -0.4293  0.0529  0.1119
  435MPD2    C1 6482   4.149   4.693  15.670  0.6132  0.0248  0.0040
  435MPD2    C2 6483   4.242   4.658  15.769  0.1057 -0.9845  0.0985
  435MPD2    C3 6484   4.369   4.631  15.748  0.2770 -0.2615  0.4849
  435MPD2    C4 6485   4.413   4.627  15.614  0.9988 -0.1404  1.0260
  435MPD2    C5 6486   4.326   4.656  15.514  0.3319 -0.6909  0.1879
  435MPD2     H 6487   4.207   4.640  15.870  0.3721  0.8616  0.5069
  435MPD2    H1 6488   4.519   4.607  15.597 -0.1688 -2.1844 -3.8627
  435MPD2    H2 6489   4.141   0.009  15.457  0.4670 -0.1318 -0.5459
  435MPD2    H3 6490   4.361   4.662  15.412 -0.0615  0.3773  0.1229
  435MPD2     N 6491   4.441   4.581  15.856 -0.4128  0.6602  0.0863
  435MPD2    H5 6492   4.389   4.574  15.943 -2.2531  0.4263 -1.0235
  435MPD2    N1 6493   4.021   4.718  15.711 -0.1397  0.6522 -0.3600
  435MPD2    H7 6494   4.009   4.719  15.811 -1.1567  1.7587 -0.4899
  436TMC3    C1 6495   3.647   0.204  15.741 -0.2561 -0.5733  0.2672
  436TMC3    C2 6496   3.719   0.133  15.648  0.1368 -0.1099  0.3849
  436TMC3    C3 6497   3.792   0.028  15.699  0.2996  0.7031 -0.8543
  436TMC3    C4 6498   3.639   0.173  15.873 -0.1406  0.8572 -0.4392
  436TMC3    C5 6499   3.715   0.066  15.915 -0.1990 -0.4792  0.8105
  436TMC3    C6 6500   3.802   4.722  15.831 -0.0549 -0.4684  0.6631
  436TMC3     C 6501   3.604   0.336  15.687  0.1902 -0.2083 -0.2218
  436TMC3     O 6502   3.597   0.351  15.564  1.0337  0.0253 -0.2879
  436TMC3     H 6503   3.700   0.144  15.542  0.9068  2.0758  0.4670
  436TMC3    H1 6504   3.561   0.220  15.932  1.5075  1.2202  1.4707
  436TMC3    H2 6505   3.858   4.636  15.867  0.8859 -0.8117 -1.5678
  436TMC3    C7 6506   3.698   0.020  16.048  0.8621  0.2268  0.1693
  436TMC3    C8 6507   3.914   0.020  15.629 -0.0727  0.3057 -0.4779
  436TMC3    O1 6508   3.740   4.636  16.089  0.4803  0.6975  0.0584
  436TMC3    O2 6509   3.918   0.052  15.510  0.6231 -0.4014 -0.5262
  437TMC3    C1 6510   2.725   2.339  12.193 -0.0304  0.9098  0.6892
  437TMC3    C2 6511   2.667   2.245  12.118 -0.2280  0.3259  0.2269
  437TMC3    C3 6512   2.733   2.196  12.006 -0.2084  0.3158  0.3774
  437TMC3    C4 6513   2.843   2.388  12.156 -0.2484 -0.0914  0.9767
  437TMC3    C5 6514   2.910   2.336  12.047  0.0558 -0.2336 -0.0772
  437TMC3    C6 6515   2.862   2.229  11.979 -0.0363 -0.8353 -0.2606
  437TMC3     C 6516   2.662   2.386  12.318  0.5139 -0.6771  0.6628
  437TMC3     O 6517   2.707   2.486  12.370 -0.5089  0.2647  0.5409
  437TMC3     H 6518   2.562   2.222  12.137 -0.7493  1.6361 -1.1314
  437TMC3    H1 6519   2.875   2.478  12.207  0.5152  0.2694 -0.1346
  437TMC3    H2 6520   2.924   2.173  11.910  0.1983 -0.7956 -0.0809
  437TMC3    C7 6521   3.031   2.400  12.001 -0.1620  0.3660  0.3007
  437TMC3    C8 6522   2.672   2.093  11.919  0.1716 -0.1579  0.5167
  437TMC3    O1 6523   3.074   2.344  11.899  0.1708 -0.5125  0.5423
  437TMC3    O2 6524   2.702   2.086  11.801 -0.1291  0.5111 -0.0074
  438MPD2     C 6525   0.768   2.786  16.670 -0.0897 -0.2446  0.1383
  438MPD2    C1 6526   0.830   2.660  16.667 -0.8466 -0.1382  0.5020
  438MPD2    C2 6527   0.808   2.582  16.777  0.3811  0.0662 -0.4766
  438MPD2    C3 6528   0.759   2.629  16.900  0.0647  0.7407 -0.1350
  438MPD2    C4 6529   0.720   2.757  16.904 -0.7601  0.1755  0.1608
  438MPD2    C5 6530   0.722   2.831  16.792  0.4888 -0.5039  0.1554
  438MPD2     H 6531   0.852   2.483  16.774 -0.2293 -0.2482  1.3491
  438MPD2    H1 6532   0.678   2.802  16.993 -1.7663  0.0074 -0.2195
  438MPD2    H2 6533   0.750   2.849  16.584  2.4961  0.1769 -0.0838
  438MPD2    H3 6534   0.681   2.931  16.794  1.4479 -0.1281  0.9011
  438MPD2     N 6535   0.741   2.552  17.020 -0.2330  0.5866  0.1752
  438MPD2    H5 6536   0.720   2.604  17.105 -0.0312  1.8019 -0.5220
  438MPD2    N1 6537   0.895   2.626  16.552  0.2688  0.2723 -0.0546
  438MPD2    H7 6538   0.909   2.528  16.528  0.5814  0.4914 -0.7628
  439TMC3    C1 6539   1.015   2.649  16.341  0.4138  0.3763 -0.1040
  439TMC3    C2 6540   0.970   2.666  16.215 -0.2511 -0.8028 -0.5994
  439TMC3    C3 6541   1.002   2.576  16.118 -0.3070 -0.3247 -0.5137
  439TMC3    C4 6542   1.104   2.549  16.377 -0.3069 -0.5178  0.1540
  439TMC3    C5 6543   1.146   2.465  16.273 -1.0599 -0.5622  0.5696
  439TMC3    C6 6544   1.088   2.478  16.151 -0.4534  0.0975 -0.6166
  439TMC3     C 6545   0.932   2.710  16.444 -0.5028  0.6521  0.1501
  439TMC3     O 6546   0.906   2.826  16.416  0.0428 -0.8499  0.2577
  439TMC3     H 6547   0.898   2.745  16.197  1.2786  0.0651 -2.9534
  439TMC3    H1 6548   1.132   2.532  16.481  0.6141  0.5487  0.0841
  439TMC3    H2 6549   1.130   2.427  16.065 -2.0517 -1.0350 -0.7208
  439TMC3    C7 6550   1.210   2.342  16.291  0.0871 -0.1060 -0.5131
  439TMC3    C8 6551   1.010   2.627  15.980  0.0545 -0.3004 -0.0013
  439TMC3    O1 6552   1.204   2.267  16.197 -0.0924  0.2395  0.5526
  439TMC3    O2 6553   1.037   2.544  15.891 -0.4884 -0.0285 -0.1842
  440MPD2     C 6554   4.175   2.962  15.185  0.4248  0.9264  0.2122
  440MPD2    C1 6555   4.244   3.024  15.286  0.4002 -0.2205 -0.5368
  440MPD2    C2 6556   4.384   3.037  15.282  0.4179  0.3607 -0.5391
  440MPD2    C3 6557   4.462   2.962  15.188  0.2789 -0.2441  0.5330
  440MPD2    C4 6558   4.390   2.892  15.093 -0.4632  0.2870 -0.3873
  440MPD2    C5 6559   4.249   2.898  15.092 -0.3753 -0.2350 -0.5453
  440MPD2     H 6560   4.437   3.091  15.359 -0.2944  0.9334 -0.4541
  440MPD2    H1 6561   4.443   2.837  15.016  0.9410  0.4431  0.4724
  440MPD2    H2 6562   4.067   2.970  15.175  0.5671 -0.5949 -2.3689
  440MPD2    H3 6563   4.212   2.835  15.011 -1.4806  0.8500 -0.8843
  440MPD2     N 6564   4.601   2.965  15.185  0.4019 -0.0654  0.4118
  440MPD2    H5 6565   4.645   2.900  15.120  0.7356 -1.2646  1.8396
  440MPD2    N1 6566   4.196   3.086  15.395  0.5393 -0.3025 -0.2050
  440MPD2    H7 6567   4.264   3.141  15.446  1.6898 -1.7250 -0.2243
  441TMC3    C1 6568   0.069   2.995  15.303 -0.3100 -0.5684  0.0896
  441TMC3    C2 6569   0.142   3.092  15.370  0.4963 -0.1908  0.4746
  441TMC3    C3 6570   0.177   3.057  15.495  0.5531  0.1042  0.3540
  441TMC3    C4 6571   0.043   2.872  15.356  1.0631  0.4689  0.3365
  441TMC3    C5 6572   0.087   2.843  15.478  0.3366 -0.5923  0.5743
  441TMC3    C6 6573   0.160   2.931  15.546 -0.5653  0.3310 -0.3530
  441TMC3     C 6574   4.679   3.059  15.243  0.0154  0.3001 -0.1161
  441TMC3     O 6575   4.669   3.176  15.274  0.0214  0.3518 -0.2639
  441TMC3     H 6576   0.175   3.185  15.325  0.4649  0.1576  1.1628
  441TMC3    H1 6577   4.697   2.797  15.319  0.6160  1.4404 -0.7988
  441TMC3    H2 6578   0.193   2.913  15.648  0.6104  0.7066 -0.6637
  441TMC3    C7 6579   4.714   2.787  15.574  0.1825 -0.6834 -0.0516
  441TMC3    C8 6580   0.143   3.160  15.587  1.0684  0.3458 -0.1463
  441TMC3    O1 6581   4.600   2.829  15.554 -0.3486  0.7472  0.0604
  441TMC3    O2 6582   0.183   3.144  15.701 -0.0411  0.0548 -0.5164
  442MPD2     C 6583   2.239   3.917  17.090  0.3736  0.1664 -0.0592
  442MPD2    C1 6584   2.144   3.906  16.987  0.5428  0.0650  0.1118
  442MPD2    C2 6585   2.167   3.809  16.891 -0.1073  0.1980  0.0062
  442MPD2    C3 6586   2.272   3.722  16.899 -0.2999  0.0977 -0.4854
  442MPD2    C4 6587   2.365   3.728  16.995  0.0542 -0.4879  0.1326
  442MPD2    C5 6588   2.347   3.826  17.093 -0.3827 -0.2690 -0.2338
  442MPD2     H 6589   2.110   3.815  16.799  0.9274 -0.0616 -0.6565
  442MPD2    H1 6590   2.449   3.660  16.994 -0.0558 -0.6028 -1.3179
  442MPD2    H2 6591   2.227   3.988  17.171  1.1419 -0.6107  0.7265
  442MPD2    H3 6592   2.411   3.820  17.180  0.8120  0.5673 -1.0672
  442MPD2     N 6593   2.300   3.622  16.805  0.3574 -0.1731 -0.2195
  442MPD2    H5 6594   2.394   3.584  16.808  0.0009 -1.1027 -0.7704
  442MPD2    N1 6595   2.047   4.004  16.968 -0.1644  0.0115  0.4406
  442MPD2    H7 6596   1.992   3.996  16.882  2.9301  0.0333 -1.5398
  443TMC3    C1 6597   1.908   4.191  16.983 -0.0914  0.0321 -0.4537
  443TMC3    C2 6598   1.919   4.206  16.850 -0.0413 -0.1980 -0.2827
  443TMC3    C3 6599   1.804   4.227  16.782  0.0472  0.2767 -0.0816
  443TMC3    C4 6600   1.789   4.205  17.054 -0.4276 -0.0721  0.2166
  443TMC3    C5 6601   1.675   4.227  16.982 -0.0026 -0.5467  0.3313
  443TMC3    C6 6602   1.684   4.240  16.846 -0.1137  0.3673  0.7265
  443TMC3     C 6603   2.002   4.104  17.051 -0.3376  0.1231 -0.3857
  443TMC3     O 6604   2.021   4.108  17.170  0.3935  0.3628 -0.8383
  443TMC3     H 6605   2.007   4.186  16.791  0.0476 -2.5286  0.6127
  443TMC3    H1 6606   1.789   4.202  17.162  0.5522 -0.0418  0.2167
  443TMC3    H2 6607   1.594   4.236  16.786  0.0192 -2.4889  0.7373
  443TMC3    C7 6608   1.571   4.134  17.030  0.1313  0.2247  0.8416
  443TMC3    C8 6609   1.803   4.173  16.650  0.6678 -0.3421 -0.7285
  443TMC3    O1 6610   1.611   4.060  17.118  0.0695 -0.3551  0.4948
  443TMC3    O2 6611   1.865   4.067  16.637  0.2414 -0.1646  0.6111
  444MPD2     C 6612   2.685   3.224  17.414  0.4963 -0.1555 -0.2095
  444MPD2    C1 6613   2.621   3.147  17.319 -0.9046 -0.7302  0.1761
  444MPD2    C2 6614   2.700   3.053  17.252 -0.2406  0.1205 -0.6997
  444MPD2    C3 6615   2.834   3.027  17.278 -0.6380  0.2506  0.0952
  444MPD2    C4 6616   2.894   3.108  17.371 -0.2830 -0.7284 -0.1496
  444MPD2    C5 6617   2.821   3.207  17.436 -0.0646 -0.0613  0.7646
  444MPD2     H 6618   2.650   2.981  17.189  1.1514 -3.4435  2.2963
  444MPD2    H1 6619   2.999   3.099  17.396 -0.3424 -1.3489 -0.1162
  444MPD2    H2 6620   2.634   3.294  17.478 -0.9490 -1.0565 -0.3699
  444MPD2    H3 6621   2.873   3.261  17.514 -0.0701  0.4981  0.3821
  444MPD2     N 6622   2.895   2.918  17.213 -0.6210  0.5007  0.8406
  444MPD2    H5 6623   2.831   2.867  17.154 -1.0440 -0.3072  2.0025
  444MPD2    N1 6624   2.480   3.149  17.310 -0.3833 -0.5743 -0.7116
  444MPD2    H7 6625   2.447   3.083  17.241 -0.6790 -0.6908 -0.4581
  445TMC3    C1 6626   3.064   2.806  17.097  0.4769  0.3157  0.1143
  445TMC3    C2 6627   2.970   2.773  17.003 -0.2994  0.0847  1.0063
  445TMC3    C3 6628   2.996   2.670  16.923  0.5337  0.5413  0.8540
  445TMC3    C4 6629   3.175   2.730  17.116 -0.6188 -0.3088 -0.0288
  445TMC3    C5 6630   3.199   2.624  17.035 -0.5519  0.3689 -0.2695
  445TMC3    C6 6631   3.110   2.589  16.938 -0.6082 -0.3400 -0.1718
  445TMC3     C 6632   3.029   2.909  17.198 -0.5224  0.0759  1.0373
  445TMC3     O 6633   3.122   2.952  17.265  0.0558 -0.0784  0.1707
  445TMC3     H 6634   2.890   2.842  16.976 -0.5665 -0.3104  0.7860
  445TMC3    H1 6635   3.254   2.768  17.180 -1.8515 -0.7938  1.7666
  445TMC3    H2 6636   3.147   2.530  16.855 -0.4585  1.1945 -1.2055
  445TMC3    C7 6637   3.338   2.601  16.988 -0.0164  0.1705  0.1123
  445TMC3    C8 6638   2.911   2.664  16.803  0.5304  0.6120 -0.7776
  445TMC3    O1 6639   3.351   2.586  16.867  0.1130  0.1438 -0.2817
  445TMC3    O2 6640   2.832   2.754  16.794 -0.0351 -0.2468  0.0880
  446MPD2     C 6641   2.074   4.625  11.489 -0.9340  0.3945  0.1293
  446MPD2    C1 6642   2.059   4.674  11.363 -0.0659  0.2871 -0.5590
  446MPD2    C2 6643   2.125   0.069  11.323  0.0913 -0.5229  0.2606
  446MPD2    C3 6644   2.200   0.138  11.414  0.0929  0.4917  0.6017
  446MPD2    C4 6645   2.213   0.090  11.547  0.1176  0.2724 -0.2933
  446MPD2    C5 6646   2.143   4.700  11.581 -0.9399 -0.2278  0.2182
  446MPD2     H 6647   2.122   0.096  11.218  0.0160 -3.6460 -0.5435
  446MPD2    H1 6648   2.283   0.127  11.621 -1.1819  2.6393 -0.2429
  446MPD2    H2 6649   2.012   4.543  11.524  2.3367 -2.4124 -0.6191
  446MPD2    H3 6650   2.156   4.669  11.683 -1.4271 -1.9961 -0.2635
  446MPD2     N 6651   2.278   0.241  11.361 -0.0254 -0.0569  0.3193
  446MPD2    H5 6652   2.271   0.268  11.263  0.0611  0.6548  0.5082
  446MPD2    N1 6653   1.988   4.602  11.268 -0.1299 -0.0280  0.7395
  446MPD2    H7 6654   1.959   4.656  11.187  1.2913 -2.2300 -1.2275
  447TMC3    C1 6655   2.459   0.397  11.337 -0.2088 -0.4842 -0.1588
  447TMC3    C2 6656   2.439   0.394  11.206  0.8857  0.0952  0.5054
  447TMC3    C3 6657   2.545   0.403  11.115 -0.7032  0.3245 -0.4153
  447TMC3    C4 6658   2.589   0.397  11.384 -0.3469 -0.2235 -0.1572
  447TMC3    C5 6659   2.699   0.406  11.298 -0.3697  0.0093  0.0609
  447TMC3    C6 6660   2.679   0.412  11.160  0.2590  0.2245 -0.4894
  447TMC3     C 6661   2.371   0.316  11.430 -0.3839  0.4062  0.5876
  447TMC3     O 6662   2.402   0.306  11.552 -0.1997  0.2716 -0.2814
  447TMC3     H 6663   2.336   0.404  11.171  0.5544  0.5312  1.6128
  447TMC3    H1 6664   2.608   0.387  11.490  2.3535 -0.6165 -0.6689
  447TMC3    H2 6665   2.757   0.417  11.085  0.1609 -2.7192 -0.8102
  447TMC3    C7 6666   2.833   0.369  11.341 -0.0129  0.6045 -1.0273
  447TMC3    C8 6667   2.512   0.354  10.983  0.0588  0.2415 -0.8063
  447TMC3    O1 6668   2.913   0.336  11.252  0.1573  0.7320  0.6012
  447TMC3    O2 6669   2.391   0.369  10.955  0.4012  0.6061  0.0128
  448TMC3    C1 6670   0.329   4.159  17.078  0.0510 -0.6209  0.1064
  448TMC3    C2 6671   0.318   4.022  17.058  0.0278 -0.2434  1.0120
  448TMC3    C3 6672   0.426   3.952  17.094  0.0201  0.1463 -0.5897
  448TMC3    C4 6673   0.430   4.218  17.148 -0.9566 -0.0886  0.4958
  448TMC3    C5 6674   0.535   4.137  17.183 -0.1366  0.1710 -0.8843
  448TMC3    C6 6675   0.536   4.002  17.162  0.1312 -0.5208 -0.8715
  448TMC3     C 6676   0.264   4.230  16.964  0.3041  0.2830 -0.2077
  448TMC3     O 6677   0.221   4.155  16.879  0.1823  0.7166 -0.6419
  448TMC3     H 6678   0.225   3.980  17.020  1.4582 -1.4035 -1.1911
  448TMC3    H1 6679   0.423   4.312  17.203 -0.4882  0.5240 -0.4865
  448TMC3    H2 6680   0.625   3.944  17.184  0.5766 -0.2277 -1.8775
  448TMC3    C7 6681   0.627   4.187  17.283 -0.3455  0.1773  0.0903
  448TMC3    C8 6682   0.470   3.861  16.991 -0.0691  0.2116  0.0111
  448TMC3    O1 6683   0.661   4.299  17.265 -0.3259 -0.3705 -0.4782
  448TMC3    O2 6684   0.568   3.791  17.011  0.9928 -0.0555 -0.4654
  449MPD2     C 6685   2.103   3.352  13.915  0.6298  0.0202  0.0072
  449MPD2    C1 6686   1.986   3.296  13.864 -0.0100 -0.7394 -0.5311
  449MPD2    C2 6687   1.908   3.217  13.949  0.2546  0.4178  0.1830
  449MPD2    C3 6688   1.957   3.185  14.072  0.1459 -0.1258  0.4057
  449MPD2    C4 6689   2.078   3.231  14.120  0.0278  0.0239  0.4672
  449MPD2    C5 6690   2.143   3.326  14.045 -0.4094  0.2470 -0.3198
  449MPD2     H 6691   1.810   3.181  13.919  1.1053 -2.0501  0.4033
  449MPD2    H1 6692   2.130   3.192  14.207  1.1741  1.4877  0.4461
  449MPD2    H2 6693   2.164   3.423  13.860 -0.2447  0.7051 -0.0723
  449MPD2    H3 6694   2.238   3.361  14.084  0.0478  0.3287 -1.5222
  449MPD2     N 6695   1.880   3.090  14.150  0.4253 -0.1354  0.0720
  449MPD2    H5 6696   1.783   3.081  14.120  0.9460 -0.4800 -1.5223
  449MPD2    N1 6697   1.949   3.307  13.735 -0.1550  0.2331 -0.4388
  449MPD2    H7 6698   1.862   3.263  13.707  0.9578 -1.8414 -0.5861
  450TMC3    C1 6699   1.946   3.364  13.517  0.0773 -0.3946 -0.2481
  450TMC3    C2 6700   2.024   3.304  13.425  0.2114 -0.4003 -0.7841
  450TMC3    C3 6701   1.959   3.210  13.346 -0.8404 -0.7000  0.4920
  450TMC3    C4 6702   1.818   3.340  13.537 -0.4855 -0.9894 -0.2695
  450TMC3    C5 6703   1.762   3.234  13.470 -0.2591 -0.8703 -0.2916
  450TMC3    C6 6704   1.829   3.168  13.372  0.7715 -0.7916  0.1609
  450TMC3     C 6705   2.020   3.377  13.637 -0.5107 -0.3716 -0.1615
  450TMC3     O 6706   2.134   3.423  13.642  0.0197 -0.8665  0.0035
  450TMC3     H 6707   2.123   3.338  13.396  0.5175 -1.0594 -0.4901
  450TMC3    H1 6708   1.762   3.393  13.613  0.0020 -1.5596  0.4896
  450TMC3    H2 6709   1.785   3.100  13.300  1.6421 -0.5336 -0.6085
  450TMC3    C7 6710   1.678   3.163  13.556  0.3502  0.4622 -0.0591
  450TMC3    C8 6711   2.030   3.143  13.237 -0.1633  0.2823  0.3523
  450TMC3    O1 6712   1.706   3.192  13.672  0.4898  0.2504 -0.2805
  450TMC3    O2 6713   1.967   3.073  13.157 -0.2330 -0.8332  0.4686
  451MPD2     C 6714   2.904   1.276   1.384 -0.1055  0.1204  0.1854
  451MPD2    C1 6715   3.010   1.300   1.303 -0.0679 -0.1076  1.1632
  451MPD2    C2 6716   3.095   1.198   1.287  0.0962 -0.3199 -0.0841
  451MPD2    C3 6717   3.069   1.070   1.340 -0.2257 -0.2523  0.2627
  451MPD2    C4 6718   2.949   1.046   1.400 -0.9386  0.0938  0.3620
  451MPD2    C5 6719   2.873   1.152   1.429  0.6326 -0.4720 -0.3481
  451MPD2     H 6720   3.186   1.214   1.231  1.5140  0.7703  2.5123
  451MPD2    H1 6721   2.917   0.954   1.448  0.8654 -0.2789  0.8450
  451MPD2    H2 6722   2.836   1.360   1.395  0.0070  0.0819  1.1670
  451MPD2    H3 6723   2.774   1.137   1.472  1.0115 -0.4031  0.5494
  451MPD2     N 6724   3.157   0.963   1.310  0.0688 -0.1292 -0.7595
  451MPD2    H5 6725   3.112   0.876   1.336 -0.2968  0.5215  0.7333
  451MPD2    N1 6726   3.030   1.434   1.261  0.2834  0.3921  0.3249
  451MPD2    H7 6727   2.953   1.501   1.266 -0.3626 -0.4526  1.6862
  452TMC3    C1 6728   3.328   0.842   1.189  0.0326 -0.0401  0.0742
  452TMC3    C2 6729   3.272   0.724   1.237 -0.8606 -0.1642 -0.2119
  452TMC3    C3 6730   3.296   0.619   1.152 -0.1188 -0.0079 -0.1147
  452TMC3    C4 6731   3.402   0.846   1.074 -0.0303 -0.3043  0.0529
  452TMC3    C5 6732   3.400   0.737   0.992  0.1914 -0.3745 -0.0051
  452TMC3    C6 6733   3.349   0.617   1.025 -0.1764 -0.2820 -0.8657
  452TMC3     C 6734   3.274   0.974   1.239 -0.1248 -0.5951  0.1843
  452TMC3     O 6735   3.332   1.065   1.187  0.1711 -0.0543  0.4548
  452TMC3     H 6736   3.211   0.725   1.327  0.1262  1.8759  0.4295
  452TMC3    H1 6737   3.448   0.938   1.039  1.0690 -1.3299 -1.1851
  452TMC3    H2 6738   3.359   0.530   0.962  2.3934 -0.8575  0.3175
  452TMC3    C7 6739   3.388   0.775   0.855  0.2277  0.7872  0.0232
  452TMC3    C8 6740   3.298   0.498   1.234  0.3140  0.8760 -0.0424
  452TMC3    O1 6741   3.450   0.873   0.813 -0.7452  0.5280 -0.1969
  452TMC3    O2 6742   3.217   0.493   1.329  0.9993  0.0857 -0.2177
  453TMC3    C1 6743   4.656   3.704  11.906  0.5212 -0.5517  0.3708
  453TMC3    C2 6744   4.577   3.591  11.919 -0.6862 -0.1322 -0.1402
  453TMC3    C3 6745   4.467   3.580  11.846  0.4965  0.3733  0.4475
  453TMC3    C4 6746   4.605   3.817  11.844  0.2070  1.0499  0.3777
  453TMC3    C5 6747   4.497   3.797  11.769 -0.3315 -0.3757 -0.9524
  453TMC3    C6 6748   4.427   3.675  11.762 -0.3130  0.7945  0.5251
  453TMC3     C 6749   0.050   3.724  11.988  0.0520  0.4586  0.3069
  453TMC3     O 6750   0.089   3.840  12.002  0.0524  0.1579  0.0326
  453TMC3     H 6751   4.583   3.537  12.013 -1.1049 -2.4967 -1.4836
  453TMC3    H1 6752   4.671   3.902  11.829  0.5446  0.8430  0.7070
  453TMC3    H2 6753   4.338   3.655  11.703 -0.2058  1.2347  0.2091
  453TMC3    C7 6754   4.458   3.915  11.686  0.5970 -0.5373 -0.1781
  453TMC3    C8 6755   4.378   3.469  11.861  0.4486  0.1352 -0.3658
  453TMC3    O1 6756   4.515   4.022  11.704  0.3406 -0.3065  0.2660
  453TMC3    O2 6757   4.269   3.478  11.806 -0.2126  0.2648  0.2969
  454MPD2     C 6758   3.490   2.935  16.522 -0.2911  0.2900 -0.1438
  454MPD2    C1 6759   3.435   3.062  16.513  0.0273  0.4553 -0.1525
  454MPD2    C2 6760   3.390   3.117  16.628  0.6557 -0.2937 -0.4744
  454MPD2    C3 6761   3.389   3.039  16.746 -0.8798 -0.3436  0.0378
  454MPD2    C4 6762   3.453   2.922  16.755  0.7924 -0.1240 -0.6122
  454MPD2    C5 6763   3.507   2.876  16.642 -0.1004 -0.0918 -0.5398
  454MPD2     H 6764   3.338   3.212  16.622  1.5477  0.0682 -2.6880
  454MPD2    H1 6765   3.470   2.868  16.848  0.9095  0.0900 -0.5087
  454MPD2    H2 6766   3.531   2.886  16.434 -0.5827  0.5513 -0.4253
  454MPD2    H3 6767   3.556   2.780  16.653 -1.4707 -0.4337  2.7820
  454MPD2     N 6768   3.332   3.088  16.863  0.0847 -0.8176  0.1010
  454MPD2    H5 6769   3.376   3.057  16.949  0.4030  0.4595  0.4098
  454MPD2    N1 6770   3.417   3.127  16.391 -0.5378 -0.8491 -0.0493
  454MPD2    H7 6771   3.387   3.222  16.407  1.7028  0.1192 -1.6655
  455TMC3    C1 6772   3.125   3.196  16.789 -0.3024 -0.7189  0.5605
  455TMC3    C2 6773   3.064   3.317  16.772 -0.2439  0.4964 -0.6213
  455TMC3    C3 6774   2.952   3.327  16.692  0.1659  0.3288  0.0992
  455TMC3    C4 6775   3.085   3.089  16.717 -0.2154 -0.5044  0.0433
  455TMC3    C5 6776   2.980   3.106  16.626  0.4479  0.0181  0.6608
  455TMC3    C6 6777   2.909   3.221  16.611 -0.0539 -0.0683 -0.0725
  455TMC3     C 6778   3.249   3.197  16.869  0.1604 -0.3029 -0.0053
  455TMC3     O 6779   3.256   3.290  16.954  0.3348 -0.2793  0.3254
  455TMC3     H 6780   3.112   3.409  16.805  1.2111 -0.3312 -0.4632
  455TMC3    H1 6781   3.135   2.995  16.736 -1.0553 -1.3490 -1.8192
  455TMC3    H2 6782   2.833   3.229  16.534  1.9915 -2.5111 -2.3608
  455TMC3    C7 6783   2.984   3.028  16.510  0.5320  0.2355  0.2083
  455TMC3    C8 6784   2.849   3.391  16.772  0.3190 -0.1688  1.1212
  455TMC3    O1 6785   2.887   3.021  16.438 -0.1326 -0.3051 -0.1270
  455TMC3    O2 6786   2.895   3.493  16.822  0.2815  0.3683 -0.0190
  456MPD2     C 6787   1.183   3.167  15.985  0.0326 -0.0845 -0.3504
  456MPD2    C1 6788   1.192   3.050  16.070  0.0500  0.2661 -0.4034
  456MPD2    C2 6789   1.110   3.046  16.182 -0.6834 -0.1325  0.1402
  456MPD2    C3 6790   1.028   3.147  16.217 -0.3667 -0.2018 -0.0060
  456MPD2    C4 6791   1.020   3.260  16.143  0.5152  0.1715  0.5446
  456MPD2    C5 6792   1.097   3.270  16.026  0.0810 -0.5953  1.1183
  456MPD2     H 6793   1.121   2.961  16.249  2.5552  1.7740  2.0516
  456MPD2    H1 6794   0.969   3.350  16.176 -2.0461 -1.3592  0.7515
  456MPD2    H2 6795   1.249   3.182  15.900 -1.3197  1.7813 -1.0774
  456MPD2    H3 6796   1.097   3.362  15.969 -0.6596 -1.4902 -0.3281
  456MPD2     N 6797   0.960   3.124  16.332 -0.9317  0.3352 -0.9618
  456MPD2    H5 6798   0.976   3.033  16.375 -1.1382  0.3775 -0.7934
  456MPD2    N1 6799   1.267   2.941  16.021  0.0657 -0.0656 -0.0664
  456MPD2    H7 6800   1.290   2.945  15.923 -1.6355 -0.8675 -0.4933
  457TMC3    C1 6801   0.809   3.182  16.513 -0.3092  0.3920 -0.1281
  457TMC3    C2 6802   0.718   3.275  16.554  0.6487 -0.0619  0.1549
  457TMC3    C3 6803   0.691   3.292  16.685  0.5524  0.4856 -0.3831
  457TMC3    C4 6804   0.881   3.119  16.604  0.5709  0.0204 -0.4099
  457TMC3    C5 6805   0.862   3.139  16.739  0.7550 -0.3581  0.0255
  457TMC3    C6 6806   0.759   3.223  16.779  0.4959  0.3101 -0.3782
  457TMC3     C 6807   0.865   3.210  16.382 -0.5381  0.7433  0.3098
  457TMC3     O 6808   0.814   3.308  16.325 -0.2188  0.2504 -0.6538
  457TMC3     H 6809   0.675   3.353  16.492 -0.5681 -0.4758  0.4817
  457TMC3    H1 6810   0.967   3.062  16.570 -0.2890 -2.8290  2.2202
  457TMC3    H2 6811   0.737   3.248  16.882 -1.4313 -0.8876 -0.5153
  457TMC3    C7 6812   0.973   3.113  16.822  0.2325  0.4598 -0.3181
  457TMC3    C8 6813   0.604   3.398  16.734 -0.2354 -0.2625 -0.1509
  457TMC3    O1 6814   1.044   3.020  16.798 -0.1676  0.3454  0.0890
  457TMC3    O2 6815   0.633   3.437  16.847 -0.4740 -0.0042  0.2243
  458MPD2     C 6816   3.476   2.639  12.035 -0.5150  0.1319 -0.5576
  458MPD2    C1 6817   3.420   2.646  12.162  0.0585  0.1849  0.0573
  458MPD2    C2 6818   3.296   2.588  12.183  0.4957 -0.6054 -1.0307
  458MPD2    C3 6819   3.227   2.532  12.075 -0.4171 -0.4933  0.4018
  458MPD2    C4 6820   3.296   2.516  11.955  0.3453  0.0487 -0.3831
  458MPD2    C5 6821   3.416   2.577  11.933  0.1121  0.0151  0.3882
  458MPD2     H 6822   3.248   2.589  12.280  1.7103  0.8171 -0.4473
  458MPD2    H1 6823   3.260   2.459  11.870 -1.9814  0.3325  0.4072
  458MPD2    H2 6824   3.569   2.688  12.010  0.3648 -1.4174 -0.2859
  458MPD2    H3 6825   3.478   2.558  11.846  0.0162 -1.7893  0.7183
  458MPD2     N 6826   3.101   2.468  12.095  0.1717  0.3096  0.6148
  458MPD2    H5 6827   3.065   2.485  12.189 -0.6281  3.7834 -0.3247
  458MPD2    N1 6828   3.507   2.694  12.265 -0.1450 -0.2707  0.1056
  458MPD2    H7 6829   3.602   2.719  12.238  0.5048 -2.1564  0.6337
  459TMC3    C1 6830   3.605   2.699  12.475  0.8595 -0.7011  0.2587
  459TMC3    C2 6831   3.729   2.731  12.422  0.7208 -0.4221 -0.0508
  459TMC3    C3 6832   3.833   2.721  12.502  0.2397 -0.5542  0.2969
  459TMC3    C4 6833   3.590   2.666  12.609  0.3033 -1.2200 -0.0863
  459TMC3    C5 6834   3.704   2.652  12.681  0.3389  0.0690  0.6001
  459TMC3    C6 6835   3.822   2.677  12.629  0.3169 -0.2784  0.0272
  459TMC3     C 6836   3.490   2.668  12.395  0.5921  0.0474  0.6722
  459TMC3     O 6837   3.402   2.603  12.448 -0.0048 -0.5813 -0.1740
  459TMC3     H 6838   3.734   2.763  12.318  0.8351  0.1918  0.1474
  459TMC3    H1 6839   3.490   2.668  12.648  1.3686 -1.9520  2.6691
  459TMC3    H2 6840   3.911   2.675  12.691  0.1898 -1.0004  0.1938
  459TMC3    C7 6841   3.690   2.600  12.813  0.1694  0.4944 -0.0514
  459TMC3    C8 6842   3.957   2.796  12.477 -0.1596  0.2063  0.4034
  459TMC3    O1 6843   3.587   2.539  12.844  0.1623 -0.3364  0.1558
  459TMC3    O2 6844   4.051   2.771  12.548 -0.0863 -0.1869  0.3017
  460MPD2     C 6845   2.690   0.122  10.767  1.1475  0.1337 -0.0344
  460MPD2    C1 6846   2.587   0.203  10.801 -0.0593 -0.2771  0.2933
  460MPD2    C2 6847   2.462   0.197  10.733  0.4398  0.3920 -0.4471
  460MPD2    C3 6848   2.456   0.119  10.620 -0.4065 -0.4021 -0.6936
  460MPD2    C4 6849   2.566   0.043  10.582  0.0282  0.4608 -0.2672
  460MPD2    C5 6850   2.682   0.047  10.654  0.0426  0.0084  0.0273
  460MPD2     H 6851   2.380   0.264  10.756  0.9372  1.9193 -3.2378
  460MPD2    H1 6852   2.567   4.712  10.488  3.6911  1.5005 -0.8169
  460MPD2    H2 6853   2.778   0.115  10.830 -0.2016  1.6418  1.9924
  460MPD2    H3 6854   2.768   4.712  10.622 -0.4136 -0.6288 -0.0296
  460MPD2     N 6855   2.341   0.123  10.536  0.7082 -0.7297 -0.0156
  460MPD2    H5 6856   2.271   0.195  10.554  0.5064 -0.5701 -1.4857
  460MPD2    N1 6857   2.611   0.276  10.924  0.5261 -0.3745  0.1472
  460MPD2    H7 6858   2.697   0.267  10.976  0.7888 -0.0773 -0.2401
  461TMC3    C1 6859   2.193   0.086  10.352  0.2620  0.5692  0.0945
  461TMC3    C2 6860   2.133   4.722  10.266  0.6395 -0.3742  0.6815
  461TMC3    C3 6861   2.082   0.048  10.151 -0.0934  0.5614 -0.6532
  461TMC3    C4 6862   2.189   0.225  10.327  1.1547 -0.2067  0.1908
  461TMC3    C5 6863   2.103   0.268  10.227 -0.3418 -0.3308  0.0007
  461TMC3    C6 6864   2.060   0.185  10.130  0.0213 -0.0194  0.2621
  461TMC3     C 6865   2.300   0.035  10.439 -0.3486  0.9704  0.2649
  461TMC3     O 6866   2.348   4.649  10.418 -0.2561 -0.1726  0.0407
  461TMC3     H 6867   2.149   4.615  10.274  1.8225 -0.3381 -1.1129
  461TMC3    H1 6868   2.244   0.287  10.397 -1.3814  1.4519  0.7004
  461TMC3    H2 6869   1.998   0.214  10.047 -1.5002 -2.9625  0.3463
  461TMC3    C7 6870   2.084   0.408  10.198  0.5964 -0.2929  0.3881
  461TMC3    C8 6871   2.034   4.676  10.051  0.3446 -0.1482 -0.5082
  461TMC3    O1 6872   2.051   0.442  10.086 -0.2126 -0.6998 -0.0607
  461TMC3    O2 6873   2.023   4.718   9.937  0.1310 -0.0597  0.0851
  462TMC3    C1 6874   2.273   0.482   0.043  0.3922 -0.0601  0.0105
  462TMC3    C2 6875   2.312   0.372  17.669  0.8319  0.0036  0.8986
  462TMC3    C3 6876   2.239   0.258  17.675 -0.4990  0.7464  0.1211
  462TMC3    C4 6877   2.151   0.490   0.108 -0.5657 -0.7834  0.5986
  462TMC3    C5 6878   2.073   0.378   0.087  0.4548  0.5867  0.2806
  462TMC3    C6 6879   2.114   0.259   0.025  0.1713 -0.0296 -0.1118
  462TMC3     C 6880   2.326   0.601  17.680  0.4890  0.7539 -0.0267
  462TMC3     O 6881   2.384   0.590  17.572 -0.2057  0.1006 -0.7336
  462TMC3     H 6882   2.413   0.363  17.628  0.3742  2.1239 -0.6980
  462TMC3    H1 6883   2.099   0.582   0.132 -0.1666 -0.2507 -0.5983
  462TMC3    H2 6884   2.058   0.168   0.039 -1.8487  1.0192 -1.4029
  462TMC3    C7 6885   1.962   0.359   0.173 -0.5926  0.3549  0.2712
  462TMC3    C8 6886   2.300   0.126  17.658 -0.3492  0.2522 -0.2979
  462TMC3    O1 6887   1.883   0.279   0.123  0.5905  0.2420  0.3210
  462TMC3    O2 6888   2.240   0.040   0.025  0.2653 -0.6980  0.3699
  463MPD2     C 6889   2.989   4.340   1.657 -0.8712  0.2234 -0.5834
  463MPD2    C1 6890   2.936   4.448   1.587  0.1826 -0.4919 -0.6450
  463MPD2    C2 6891   3.004   4.506   1.485 -0.1025 -0.9104 -0.2690
  463MPD2    C3 6892   3.128   4.451   1.444  0.6234  0.1179 -0.4182
  463MPD2    C4 6893   3.173   4.332   1.508 -0.1081  0.3879 -0.4546
  463MPD2    C5 6894   3.102   4.280   1.609  0.2660  0.4274  0.4503
  463MPD2     H 6895   2.961   4.592   1.433  0.6124 -1.2824 -1.4838
  463MPD2    H1 6896   3.261   4.278   1.477  0.7171  1.2789  0.3189
  463MPD2    H2 6897   2.932   4.280   1.728 -0.3947  1.4605  0.8451
  463MPD2    H3 6898   3.118   4.179   1.645 -1.2959  0.1974  0.5001
  463MPD2     N 6899   3.198   4.496   1.335  0.1065 -0.4331  0.0303
  463MPD2    H5 6900   3.283   4.443   1.319 -1.1223 -2.9305  1.8954
  463MPD2    N1 6901   2.798   4.482   1.604 -0.6057  0.1549 -0.6777
  463MPD2    H7 6902   2.761   4.556   1.545  3.1497  0.5296 -2.5385
  464TMC3    C1 6903   2.578   4.480   1.679  0.0088  0.2371  0.2704
  464TMC3    C2 6904   2.552   4.600   1.618 -0.1699  0.0487 -0.2753
  464TMC3    C3 6905   2.428   4.614   1.566  0.2888 -0.3685 -0.4999
  464TMC3    C4 6906   2.483   4.384   1.698  0.0352  0.7265 -0.3040
  464TMC3    C5 6907   2.359   4.407   1.643 -0.5506 -0.3350 -0.8085
  464TMC3    C6 6908   2.327   4.528   1.587  0.7690  0.0969 -0.1220
  464TMC3     C 6909   2.713   4.422   1.692  0.1124 -0.7125  0.4946
  464TMC3     O 6910   2.729   4.333   1.774 -0.6985  0.2105 -0.3127
  464TMC3     H 6911   2.620   4.684   1.614 -1.4624  1.0730 -0.4618
  464TMC3    H1 6912   2.506   4.295   1.757  0.5597  0.7762 -0.4315
  464TMC3    H2 6913   2.224   4.550   1.558  0.7410 -0.6450 -0.5858
  464TMC3    C7 6914   2.245   4.325   1.676 -0.1026  0.1454  0.1789
  464TMC3    C8 6915   2.392   0.023   1.509 -0.4120 -0.4196  0.4835
  464TMC3    O1 6916   2.137   4.380   1.685 -0.0672 -0.3199 -0.1417
  464TMC3    O2 6917   2.482   0.083   1.456  0.3252 -0.4715 -0.2670
  465MPD2     C 6918   0.578   3.087  17.543 -0.1070 -0.4857  0.2424
  465MPD2    C1 6919   0.474   3.017  17.596  0.3210 -0.5809 -0.7201
  465MPD2    C2 6920   0.345   3.045  17.561 -0.5744 -0.1011  0.3078
  465MPD2    C3 6921   0.322   3.153  17.476 -0.6390  0.2876  0.4463
  465MPD2    C4 6922   0.429   3.221  17.417 -0.4911  0.0225 -0.6290
  465MPD2    C5 6923   0.555   3.192  17.460  0.1725 -0.4983 -0.6961
  465MPD2     H 6924   0.259   3.000  17.609 -1.2876  0.1739 -0.7064
  465MPD2    H1 6925   0.421   3.311  17.357  0.8688  0.9610  0.5794
  465MPD2    H2 6926   0.684   3.070  17.559 -0.0712  2.1226  2.9963
  465MPD2    H3 6927   0.640   3.250  17.427  1.2899 -1.8871 -0.2572
  465MPD2     N 6928   0.183   3.182  17.450  0.0704 -0.5515  0.3830
  465MPD2    H5 6929   0.116   3.158  17.523  0.3517  0.4707  0.9855
  465MPD2    N1 6930   0.494   2.902  17.672  0.0646 -0.3054  0.0532
  465MPD2    H7 6931   0.415   2.842   0.003  0.3320 -0.8894 -0.4807
  466TMC3    C1 6932   4.500   3.264  17.339 -0.0384  0.3358  0.2808
  466TMC3    C2 6933   4.468   3.357  17.245  0.0318  0.7078  0.0287
  466TMC3    C3 6934   4.577   3.423  17.196  0.0575  0.5009  0.0011
  466TMC3    C4 6935   4.629   3.245  17.387  0.0923 -0.4490 -0.7123
  466TMC3    C5 6936   0.011   3.300  17.324 -0.2427 -0.4526  0.5023
  466TMC3    C6 6937   4.708   3.389  17.216 -0.5350 -0.6592  0.4126
  466TMC3     C 6938   4.399   3.255  17.437 -0.2582  0.2825 -0.1632
  466TMC3     O 6939   4.432   3.269  17.553  0.1944 -0.1938 -0.9811
  466TMC3     H 6940   4.365   3.384  17.223 -0.5637 -0.3824  1.4671
  466TMC3    H1 6941   4.651   3.202  17.483  0.4047 -0.0287 -0.5977
  466TMC3    H2 6942   0.060   3.441  17.159 -2.1798  1.5309  0.2354
  466TMC3    C7 6943   0.145   3.250  17.338 -0.0424 -0.0842  0.0224
  466TMC3    C8 6944   4.552   3.522  17.093  0.1374 -0.4666 -0.4868
  466TMC3    O1 6945   0.216   3.280  17.245 -0.5120  0.1442  0.6097
  466TMC3    O2 6946   4.630   3.524  16.997  0.3806 -0.2758 -0.6992
  467TMC3    C1 6947   0.596   1.706  14.261  0.1070 -0.5979  0.3908
  467TMC3    C2 6948   0.569   1.794  14.158  0.2779 -0.1380 -0.2724
  467TMC3    C3 6949   0.445   1.836  14.153 -0.1644  0.1653 -0.2394
  467TMC3    C4 6950   0.500   1.673  14.356  0.5729  0.1298  0.1806
  467TMC3    C5 6951   0.374   1.720  14.343  0.2738  0.9683  0.8674
  467TMC3    C6 6952   0.344   1.804  14.242  0.7196  0.0833 -0.2705
  467TMC3     C 6953   0.725   1.646  14.258  0.3420  0.4642  0.4800
  467TMC3     O 6954   0.734   1.532  14.309 -0.3007 -0.7171  0.2859
  467TMC3     H 6955   0.648   1.823  14.089  0.9446  0.6463  0.8138
  467TMC3    H1 6956   0.527   1.611  14.440 -2.4676 -1.0979  0.2672
  467TMC3    H2 6957   0.242   1.835  14.221  0.2350 -0.8355  0.7621
  467TMC3    C7 6958   0.294   1.726  14.469  0.2313  0.5733 -0.8871
  467TMC3    C8 6959   0.407   1.908  14.031  0.2123 -0.8989  0.2454
  467TMC3    O1 6960   0.348   1.728  14.578 -0.2201  0.3070 -0.0824
  467TMC3    O2 6961   0.290   1.899  13.993  0.0354  0.9887  0.3636
  468MPD2     C 6962   4.363   4.670  10.770  0.2520  0.3305 -0.3838
  468MPD2    C1 6963   4.481   4.666  10.845 -0.2229  0.1473 -0.0561
  468MPD2    C2 6964   4.530   4.540  10.889 -0.1045  0.0153 -0.4937
  468MPD2    C3 6965   4.446   4.423  10.883 -0.2221 -0.3230 -0.0603
  468MPD2    C4 6966   4.324   4.438  10.826  0.0940  0.1080 -0.5474
  468MPD2    C5 6967   4.288   4.559  10.769  0.0668 -0.2927 -0.5503
  468MPD2     H 6968   4.620   4.533  10.947  0.9915 -0.4780 -2.2486
  468MPD2    H1 6969   4.246   4.363  10.823  1.6388 -1.4794 -1.0005
  468MPD2    H2 6970   4.324   0.040  10.731 -2.6418  0.1810  2.1628
  468MPD2    H3 6971   4.194   4.561  10.714  0.2919  1.9316 -0.8447
  468MPD2     N 6972   4.479   4.301  10.934 -0.1595  0.3729  0.0144
  468MPD2    H5 6973   4.406   4.233  10.950  3.1315 -3.0537  0.4168
  468MPD2    N1 6974   4.562   0.055  10.862 -0.3846 -0.6641 -0.0494
  468MPD2    H7 6975   4.647   0.039  10.915 -0.5465  2.6736  1.2043
  469TMC3    C1 6976   4.597   0.289  10.896 -0.2471  0.3239  0.0427
  469TMC3    C2 6977   4.692   0.255  10.994  0.3293  0.2684  0.0938
  469TMC3    C3 6978   0.025   0.366  11.065 -0.3175 -0.5747 -0.4495
  469TMC3    C4 6979   4.561   0.420  10.870 -0.0323 -0.1243  0.4152
  469TMC3    C5 6980   4.614   0.517  10.951  0.2740  0.3544 -0.6044
  469TMC3    C6 6981   4.704   0.494  11.046  0.2134 -0.3107  0.1529
  469TMC3     C 6982   4.526   0.185  10.826 -0.1508 -0.7193 -0.2522
  469TMC3     O 6983   4.430   0.226  10.763 -0.1272  0.7279  0.1523
  469TMC3     H 6984   0.006   0.155  11.005 -2.7026 -0.9755 -0.8274
  469TMC3    H1 6985   4.495   0.451  10.790 -1.6192 -1.5284  1.1709
  469TMC3    H2 6986   0.032   0.577  11.094 -3.1353 -0.1411  3.4619
  469TMC3    C7 6987   4.592   0.648  10.904  0.0824  0.1190 -0.3798
  469TMC3    C8 6988   0.146   0.328  11.134 -0.0246 -0.1476  0.2871
  469TMC3    O1 6989   4.601   0.671  10.784 -0.0990 -0.0228  0.4131
  469TMC3    O2 6990   0.224   0.251  11.078  0.0728 -0.6527  0.3528
  470TMC3    C1 6991   1.587   0.922   0.981 -0.5333  0.1706  0.2342
  470TMC3    C2 6992   1.666   1.033   0.957  0.1832  0.2630  0.3554
  470TMC3    C3 6993   1.801   1.017   0.940 -0.8361  0.6692 -0.1504
  470TMC3    C4 6994   1.651   0.801   0.995 -0.0278  0.1638  0.0737
  470TMC3    C5 6995   1.787   0.788   0.974 -0.6002  0.0251  0.1682
  470TMC3    C6 6996   1.865   0.896   0.944  0.0983  0.7580  0.9139
  470TMC3     C 6997   1.460   0.943   1.044 -1.0658  0.2972 -0.8044
  470TMC3     O 6998   1.447   1.041   1.119  0.0509  0.3839  0.4038
  470TMC3     H 6999   1.623   1.132   0.963  1.5290  0.8473  0.2437
  470TMC3    H1 7000   1.582   0.721   1.021 -1.2126  1.3874  0.6549
  470TMC3    H2 7001   1.973   0.882   0.939 -0.1494 -1.2010  1.1479
  470TMC3    C7 7002   1.847   0.658   0.980  0.0103 -0.0596  0.0640
  470TMC3    C8 7003   1.873   1.143   0.940 -0.3633 -1.1469 -0.4482
  470TMC3    O1 7004   1.954   0.654   0.928 -0.5365 -0.0394 -0.0714
  470TMC3    O2 7005   1.822   1.235   1.002  0.3549 -0.2544 -0.2445
  471MPD2     C 7006   2.585   2.380  16.851 -0.1858  0.3438  0.2288
  471MPD2    C1 7007   2.639   2.265  16.800 -0.4207  0.2426 -0.2202
  471MPD2    C2 7008   2.733   2.198  16.868 -0.1325  0.7196  0.0463
  471MPD2    C3 7009   2.775   2.233  16.993 -0.0620 -1.0803 -0.2175
  471MPD2    C4 7010   2.717   2.344  17.049 -0.0111  0.6142  0.3371
  471MPD2    C5 7011   2.626   2.414  16.977 -0.2595 -0.5377  0.0116
  471MPD2     H 7012   2.777   2.115  16.814  0.3288 -1.2758  3.4741
  471MPD2    H1 7013   2.756   2.386  17.141 -1.4586 -1.6466  1.9666
  471MPD2    H2 7014   2.516   2.445  16.798  0.5120 -0.3650 -1.5317
  471MPD2    H3 7015   2.583   2.503  17.021  1.1561  0.1496 -0.0039
  471MPD2     N 7016   2.881   2.163  17.062  0.1385  0.0256 -0.5051
  471MPD2    H5 7017   2.898   2.187  17.159  0.0141 -2.9515  0.2477
  471MPD2    N1 7018   2.605   2.222  16.673  0.1254  0.4579 -0.1377
  471MPD2    H7 7019   2.639   2.132  16.640 -1.1877  0.3748 -1.2933
  472TMC3    C1 7020   2.502   2.182  16.471 -0.6031 -0.0292  0.2707
  472TMC3    C2 7021   2.452   2.228  16.352 -0.1393  0.2679  0.3142
  472TMC3    C3 7022   2.415   2.130  16.259  0.5750 -0.3623 -0.1525
  472TMC3    C4 7023   2.533   2.047  16.490 -0.0761 -0.0711  0.2920
  472TMC3    C5 7024   2.497   1.956  16.393  0.7465 -0.5257  0.0140
  472TMC3    C6 7025   2.440   1.995  16.278 -0.3497 -0.1345 -0.7378
  472TMC3     C 7026   2.515   2.276  16.584  0.0267  0.0583  0.4260
  472TMC3     O 7027   2.444   2.374  16.580  0.0466 -0.3468 -0.0863
  472TMC3     H 7028   2.426   2.331  16.330 -1.4861  0.0403  0.8395
  472TMC3    H1 7029   2.554   2.010  16.590  1.5003 -0.2449 -0.1027
  472TMC3    H2 7030   2.416   1.918  16.206  5.5343 -0.6323 -2.1395
  472TMC3    C7 7031   2.503   1.810  16.437 -0.0472 -0.2792  0.5923
  472TMC3    C8 7032   2.309   2.163  16.166  0.4221  0.0741 -0.0959
  472TMC3    O1 7033   2.543   1.786  16.547 -0.2839 -0.1073  0.7312
  472TMC3    O2 7034   2.310   2.276  16.118  0.1735 -0.1965 -0.0526
  473MPD2     C 7035   2.618   4.395  13.566  0.0694  0.6993 -0.4699
  473MPD2    C1 7036   2.503   4.471  13.554 -0.3037 -0.2591 -0.0032
  473MPD2    C2 7037   2.487   4.585  13.630  0.3902  0.1045  0.2420
  473MPD2    C3 7038   2.580   4.624  13.724 -0.1688 -0.5101  0.2540
  473MPD2    C4 7039   2.699   4.552  13.734  0.2596  0.3775 -0.0535
  473MPD2    C5 7040   2.713   4.436  13.661 -0.5599  0.3291 -0.0180
  473MPD2     H 7041   2.390   4.634  13.627  1.6341  2.3090 -4.2974
  473MPD2    H1 7042   2.776   4.583  13.803  0.2750  0.4079 -0.0842
  473MPD2    H2 7043   2.645   4.307  13.509 -2.0620 -0.1950 -0.0869
  473MPD2    H3 7044   2.807   4.381  13.663  0.1141  1.4237 -2.0955
  473MPD2     N 7045   2.551   0.001  13.821  0.5583 -0.1279 -0.5011
  473MPD2    H5 7046   2.622   0.004  13.893 -1.3684  1.8143  1.3089
  473MPD2    N1 7047   2.396   4.424  13.477 -0.0009 -0.1684 -0.3652
  473MPD2    H7 7048   2.323   4.495  13.471 -2.4930 -2.7466 -0.3541
  474TMC3    C1 7049   2.416   0.156  13.942  0.0142  0.6992 -0.2480
  474TMC3    C2 7050   2.359   0.276  13.948 -0.0068  0.2502  0.3559
  474TMC3    C3 7051   2.363   0.352  14.058 -0.8734 -0.7238  0.2226
  474TMC3    C4 7052   2.473   0.107  14.056 -0.9533 -1.1048  0.0877
  474TMC3    C5 7053   2.467   0.177  14.172 -0.0494  0.8957 -0.1901
  474TMC3    C6 7054   2.409   0.300  14.175 -0.0383  0.3019  0.3539
  474TMC3     C 7055   2.437   0.084  13.819 -0.1157  0.0773  0.3748
  474TMC3     O 7056   2.377   0.126  13.719 -0.0490 -0.0412  0.4828
  474TMC3     H 7057   2.322   0.319  13.856  1.1444  0.9804  0.2402
  474TMC3    H1 7058   2.501   0.002  14.063  1.1645 -0.6050 -0.8971
  474TMC3    H2 7059   2.421   0.363  14.262 -0.4672 -3.1459  2.8569
  474TMC3    C7 7060   2.551   0.121  14.276 -0.9768 -0.4159  0.4501
  474TMC3    C8 7061   2.283   0.469  14.051 -0.5259 -0.6612  0.1335
  474TMC3    O1 7062   2.625   0.029  14.244  0.2769 -0.2263 -0.6421
  474TMC3    O2 7063   2.212   0.475  13.948 -0.3705 -0.0043 -0.0168
  475MPD2     C 7064   1.354   2.159  10.499  0.3101 -0.1599  0.2410
  475MPD2    C1 7065   1.287   2.218  10.392 -0.8732 -0.0118 -0.3846
  475MPD2    C2 7066   1.149   2.245  10.400 -0.1068 -0.2587  0.3805
  475MPD2    C3 7067   1.076   2.211  10.514 -0.1694  0.1053 -0.0279
  475MPD2    C4 7068   1.145   2.145  10.614  0.5540  0.3434 -0.3827
  475MPD2    C5 7069   1.279   2.127  10.605  0.7569 -0.3911 -0.1131
  475MPD2     H 7070   1.100   2.300  10.320 -1.1317 -0.4971  0.8443
  475MPD2    H1 7071   1.096   2.113  10.705 -1.4745 -0.3179 -1.7067
  475MPD2    H2 7072   1.462   2.156  10.503  0.2607 -0.8774  0.9354
  475MPD2    H3 7073   1.334   2.086  10.689 -1.3719 -1.6340  0.6744
  475MPD2     N 7074   0.939   2.238  10.512 -0.2861 -0.1836 -0.4101
  475MPD2    H5 7075   0.907   2.261  10.419  0.5401  0.5620 -0.5060
  475MPD2    N1 7076   1.370   2.267  10.290 -0.4473 -0.2200 -0.2807
  475MPD2    H7 7077   1.469   2.257  10.313 -0.2788  2.8884  0.3255
  476TMC3    C1 7078   1.436   2.427  10.137 -0.5537  0.2057 -0.9722
  476TMC3    C2 7079   1.377   2.532  10.062 -0.0781 -0.2365 -0.6859
  476TMC3    C3 7080   1.402   2.659  10.098  0.7298 -1.1062  0.1535
  476TMC3    C4 7081   1.522   2.455  10.232 -0.1440 -0.5651 -0.0549
  476TMC3    C5 7082   1.541   2.589  10.266  0.6680  0.2377 -0.2849
  476TMC3    C6 7083   1.482   2.694  10.205  0.6502  0.1630  0.6466
  476TMC3     C 7084   1.333   2.335  10.179  0.0502 -0.1387  0.1139
  476TMC3     O 7085   1.225   2.344  10.124  0.2846  0.1785  0.1510
  476TMC3     H 7086   1.300   2.498   9.993  1.1427  0.7501 -2.5326
  476TMC3    H1 7087   1.579   2.380  10.286 -2.2216 -1.3402  1.0802
  476TMC3    H2 7088   1.505   2.798  10.226 -1.7837  0.8150  0.0300
  476TMC3    C7 7089   1.535   2.599  10.412  0.5951 -0.6266  0.5154
  476TMC3    C8 7090   1.304   2.759  10.060  0.0339 -0.4477  0.7582
  476TMC3    O1 7091   1.525   2.493  10.474  0.4342  0.5946  0.2283
  476TMC3    O2 7092   1.347   2.866  10.026  0.0901 -0.5528  0.0404
  477MPD2     C 7093   3.249   4.164  11.496  0.1478 -0.0092  0.4340
  477MPD2    C1 7094   3.230   4.237  11.607  0.0295  0.3551 -0.1164
  477MPD2    C2 7095   3.258   4.188  11.728  0.0307 -0.1352  0.1586
  477MPD2    C3 7096   3.304   4.060  11.747 -0.0283 -0.0103  0.0842
  477MPD2    C4 7097   3.315   3.982  11.633 -0.1634  0.5739  0.2239
  477MPD2    C5 7098   3.291   4.037  11.512 -0.1872  0.4410 -0.1130
  477MPD2     H 7099   3.243   4.246  11.819 -1.7699 -1.4854  0.7078
  477MPD2    H1 7100   3.365   3.886  11.628 -2.9113 -0.9246  1.7149
  477MPD2    H2 7101   3.230   4.202  11.396 -1.5174 -1.4208  0.2092
  477MPD2    H3 7102   3.312   3.985  11.420  1.2269  2.0706 -0.6934
  477MPD2     N 7103   3.309   3.991  11.870  0.1840 -0.6611 -0.0486
  477MPD2    H5 7104   3.330   3.892  11.864 -1.4768 -0.9556 -1.0854
  477MPD2    N1 7105   3.183   4.370  11.587 -0.2934 -0.0900 -0.1897
  477MPD2    H7 7106   3.135   4.372  11.498 -2.0138 -3.9186  0.6444
  478TMC3    C1 7107   3.097   4.588  11.634 -0.4739 -0.4657 -0.2122
  478TMC3    C2 7108   3.009   4.613  11.733 -0.1853  0.3729 -0.0787
  478TMC3    C3 7109   2.910   4.705  11.709 -0.3716 -0.0795  0.4588
  478TMC3    C4 7110   3.070   4.621  11.502 -0.0859  0.6596 -0.0992
  478TMC3    C5 7111   2.967   4.704  11.483 -0.1704 -0.2710  0.2919
  478TMC3    C6 7112   2.885   0.025  11.582 -1.0515 -0.1171 -0.2725
  478TMC3     C 7113   3.186   4.474  11.678 -0.3994 -0.9246 -0.2495
  478TMC3     O 7114   3.237   4.481  11.788 -0.6580  0.1575 -0.2465
  478TMC3     H 7115   3.030   4.580  11.834  0.3241  0.5248 -0.1350
  478TMC3    H1 7116   3.142   4.588  11.429  0.4267 -0.3898  0.8597
  478TMC3    H2 7117   2.808   0.097  11.559  2.3470  3.3124 -1.0294
  478TMC3    C7 7118   2.936   0.003  11.348 -0.3783  0.6934  0.4209
  478TMC3    C8 7119   2.834   0.028  11.821  0.4109 -0.6425  0.0159
  478TMC3    O1 7120   3.036   4.715  11.273 -0.1481  0.3861  0.2087
  478TMC3    O2 7121   2.881   4.712  11.927 -0.0248 -0.1747 -0.0483
  479MPD2     C 7122   1.463   1.141  14.666  0.1139 -0.5379  0.4557
  479MPD2    C1 7123   1.413   1.111  14.791  0.1450 -0.5221 -0.2529
  479MPD2    C2 7124   1.469   1.179  14.900 -0.0226 -0.1833  0.8735
  479MPD2    C3 7125   1.561   1.280  14.890 -0.5866  0.8527  0.5295
  479MPD2    C4 7126   1.598   1.316  14.760 -0.6145  0.2986 -0.3152
  479MPD2    C5 7127   1.557   1.240  14.651 -0.6861 -0.0269  0.2055
  479MPD2     H 7128   1.436   1.142  14.996  0.8510 -1.8244  0.5343
  479MPD2    H1 7129   1.686   1.378  14.751  0.3178 -0.7580  1.4706
  479MPD2    H2 7130   1.437   1.078  14.582  0.6288 -0.9577  0.6136
  479MPD2    H3 7131   1.602   1.266  14.556 -0.7607 -3.1879 -0.6737
  479MPD2     N 7132   1.628   1.344  15.001  0.7326 -0.5841  0.4700
  479MPD2    H5 7133   1.705   1.407  14.982  0.6388 -0.3650  0.8239
  479MPD2    N1 7134   1.322   1.010  14.792  0.4001  0.2343 -0.3914
  479MPD2    H7 7135   1.315   0.949  14.710  1.5218 -0.6018  0.1366
  480TMC3    C1 7136   1.814   1.382  15.444 -0.2775  0.7451  0.3316
  480TMC3    C2 7137   1.876   1.498  15.405 -0.4457 -0.3120  0.4016
  480TMC3    C3 7138   1.845   1.554  15.284  0.1319 -0.4387 -0.3031
  480TMC3    C4 7139   1.733   1.316  15.345 -0.2024 -0.2080 -0.4282
  480TMC3    C5 7140   1.706   1.370  15.226 -0.9033 -0.9900  0.8457
  480TMC3    C6 7141   1.759   1.492  15.194  0.1236  0.9302 -0.0938
  480TMC3     C 7142   1.885   1.300  15.543  0.2879  0.3677  0.3079
  480TMC3     O 7143   1.847   1.185  15.537  0.0857  0.4159  0.1855
  480TMC3     H 7144   1.944   1.551  15.471 -1.7450  0.2176  1.3237
  480TMC3    H1 7145   1.688   1.219  15.364 -1.0245  0.1445 -0.5815
  480TMC3    H2 7146   1.744   1.531  15.094 -0.8132  0.0577 -0.2986
  480TMC3    C7 7147   1.617   1.303  15.135  0.4858  0.0331  0.1262
  480TMC3    C8 7148   1.879   1.696  15.259 -0.5582  0.1870  0.1822
  480TMC3    O1 7149   1.536   1.226  15.190 -0.0234 -0.2292 -0.0403
  480TMC3    O2 7150   1.900   1.763  15.360 -0.2988  0.1221 -0.0451
  481MPD2     C 7151   3.643   0.682  14.075  1.0528 -0.0403 -0.8171
  481MPD2    C1 7152   3.572   0.797  14.103 -0.1162 -0.1134 -0.7654
  481MPD2    C2 7153   3.562   0.844  14.231 -0.2627 -0.3881  0.8833
  481MPD2    C3 7154   3.609   0.761  14.326  0.2523  0.0630  0.4901
  481MPD2    C4 7155   3.680   0.647  14.306  0.2139  0.1224  0.2327
  481MPD2    C5 7156   3.690   0.606  14.176 -0.4944 -0.1741 -0.3499
  481MPD2     H 7157   3.519   0.942  14.246 -0.3020  0.0507 -2.0045
  481MPD2    H1 7158   3.726   0.586  14.382  0.4019  0.8805  0.7274
  481MPD2    H2 7159   3.665   0.659  13.972 -0.5888 -1.1884 -0.9049
  481MPD2    H3 7160   3.732   0.507  14.157 -0.8275  0.3400 -3.7964
  481MPD2     N 7161   3.586   0.794  14.463  0.3389 -0.2472  0.0459
  481MPD2    H5 7162   3.638   0.731  14.524 -0.0994 -1.8023 -1.1943
  481MPD2    N1 7163   3.517   0.864  13.993  0.2969 -0.1006  0.3543
  481MPD2    H7 7164   3.528   0.814  13.905  1.2791 -1.8271  1.4718
  482TMC3    C1 7165   3.439   1.030  13.849  0.4522 -0.1084 -0.3608
  482TMC3    C2 7166   3.315   0.973  13.818 -0.5555 -0.3822  0.1445
  482TMC3    C3 7167   3.221   1.046  13.754  0.3121  0.0803  0.0339
  482TMC3    C4 7168   3.460   1.161  13.819  0.6435  0.7494 -0.5261
  482TMC3    C5 7169   3.367   1.235  13.750  0.0916 -0.5956 -0.1953
  482TMC3    C6 7170   3.241   1.176  13.720  0.7748 -0.1877  0.6977
  482TMC3     C 7171   3.472   0.995  13.988  0.6403  0.5796  0.3669
  482TMC3     O 7172   3.472   1.082  14.074 -0.8542  0.3713  0.1052
  482TMC3     H 7173   3.285   0.881  13.869 -0.3502 -1.3139 -1.4064
  482TMC3    H1 7174   3.556   1.208  13.836  2.5524 -2.5961 -1.9925
  482TMC3    H2 7175   3.165   1.236  13.672 -0.1305 -1.2968  0.7452
  482TMC3    C7 7176   3.429   1.323  13.651 -0.1001  0.7527  0.1861
  482TMC3    C8 7177   3.088   1.001  13.782 -0.1895 -0.6929  0.3658
  482TMC3    O1 7178   3.517   1.405  13.678 -0.1060  0.1811 -0.1436
  482TMC3    O2 7179   3.072   0.921  13.871  0.3706  0.0430 -0.0559
  483TMC3    C1 7180   0.768   4.534   1.190  0.2217 -0.1810 -0.1457
  483TMC3    C2 7181   0.755   4.628   1.087 -0.0614  0.6269  0.6623
  483TMC3    C3 7182   0.871   4.681   1.030 -0.3139  0.1372 -0.2751
  483TMC3    C4 7183   0.898   4.502   1.233 -0.3050 -0.4728 -0.5534
  483TMC3    C5 7184   1.008   4.566   1.179  0.0257 -0.6324 -1.1112
  483TMC3    C6 7185   1.000   4.655   1.075 -0.3064  0.0484  0.4915
  483TMC3     C 7186   0.672   4.427   1.202  0.3334  0.0973  0.2416
  483TMC3     O 7187   0.553   4.457   1.194 -0.3537  0.6664  0.5974
  483TMC3     H 7188   0.660   4.667   1.052  0.3727  1.3997  0.3482
  483TMC3    H1 7189   0.917   4.436   1.317  1.6758 -0.3740 -0.9284
  483TMC3    H2 7190   1.088   4.712   1.046 -0.3283  0.7270  1.7802
  483TMC3    C7 7191   1.140   4.529   1.228  0.3007  0.2195 -0.0365
  483TMC3    C8 7192   0.874   0.021   0.906  0.3211 -0.1783  0.2455
  483TMC3    O1 7193   1.140   4.434   1.299  0.2339 -0.2769  0.0096
  483TMC3    O2 7194   0.981   0.076   0.881 -0.2525 -0.1427  0.3911
  484MPD2     C 7195   3.985   3.132  12.338 -0.1483  0.2710 -0.1124
  484MPD2    C1 7196   4.029   3.010  12.386 -0.0964 -0.4132 -0.4685
  484MPD2    C2 7197   4.164   2.995  12.407 -0.2897  0.1579  0.1382
  484MPD2    C3 7198   4.252   3.094  12.364  0.7283 -0.1691  0.0186
  484MPD2    C4 7199   4.205   3.215  12.317 -0.4293 -0.4736  0.3862
  484MPD2    C5 7200   4.070   3.231  12.307  0.6510 -0.4649  0.0165
  484MPD2     H 7201   4.199   2.906  12.459  2.9312  0.7594 -0.9928
  484MPD2    H1 7202   4.265   3.297  12.280  0.0237 -1.3275 -0.7391
  484MPD2    H2 7203   3.879   3.145  12.321  0.0040  0.4309 -0.9496
  484MPD2    H3 7204   4.033   3.315  12.251  2.0091  0.5967  0.7059
  484MPD2     N 7205   4.391   3.077  12.367  0.0355  0.8262 -0.6594
  484MPD2    H5 7206   4.441   3.164  12.354 -0.0298  0.5639 -2.6772
  484MPD2    N1 7207   3.931   2.910  12.407  0.0285  0.2632 -0.3185
  484MPD2    H7 7208   3.837   2.938  12.381  0.5036  1.8963 -0.2553
  485TMC3    C1 7209   4.611   2.981  12.406  0.7970 -0.4667 -0.1474
  485TMC3    C2 7210   4.679   2.877  12.462 -0.9195  0.2156 -0.1261
  485TMC3    C3 7211   0.088   2.884  12.463 -0.0402  0.2917  0.3869
  485TMC3    C4 7212   4.670   3.088  12.346 -0.5387  0.2463  0.8382
  485TMC3    C5 7213   0.085   3.086  12.348 -0.3526 -0.4049  0.7929
  485TMC3    C6 7214   0.160   2.994  12.420 -0.4878 -0.2753  0.8104
  485TMC3     C 7215   4.468   2.959  12.397  0.1066 -0.6642  0.1504
  485TMC3     O 7216   4.428   2.848  12.436  0.0136 -0.1221  0.2015
  485TMC3     H 7217   4.625   2.788  12.492 -0.4612 -0.0789 -0.1761
  485TMC3    H1 7218   4.616   3.152  12.278  3.1303 -0.4228 -2.7524
  485TMC3    H2 7219   0.268   3.006  12.417 -0.4340 -1.3766 -1.1905
  485TMC3    C7 7220   0.145   3.121  12.221 -0.1682 -0.8472 -0.3500
  485TMC3    C8 7221   0.165   2.764  12.436  0.0966 -0.6199 -0.1451
  485TMC3    O1 7222   0.096   3.203  12.147  0.0980  0.3608  1.0101
  485TMC3    O2 7223   0.269   2.781  12.372  0.0939  0.3728 -0.0118
  486MPD2     C 7224   1.223   1.486  13.032  0.0316 -0.3423  0.8059
  486MPD2    C1 7225   1.257   1.490  12.897 -0.1112  0.1058  0.3176
  486MPD2    C2 7226   1.308   1.612  12.851 -0.3262  0.7373  0.3229
  486MPD2    C3 7227   1.338   1.718  12.937 -0.0348  0.0361 -0.6061
  486MPD2    C4 7228   1.308   1.703  13.071 -0.2357 -0.4086  0.0666
  486MPD2    C5 7229   1.246   1.592  13.118 -0.4034  0.4286 -0.1212
  486MPD2     H 7230   1.340   1.623  12.748  2.2932  2.0180  1.2977
  486MPD2    H1 7231   1.346   1.769  13.148  0.1672  1.2030 -1.5079
  486MPD2    H2 7232   1.177   1.397  13.073 -1.3907 -0.5687 -1.2536
  486MPD2    H3 7233   1.222   1.572  13.222  0.6955  1.3276  0.3070
  486MPD2     N 7234   1.384   1.839  12.882 -0.6944 -0.1848 -0.3441
  486MPD2    H5 7235   1.397   1.846  12.781  2.4219 -0.9186  0.0042
  486MPD2    N1 7236   1.241   1.373  12.819  0.0705 -0.4420 -0.2515
  486MPD2    H7 7237   1.205   1.294  12.872 -0.6467 -0.3316 -0.5787
  487TMC3    C1 7238   1.230   1.235  12.630 -0.0715 -0.5227  0.6855
  487TMC3    C2 7239   1.228   1.127  12.712  0.3624  0.8334  0.1129
  487TMC3    C3 7240   1.213   1.001  12.656  0.8141 -0.3952  0.1389
  487TMC3    C4 7241   1.209   1.227  12.498 -0.1845 -0.5615 -0.0662
  487TMC3    C5 7242   1.206   1.096  12.450 -0.3700  0.7304  0.1622
  487TMC3    C6 7243   1.194   0.981  12.527 -0.3535  0.1008 -0.1893
  487TMC3     C 7244   1.258   1.366  12.678  0.9995 -0.8573  0.1778
  487TMC3     O 7245   1.287   1.449  12.593 -0.4522 -0.6445  0.0288
  487TMC3     H 7246   1.256   1.138  12.817 -0.7645 -1.2263  0.6267
  487TMC3    H1 7247   1.228   1.307  12.426  0.9565 -1.5587 -0.8851
  487TMC3    H2 7248   1.193   0.881  12.484 -0.9541 -1.1994  2.8555
  487TMC3    C7 7249   1.219   1.088  12.304 -0.9254  0.9192 -0.7514
  487TMC3    C8 7250   1.264   0.892  12.735 -0.0849  0.0477 -0.3151
  487TMC3    O1 7251   1.156   1.172  12.242  0.2772 -0.5819  0.3903
  487TMC3    O2 7252   1.320   0.803  12.671  0.0292  0.5057 -0.0904
  488MPD2     C 7253   1.676   3.152  16.395  0.0438 -0.3571 -0.2817
  488MPD2    C1 7254   1.718   3.274  16.444 -0.4184  0.1648  0.3949
  488MPD2    C2 7255   1.694   3.315  16.573  0.2280  0.3292  0.0051
  488MPD2    C3 7256   1.630   3.228  16.660  0.1495  0.0775 -0.6100
  488MPD2    C4 7257   1.590   3.106  16.611  0.1685  1.2612 -0.3503
  488MPD2    C5 7258   1.610   3.072  16.480  0.5816  0.4746  0.3042
  488MPD2     H 7259   1.733   3.410  16.606  0.0993  0.3422  0.1172
  488MPD2    H1 7260   1.526   3.040  16.668  0.2582  1.2111 -0.3072
  488MPD2    H2 7261   1.686   3.126  16.290 -1.7043  0.1432 -0.5718
  488MPD2    H3 7262   1.586   2.968  16.459  1.2717  0.4432 -0.3449
  488MPD2     N 7263   1.609   3.276  16.791 -0.1306  0.3968  0.2355
  488MPD2    H5 7264   1.640   3.372  16.805 -0.8779  0.6389  0.2586
  488MPD2    N1 7265   1.786   3.365  16.363 -0.4863  0.0351  0.4585
  488MPD2    H7 7266   1.811   3.453  16.407 -1.7603  1.0199 -0.8211
  489TMC3    C1 7267   1.562   3.289  17.020  0.1115  0.1279  0.3025
  489TMC3    C2 7268   1.513   3.418  17.012 -0.2608  0.2683  0.2394
  489TMC3    C3 7269   1.501   3.484  17.131  0.0730 -0.5461 -0.1916
  489TMC3    C4 7270   1.601   3.221  17.130 -0.5621  0.2945 -0.1707
  489TMC3    C5 7271   1.592   3.298  17.242  0.7994 -0.0262 -0.5148
  489TMC3    C6 7272   1.538   3.424  17.248 -0.9866 -0.5933  1.0541
  489TMC3     C 7273   1.566   3.206  16.901 -0.0167 -0.4336  0.0294
  489TMC3     O 7274   1.561   3.082  16.906  0.1840  0.1434  0.0574
  489TMC3     H 7275   1.482   3.454  16.914  1.1650  2.9719  0.7879
  489TMC3    H1 7276   1.648   3.123  17.125 -2.2753 -0.4192 -2.2250
  489TMC3    H2 7277   1.536   3.490  17.334  0.3740  1.1581 -0.2488
  489TMC3    C7 7278   1.636   3.255  17.370  0.8617  0.2214  0.0299
  489TMC3    C8 7279   1.462   3.621  17.123 -0.4181  0.0516  0.2798
  489TMC3    O1 7280   1.646   3.339  17.458 -0.8136 -0.2467 -0.0299
  489TMC3    O2 7281   1.460   3.686  17.223 -0.2639 -0.0297 -0.6110
  490MPD2     C 7282   2.504   2.845  17.529  0.2434  0.0545 -0.1950
  490MPD2    C1 7283   2.573   2.728  17.511 -0.4513 -0.0279  0.1204
  490MPD2    C2 7284   2.702   2.718  17.552 -0.2140 -0.1226 -0.1046
  490MPD2    C3 7285   2.760   2.828  17.610  0.5038 -0.5202 -0.2526
  490MPD2    C4 7286   2.689   2.944  17.637 -0.1815  0.1350  0.3004
  490MPD2    C5 7287   2.559   2.949  17.604 -0.0877  0.8102 -0.5155
  490MPD2     H 7288   2.752   2.623  17.540 -0.6216 -0.2817 -0.5329
  490MPD2    H1 7289   2.745   3.022  17.688  0.6941  1.0409 -2.0712
  490MPD2    H2 7290   2.398   2.846  17.507  0.7451 -1.1218 -2.6550
  490MPD2    H3 7291   2.496   3.035  17.623 -1.6751 -0.0716 -1.8674
  490MPD2     N 7292   2.901   2.838  17.634 -0.2478 -0.4128  0.1332
  490MPD2    H5 7293   2.937   2.925  17.673 -1.6888 -0.1323  0.8246
  490MPD2    N1 7294   2.529   2.614  17.437  0.2951  0.2026 -0.1046
  490MPD2    H7 7295   2.580   2.526  17.435 -0.0000 -0.0528  2.9074
  491TMC3    C1 7296   2.391   2.484  17.306 -0.3028  0.7768  0.1315
  491TMC3    C2 7297   2.400   2.377  17.393  0.4804 -0.0089  0.3813
  491TMC3    C3 7298   2.360   2.254  17.342  0.0500 -0.1892 -0.3718
  491TMC3    C4 7299   2.350   2.467  17.173  0.0972  0.4337  0.1983
  491TMC3    C5 7300   2.308   2.343  17.136 -0.0122  0.0539  0.2778
  491TMC3    C6 7301   2.297   2.235  17.216 -0.3766  0.5947 -0.4722
  491TMC3     C 7302   2.428   2.618  17.347 -0.4229  0.1304  0.4473
  491TMC3     O 7303   2.381   2.706  17.280 -0.0035 -0.2688  0.2508
  491TMC3     H 7304   2.415   2.413  17.494  0.0504  1.1054  0.0469
  491TMC3    H1 7305   2.347   2.554  17.109 -1.1475 -0.6979 -1.2898
  491TMC3    H2 7306   2.250   2.140  17.195  0.2988  0.2878 -0.5884
  491TMC3    C7 7307   2.229   2.327  17.015  0.5621 -0.2960 -0.1725
  491TMC3    C8 7308   2.367   2.139  17.439 -0.0373  0.7766 -0.0921
  491TMC3    O1 7309   2.177   2.222  16.983 -0.4529 -0.2677 -0.0649
  491TMC3    O2 7310   2.304   2.037  17.405 -0.3794 -0.6126  0.3757
  492MPD2     C 7311   3.019   2.283  11.167  0.0968  0.1858 -0.6779
  492MPD2    C1 7312   2.916   2.334  11.091 -0.0481 -0.1733  0.1448
  492MPD2    C2 7313   2.785   2.314  11.137 -0.0636 -0.5561  0.2489
  492MPD2    C3 7314   2.760   2.248  11.257 -0.3217  0.2912 -0.1122
  492MPD2    C4 7315   2.857   2.197  11.334 -0.5066 -0.5551 -0.6908
  492MPD2    C5 7316   2.986   2.221  11.284  0.2746 -0.2608 -0.1732
  492MPD2     H 7317   2.706   2.359  11.078 -0.8602 -1.5000  0.6179
  492MPD2    H1 7318   2.850   2.148  11.430  2.3048 -1.8853 -1.1582
  492MPD2    H2 7319   3.120   2.287  11.129  0.7766 -0.4285  1.1059
  492MPD2    H3 7320   3.066   2.180  11.344 -0.3389 -0.8169  0.2624
  492MPD2     N 7321   2.623   2.238  11.309  0.7268 -0.4965 -0.1461
  492MPD2    H5 7322   2.619   2.189  11.398  0.2984 -0.9454 -0.4108
  492MPD2    N1 7323   2.941   2.397  10.964 -0.3691  0.1106 -0.4796
  492MPD2    H7 7324   3.037   2.422  10.943  0.4592 -2.7602 -0.0895
  493TMC3    C1 7325   2.906   2.520  10.768 -0.3416  0.1096 -0.3485
  493TMC3    C2 7326   2.985   2.629  10.816 -0.1268 -0.2298  0.1864
  493TMC3    C3 7327   2.979   2.754  10.753 -0.0941  0.2101 -0.1540
  493TMC3    C4 7328   2.826   2.539  10.658 -0.1991  0.3956 -0.7859
  493TMC3    C5 7329   2.808   2.670  10.614  0.2482 -0.1240  0.1030
  493TMC3    C6 7330   2.882   2.775  10.658  0.0343  0.4373  0.0619
  493TMC3     C 7331   2.851   2.434  10.865 -0.2212  0.6550 -0.0049
  493TMC3     O 7332   2.734   2.407  10.846  0.3219  0.4803 -0.2078
  493TMC3     H 7333   3.043   2.616  10.906  0.2884  0.4373  0.0159
  493TMC3    H1 7334   2.774   2.454  10.615 -0.8177  0.7381 -0.6989
  493TMC3    H2 7335   2.844   2.872  10.628  1.7186  0.6864 -1.2528
  493TMC3    C7 7336   2.686   2.704  10.547  0.3898 -0.8362  0.1209
  493TMC3    C8 7337   3.042   2.878  10.802  0.8737 -0.1048  0.4893
  493TMC3    O1 7338   2.694   2.805  10.482 -0.7284 -0.2755 -0.2223
  493TMC3    O2 7339   3.077   2.897  10.919 -0.6480 -0.0679 -0.0725
  494TMC3    C1 7340   2.573   0.399   0.220 -0.8589 -0.3158 -0.9091
  494TMC3    C2 7341   2.525   0.269   0.248 -0.1566 -0.1381  0.0484
  494TMC3    C3 7342   2.594   0.168   0.190  0.2457  0.4327  0.0256
  494TMC3    C4 7343   2.674   0.424   0.134  0.0515  0.5165  1.3558
  494TMC3    C5 7344   2.729   0.315   0.072 -0.2137 -0.7977  0.4824
  494TMC3    C6 7345   2.696   0.184   0.100 -0.9052 -0.6479 -0.2867
  494TMC3     C 7346   2.568   0.485   0.344  0.2300 -0.6987 -0.1401
  494TMC3     O 7347   2.548   0.423   0.449 -0.1199  0.3233  1.1186
  494TMC3     H 7348   2.444   0.260   0.320  0.6272  0.0982  0.9680
  494TMC3    H1 7349   2.717   0.523   0.122  2.0547 -0.5356 -0.1315
  494TMC3    H2 7350   2.743   0.101   0.049 -1.8892 -1.3005 -0.1331
  494TMC3    C7 7351   2.832   0.330  17.664  0.4873  0.1007 -0.3918
  494TMC3    C8 7352   2.610   0.051   0.272 -0.2699  0.0806  0.7471
  494TMC3    O1 7353   2.879   0.232  17.612  0.3239 -0.1291  0.2002
  494TMC3    O2 7354   2.632   4.667   0.226  0.2452 -0.4849  0.2639
  495TMC3    C1 7355   2.018   1.814  14.312  0.2568  0.0859  0.8597
  495TMC3    C2 7356   1.912   1.896  14.282  0.3316 -0.6066  0.2142
  495TMC3    C3 7357   1.884   2.007  14.357  0.0950  0.3439 -0.0736
  495TMC3    C4 7358   2.076   1.836  14.432  0.0939  0.3830 -0.0919
  495TMC3    C5 7359   2.036   1.945  14.514 -0.0751  0.6766  0.1728
  495TMC3    C6 7360   1.954   2.041  14.469 -0.1752  0.0435  0.0153
  495TMC3     C 7361   2.027   1.683  14.242  0.1249 -0.3961  0.0352
  495TMC3     O 7362   1.921   1.640  14.207 -0.1813 -0.4559 -0.0414
  495TMC3     H 7363   1.861   1.874  14.189  3.0763  0.2954 -1.4753
  495TMC3    H1 7364   2.127   1.754  14.482  0.6564  2.6984  3.1577
  495TMC3    H2 7365   1.927   2.125  14.531 -1.6438 -0.9695  0.7466
  495TMC3    C7 7366   1.991   1.896  14.643 -0.2533 -0.5075 -0.2478
  495TMC3    C8 7367   1.748   2.066  14.348 -0.3067 -0.4483  0.3747
  495TMC3    O1 7368   1.962   1.780  14.656  0.5601 -0.1051 -0.5727
  495TMC3    O2 7369   1.737   2.186  14.376  0.2741 -0.0190  0.2765
  496MPD2     C 7370   4.273   1.680  15.753  0.1621  0.8048  1.0003
  496MPD2    C1 7371   4.189   1.578  15.715  0.0936 -0.1010  0.2181
  496MPD2    C2 7372   4.058   1.576  15.767 -0.1824 -0.0822  0.1678
  496MPD2    C3 7373   4.009   1.681  15.844  0.4434 -0.2306 -0.0105
  496MPD2    C4 7374   4.102   1.774  15.889  0.1288  0.1043 -0.3904
  496MPD2    C5 7375   4.227   1.776  15.830 -0.2435  0.2893  0.0269
  496MPD2     H 7376   3.998   1.486  15.763 -0.8616  0.4102 -0.8526
  496MPD2    H1 7377   4.080   1.852  15.960 -2.9903 -1.3401  0.2340
  496MPD2    H2 7378   4.374   1.687  15.714 -0.1498 -1.6453 -0.2667
  496MPD2    H3 7379   4.287   1.861  15.861  0.2673 -0.2088  0.3887
  496MPD2     N 7380   3.882   1.683  15.898  0.2832 -0.3515  0.6046
  496MPD2    H5 7381   3.868   1.750  15.973 -1.3771 -0.3972  0.3341
  496MPD2    N1 7382   4.246   1.472  15.647 -0.3262  0.4307  0.4135
  496MPD2    H7 7383   4.339   1.475  15.607 -0.7079 -2.1720 -0.6751
  497TMC3    C1 7384   3.655   1.627  15.933  0.8749  0.2754 -0.0131
  497TMC3    C2 7385   3.529   1.616  15.885  0.6477 -0.6982  0.8937
  497TMC3    C3 7386   3.417   1.617  15.968 -0.1103 -0.1363  0.3494
  497TMC3    C4 7387   3.678   1.633  16.066  0.1284 -0.9792  0.0655
  497TMC3    C5 7388   3.567   1.629  16.148 -0.1759  0.1737 -0.0331
  497TMC3    C6 7389   3.440   1.633  16.105 -0.5512  0.2791 -0.5058
  497TMC3     C 7390   3.771   1.613  15.847 -0.0455  0.5319  0.1572
  497TMC3     O 7391   3.759   1.558  15.742 -0.3609  0.1538 -1.2439
  497TMC3     H 7392   3.521   1.609  15.777 -0.1303 -0.6084  0.9476
  497TMC3    H1 7393   3.774   1.603  16.107  2.0589  2.4654 -2.0058
  497TMC3    H2 7394   3.357   1.629  16.175 -0.8278 -0.3319 -0.8676
  497TMC3    C7 7395   3.585   1.645  16.300 -0.0382  0.2505 -1.1263
  497TMC3    C8 7396   3.275   1.611  15.928 -0.1481 -0.6684  0.0831
  497TMC3    O1 7397   3.488   1.642  16.372  0.7148  0.1803  0.4688
  497TMC3    O2 7398   3.192   1.584  16.017 -0.5113 -0.4527 -0.3836
  498MPD2     C 7399   0.259   3.701  10.047  0.2265 -0.4455  0.3015
  498MPD2    C1 7400   0.276   3.586   9.977 -0.2901  0.3686 -0.0606
  498MPD2    C2 7401   0.201   3.473  10.003 -0.3088 -0.2709  0.1267
  498MPD2    C3 7402   0.097   3.476  10.096 -0.2524  0.4784 -0.5015
  498MPD2    C4 7403   0.087   3.596  10.172  0.0457  0.0772  0.2865
  498MPD2    C5 7404   0.159   3.705  10.136  0.1077  0.2239  0.4279
  498MPD2     H 7405   0.223   3.389   9.938  1.3659 -0.7704  1.3381
  498MPD2    H1 7406   0.009   3.604  10.247  1.1726  4.2357  1.0547
  498MPD2    H2 7407   0.316   3.791  10.029  1.6172 -1.3594  0.1286
  498MPD2    H3 7408   0.145   3.799  10.188 -0.3952  1.8312 -2.6083
  498MPD2     N 7409   0.026   3.362  10.113 -0.1271 -0.4084  0.3114
  498MPD2    H5 7410   0.063   3.277  10.070 -0.3755 -0.4346  0.1509
  498MPD2    N1 7411   0.378   3.578   9.879 -0.4948  0.6571  0.1557
  498MPD2    H7 7412   0.402   3.483   9.851 -1.0010  0.7560 -0.6027
  499TMC3    C1 7413   0.558   3.655   9.739 -0.3266  0.5245  0.5539
  499TMC3    C2 7414   0.635   3.543   9.774 -0.3504  1.1023 -0.3683
  499TMC3    C3 7415   0.748   3.539   9.706 -0.2276 -0.6303  0.4413
  499TMC3    C4 7416   0.585   3.740   9.636 -0.2681  0.0044  0.5081
  499TMC3    C5 7417   0.694   3.717   9.562  0.4498  0.4340  0.0717
  499TMC3    C6 7418   0.783   3.624   9.605 -0.6546 -0.6390 -0.0755
  499TMC3     C 7419   0.444   3.687   9.818 -0.1966  0.0637  0.2131
  499TMC3     O 7420   0.406   3.806   9.819 -0.2493 -0.8580 -0.5970
  499TMC3     H 7421   0.613   3.485   9.863 -3.7013  0.8588 -1.3547
  499TMC3    H1 7422   0.501   3.796   9.596  1.0543  2.5452  1.3425
  499TMC3    H2 7423   0.884   3.622   9.565 -0.0931 -1.0241  1.3713
  499TMC3    C7 7424   0.753   3.818   9.472 -0.8592  0.8938  0.6366
  499TMC3    C8 7425   0.860   3.463   9.757 -0.2457  0.1448  0.7415
  499TMC3    O1 7426   0.832   3.776   9.387  0.2129  0.0976 -0.6198
  499TMC3    O2 7427   0.950   3.453   9.677  0.0236  0.4772 -0.0073
  500MPD2     C 7428   2.237   3.430  10.198 -0.0816  0.6961  0.6248
  500MPD2    C1 7429   2.221   3.560  10.243 -0.1836  0.2186  0.1083
  500MPD2    C2 7430   2.142   3.642  10.163 -0.9703  0.0333  0.3572
  500MPD2    C3 7431   2.086   3.599  10.046  0.0559 -0.4555 -0.1537
  500MPD2    C4 7432   2.125   3.474   9.995  0.3713  0.0584 -0.0850
  500MPD2    C5 7433   2.188   3.388  10.077  0.0503 -0.0762  0.6924
  500MPD2     H 7434   2.137   3.748  10.185 -0.7120 -0.0506  0.8194
  500MPD2    H1 7435   2.099   3.433   9.898 -0.8844  0.2947  0.1558
  500MPD2    H2 7436   2.305   3.363  10.249  0.3032 -0.8486 -1.9314
  500MPD2    H3 7437   2.202   3.290  10.033  0.8536  0.3615 -0.0154
  500MPD2     N 7438   2.000   3.681   9.966 -0.0933  0.2897 -0.2062
  500MPD2    H5 7439   1.971   3.636   9.880 -1.7207  3.3789 -1.2591
  500MPD2    N1 7440   2.291   3.610  10.356 -0.4679 -0.0331  0.2114
  500MPD2    H7 7441   2.288   3.711  10.363  0.8011  0.1409 -1.6566
  501TMC3    C1 7442   2.387   3.620  10.570  0.0115  0.0307 -0.3269
  501TMC3    C2 7443   2.335   3.744  10.586 -0.7623  0.1451  0.1072
  501TMC3    C3 7444   2.362   3.807  10.701  0.3615  0.3313  0.0218
  501TMC3    C4 7445   2.469   3.567  10.665 -0.2592  0.2317 -0.4923
  501TMC3    C5 7446   2.489   3.627  10.785 -0.0683  0.1697 -0.0669
  501TMC3    C6 7447   2.441   3.754  10.802  0.7437  0.4136 -0.8697
  501TMC3     C 7448   2.365   3.544  10.446 -0.3796  0.7225 -0.1457
  501TMC3     O 7449   2.382   3.424  10.450 -0.1966  0.9227  0.2258
  501TMC3     H 7450   2.298   3.804  10.503 -2.0240 -1.0275 -0.1829
  501TMC3    H1 7451   2.511   3.469  10.645 -0.7993  0.1043 -0.9997
  501TMC3    H2 7452   2.448   3.808  10.896 -3.2491 -0.9252  0.2360
  501TMC3    C7 7453   2.578   3.569  10.879 -0.4073  0.6537  0.5762
  501TMC3    C8 7454   2.281   3.925  10.736  0.0674  0.7779 -0.4389
  501TMC3    O1 7455   2.635   3.465  10.840 -0.7099  0.7820  0.7279
  501TMC3    O2 7456   2.322   3.993  10.829 -0.5025  0.0180  0.2132
  502TMC3    C1 7457   1.205   1.845  14.956  0.0425 -0.6581 -0.3650
  502TMC3    C2 7458   1.277   1.888  14.850 -0.1769 -0.0524 -0.1510
  502TMC3    C3 7459   1.219   1.973  14.754 -0.1699  0.7966  0.2039
  502TMC3    C4 7460   1.067   1.882  14.973 -0.0773 -0.3981  0.0818
  502TMC3    C5 7461   1.015   1.960  14.874  0.2663 -0.0557 -0.5230
  502TMC3    C6 7462   1.084   1.994  14.761  0.3828  0.5197 -0.2104
  502TMC3     C 7463   1.295   1.862  15.065  0.3809 -0.9624  0.2614
  502TMC3     O 7464   1.364   1.764  15.102 -0.2579 -0.0299  0.5692
  502TMC3     H 7465   1.385   1.877  14.845 -0.2298 -0.8430  0.4573
  502TMC3    H1 7466   1.019   1.861  15.068 -1.1959 -0.0372 -0.4159
  502TMC3    H2 7467   1.034   2.054  14.686 -0.6392 -1.0343 -0.7616
  502TMC3    C7 7468   0.893   2.030  14.893 -0.3865  0.3557  0.5965
  502TMC3    C8 7469   1.292   2.094  14.720 -0.7172 -0.1473  0.1505
  502TMC3    O1 7470   0.846   2.080  14.792  0.3690  0.6056  0.0672
  502TMC3    O2 7471   1.231   2.196  14.707 -0.7102 -0.5303 -0.1405
  503MPD2     C 7472   3.539   3.437  16.815  0.0144  0.5478 -0.3151
  503MPD2    C1 7473   3.526   3.443  16.953  0.7606  0.0500  0.1655
  503MPD2    C2 7474   3.576   3.348  17.038 -0.6644 -0.0500 -0.2005
  503MPD2    C3 7475   3.637   3.238  16.973 -0.8288  0.4957 -0.1375
  503MPD2    C4 7476   3.649   3.233  16.831 -0.2916 -0.4682 -0.7852
  503MPD2    C5 7477   3.597   3.333  16.754 -0.2731  0.6062  0.0414
  503MPD2     H 7478   3.565   3.345  17.146 -0.1010 -0.6598 -0.1622
  503MPD2    H1 7479   3.701   3.155  16.776  0.7710  0.7296 -1.4714
  503MPD2    H2 7480   3.505   3.516  16.748  0.5313  0.3522 -0.8109
  503MPD2    H3 7481   3.613   3.333  16.647 -0.0193  1.5181  0.0829
  503MPD2     N 7482   3.685   3.138  17.060 -0.6739  0.0114 -0.0882
  503MPD2    H5 7483   3.654   3.146  17.156  2.0382 -0.1705  0.8026
  503MPD2    N1 7484   3.476   3.563  17.020 -0.3925 -0.2822  0.5575
  503MPD2    H7 7485   3.461   3.546  17.119 -0.3202  1.4356  0.8601
  504TMC3    C1 7486   3.817   2.956  17.133  0.3926  0.8398 -0.5463
  504TMC3    C2 7487   3.746   2.915  17.235 -0.0916  0.6236 -0.2015
  504TMC3    C3 7488   3.820   2.885  17.352 -0.5388 -0.0031 -0.3699
  504TMC3    C4 7489   3.952   2.943  17.123  0.1634 -0.2424 -0.0830
  504TMC3    C5 7490   4.020   2.897  17.236  0.1637 -0.6424  0.2504
  504TMC3    C6 7491   3.957   2.868  17.353 -0.5715 -0.1049  0.0329
  504TMC3     C 7492   3.772   3.040  17.024  0.1996  0.3174 -0.0605
  504TMC3     O 7493   3.819   3.017  16.911 -0.2057  0.1491 -0.2744
  504TMC3     H 7494   3.638   2.927  17.236  0.3094  4.0317  1.1166
  504TMC3    H1 7495   3.999   2.981  17.033  3.5249 -1.5899  1.1419
  504TMC3    H2 7496   4.019   2.840  17.437 -1.0923 -2.6650 -0.4581
  504TMC3    C7 7497   4.161   2.880  17.213 -0.0680 -0.4992 -0.4821
  504TMC3    C8 7498   3.744   2.875  17.481  0.2164 -0.6475 -0.9323
  504TMC3    O1 7499   4.188   2.881  17.096  0.7277 -0.7383 -0.2964
  504TMC3    O2 7500   3.644   2.943  17.494  0.0644 -0.0021 -0.3196
  505MPD2     C 7501   4.275   1.837  10.259 -0.4586 -0.0620  0.1946
  505MPD2    C1 7502   4.204   1.930  10.183  0.0532 -1.0808  1.1151
  505MPD2    C2 7503   4.265   1.973  10.063  0.3254 -0.3647 -0.1180
  505MPD2    C3 7504   4.377   1.909  10.003 -0.0576  0.6279  0.1895
  505MPD2    C4 7505   4.442   1.811  10.080  0.7151  0.0622  0.5391
  505MPD2    C5 7506   4.386   1.780  10.202 -0.1152  0.8307  0.5674
  505MPD2     H 7507   4.224   2.061  10.016 -0.7064  0.0204  1.5132
  505MPD2    H1 7508   4.526   1.756  10.039  0.3587  1.4684 -2.0831
  505MPD2    H2 7509   4.232   1.809  10.355  0.5291  2.3749  1.3632
  505MPD2    H3 7510   4.446   1.706  10.253  0.0015 -0.0188 -0.7861
  505MPD2     N 7511   4.429   1.965   9.888  1.0489 -0.2976 -0.3007
  505MPD2    H5 7512   4.370   2.033   9.840  1.0395 -1.7698 -2.3519
  505MPD2    N1 7513   4.079   1.977  10.240 -0.2006  0.3536  0.2691
  505MPD2    H7 7514   4.048   1.945  10.331 -1.7563 -0.2902 -0.4861
  506TMC3    C1 7515   3.898   2.129  10.260 -0.2572  0.0119  0.1272
  506TMC3    C2 7516   3.945   2.189  10.376 -0.2801 -0.1270 -0.4329
  506TMC3    C3 7517   3.904   2.319  10.398  0.3109 -0.0590  1.3441
  506TMC3    C4 7518   3.810   2.198  10.182 -0.6968  0.0619 -0.6094
  506TMC3    C5 7519   3.781   2.330  10.189  0.0069  0.5371  0.8817
  506TMC3    C6 7520   3.838   2.389  10.302  0.2615  0.0934 -0.3819
  506TMC3     C 7521   3.993   2.048  10.172 -0.2918  0.5587 -0.3744
  506TMC3     O 7522   3.996   2.088  10.058 -0.5709  0.2441  0.4820
  506TMC3     H 7523   4.009   2.137  10.446 -1.2830 -3.0180 -1.6539
  506TMC3    H1 7524   3.786   2.150  10.088  1.1141  0.5445 -1.3213
  506TMC3    H2 7525   3.837   2.497  10.307 -2.8255 -0.1414  4.1420
  506TMC3    C7 7526   3.795   2.403  10.066  0.0965 -0.0756  0.2620
  506TMC3    C8 7527   3.992   2.383  10.485  0.5036  0.8621 -0.7359
  506TMC3    O1 7528   3.740   2.514  10.065 -0.1286  0.0898  0.1015
  506TMC3    O2 7529   4.009   2.322  10.593  0.0745  0.1829  0.1302
  507TMC3    C1 7530   4.491   2.478  15.076  0.2277  0.1721 -0.5900
  507TMC3    C2 7531   4.391   2.430  15.000  0.4037  0.3999  0.2353
  507TMC3    C3 7532   4.405   2.441  14.861  0.1735 -0.7177  0.0854
  507TMC3    C4 7533   4.605   2.523  15.017  0.1179 -0.8267 -0.1287
  507TMC3    C5 7534   4.618   2.530  14.877  0.1638 -0.6955  0.5553
  507TMC3    C6 7535   4.516   2.477  14.801 -0.4638 -0.0231 -0.2706
  507TMC3     C 7536   4.453   2.533  15.204  0.3990 -0.7282  0.0496
  507TMC3     O 7537   4.550   2.573  15.270 -0.0358 -0.4527 -0.1705
  507TMC3     H 7538   4.300   2.395  15.048  0.9007 -0.9666  0.1623
  507TMC3    H1 7539   4.685   2.560  15.080 -1.8539  3.4162 -0.1426
  507TMC3    H2 7540   4.530   2.480  14.693  1.8721  2.8170  0.1389
  507TMC3    C7 7541   4.672   2.657  14.817  0.2857  0.0676  0.0319
  507TMC3    C8 7542   4.284   2.514  14.816 -0.0013  0.7567 -0.1667
  507TMC3    O1 7543   4.611   2.693  14.720 -0.0287 -0.9201 -0.0071
  507TMC3    O2 7544   4.178   2.495  14.872  0.3672 -0.0061  0.0578
  508MPD2     C 7545   1.093   4.719  15.901  0.7606 -0.3383 -0.1930
  508MPD2    C1 7546   1.020   0.083  15.979  0.2873 -0.3280  0.3081
  508MPD2    C2 7547   0.943   0.177  15.914 -0.0494  0.4400 -0.3606
  508MPD2    C3 7548   0.950   0.186  15.771  0.1231  0.1570 -0.3603
  508MPD2    C4 7549   1.017   0.095  15.693 -0.3417 -0.6243  0.0215
  508MPD2    C5 7550   1.083   4.722  15.761  0.5901 -0.6760  0.1901
  508MPD2     H 7551   0.884   0.245  15.975 -1.4211  0.0161 -1.2174
  508MPD2    H1 7552   1.026   0.108  15.586  1.0325 -0.4539  0.1495
  508MPD2    H2 7553   1.148   4.646  15.958  2.7612  0.1619 -1.4835
  508MPD2    H3 7554   1.134   4.641  15.711 -0.3103 -1.1824  0.0815
  508MPD2     N 7555   0.889   0.304  15.716  0.1082 -0.5433 -0.0603
  508MPD2    H5 7556   0.859   0.376  15.781  2.3803  0.7089 -0.3715
  508MPD2    N1 7557   1.047   0.070  16.117 -0.3605  0.2594  0.5247
  508MPD2    H7 7558   1.125   0.008  16.138 -1.7378 -1.2525  1.1607
  509TMC3    C1 7559   0.731   0.664  15.630  0.3965 -0.1794 -0.6429
  509TMC3    C2 7560   0.807   0.743  15.542 -1.2505  0.6430  0.0930
  509TMC3    C3 7561   0.897   0.678  15.462 -0.1859 -0.0030 -0.0669
  509TMC3    C4 7562   0.754   0.526  15.643  0.0875 -0.3303 -0.3362
  509TMC3    C5 7563   0.839   0.469  15.553  0.0251 -0.7244 -0.0096
  509TMC3    C6 7564   0.916   0.539  15.466 -0.5158 -0.2629 -0.2049
  509TMC3     C 7565   0.664   0.731  15.742 -0.0939  1.2706  0.0123
  509TMC3     O 7566   0.621   0.670  15.838  0.8033 -0.0303 -0.1329
  509TMC3     H 7567   0.792   0.847  15.515 -0.2712  0.4907 -1.0402
  509TMC3    H1 7568   0.690   0.471  15.712 -2.4235  2.5739 -0.3356
  509TMC3    H2 7569   0.979   0.487  15.395  1.1104 -0.1476  1.1471
  509TMC3    C7 7570   0.879   0.334  15.580 -0.4834  0.0987 -0.2312
  509TMC3    C8 7571   0.987   0.758  15.382  1.1172 -0.2297  0.6446
  509TMC3    O1 7572   0.930   0.282  15.479  0.0312 -0.9569  0.1707
  509TMC3    O2 7573   1.041   0.695  15.293 -0.1431 -0.6035  0.7364
  510MPD2     C 7574   3.193   2.221  14.428 -0.4152 -0.0469  0.0346
  510MPD2    C1 7575   3.255   2.139  14.521  0.1606  0.5675 -0.1440
  510MPD2    C2 7576   3.389   2.099  14.505  0.1817  0.2974  0.6624
  510MPD2    C3 7577   3.471   2.158  14.410 -0.3000 -0.1754 -0.3569
  510MPD2    C4 7578   3.413   2.258  14.332 -0.0249 -0.7328  0.0946
  510MPD2    C5 7579   3.273   2.283  14.337 -0.2264 -0.1119 -0.5463
  510MPD2     H 7580   3.436   2.030  14.574  1.5217  0.3145 -0.2263
  510MPD2    H1 7581   3.463   2.314  14.253  0.5048 -0.3932  0.6731
  510MPD2    H2 7582   3.090   2.251  14.443 -0.9114 -0.6306 -2.2365
  510MPD2    H3 7583   3.229   2.355  14.269  2.0905  2.1852  0.3953
  510MPD2     N 7584   3.601   2.104  14.393 -0.6154  0.2383  0.7588
  510MPD2    H5 7585   3.615   2.015  14.438 -0.0701 -1.0672 -1.9732
  510MPD2    N1 7586   3.166   2.079  14.621 -0.2091 -0.4059 -0.2802
  510MPD2    H7 7587   3.069   2.108  14.615 -1.0227 -3.2087 -0.5031
  511TMC3    C1 7588   3.112   1.949  14.810 -0.0938 -0.1489  0.0498
  511TMC3    C2 7589   3.069   2.021  14.915 -0.6102  0.2388 -1.0172
  511TMC3    C3 7590   3.007   1.954  15.023 -0.2093  0.5822  0.3343
  511TMC3    C4 7591   3.095   1.813  14.801 -0.3230 -0.3557  0.5939
  511TMC3    C5 7592   3.039   1.747  14.912  0.0527  0.0864  0.0449
  511TMC3    C6 7593   2.990   1.820  15.023  0.4362  1.0803 -0.2197
  511TMC3     C 7594   3.215   2.007  14.726 -0.3873 -0.0041  0.1518
  511TMC3     O 7595   3.320   1.951  14.738 -1.0298 -0.0308  0.5686
  511TMC3     H 7596   3.097   2.125  14.922  0.6836 -0.0976 -1.3090
  511TMC3    H1 7597   3.151   1.755  14.729 -0.1787 -0.2665  0.6330
  511TMC3    H2 7598   2.964   1.765  15.112  1.1745  0.2945 -0.4916
  511TMC3    C7 7599   3.005   1.610  14.893 -0.1967 -0.0942 -0.5578
  511TMC3    C8 7600   2.949   2.043  15.123  1.0823 -0.0995 -0.0163
  511TMC3    O1 7601   3.031   1.576  14.778 -0.2131  0.0628  0.6976
  511TMC3    O2 7602   2.984   2.162  15.131 -0.3552  0.0974 -0.1656
  512TMC3    C1 7603   2.129   1.277  13.560  0.4169 -0.0562 -0.8912
  512TMC3    C2 7604   2.236   1.337  13.636  0.3771 -0.2558 -1.0609
  512TMC3    C3 7605   2.360   1.328  13.579 -0.3536 -0.5808  0.3822
  512TMC3    C4 7606   2.146   1.209  13.445  0.1838  0.4608 -0.4535
  512TMC3    C5 7607   2.280   1.203  13.399 -0.2185  0.2459  0.1045
  512TMC3    C6 7608   2.385   1.257  13.467  0.0276  0.0432 -0.8892
  512TMC3     C 7609   1.990   1.303  13.599  0.1443 -0.0610  0.2874
  512TMC3     O 7610   1.906   1.228  13.553  0.4456  0.1223 -0.5544
  512TMC3     H 7611   2.213   1.400  13.721 -0.1017 -0.3315 -1.1341
  512TMC3    H1 7612   2.070   1.154  13.390 -1.7997  3.1118 -0.3326
  512TMC3    H2 7613   2.485   1.231  13.434  0.4134 -0.6251  0.8340
  512TMC3    C7 7614   2.307   1.169  13.260  0.3256 -0.1726 -0.3481
  512TMC3    C8 7615   2.475   1.390  13.651  0.3659 -0.8296  0.2129
  512TMC3    O1 7616   2.375   1.249  13.193  0.8714 -0.3273  0.9827
  512TMC3    O2 7617   2.583   1.360  13.609 -0.1552  0.3815 -0.3464
  513MPD2     C 7618   3.981   1.075  13.368  0.3299  1.0453 -0.8799
  513MPD2    C1 7619   4.107   1.087  13.322 -0.5230  0.2808 -0.2631
  513MPD2    C2 7620   4.203   1.154  13.397  0.9730 -0.5660 -0.2414
  513MPD2    C3 7621   4.174   1.204  13.522  0.0233  0.6231  0.3532
  513MPD2    C4 7622   4.046   1.202  13.560 -0.4872 -0.2234  0.1627
  513MPD2    C5 7623   3.951   1.133  13.486 -0.6803  0.1088 -0.0745
  513MPD2     H 7624   4.310   1.152  13.377  0.6583 -0.9254 -1.8422
  513MPD2    H1 7625   4.012   1.243  13.654  1.6462 -2.6680  1.9979
  513MPD2    H2 7626   3.903   1.021  13.318  0.0039  0.2449  0.4917
  513MPD2    H3 7627   3.851   1.130  13.527 -0.7605 -0.4301 -0.2976
  513MPD2     N 7628   4.276   1.273  13.596 -0.1409 -0.3793 -0.5436
  513MPD2    H5 7629   4.365   1.272  13.547 -1.2566 -1.1962 -2.5168
  513MPD2    N1 7630   4.130   1.016  13.202 -0.3042  0.0765  1.4929
  513MPD2    H7 7631   4.054   0.965  13.159  1.3112  0.1370 -1.4066
  514TMC3    C1 7632   4.263   0.956  13.034 -0.3049 -0.2671 -0.1166
  514TMC3    C2 7633   4.200   1.018  12.929 -0.0221 -0.7889  0.1984
  514TMC3    C3 7634   4.284   1.045  12.816  0.3663 -0.1583 -0.3116
  514TMC3    C4 7635   4.397   0.925  13.021  0.4623 -0.6160  1.4086
  514TMC3    C5 7636   4.469   0.941  12.908 -0.2089  0.3857 -0.4907
  514TMC3    C6 7637   4.412   1.012  12.805  0.0697 -0.4864 -0.6231
  514TMC3     C 7638   4.253   1.031  13.144  0.1736  0.8321 -0.3095
  514TMC3     O 7639   4.350   1.105  13.153  0.3379 -0.1375 -0.1881
  514TMC3     H 7640   4.101   1.062  12.940 -1.3995 -3.5885 -0.7402
  514TMC3    H1 7641   4.455   0.869  13.093  1.2436 -1.8834 -0.2152
  514TMC3    H2 7642   4.485   1.049  12.735 -1.6394  0.0625 -2.1104
  514TMC3    C7 7643   4.608   0.986  12.938 -0.5043  1.1956 -0.8386
  514TMC3    C8 7644   4.227   1.122  12.706 -0.0007 -0.1479  0.2397
  514TMC3    O1 7645   4.707   0.937  12.889 -0.2787  0.0987  0.5174
  514TMC3    O2 7646   4.125   1.181  12.736  0.6872  0.0711  0.1824
  515MPD2     C 7647   2.034   3.640  14.904 -0.3886 -0.0401  0.8235
  515MPD2    C1 7648   2.101   3.542  14.971 -0.5070  0.3863  0.7680
  515MPD2    C2 7649   2.196   3.581  15.066 -0.1327 -0.7809 -0.1822
  515MPD2    C3 7650   2.229   3.708  15.087 -0.6350  0.1347 -0.1091
  515MPD2    C4 7651   2.167   3.806  15.010  0.3609  0.5156 -0.0686
  515MPD2    C5 7652   2.068   3.770  14.924  0.5564  0.3512 -0.6667
  515MPD2     H 7653   2.245   3.498  15.117 -3.7835 -2.6381  0.2871
  515MPD2    H1 7654   2.191   3.911  15.012  0.0231  0.5670  1.0916
  515MPD2    H2 7655   1.946   3.618  14.844  0.4427 -2.0324  0.3121
  515MPD2    H3 7656   2.030   3.847  14.858  0.9755  1.2724  0.1562
  515MPD2     N 7657   2.338   3.753  15.167 -0.0903 -0.4736 -0.0596
  515MPD2    H5 7658   2.369   3.849  15.157  0.6229 -0.7898 -0.9037
  515MPD2    N1 7659   2.070   3.406  14.961  0.7954  0.2609 -0.1477
  515MPD2    H7 7660   2.132   3.345  15.015  1.5209  1.3995  0.3050
  516TMC3    C1 7661   1.996   3.202  14.865 -0.6144 -0.2979  0.8910
  516TMC3    C2 7662   1.928   3.146  14.764 -0.5033 -0.2578 -0.6646
  516TMC3    C3 7663   1.917   3.013  14.759 -0.7765  0.0515 -1.0975
  516TMC3    C4 7664   2.035   3.129  14.977  0.4186  0.1647 -0.1622
  516TMC3    C5 7665   2.013   2.996  14.969 -0.8293  0.0829 -0.2202
  516TMC3    C6 7666   1.956   2.928  14.862  0.1374 -0.2877 -0.7657
  516TMC3     C 7667   2.002   3.349  14.857 -0.4764  0.4730  0.1167
  516TMC3     O 7668   1.942   3.397  14.760  0.3144  0.2100 -0.1314
  516TMC3     H 7669   1.908   3.204  14.675 -3.1946  0.8031  0.6166
  516TMC3    H1 7670   2.069   3.179  15.067  0.0972 -2.9197  1.6905
  516TMC3    H2 7671   1.942   2.820  14.862  0.9478 -0.3972 -1.1661
  516TMC3    C7 7672   2.073   2.913  15.065  1.0002  0.0548  0.2455
  516TMC3    C8 7673   1.841   2.959  14.643 -0.3736  0.5973  0.8234
  516TMC3    O1 7674   2.026   2.801  15.073 -0.1782 -0.4961 -0.2042
  516TMC3    O2 7675   1.770   3.026  14.567  0.2863 -0.2426 -0.4641
  517MPD2     C 7676   1.510   4.628  17.328  0.5076 -0.0147 -0.0527
  517MPD2    C1 7677   1.533   4.574  17.458 -0.0268 -1.1551 -0.3064
  517MPD2    C2 7678   1.471   4.631  17.563 -0.6867  0.7070 -0.2125
  517MPD2    C3 7679   1.382   0.012  17.555 -0.1578 -0.1721 -0.2324
  517MPD2    C4 7680   1.367   0.068  17.430  0.3241 -0.4659  0.7817
  517MPD2    C5 7681   1.437   0.019  17.313 -0.4440 -0.5758  0.6620
  517MPD2     H 7682   1.488   4.579  17.657 -1.0924 -0.6833 -0.9184
  517MPD2    H1 7683   1.303   0.153  17.411  3.1127  0.8103 -2.9717
  517MPD2    H2 7684   1.565   4.593  17.241 -1.2878 -0.5632 -0.9719
  517MPD2    H3 7685   1.416   0.060  17.215 -1.4056  0.2563  1.2107
  517MPD2     N 7686   1.320   0.076  17.666  0.3185  0.5818 -0.4229
  517MPD2    H5 7687   1.251   0.145  17.638 -0.1095 -0.2452 -1.3844
  517MPD2    N1 7688   1.611   4.460  17.487  0.3006 -0.5170 -0.3445
  517MPD2    H7 7689   1.619   4.434  17.584  0.3141 -1.2470 -0.5417
  518TMC3    C1 7690   1.756   4.283  17.471 -0.3088  0.0843 -0.7991
  518TMC3    C2 7691   1.754   4.160  17.423 -0.5955  1.0106  0.2377
  518TMC3    C3 7692   1.819   4.061  17.487  0.1345 -0.2203 -0.0493
  518TMC3    C4 7693   1.808   4.308  17.600  0.3601 -0.6176  0.1847
  518TMC3    C5 7694   1.857   4.205  17.674 -0.2443  0.0283  0.2620
  518TMC3    C6 7695   1.867   4.080  17.618  0.3930  0.5075  0.6311
  518TMC3     C 7696   1.691   4.386  17.401 -0.1952  0.8377  0.3347
  518TMC3     O 7697   1.678   4.373  17.278  0.2267  0.4027  0.1660
  518TMC3     H 7698   1.696   4.137  17.335  1.3730  1.2922 -1.1282
  518TMC3    H1 7699   1.829   4.412  17.623  1.2184 -0.8974  0.6597
  518TMC3    H2 7700   1.910   4.006  17.685  0.6389  0.7786  0.7699
  518TMC3    C7 7701   1.974   4.240   0.050  0.0371  0.0294 -0.6663
  518TMC3    C8 7702   1.836   3.927  17.436 -0.2738  0.7851  0.0685
  518TMC3    O1 7703   1.966   4.318   0.142 -0.2888 -0.0899 -0.7888
  518TMC3    O2 7704   1.873   3.845  17.515  0.2595  0.2636 -0.0545
  519MPD2     C 7705   3.425   2.924  13.958 -0.5393  0.4225 -0.2708
  519MPD2    C1 7706   3.369   2.973  14.078 -0.3150 -0.0062  0.5192
  519MPD2    C2 7707   3.381   2.894  14.199  0.2441 -0.2305  0.5824
  519MPD2    C3 7708   3.438   2.772  14.185 -0.4150 -0.6699  0.2403
  519MPD2    C4 7709   3.488   2.725  14.062 -0.5849  0.2162 -0.5740
  519MPD2    C5 7710   3.491   2.801  13.955  0.1488  0.6940 -0.2960
  519MPD2     H 7711   3.346   2.941  14.290 -1.2058  0.6188 -0.4155
  519MPD2    H1 7712   3.528   2.625  14.051 -0.4339  0.5186 -2.6829
  519MPD2    H2 7713   3.406   2.986  13.872  2.4216  2.2150  0.3708
  519MPD2    H3 7714   3.531   2.758  13.864 -0.9907 -0.6282 -0.1678
  519MPD2     N 7715   3.436   2.684  14.299 -0.7184  0.4149  0.1768
  519MPD2    H5 7716   3.490   2.599  14.292  0.6328  1.2286  0.7653
  519MPD2    N1 7717   3.294   3.094  14.075 -0.1057 -0.1036 -0.6365
  519MPD2    H7 7718   3.285   3.128  13.980  0.6222 -0.1246 -0.7179
  520TMC3    C1 7719   3.353   2.598  14.506  0.9307 -0.6025  0.5654
  520TMC3    C2 7720   3.231   2.556  14.553 -0.0483  0.6528  0.0583
  520TMC3    C3 7721   3.238   2.462  14.654 -0.1682  0.4650 -0.2510
  520TMC3    C4 7722   3.474   2.541  14.538  0.2909  0.0202 -0.7141
  520TMC3    C5 7723   3.470   2.458  14.646  0.1133 -0.5508  0.3801
  520TMC3    C6 7724   3.355   2.413  14.705 -0.0526  0.4396 -0.0979
  520TMC3     C 7725   3.344   2.700  14.404 -0.1129 -0.2240 -0.8860
  520TMC3     O 7726   3.251   2.775  14.417 -0.1372 -0.2849 -0.1250
  520TMC3     H 7727   3.134   2.599  14.532 -0.3150 -1.2440 -2.5577
  520TMC3    H1 7728   3.563   2.595  14.509 -1.8547  2.6098 -2.4671
  520TMC3    H2 7729   3.350   2.341  14.787  0.5143  1.8554  1.1841
  520TMC3    C7 7730   3.588   2.384  14.669 -0.1555 -0.0803 -0.7538
  520TMC3    C8 7731   3.112   2.415  14.708 -0.2350  0.0925  0.2428
  520TMC3    O1 7732   3.593   2.310  14.766 -0.0907  0.3592  0.0667
  520TMC3    O2 7733   3.122   2.341  14.808  0.0048  0.2705  0.3863
  521MPD2     C 7734   4.555   0.961  17.610 -0.2201  0.4916  0.2881
  521MPD2    C1 7735   4.498   0.859  17.538  0.6215 -0.1601  0.3073
  521MPD2    C2 7736   4.574   0.777  17.447 -0.5296  0.2002 -0.1152
  521MPD2    C3 7737   4.710   0.795  17.456  0.5615  0.3300  0.4634
  521MPD2    C4 7738   0.046   0.881  17.543 -0.7643  0.3252  0.3859
  521MPD2    C5 7739   4.693   0.970  17.610  0.0561  0.7714  0.2318
  521MPD2     H 7740   4.531   0.697  17.387  0.7836 -0.3460 -0.3314
  521MPD2    H1 7741   0.152   0.896  17.556 -0.8576  0.2606  1.2424
  521MPD2    H2 7742   4.500   1.021  17.682 -3.4191 -0.9979 -0.8890
  521MPD2    H3 7743   0.013   1.043  17.679 -0.3078 -0.5772  1.8923
  521MPD2     N 7744   0.065   0.722  17.366 -0.3936  0.1430 -0.3968
  521MPD2    H5 7745   0.004   0.682  17.295 -2.0115  2.2713 -0.2409
  521MPD2    N1 7746   4.362   0.841  17.558 -0.1122  0.5041 -0.8443
  521MPD2    H7 7747   4.314   0.903  17.623  1.0768 -0.4990  0.9970
  522TMC3    C1 7748   0.270   0.633  17.273 -0.1872  0.6789 -0.0820
  522TMC3    C2 7749   0.390   0.571  17.296  0.2509  0.2476  0.2637
  522TMC3    C3 7750   0.479   0.539  17.193  0.0173 -0.5713  0.7959
  522TMC3    C4 7751   0.239   0.682  17.148  0.0554 -0.8779  0.1045
  522TMC3    C5 7752   0.336   0.666  17.051  0.5992 -0.3257 -0.2091
  522TMC3    C6 7753   0.452   0.584  17.063  0.2949  0.4044 -0.3054
  522TMC3     C 7754   0.197   0.686  17.385  0.2925  0.2402  0.5426
  522TMC3     O 7755   0.272   0.698  17.481 -0.0462  1.2007 -0.2302
  522TMC3     H 7756   0.415   0.537  17.396  2.0051 -0.1196 -0.2987
  522TMC3    H1 7757   0.136   0.711  17.130  0.4633 -0.6509 -1.8713
  522TMC3    H2 7758   0.527   0.591  16.985 -0.0989  0.1160 -0.7090
  522TMC3    C7 7759   0.316   0.721  16.922  1.1350  0.2545  0.5987
  522TMC3    C8 7760   0.601   0.456  17.214  0.1217 -0.2928 -0.3568
  522TMC3    O1 7761   0.390   0.687  16.831  0.1979  0.2160  0.2628
  522TMC3    O2 7762   0.632   0.433  17.329  0.0422  0.6364  0.5107
  523MPD2     C 7763   2.068   0.667  10.471  0.1967  0.0981 -0.9491
  523MPD2    C1 7764   2.063   0.615  10.346 -0.5801 -0.3599  0.0937
  523MPD2    C2 7765   2.031   0.699  10.238 -0.1952 -0.5041  0.2806
  523MPD2    C3 7766   1.987   0.827  10.267  0.0475 -0.8943 -0.5883
  523MPD2    C4 7767   1.980   0.867  10.400  0.3932 -0.2480  0.5094
  523MPD2    C5 7768   2.028   0.794  10.505  0.3929  0.4422 -0.5754
  523MPD2     H 7769   2.022   0.657  10.138  1.7166 -0.5816  0.1405
  523MPD2    H1 7770   1.952   0.968  10.426 -1.7684  0.0419 -3.0879
  523MPD2    H2 7771   2.096   0.599  10.551  3.2893  2.1123 -0.3221
  523MPD2    H3 7772   2.041   0.832  10.606  0.8677 -0.3349 -0.3391
  523MPD2     N 7773   1.922   0.912  10.169  0.0047 -0.3281 -0.8845
  523MPD2    H5 7774   1.876   0.996  10.202  1.2144 -0.3814  0.9591
  523MPD2    N1 7775   2.099   0.480  10.318 -0.5712 -0.5988 -0.6331
  523MPD2    H7 7776   2.132   0.423  10.396 -0.6877 -0.4124 -0.4480
  524TMC3    C1 7777   1.847   0.987   9.956  0.6976 -0.1415  0.4874
  524TMC3    C2 7778   1.883   1.007   9.821  0.4576 -0.7943 -0.2546
  524TMC3    C3 7779   1.852   1.135   9.766 -0.1758 -0.3355 -0.1734
  524TMC3    C4 7780   1.762   1.065  10.023 -0.3238  0.0763 -0.3068
  524TMC3    C5 7781   1.726   1.171   9.957 -0.0670 -0.2197 -0.5063
  524TMC3    C6 7782   1.763   1.214   9.835 -0.3105 -0.4768 -0.2187
  524TMC3     C 7783   1.919   0.887  10.031  0.4748 -0.0247 -0.0572
  524TMC3     O 7784   1.987   0.804   9.974 -0.5743  0.7454  0.3140
  524TMC3     H 7785   1.958   0.940   9.779  1.3847 -0.5109  0.9574
  524TMC3    H1 7786   1.723   1.037  10.120  0.2911  1.2994  0.2870
  524TMC3    H2 7787   1.724   1.305   9.791 -0.8717 -1.0552 -0.9225
  524TMC3    C7 7788   1.626   1.251  10.032  0.1711  0.0706  0.5089
  524TMC3    C8 7789   1.947   1.192   9.677 -0.7151 -0.1034 -0.3218
  524TMC3    O1 7790   1.576   1.199  10.131  0.3168  0.1303 -0.2566
  524TMC3    O2 7791   2.005   1.104   9.613  0.3476 -0.1457 -0.1128
  525MPD2     C 7792   4.704   2.007  14.903  0.7405 -0.1040  0.0548
  525MPD2    C1 7793   0.115   2.009  14.923  0.1096 -0.2351  0.2450
  525MPD2    C2 7794   0.189   2.080  14.827  0.3772 -0.2456  0.1469
  525MPD2    C3 7795   0.136   2.171  14.735  0.0587  0.3302  0.1922
  525MPD2    C4 7796   4.723   2.168  14.732 -0.1678  0.3470 -0.5267
  525MPD2    C5 7797   4.649   2.086  14.810 -0.1831  0.2319  0.1663
  525MPD2     H 7798   0.296   2.080  14.846  0.3006 -1.5138  0.6277
  525MPD2    H1 7799   4.678   2.227  14.654  0.5255  2.0495  0.3497
  525MPD2    H2 7800   4.635   1.945  14.959  0.0961  1.9732  1.5797
  525MPD2    H3 7801   4.541   2.082  14.811 -0.1726 -0.8057 -2.3521
  525MPD2     N 7802   0.216   2.272  14.677  0.9021 -0.0625  0.2363
  525MPD2    H5 7803   0.172   2.355  14.641 -1.0528 -1.9299 -1.6934
  525MPD2    N1 7804   0.178   1.942  15.034  1.0222 -0.1617  0.0830
  525MPD2    H7 7805   0.278   1.932  15.038  1.0336  0.8544  2.5676
  526TMC3    C1 7806   0.200   1.869  15.254  0.0420  0.2928 -0.0434
  526TMC3    C2 7807   0.138   1.848  15.370  0.4797 -0.4179 -0.2741
  526TMC3    C3 7808   0.219   1.810  15.477  0.8073  0.2544 -0.0789
  526TMC3    C4 7809   0.340   1.855  15.233  0.6390 -0.3963 -0.1055
  526TMC3    C5 7810   0.411   1.801  15.341  0.0217 -0.1403  1.1278
  526TMC3    C6 7811   0.350   1.776  15.463 -0.1068 -0.5810  0.1001
  526TMC3     C 7812   0.112   1.904  15.142  0.1341 -0.1985  0.6529
  526TMC3     O 7813   4.719   1.910  15.173  0.0496  0.1506 -1.0698
  526TMC3     H 7814   0.032   1.861  15.385  0.2613 -1.0167 -1.3323
  526TMC3    H1 7815   0.393   1.869  15.140  1.1717 -1.5596  0.0209
  526TMC3    H2 7816   0.404   1.733  15.547 -1.8325 -0.3513  1.3393
  526TMC3    C7 7817   0.551   1.806  15.341  0.4864  0.5974 -0.4745
  526TMC3    C8 7818   0.158   1.781  15.606 -0.1070 -0.0345 -0.3258
  526TMC3    O1 7819   0.606   1.867  15.434  0.1857 -0.2833 -0.0451
  526TMC3    O2 7820   0.235   1.740  15.690 -0.4304  0.1813  0.4067
  527MPD2     C 7821   2.617   0.799   1.248 -0.8783 -0.5920 -0.2166
  527MPD2    C1 7822   2.598   0.673   1.302  0.0506 -0.1500  0.5160
  527MPD2    C2 7823   2.631   0.562   1.231  0.7771  0.0187 -0.4141
  527MPD2    C3 7824   2.672   0.574   1.106  0.1511  0.3253 -0.1540
  527MPD2    C4 7825   2.693   0.699   1.049  0.1953 -0.0156 -0.1445
  527MPD2    C5 7826   2.664   0.808   1.125 -0.1851 -0.0229  0.2370
  527MPD2     H 7827   2.614   0.464   1.274 -2.6337  0.8526  0.1267
  527MPD2    H1 7828   2.685   0.710   0.942  2.3789  2.0406 -0.1054
  527MPD2    H2 7829   2.590   0.893   1.294  1.7388 -0.2116  0.5164
  527MPD2    H3 7830   2.665   0.904   1.074 -0.6771 -1.1707 -1.9567
  527MPD2     N 7831   2.670   0.455   1.028  0.4245 -0.4639  0.2051
  527MPD2    H5 7832   2.611   0.379   1.060  1.3263 -0.1559  2.6196
  527MPD2    N1 7833   2.538   0.649   1.429  0.5583  0.0743  0.1717
  527MPD2    H7 7834   2.543   0.554   1.465  1.5077  1.0797  2.6601
  528TMC3    C1 7835   2.402   0.685   1.617 -0.4243 -0.5763  0.3298
  528TMC3    C2 7836   2.473   0.600   1.691  0.3322 -0.6761  0.2167
  528TMC3    C3 7837   2.396   0.503   1.754 -0.9628  1.0292  0.3014
  528TMC3    C4 7838   2.270   0.687   1.601  0.2551 -0.3608  0.0241
  528TMC3    C5 7839   2.200   0.581   1.661  0.4352 -0.0803  0.5556
  528TMC3    C6 7840   2.267   0.487   1.733  0.0524 -0.7919 -1.1591
  528TMC3     C 7841   2.468   0.740   1.505  0.2076 -0.7474  0.3056
  528TMC3     O 7842   2.440   0.852   1.471  0.9808 -0.6509 -0.0326
  528TMC3     H 7843   2.577   0.622   1.708  0.9446 -3.7583  0.4786
  528TMC3    H1 7844   2.221   0.762   1.540  0.6924 -0.6439 -0.6699
  528TMC3    H2 7845   2.208   0.428   1.802 -1.4228  1.4550 -0.4644
  528TMC3    C7 7846   2.057   0.581   1.671 -0.0628  0.0424  0.6188
  528TMC3    C8 7847   2.482   0.406   1.821 -0.5088  0.0126 -0.4157
  528TMC3    O1 7848   2.005   0.475   1.703 -0.6377 -0.5580  0.1668
  528TMC3    O2 7849   2.587   0.449   1.856 -0.0637 -0.1816  0.6126
  529MPD2     C 7850   1.061   3.248   0.624  0.6892  0.3609  0.0821
  529MPD2    C1 7851   0.938   3.278   0.667 -0.1193 -0.0584  0.2786
  529MPD2    C2 7852   0.880   3.398   0.629  0.5698  0.0345 -0.5260
  529MPD2    C3 7853   0.931   3.487   0.542 -0.0704  0.4641  0.4214
  529MPD2    C4 7854   1.064   3.455   0.492  0.3679  0.5590  0.8075
  529MPD2    C5 7855   1.126   3.339   0.535 -0.2088  0.1544  0.0740
  529MPD2     H 7856   0.782   3.407   0.674  1.1824  0.1151  0.7901
  529MPD2    H1 7857   1.111   3.522   0.420 -2.5368  2.5821  0.7965
  529MPD2    H2 7858   1.114   3.157   0.652 -0.1156  0.3159  1.4633
  529MPD2    H3 7859   1.226   3.318   0.500 -0.9795 -0.0810 -1.9611
  529MPD2     N 7860   0.870   3.599   0.491 -0.2147  0.1761  0.4065
  529MPD2    H5 7861   0.925   3.649   0.422  1.5494  1.4287  2.7187
  529MPD2    N1 7862   0.852   3.191   0.736 -0.2012  0.7003  0.0976
  529MPD2    H7 7863   0.755   3.220   0.751 -0.6122 -0.4384 -0.3310
  530TMC3    C1 7864   0.769   2.986   0.827 -0.1903 -0.5350 -0.4159
  530TMC3    C2 7865   0.789   2.913   0.938 -0.0835 -0.4489 -0.0424
  530TMC3    C3 7866   0.686   2.838   0.986 -0.1208  0.4471  0.5772
  530TMC3    C4 7867   0.643   2.995   0.772 -0.3060  0.3701 -0.2717
  530TMC3    C5 7868   0.546   2.917   0.823 -0.5108  0.2012 -0.2927
  530TMC3    C6 7869   0.563   2.833   0.928  0.7639  0.2570  0.5511
  530TMC3     C 7870   0.880   3.063   0.776  0.2029  0.6952 -0.4179
  530TMC3     O 7871   0.994   3.025   0.797 -0.2178 -0.0870  0.6453
  530TMC3     H 7872   0.876   2.937   0.997  0.9577  3.4634 -3.1463
  530TMC3    H1 7873   0.628   3.054   0.683  0.8517  1.1238  0.0318
  530TMC3    H2 7874   0.491   2.755   0.952  0.6979  0.0574 -0.3059
  530TMC3    C7 7875   0.438   2.891   0.739  1.0303 -0.3695  0.8885
  530TMC3    C8 7876   0.711   2.748   1.101  0.4538 -0.5517  0.6304
  530TMC3    O1 7877   0.461   2.890   0.620 -0.2791 -0.1355  0.1104
  530TMC3    O2 7878   0.611   2.714   1.160  0.1683 -0.0997  0.5338
  531MPD2     C 7879   0.168   1.157  13.324  0.5081  0.5139 -0.5625
  531MPD2    C1 7880   0.038   1.177  13.357 -0.2903 -0.5403  0.1845
  531MPD2    C2 7881   4.666   1.146  13.262  0.3498  0.6974 -0.4000
  531MPD2    C3 7882   4.699   1.098  13.141  0.1601 -0.1378 -0.0428
  531MPD2    C4 7883   0.109   1.081  13.105  0.3516 -1.1070  0.1212
  531MPD2    C5 7884   0.204   1.115  13.198  0.5536 -0.0647  0.0661
  531MPD2     H 7885   4.563   1.159  13.291  0.5174  1.2880 -0.0551
  531MPD2    H1 7886   0.135   1.045  13.006 -0.0765 -1.1951  0.0383
  531MPD2    H2 7887   0.252   1.165  13.392  3.1073  0.4908 -3.7717
  531MPD2    H3 7888   0.308   1.098  13.171 -0.2648 -2.7506 -1.3832
  531MPD2     N 7889   4.595   1.062  13.054 -0.5268  0.0874 -0.8127
  531MPD2    H5 7890   4.503   1.100  13.074 -1.2328 -2.2217  0.3318
  531MPD2    N1 7891   0.009   1.240  13.484  0.4284  0.1215  1.2271
  531MPD2    H7 7892   0.084   1.249  13.551  0.6228 -0.3993  1.0812
  532TMC3    C1 7893   4.602   1.358  13.636 -0.2818 -0.1154 -0.4195
  532TMC3    C2 7894   4.474   1.405  13.645  0.0871  0.1078  0.2251
  532TMC3    C3 7895   4.394   1.373  13.759  0.4268 -0.3150  0.0232
  532TMC3    C4 7896   4.658   1.289  13.738 -0.2132  0.2593  0.3652
  532TMC3    C5 7897   4.577   1.266  13.849 -0.7295  0.0638 -0.1295
  532TMC3    C6 7898   4.442   1.295  13.856  0.4515 -0.0163 -0.2018
  532TMC3     C 7899   4.608   1.292  13.511 -0.3985 -0.1117  0.7282
  532TMC3     O 7900   4.498   1.292  13.458  0.1448  0.0259  0.1427
  532TMC3     H 7901   4.431   1.471  13.570  1.9794  1.5196  0.3903
  532TMC3    H1 7902   0.041   1.268  13.745 -0.1143  0.9021  0.8227
  532TMC3    H2 7903   4.383   1.275  13.944 -0.3136  0.2601 -0.6491
  532TMC3    C7 7904   4.629   1.244  13.980  0.5202 -0.1034  0.4553
  532TMC3    C8 7905   4.263   1.331  13.717 -0.7070  0.1947 -0.0909
  532TMC3    O1 7906   4.572   1.296  14.077 -0.4680  0.0216  0.0250
  532TMC3    O2 7907   4.188   1.308  13.811  0.4830  0.1116  0.0395
  533TMC3    C1 7908   0.410   2.411  14.672  0.0557  0.1351  0.7124
  533TMC3    C2 7909   0.545   2.416  14.648  1.0020  0.1688 -0.2868
  533TMC3    C3 7910   0.617   2.507  14.722  0.8816  0.2676 -0.3078
  533TMC3    C4 7911   0.347   2.495  14.764 -0.7794 -0.2112  0.5142
  533TMC3    C5 7912   0.420   2.592  14.833 -0.4459  0.1815 -0.5277
  533TMC3    C6 7913   0.563   2.591  14.817 -0.7426  0.2649 -0.4552
  533TMC3     C 7914   0.353   2.280  14.683  0.4701  0.3485 -0.5789
  533TMC3     O 7915   0.433   2.190  14.700  0.5934  0.3722  0.1407
  533TMC3     H 7916   0.592   2.359  14.569  0.3131  0.0444 -0.6023
  533TMC3    H1 7917   0.241   2.483  14.786 -0.9045  0.9344  0.5036
  533TMC3    H2 7918   0.632   2.655  14.871 -0.9331 -2.9592  3.6552
  533TMC3    C7 7919   0.378   2.618  14.970 -0.5430  0.0652 -0.3944
  533TMC3    C8 7920   0.749   2.548  14.695  0.2469  0.9722 -0.0918
  533TMC3    O1 7921   0.274   2.565  15.005 -0.0940  0.2416  0.4211
  533TMC3    O2 7922   0.837   2.545  14.783  0.0871  0.9043  0.2677
  534MPD2     C 7923   2.081   4.123   1.801  0.6706  0.1304  0.2406
  534MPD2    C1 7924   2.203   4.097   1.755  0.3746  0.0823 -0.0250
  534MPD2    C2 7925   2.262   3.974   1.767 -0.0213  0.5491 -0.6657
  534MPD2    C3 7926   2.197   3.868   1.824 -0.1710 -0.2856 -0.2569
  534MPD2    C4 7927   2.068   3.899   1.865 -0.0134  0.0014  0.1797
  534MPD2    C5 7928   2.019   4.023   1.853  0.7432 -0.1253  0.0857
  534MPD2     H 7929   2.360   3.954   1.724  1.0591  2.2197  1.0146
  534MPD2    H1 7930   2.000   3.817   1.885 -2.4196  1.6827 -1.1941
  534MPD2    H2 7931   2.011   4.202   1.778 -2.8812 -2.6574  1.4093
  534MPD2    H3 7932   1.917   4.044   1.880  0.8685 -1.1423  1.3223
  534MPD2     N 7933   2.247   3.735   1.828  0.2939  0.1980 -0.1788
  534MPD2    H5 7934   2.184   3.666   1.867  0.6184 -1.6121 -2.8890
  534MPD2    N1 7935   2.284   4.199   1.703 -0.2649  0.3637 -0.0799
  534MPD2    H7 7936   2.380   4.175   1.680 -0.1549  1.1230 -0.4235
  535TMC3    C1 7937   2.374   3.538   1.778  0.3429  0.0118  0.1644
  535TMC3    C2 7938   2.267   3.460   1.804 -0.2108  0.0117  0.3213
  535TMC3    C3 7939   2.266   3.333   1.761 -1.1637 -0.5809  0.1918
  535TMC3    C4 7940   2.487   3.483   1.718 -0.5448 -0.2089 -0.5277
  535TMC3    C5 7941   2.475   3.354   1.665 -0.2582  0.2336  0.4172
  535TMC3    C6 7942   2.362   3.275   1.686 -0.3395  0.8952  0.1262
  535TMC3     C 7943   2.364   3.683   1.782  0.1134  0.2848 -0.4567
  535TMC3     O 7944   2.457   3.747   1.729  0.6438  0.2173  0.5308
  535TMC3     H 7945   2.180   3.499   1.855 -1.4828  0.2034 -1.9700
  535TMC3    H1 7946   2.565   3.546   1.677  0.1785 -1.3557 -0.9114
  535TMC3    H2 7947   2.342   3.178   1.641 -0.5331  0.3717  1.3444
  535TMC3    C7 7948   2.567   3.295   1.574 -0.2552 -0.0032  0.6284
  535TMC3    C8 7949   2.151   3.251   1.778 -0.8285  0.5303 -0.1425
  535TMC3    O1 7950   2.628   3.366   1.491 -0.0809 -0.5274  0.3901
  535TMC3    O2 7951   2.134   3.182   1.680 -0.8393  0.0246  0.1243
  536MPD2     C 7952   1.998   2.570  16.007  0.4663  0.0604 -0.0535
  536MPD2    C1 7953   1.878   2.501  16.003  0.6425  0.1481  0.4592
  536MPD2    C2 7954   1.806   2.512  15.880 -0.6345  0.0981  0.8511
  536MPD2    C3 7955   1.849   2.591  15.772  0.3105 -0.0974  0.3708
  536MPD2    C4 7956   1.967   2.656  15.783 -0.4413 -0.5980  0.5316
  536MPD2    C5 7957   2.039   2.640  15.899  0.9924  0.4637  0.3868
  536MPD2     H 7958   1.710   2.462  15.867 -0.8810  0.4604  1.2881
  536MPD2    H1 7959   2.003   2.730  15.712  2.5687 -1.9229  0.6895
  536MPD2    H2 7960   2.058   2.553  16.095  0.7137 -2.1902 -0.6439
  536MPD2    H3 7961   2.131   2.698  15.906  0.6889  0.8105  1.6259
  536MPD2     N 7962   1.779   2.609  15.649 -0.1281  0.4375  0.1199
  536MPD2    H5 7963   1.831   2.625  15.563 -2.0622 -1.2228 -1.3535
  536MPD2    N1 7964   1.855   2.413  16.106 -0.1596 -0.1705  0.2696
  536MPD2    H7 7965   1.917   2.416  16.186 -1.8137 -1.4513  1.5950
  537TMC3    C1 7966   1.741   2.259  16.241 -0.1533 -0.4646 -0.7877
  537TMC3    C2 7967   1.809   2.302  16.352 -0.3677  0.6178 -0.4803
  537TMC3    C3 7968   1.830   2.210  16.451 -0.4498  0.0075  0.0126
  537TMC3    C4 7969   1.688   2.133  16.229  0.2450  0.0602  0.6082
  537TMC3    C5 7970   1.714   2.048  16.331 -0.5058  0.2654 -0.8001
  537TMC3    C6 7971   1.785   2.080  16.444 -0.2937 -0.0783 -0.2434
  537TMC3     C 7972   1.748   2.323  16.110  0.0885 -0.6126 -0.1405
  537TMC3     O 7973   1.666   2.296  16.027 -0.1495  0.4387 -0.2360
  537TMC3     H 7974   1.841   2.405  16.351 -0.3139  0.6165  1.0336
  537TMC3    H1 7975   1.643   2.093  16.140  1.8410  1.7253 -0.9439
  537TMC3    H2 7976   1.801   2.022  16.534 -0.1375  0.4406  0.0640
  537TMC3    C7 7977   1.678   1.905  16.314  0.2923  1.0290  0.1594
  537TMC3    C8 7978   1.927   2.240  16.557  0.2199 -0.2960  0.7061
  537TMC3    O1 7979   1.619   1.868  16.217  0.2598 -0.5638 -0.2501
  537TMC3    O2 7980   1.974   2.150  16.625 -0.1586  0.3129  0.4803
  538TMC3    C1 7981   2.792   0.785  11.097  0.0934  0.6781 -0.3951
  538TMC3    C2 7982   2.834   0.685  11.015  0.1478 -1.0192 -0.3814
  538TMC3    C3 7983   2.775   0.680  10.888  0.2631  0.7794 -0.3694
  538TMC3    C4 7984   2.698   0.881  11.062  0.0073  0.1631  0.0710
  538TMC3    C5 7985   2.643   0.862  10.935  0.2796 -0.2648 -0.0226
  538TMC3    C6 7986   2.678   0.765  10.846 -0.7552  0.9779 -0.4936
  538TMC3     C 7987   2.818   0.780  11.234 -0.5061  0.2649 -0.1439
  538TMC3     O 7988   2.733   0.836  11.305  0.1328  0.6955  0.3048
  538TMC3     H 7989   2.909   0.615  11.052 -0.1608  0.3246  2.7875
  538TMC3    H1 7990   2.646   0.948  11.130  1.4880 -0.8125  2.1329
  538TMC3    H2 7991   2.622   0.741  10.756  2.2684 -3.1668 -1.2709
  538TMC3    C7 7992   2.510   0.927  10.906 -0.1892 -0.2250  0.2987
  538TMC3    C8 7993   2.792   0.564  10.814  0.4502 -0.8195  0.0969
  538TMC3    O1 7994   2.437   0.885  10.816 -0.1930  0.3953  0.2188
  538TMC3    O2 7995   2.823   0.460  10.877 -0.0749  0.8835  0.1045
  539MPD2     C 7996   2.671   0.154  12.020 -0.2069  0.1952  0.4891
  539MPD2    C1 7997   2.632   0.144  11.892 -0.3293  0.1710  0.6223
  539MPD2    C2 7998   2.513   0.192  11.853  0.4285  0.8156  0.1889
  539MPD2    C3 7999   2.414   0.232  11.947  0.1735  0.0846 -0.4437
  539MPD2    C4 8000   2.449   0.224  12.085  0.1398 -0.6588  0.5770
  539MPD2    C5 8001   2.579   0.190  12.119  0.0408  0.4079 -0.2062
  539MPD2     H 8002   2.485   0.208  11.749  0.1089 -0.5805  0.0459
  539MPD2    H1 8003   2.381   0.254  12.163 -2.3508 -1.5867 -1.2284
  539MPD2    H2 8004   2.768   0.132  12.063  0.2415 -0.9461 -1.1382
  539MPD2    H3 8005   2.615   0.188  12.221 -1.1930 -0.6933  0.2004
  539MPD2     N 8006   2.286   0.264  11.900  0.4477 -0.1583  0.4428
  539MPD2    H5 8007   2.286   0.271  11.799 -1.8094 -1.6432  0.3484
  539MPD2    N1 8008   2.719   0.098  11.793 -0.3393 -0.1556 -0.0401
  539MPD2    H7 8009   2.686   0.090  11.698 -0.9977 -0.1518  0.1864
  540TMC3    C1 8010   2.056   0.281  11.896  0.3794  0.3859  0.8002
  540TMC3    C2 8011   2.068   0.342  11.777 -0.1287  0.0435  0.0616
  540TMC3    C3 8012   1.952   0.357  11.708  0.4114 -0.1943 -0.0396
  540TMC3    C4 8013   1.945   0.217  11.940 -0.0741  0.1128  0.9906
  540TMC3    C5 8014   1.834   0.232  11.864 -0.2976  0.0958 -0.1538
  540TMC3    C6 8015   1.835   0.300  11.742 -0.0613 -0.1504 -0.2078
  540TMC3     C 8016   2.174   0.265  11.977 -0.0477 -0.1241  0.3887
  540TMC3     O 8017   2.156   0.244  12.097 -0.1330 -0.0006  0.2533
  540TMC3     H 8018   2.155   0.390  11.733  1.4382 -3.4857 -0.6918
  540TMC3    H1 8019   1.946   0.169  12.037 -0.8624 -0.1546  0.8615
  540TMC3    H2 8020   1.751   0.321  11.677 -0.9111  1.2621  1.3181
  540TMC3    C7 8021   1.715   0.162  11.909  0.7629 -0.3347  0.3276
  540TMC3    C8 8022   1.958   0.435  11.585 -0.4983  0.6186 -0.0801
  540TMC3    O1 8023   1.613   0.198  11.853  0.1087  0.2300  0.3818
  540TMC3    O2 8024   2.031   0.530  11.598 -0.2396 -0.3102 -0.1092
  541MPD2     C 8025   0.798   1.393  13.557  0.3780 -0.1466  0.1506
  541MPD2    C1 8026   0.865   1.298  13.485  0.7883 -0.6080  0.1286
  541MPD2    C2 8027   0.865   1.298  13.349 -1.5034  0.0862  0.6162
  541MPD2    C3 8028   0.796   1.400  13.281  0.4943 -0.5722  0.2257
  541MPD2    C4 8029   0.715   1.485  13.353 -0.8550 -0.0167  0.1847
  541MPD2    C5 8030   0.727   1.491  13.492 -0.4969 -0.3236  0.3055
  541MPD2     H 8031   0.918   1.218  13.299 -1.2799  1.2870 -1.0708
  541MPD2    H1 8032   0.661   1.565  13.304 -0.7670  0.1909  0.4257
  541MPD2    H2 8033   0.806   1.396  13.665 -1.5569 -1.2961  0.3250
  541MPD2    H3 8034   0.668   1.559  13.552 -1.0963  1.0091 -1.7763
  541MPD2     N 8035   0.785   1.410  13.139  0.1564  0.5826 -0.1934
  541MPD2    H5 8036   0.723   1.483  13.104 -0.9579 -0.8421 -1.2193
  541MPD2    N1 8037   0.947   1.210  13.566 -0.0110 -0.9605 -0.8505
  541MPD2    H7 8038   0.937   1.215  13.667  1.7152 -2.5999 -0.6091
  542TMC3    C1 8039   0.841   1.376  12.915  0.7047 -0.0136 -0.5874
  542TMC3    C2 8040   0.837   1.287  12.806  0.2529 -0.6579 -1.0944
  542TMC3    C3 8041   0.864   1.340  12.675  0.1625 -0.6115  0.0977
  542TMC3    C4 8042   0.855   1.508  12.894  0.3222  0.3861 -0.1908
  542TMC3    C5 8043   0.891   1.559  12.772  0.0095  0.0870 -0.0736
  542TMC3    C6 8044   0.877   1.478  12.659  0.2354  0.0491  0.3507
  542TMC3     C 8045   0.857   1.330  13.056  0.0698  0.6795  0.6447
  542TMC3     O 8046   0.901   1.220  13.077 -0.1185  0.0877 -0.6449
  542TMC3     H 8047   0.819   1.181  12.818 -1.9250 -0.0109  1.3035
  542TMC3    H1 8048   0.850   1.580  12.975  1.8528  0.7974 -0.4656
  542TMC3    H2 8049   0.909   1.523  12.566  0.0460 -0.5858 -0.0144
  542TMC3    C7 8050   0.910   1.704  12.745 -0.5434  0.1610  0.1164
  542TMC3    C8 8051   0.867   1.259  12.559  0.2076  0.1812 -0.2500
  542TMC3    O1 8052   0.914   1.752  12.630 -0.5607  0.4595  0.1506
  542TMC3    O2 8053   0.895   1.318  12.455  0.6533 -0.2333  0.3386
  543TMC3    C1 8054   0.732   2.386  17.177  0.4267 -0.1781 -0.3111
  543TMC3    C2 8055   0.675   2.267  17.209  0.3025 -0.6734 -0.0442
  543TMC3    C3 8056   0.671   2.237  17.346 -0.1996 -0.0384  0.3942
  543TMC3    C4 8057   0.787   2.477  17.266 -0.1921 -0.2678 -0.1894
  543TMC3    C5 8058   0.786   2.443  17.397 -0.3282 -0.0736 -0.4561
  543TMC3    C6 8059   0.733   2.324  17.435  0.3780  0.7476  0.2064
  543TMC3     C 8060   0.748   2.418  17.036 -0.3677 -0.1440 -0.1226
  543TMC3     O 8061   0.747   2.337  16.949 -0.4975  0.2094  0.0696
  543TMC3     H 8062   0.649   2.191  17.136  1.5736 -0.0977 -1.0992
  543TMC3    H1 8063   0.852   2.559  17.237 -0.8158  0.9156  1.7592
  543TMC3    H2 8064   0.716   2.310  17.541  0.5485  0.8472  0.2468
  543TMC3    C7 8065   0.841   2.531  17.494  0.5074 -0.0164  0.1058
  543TMC3    C8 8066   0.630   2.104  17.386  0.9136  0.2373  0.0330
  543TMC3    O1 8067   0.859   2.489  17.609 -0.4391  0.0696 -0.5883
  543TMC3    O2 8068   0.562   2.041  17.306 -0.4061 -0.1862 -0.1016
  544MPD2     C 8069   0.664   1.689  17.672 -0.1825 -0.7368  0.2908
  544MPD2    C1 8070   0.574   1.720  17.575  0.7119 -0.1571 -0.7366
  544MPD2    C2 8071   0.577   1.839  17.507 -0.2874  0.2351 -0.0151
  544MPD2    C3 8072   0.670   1.936  17.550  0.4197  0.6516  0.2633
  544MPD2    C4 8073   0.745   1.917  17.665  0.0976  0.8648  0.2365
  544MPD2    C5 8074   0.750   1.792   0.024 -0.1023 -0.2246  0.3122
  544MPD2     H 8075   0.513   1.850  17.420  0.5823 -0.1850 -0.7129
  544MPD2    H1 8076   0.794   2.005   0.010 -1.2853  0.6607  2.3729
  544MPD2    H2 8077   0.667   1.598   0.035  0.7515 -0.8189  0.1165
  544MPD2    H3 8078   0.816   1.772   0.108 -0.9198  1.2572  1.3140
  544MPD2     N 8079   0.690   2.067  17.499 -0.5797  0.2163  0.4041
  544MPD2    H5 8080   0.750   2.125  17.556 -0.3069  0.7550 -0.4287
  544MPD2    N1 8081   0.486   1.616  17.543 -0.6663 -0.1282 -0.3782
  544MPD2    H7 8082   0.509   1.525  17.583 -2.8441 -0.0695  0.9910
  545TMC3    C1 8083   0.308   1.496  17.468 -0.5028 -0.3060  0.4461
  545TMC3    C2 8084   0.175   1.494  17.466 -0.3204 -0.6912  0.4500
  545TMC3    C3 8085   0.107   1.379  17.457  0.0642 -0.1322  0.2003
  545TMC3    C4 8086   0.384   1.386  17.457 -0.3885 -0.4153 -0.6652
  545TMC3    C5 8087   0.310   1.269  17.434  0.8263 -0.1950 -0.2353
  545TMC3    C6 8088   0.172   1.258  17.444  0.0139 -0.4065 -0.1257
  545TMC3     C 8089   0.368   1.626  17.472  0.1947  0.4211  0.6386
  545TMC3     O 8090   0.302   1.725  17.434  0.0244 -0.4412  0.2701
  545TMC3     H 8091   0.123   1.584  17.497  2.2165  0.7348  0.5832
  545TMC3    H1 8092   0.492   1.389  17.446 -0.4773 -2.5979 -2.1211
  545TMC3    H2 8093   0.130   1.158  17.439  0.4294 -0.5515 -0.6507
  545TMC3    C7 8094   0.379   1.143  17.428 -0.5147 -0.4973  0.3975
  545TMC3    C8 8095   4.687   1.383  17.473 -0.2924  0.5670 -0.1802
  545TMC3    O1 8096   0.323   1.047  17.375 -0.0258 -0.9278  0.9689
  545TMC3    O2 8097   4.642   1.491  17.512 -0.6799  0.0932 -0.0385
  546MPD2     C 8098   2.054   2.413  17.485  0.0117  0.6738 -0.1784
  546MPD2    C1 8099   2.016   2.453  17.356  0.3396 -0.0570 -0.5015
  546MPD2    C2 8100   2.043   2.588  17.322 -0.0588 -0.1291 -0.1754
  546MPD2    C3 8101   2.102   2.676  17.411 -0.1896  0.0300  0.1333
  546MPD2    C4 8102   2.133   2.631  17.536  0.0026 -0.0406 -0.3887
  546MPD2    C5 8103   2.119   2.502  17.567 -0.2305  0.0518  0.5550
  546MPD2     H 8104   2.028   2.619  17.219  0.9625  1.0046  0.0152
  546MPD2    H1 8105   2.179   2.694  17.611 -0.1849  0.1334 -0.4195
  546MPD2    H2 8106   2.026   2.316  17.524 -2.0729 -0.4171 -4.3983
  546MPD2    H3 8107   2.147   2.486  17.670 -0.4117  1.2304  0.7812
  546MPD2     N 8108   2.123   2.810  17.386  0.1523  0.4718 -0.6244
  546MPD2    H5 8109   2.166   2.862  17.462  0.1633 -0.7552  0.1933
  546MPD2    N1 8110   1.941   2.368  17.268 -0.7888  0.2730  0.6231
  546MPD2    H7 8111   1.930   2.269  17.285 -2.3748  0.5455  1.1905
  547TMC3    C1 8112   1.821   2.297  17.084  0.1058  0.4199  0.0515
  547TMC3    C2 8113   1.783   2.304  16.953  0.6373 -0.7359 -0.0202
  547TMC3    C3 8114   1.689   2.216  16.911  0.2483  0.7271 -0.0994
  547TMC3    C4 8115   1.756   2.212  17.167 -0.5376  0.1060 -0.3115
  547TMC3    C5 8116   1.664   2.120  17.123  0.1358 -0.0197 -0.2149
  547TMC3    C6 8117   1.626   2.130  16.996 -0.0691  0.0666 -0.9262
  547TMC3     C 8118   1.886   2.407  17.144 -0.1892 -0.2654 -0.1583
  547TMC3     O 8119   1.884   2.510  17.083 -0.6177  0.1831 -0.2870
  547TMC3     H 8120   1.805   2.388  16.887  0.1344 -0.7701 -0.2322
  547TMC3    H1 8121   1.778   2.202  17.272 -1.0481 -0.0942 -0.2230
  547TMC3    H2 8122   1.537   2.084  16.955 -0.3406  2.9068 -3.5663
  547TMC3    C7 8123   1.623   2.007  17.203  0.0243 -0.2653  0.2260
  547TMC3    C8 8124   1.628   2.241  16.785 -0.7405  0.0750  0.1035
  547TMC3    O1 8125   1.654   2.001  17.321  0.3662  0.3161 -0.6226
  547TMC3    O2 8126   1.600   2.359  16.772 -0.3162 -0.0438  0.0318
  548MPD2     C 8127   1.696   3.485  12.347 -0.0133  0.0092  0.1890
  548MPD2    C1 8128   1.672   3.361  12.396  0.4889  0.1622 -0.4618
  548MPD2    C2 8129   1.758   3.268  12.346  0.0014 -0.1534 -0.9890
  548MPD2    C3 8130   1.871   3.299  12.270 -0.3070 -0.2716 -0.2235
  548MPD2    C4 8131   1.895   3.431  12.231  0.2756 -0.0862  0.1581
  548MPD2    C5 8132   1.802   3.525  12.270 -0.0763  0.0753  0.0540
  548MPD2     H 8133   1.743   3.162  12.365 -0.0657 -0.2439 -1.5486
  548MPD2    H1 8134   1.984   3.453  12.173  0.8459 -0.3220  0.9310
  548MPD2    H2 8135   1.625   3.558  12.384  0.5601  0.1322  1.0256
  548MPD2    H3 8136   1.809   3.632  12.254  0.4709 -0.0258 -0.3916
  548MPD2     N 8137   1.957   3.190  12.236 -0.0528  0.5402 -0.2445
  548MPD2    H5 8138   1.946   3.106  12.293 -0.2756 -1.2917 -3.0024
  548MPD2    N1 8139   1.558   3.342  12.480 -0.4555  0.0991 -0.2783
  548MPD2    H7 8140   1.497   3.421  12.501  0.0215  0.3382  0.2050
  549TMC3    C1 8141   1.394   3.231  12.614 -0.3184 -0.3883 -0.0598
  549TMC3    C2 8142   1.354   3.351  12.659  0.1373  0.2568  1.3453
  549TMC3    C3 8143   1.242   3.346  12.738  0.0656  0.6193  0.0738
  549TMC3    C4 8144   1.336   3.113  12.656  0.4761 -0.6444 -0.1930
  549TMC3    C5 8145   1.242   3.120  12.753  0.3956 -0.0466  0.0234
  549TMC3    C6 8146   1.190   3.241  12.798  0.7640  0.5060  0.5741
  549TMC3     C 8147   1.518   3.223  12.536  0.6027 -0.5585 -0.9761
  549TMC3     O 8148   1.578   3.117  12.519 -0.2001 -0.2593  0.4162
  549TMC3     H 8149   1.397   3.445  12.625 -1.9066  1.0130  0.8788
  549TMC3    H1 8150   1.356   3.019  12.607 -4.4847 -2.0318  0.4718
  549TMC3    H2 8151   1.112   3.248  12.873 -1.7738 -0.6399 -1.9435
  549TMC3    C7 8152   1.166   2.996  12.795 -0.1908 -0.3804  0.0801
  549TMC3    C8 8153   1.160   3.470  12.764 -0.1092  0.3602 -0.3545
  549TMC3    O1 8154   1.057   3.013  12.846 -0.0958 -0.3945  0.0440
  549TMC3    O2 8155   1.038   3.460  12.785 -0.0087 -0.0811  0.0326
  550TMC3    C1 8156   0.481   1.285  12.635 -0.2160  0.1143  0.3554
  550TMC3    C2 8157   0.382   1.357  12.698 -0.3185 -0.3803 -0.0268
  550TMC3    C3 8158   0.373   1.494  12.671  0.5895 -0.7569 -0.4901
  550TMC3    C4 8159   0.555   1.353  12.535 -0.0128  0.3997  0.0291
  550TMC3    C5 8160   0.532   1.483  12.495 -0.0242  0.4405 -0.0255
  550TMC3    C6 8161   0.440   1.561  12.569 -0.1309  0.8878 -0.1726
  550TMC3     C 8162   0.447   1.146  12.598 -0.0385 -0.0690 -0.5061
  550TMC3     O 8163   0.440   1.067  12.687 -0.2534 -0.3970  0.6286
  550TMC3     H 8164   0.316   1.308  12.768 -3.1939  1.7447 -1.2158
  550TMC3    H1 8165   0.634   1.302  12.480  1.2188 -0.3931  2.5314
  550TMC3    H2 8166   0.411   1.662  12.542 -2.7511 -0.3100 -1.9825
  550TMC3    C7 8167   0.493   1.477  12.357 -0.6337 -0.2365  0.3046
  550TMC3    C8 8168   0.283   1.583  12.742 -0.0117  0.0799 -0.3960
  550TMC3    O1 8169   0.455   1.369  12.311 -0.5898 -0.4167 -0.6330
  550TMC3    O2 8170   0.230   1.678  12.685 -0.1853  0.0746  0.0316
  551TMC3    C1 8171   2.621   3.682  13.440  0.0689  0.5784  0.7684
  551TMC3    C2 8172   2.745   3.701  13.394 -0.1406  0.4437  0.3041
  551TMC3    C3 8173   2.852   3.709  13.482  0.9084 -0.1813 -0.1065
  551TMC3    C4 8174   2.604   3.664  13.571  0.2714  0.8581  0.6172
  551TMC3    C5 8175   2.710   3.676  13.660  0.1595  0.0744 -0.1908
  551TMC3    C6 8176   2.843   3.695  13.616  0.1016 -0.1401 -0.4839
  551TMC3     C 8177   2.514   3.677  13.344  0.3159 -0.6960 -0.0451
  551TMC3     O 8178   2.537   3.690  13.225  0.1200 -0.6579  0.5364
  551TMC3     H 8179   2.752   3.715  13.287  0.7851 -1.3015  0.1394
  551TMC3    H1 8180   2.506   3.635  13.608  0.3749  0.3250  0.4802
  551TMC3    H2 8181   2.922   3.695  13.690 -1.1568  0.5748  0.8506
  551TMC3    C7 8182   2.685   3.691  13.801 -0.2955  0.4433  0.3729
  551TMC3    C8 8183   2.969   3.779  13.437 -0.3266  0.1610  0.3181
  551TMC3    O1 8184   2.764   3.652  13.883 -0.3171  0.2879 -0.2090
  551TMC3    O2 8185   3.080   3.761  13.489  0.1173 -0.1327 -0.0701
  552MPD2     C 8186   4.503   1.349  14.393  0.4378 -0.3347  0.6624
  552MPD2    C1 8187   4.475   1.239  14.468 -0.5800  0.2544 -0.4814
  552MPD2    C2 8188   4.551   1.200  14.573  0.1903  0.8307 -0.3158
  552MPD2    C3 8189   4.666   1.277  14.607  0.8310  0.1980  0.2653
  552MPD2    C4 8190   4.700   1.385  14.522 -0.1066  0.5773  0.5216
  552MPD2    C5 8191   4.624   1.415  14.412 -0.7505  0.3127 -1.0364
  552MPD2     H 8192   4.520   1.110  14.625  0.1576  0.5681 -0.7921
  552MPD2    H1 8193   0.068   1.442  14.532  1.3370 -1.7123  0.3271
  552MPD2    H2 8194   4.453   1.382  14.302  2.2193  0.1621 -0.1324
  552MPD2    H3 8195   4.665   1.487  14.342 -1.4868  0.1603 -1.6266
  552MPD2     N 8196   0.035   1.245  14.706  0.0563 -0.1922  0.4235
  552MPD2    H5 8197   0.118   1.304  14.709  0.9938 -1.3984 -2.3184
  552MPD2    N1 8198   4.361   1.157  14.434 -0.2236 -0.7784  0.4481
  552MPD2    H7 8199   4.371   1.062  14.469 -2.7173 -0.9713  0.6172
  553TMC3    C1 8200   4.259   1.039  14.254 -0.4659  0.6807 -0.2892
  553TMC3    C2 8201   4.316   1.030  14.130  0.2875  0.4166  0.0813
  553TMC3    C3 8202   4.361   0.910  14.095 -0.3352  0.6886 -1.2322
  553TMC3    C4 8203   4.251   0.931  14.339  0.1683 -0.3522 -0.0247
  553TMC3    C5 8204   4.323   0.825  14.310 -0.1333 -0.7964 -0.0169
  553TMC3    C6 8205   4.372   0.809  14.187 -0.2907  0.3987 -0.7735
  553TMC3     C 8206   4.293   1.168  14.311 -0.1321  0.5865 -0.9569
  553TMC3     O 8207   4.278   1.265  14.235 -0.2633 -0.2592  0.1699
  553TMC3     H 8208   4.334   1.115  14.064 -0.7252  0.1645 -0.5135
  553TMC3    H1 8209   4.192   0.940  14.429 -0.4627 -2.2792 -0.2428
  553TMC3    H2 8210   4.400   0.710  14.154  1.7283  0.2178  1.4821
  553TMC3    C7 8211   4.426   0.814  14.409  0.4029 -0.2253 -0.0916
  553TMC3    C8 8212   4.450   0.902  13.985 -0.0695  0.1000  1.5729
  553TMC3    O1 8213   4.411   0.885  14.508  0.3861  0.5345  0.3038
  553TMC3    O2 8214   4.550   0.829  13.997 -0.0728 -0.0249  0.0115
  554TMC3    C1 8215   1.311   4.622  11.555  0.2069  0.2175 -0.1685
  554TMC3    C2 8216   1.286   4.590  11.425  0.3909 -0.7564  0.3853
  554TMC3    C3 8217   1.353   4.654  11.320 -0.4095 -0.1289  0.1234
  554TMC3    C4 8218   1.405   4.719  11.585 -0.7924 -0.3094 -0.2968
  554TMC3    C5 8219   1.474   0.047  11.478 -0.5084 -0.0439  0.2116
  554TMC3    C6 8220   1.445   0.025  11.347 -0.1288 -0.2345 -0.4464
  554TMC3     C 8221   1.270   4.523  11.656 -0.0896  0.2335  0.0069
  554TMC3     O 8222   1.185   4.441  11.631 -0.3417  0.0139  0.6830
  554TMC3     H 8223   1.212   4.512  11.410 -0.3405  0.0438 -0.1612
  554TMC3    H1 8224   1.438   0.011  11.687 -0.0603 -0.3521 -0.5270
  554TMC3    H2 8225   1.510   0.073  11.275 -0.4694  2.2480  0.9030
  554TMC3    C7 8226   1.553   0.167  11.494  0.0870 -0.1913  0.2101
  554TMC3    C8 8227   1.302   4.648  11.185 -0.4393 -0.5629  0.2491
  554TMC3    O1 8228   1.665   0.177  11.440  0.4526 -0.1986  0.2129
  554TMC3    O2 8229   1.366   4.712  11.101  0.2445 -0.1373 -0.2066
  555TMC3    C1 8230   0.519   4.312  15.276 -0.0721  0.1491  0.3874
  555TMC3    C2 8231   0.602   4.377  15.362  0.2711 -0.2374  0.3186
  555TMC3    C3 8232   0.607   4.329  15.497  0.1807  0.0083 -0.3930
  555TMC3    C4 8233   0.453   4.195  15.317 -1.0043  0.3812  0.4340
  555TMC3    C5 8234   0.471   4.146  15.440 -0.3813  0.0716 -0.1355
  555TMC3    C6 8235   0.542   4.213  15.537  0.1367 -0.0923  0.6355
  555TMC3     C 8236   0.495   4.359  15.144 -0.2605 -0.7195 -0.6908
  555TMC3     O 8237   0.595   4.396  15.082 -0.2941  0.4376  0.3584
  555TMC3     H 8238   0.649   4.467  15.325 -1.6128  0.4706 -0.3849
  555TMC3    H1 8239   0.376   4.154  15.253 -0.6089  0.9478 -0.4030
  555TMC3    H2 8240   0.577   4.172  15.631  0.6220 -0.0141  0.4913
  555TMC3    C7 8241   0.472   4.004  15.458 -0.7559 -0.1470  0.8525
  555TMC3    C8 8242   0.640   4.427  15.596 -0.2782  0.0574 -0.1666
  555TMC3    O1 8243   0.495   3.962  15.573 -0.9269  0.6020 -0.0581
  555TMC3    O2 8244   0.639   4.543  15.557  0.3897 -0.1042  0.6366
  556MPD2     C 8245   3.514   1.428  10.226 -0.3593 -0.6201  0.6409
  556MPD2    C1 8246   3.532   1.309  10.294  0.4650  0.1047 -0.5290
  556MPD2    C2 8247   3.483   1.192  10.246 -0.0467 -0.1523 -0.1323
  556MPD2    C3 8248   3.412   1.187  10.125 -1.2234 -0.0577 -0.0030
  556MPD2    C4 8249   3.397   1.303  10.059 -0.5355 -0.0064 -0.7492
  556MPD2    C5 8250   3.447   1.422  10.109  0.1138  0.1213 -0.5455
  556MPD2     H 8251   3.496   1.106  10.310 -2.5342 -0.7344 -0.4091
  556MPD2    H1 8252   3.340   1.309   9.967 -0.9108 -0.1022 -0.5193
  556MPD2    H2 8253   3.543   1.531  10.246  0.3279 -0.7255  0.1676
  556MPD2    H3 8254   3.430   1.512  10.051  0.7648  0.9863  0.6224
  556MPD2     N 8255   3.349   1.067  10.091 -0.7873  1.1405 -0.1354
  556MPD2    H5 8256   3.346   1.001  10.169  0.8005  0.0759 -0.9840
  556MPD2    N1 8257   3.594   1.297  10.425  0.1746 -0.3853 -0.8612
  556MPD2    H7 8258   3.600   1.205  10.467 -0.6675 -0.5655 -1.1260
  557TMC3    C1 8259   3.210   0.910   9.985 -0.8422 -0.4613 -0.2419
  557TMC3    C2 8260   3.201   0.837   9.879 -0.4758 -0.1132  0.0788
  557TMC3    C3 8261   3.144   0.708   9.894  0.5092  0.2399  0.5779
  557TMC3    C4 8262   3.181   0.865  10.115 -0.0182  0.6891 -0.5771
  557TMC3    C5 8263   3.140   0.735  10.128  0.2580 -0.5815  0.5035
  557TMC3    C6 8264   3.114   0.656  10.015 -0.2069 -0.2970 -0.6083
  557TMC3     C 8265   3.285   1.035   9.977 -0.8042 -0.3632 -0.0238
  557TMC3     O 8266   3.315   1.072   9.867  0.4571 -0.2138 -0.1025
  557TMC3     H 8267   3.215   0.881   9.781 -0.1721  2.4767  1.2864
  557TMC3    H1 8268   3.157   0.933  10.196 -1.1758  0.1316 -0.4584
  557TMC3    H2 8269   3.056   0.566  10.030 -2.9717  2.3241  4.1205
  557TMC3    C7 8270   3.083   0.694  10.251  0.0397  1.0034 -0.2365
  557TMC3    C8 8271   3.103   0.641   9.767 -0.4801  0.7643 -0.5514
  557TMC3    O1 8272   3.091   0.771  10.346  0.4745 -0.3252  0.3202
  557TMC3    O2 8273   3.090   0.699   9.660 -0.0910  0.0363 -0.5868
  558TMC3    C1 8274   1.847   3.852   9.909 -0.5995 -0.3476  0.4695
  558TMC3    C2 8275   1.738   3.914   9.972 -0.6797 -0.3650 -0.2045
  558TMC3    C3 8276   1.623   3.920   9.895 -0.2606 -0.0049 -0.1904
  558TMC3    C4 8277   1.842   3.817   9.778 -0.1216 -0.8997 -0.2770
  558TMC3    C5 8278   1.728   3.827   9.705 -1.1272  1.2317 -0.1184
  558TMC3    C6 8279   1.612   3.874   9.767 -0.7225  0.1462  0.9903
  558TMC3     C 8280   1.944   3.798  10.008  0.1151  0.2933  0.3943
  558TMC3     O 8281   1.941   3.850  10.120  0.3642  0.1260 -0.7538
  558TMC3     H 8282   1.752   3.960  10.069 -0.0907  0.5765 -0.7398
  558TMC3    H1 8283   1.938   3.799   9.731 -0.1365 -2.4733  0.3044
  558TMC3    H2 8284   1.518   3.870   9.712 -0.2405 -0.6830  0.2449
  558TMC3    C7 8285   1.755   3.810   9.566 -0.3065  0.5308 -0.2064
  558TMC3    C8 8286   1.494   3.915   9.967  0.8124 -0.2809  0.0254
  558TMC3    O1 8287   1.804   3.697   9.547 -0.3619 -0.0625 -0.5607
  558TMC3    O2 8288   1.396   3.930   9.898 -0.3487 -0.1616 -0.1486
  559MPD2     C 8289   1.368   4.547  10.466 -0.1967  0.3912  0.4029
  559MPD2    C1 8290   1.300   4.457  10.552  0.0317 -0.1335 -0.3178
  559MPD2    C2 8291   1.360   4.444  10.674  0.2976  0.3520  0.2050
  559MPD2    C3 8292   1.481   4.493  10.708 -0.3918 -0.2754 -0.1836
  559MPD2    C4 8293   1.545   4.575  10.624  0.2059 -0.3377  0.4703
  559MPD2    C5 8294   1.481   4.604  10.506 -0.3705 -0.1574 -0.1103
  559MPD2     H 8295   1.329   4.380  10.755  0.8028  0.6128  0.6033
  559MPD2    H1 8296   1.644   4.614  10.640 -0.0593  0.8829 -0.8301
  559MPD2    H2 8297   1.337   4.573  10.365  0.9475 -0.6681 -0.2254
  559MPD2    H3 8298   1.533   4.676  10.442 -1.4047  2.2803  1.8073
  559MPD2     N 8299   1.546   4.438  10.827  1.2461  0.1453 -0.3798
  559MPD2    H5 8300   1.507   4.363  10.883  1.2839  0.4526  0.0547
  559MPD2    N1 8301   1.173   4.409  10.515  0.4949  0.0449  0.0919
  559MPD2    H7 8302   1.133   4.432  10.425 -0.2428  0.1455  0.4526
  560TMC3    C1 8303   1.733   4.422  10.980  0.2561  0.3440 -0.3009
  560TMC3    C2 8304   1.701   4.286  10.989  0.3997  0.1144  0.0739
  560TMC3    C3 8305   1.748   4.218  11.101 -0.9482  0.6641 -0.1454
  560TMC3    C4 8306   1.802   4.489  11.078 -0.0563 -0.4606 -0.7525
  560TMC3    C5 8307   1.860   4.416  11.182  0.7690  0.1067  0.7588
  560TMC3    C6 8308   1.834   4.275  11.186  0.3675 -0.1979 -0.3770
  560TMC3     C 8309   1.657   4.502  10.883 -0.7560 -0.4257  0.4340
  560TMC3     O 8310   1.700   4.613  10.864  0.5523 -0.9489 -0.2733
  560TMC3     H 8311   1.625   4.240  10.927 -0.5375  0.5232  0.9027
  560TMC3    H1 8312   1.816   4.597  11.070 -0.2968 -0.2150  2.1521
  560TMC3    H2 8313   1.900   4.215  11.248  0.2783  0.0192 -0.0737
  560TMC3    C7 8314   1.952   4.467  11.285  0.5186 -0.1703  0.2828
  560TMC3    C8 8315   1.705   4.080  11.109  0.0192 -0.1523  1.2149
  560TMC3    O1 8316   1.984   4.377  11.361  0.2782 -0.8952 -0.1543
  560TMC3    O2 8317   1.673   4.036  11.002  0.0354  0.4883 -0.4832
  561TMC3    C1 8318   4.089   3.197  11.625 -0.4143 -1.2326  0.3453
  561TMC3    C2 8319   3.974   3.157  11.684 -0.7469  0.1003 -0.2122
  561TMC3    C3 8320   3.864   3.237  11.686  0.4833 -0.4349  0.2707
  561TMC3    C4 8321   4.096   3.315  11.556 -1.1235 -1.1576  0.9219
  561TMC3    C5 8322   3.981   3.384  11.533  0.1618  0.1568 -0.3928
  561TMC3    C6 8323   3.862   3.342  11.599  0.4402 -0.0215  0.3660
  561TMC3     C 8324   4.194   3.097  11.613 -0.3195 -0.2251  0.7713
  561TMC3     O 8325   4.166   2.981  11.640 -0.5962  0.3915 -0.6320
  561TMC3     H 8326   3.977   3.088  11.768 -1.7074  0.4237  0.0958
  561TMC3    H1 8327   4.177   3.327  11.485 -1.8595 -0.1840  0.2448
  561TMC3    H2 8328   3.779   3.412  11.604  0.9172  0.6821 -1.5315
  561TMC3    C7 8329   3.970   3.486  11.424 -1.1713  0.4996 -1.0247
  561TMC3    C8 8330   3.816   3.251  11.829 -0.7848 -0.1820  0.3305
  561TMC3    O1 8331   3.855   3.504  11.389 -0.5610 -0.7153  0.6378
  561TMC3    O2 8332   3.916   3.265  11.899  0.3000  0.1660 -0.2469
  562TMC3    C1 8333   0.441   4.676  16.403 -0.5673  0.4391 -0.2254
  562TMC3    C2 8334   0.317   0.005  16.411  0.0277 -0.1253  0.4601
  562TMC3    C3 8335   0.225   4.710  16.309  0.0081 -0.4763  0.6626
  562TMC3    C4 8336   0.473   4.612  16.283  0.4425  0.1034  0.4283
  562TMC3    C5 8337   0.385   4.592  16.185  0.1429 -0.0567 -0.3507
  562TMC3    C6 8338   0.259   4.640  16.194  0.3990 -0.0156 -0.1467
  562TMC3     C 8339   0.491   4.593  16.513 -0.0921  0.0959  0.0428
  562TMC3     O 8340   0.514   4.475  16.479  0.3382 -0.1091 -0.4230
  562TMC3     H 8341   0.291   0.049  16.507  1.1421  0.5071  0.4725
  562TMC3    H1 8342   0.573   4.571  16.272  0.6713  0.2117  2.1146
  562TMC3    H2 8343   0.183   4.594  16.132 -1.0810  0.9448  0.9595
  562TMC3    C7 8344   0.413   4.465  16.110 -0.0904 -0.6680  0.2877
  562TMC3    C8 8345   0.102   0.060  16.305  0.5630 -0.2296  0.6314
  562TMC3    O1 8346   0.381   4.453  15.991 -0.3519 -0.1640 -0.1576
  562TMC3    O2 8347   0.044   0.086  16.413  0.0357 -0.3559 -0.3789
  563MPD2     C 8348   2.968   0.982  15.678  0.2009 -0.0568  0.1502
  563MPD2    C1 8349   2.950   1.120  15.689  0.0277 -0.2108  0.4198
  563MPD2    C2 8350   3.025   1.190  15.781 -1.0973 -0.5564 -0.6437
  563MPD2    C3 8351   3.116   1.123  15.863 -0.3755 -0.2170 -0.3058
  563MPD2    C4 8352   3.134   0.987  15.839  0.4836  0.0361 -0.1063
  563MPD2    C5 8353   3.053   0.915  15.763  0.3161 -0.2346  0.1506
  563MPD2     H 8354   3.014   1.297  15.791  1.9275 -0.3205  0.2606
  563MPD2    H1 8355   3.200   0.935  15.907 -0.4265 -0.0435  0.7220
  563MPD2    H2 8356   2.906   0.918  15.615  0.2805  0.5459 -0.5380
  563MPD2    H3 8357   3.056   0.807  15.769 -3.9426 -0.3590  0.4265
  563MPD2     N 8358   3.172   1.202  15.961 -0.5973  0.7603 -0.2847
  563MPD2    H5 8359   3.138   1.297  15.970  0.5975  1.1992 -0.3340
  563MPD2    N1 8360   2.852   1.173  15.602  0.3910 -0.5056  0.8903
  563MPD2    H7 8361   2.776   1.106  15.605  0.4657 -0.6096  0.4946
  564TMC3    C1 8362   2.724   1.339  15.697  0.0739  0.2070  0.0304
  564TMC3    C2 8363   2.599   1.272  15.689  0.1227  0.6833 -0.2582
  564TMC3    C3 8364   2.533   1.255  15.811  0.4250 -0.1421  0.5178
  564TMC3    C4 8365   2.776   1.384  15.820 -0.5180  0.6793 -0.5926
  564TMC3    C5 8366   2.703   1.360  15.934 -0.5363 -0.0967  0.1030
  564TMC3    C6 8367   2.582   1.296  15.929 -0.1038  0.1184  0.0812
  564TMC3     C 8368   2.831   1.311  15.605  0.0948  0.4547  0.0339
  564TMC3     O 8369   2.929   1.387  15.587  0.1882  0.0387 -0.4610
  564TMC3     H 8370   2.560   1.236  15.594  0.6597 -0.6713  0.0328
  564TMC3    H1 8371   2.873   1.428  15.839  0.3546 -1.3609 -0.4202
  564TMC3    H2 8372   2.517   1.299  16.016  1.6090  2.6560  1.2637
  564TMC3    C7 8373   2.782   1.291  16.034 -0.7681 -0.2011 -0.6201
  564TMC3    C8 8374   2.455   1.134  15.819  0.1415  1.3784 -0.6069
  564TMC3    O1 8375   2.897   1.329  16.037  0.2063 -0.5061  0.0791
  564TMC3    O2 8376   2.453   1.085  15.933  0.0036 -0.3700 -0.8685
  565TMC3    C1 8377   3.571   3.100  10.674 -0.0359  0.2044  0.0247
  565TMC3    C2 8378   3.518   2.998  10.741  0.8681  0.7681 -0.2990
  565TMC3    C3 8379   3.436   2.922  10.670  0.0776  0.2647 -0.8179
  565TMC3    C4 8380   3.555   3.123  10.544  0.5991 -0.2879 -0.0260
  565TMC3    C5 8381   3.462   3.054  10.481 -0.1681 -0.0261 -0.7259
  565TMC3    C6 8382   3.407   2.948  10.543 -0.5322  0.1000 -0.0633
  565TMC3     C 8383   3.692   3.156  10.738 -0.1641 -0.7083 -0.4559
  565TMC3     O 8384   3.780   3.210  10.667  0.0861  0.6106  0.2236
  565TMC3     H 8385   3.521   2.978  10.847  1.8743 -0.1622 -0.5101
  565TMC3    H1 8386   3.608   3.209  10.504  0.9163 -1.0532 -1.2640
  565TMC3    H2 8387   3.339   2.889  10.482 -0.3345  0.0040 -0.1912
  565TMC3    C7 8388   3.460   3.040  10.339 -0.1483 -0.6994  0.0577
  565TMC3    C8 8389   3.417   2.789  10.719 -0.2033 -0.0821 -0.5116
  565TMC3    O1 8390   3.417   2.937  10.288 -0.3087  0.4970 -0.2347
  565TMC3    O2 8391   3.508   2.756  10.796 -0.2659  0.6906 -0.1836
  566MPD2     C 8392   4.687   4.200  14.519  0.3182 -0.1712 -0.5231
  566MPD2    C1 8393   0.078   4.169  14.443  0.6234  0.5470  0.2469
  566MPD2    C2 8394   0.055   4.147  14.306 -0.1664 -0.3921 -0.5727
  566MPD2    C3 8395   4.657   4.183  14.250 -0.1853  0.0927 -0.1655
  566MPD2    C4 8396   4.548   4.225  14.322  0.4543  1.1671 -0.3115
  566MPD2    C5 8397   4.566   4.219  14.454  1.1861 -0.2722 -0.4472
  566MPD2     H 8398   0.146   4.127  14.251  0.5909 -0.3758  0.6742
  566MPD2    H1 8399   4.451   4.256  14.284  0.8422  3.0970  0.2611
  566MPD2    H2 8400   4.688   4.214  14.626  0.1063 -1.2239 -0.3801
  566MPD2    H3 8401   4.478   4.230  14.516  1.7887 -0.6883  0.4821
  566MPD2     N 8402   4.636   4.187  14.114 -0.1394  0.1018 -0.5625
  566MPD2    H5 8403   4.573   4.259  14.082  0.0190 -0.3245 -1.8693
  566MPD2    N1 8404   0.201   4.165  14.506  0.1217 -0.4005  0.1990
  566MPD2    H7 8405   0.200   4.189  14.604  0.4580  1.0342 -0.1611
  567TMC3    C1 8406   0.425   4.155  14.543 -0.9339  1.0569  0.6851
  567TMC3    C2 8407   0.521   4.239  14.509 -0.8008  0.4471 -0.3195
  567TMC3    C3 8408   0.651   4.198  14.493  0.6258 -1.0732  0.9775
  567TMC3    C4 8409   0.465   4.033  14.595 -0.0626 -0.2595 -0.8428
  567TMC3    C5 8410   0.599   3.998  14.592 -0.5209  0.4644  0.0635
  567TMC3    C6 8411   0.692   4.071  14.536  0.3642 -0.4556 -0.4814
  567TMC3     C 8412   0.326   4.144  14.448  0.0439  0.2232 -0.5194
  567TMC3     O 8413   0.355   4.121  14.327  0.4638 -0.4939  0.3625
  567TMC3     H 8414   0.490   4.331  14.462  0.0567  0.3189 -1.1430
  567TMC3    H1 8415   0.389   3.958  14.615 -1.4639  1.7668  1.5691
  567TMC3    H2 8416   0.797   4.045  14.534  0.4271 -0.1592 -1.2890
  567TMC3    C7 8417   0.641   3.883  14.670  0.3403 -0.5647  0.2064
  567TMC3    C8 8418   0.739   4.280  14.411  0.4418  0.0066  0.0411
  567TMC3    O1 8419   0.749   3.832  14.643  0.6530  0.1895  0.1363
  567TMC3    O2 8420   0.734   4.401  14.425  0.0716 -0.2779 -0.0089
  568MPD2     C 8421   2.045   4.405  16.386  0.3006 -1.0182 -0.0901
  568MPD2    C1 8422   2.088   4.487  16.486 -0.2704 -0.4906 -0.0767
  568MPD2    C2 8423   2.107   4.624  16.451 -0.3304 -0.1206  0.1678
  568MPD2    C3 8424   2.103   4.669  16.322  0.2609 -0.1802  0.0081
  568MPD2    C4 8425   2.055   4.581  16.222 -0.1173 -0.3389  0.1065
  568MPD2    C5 8426   2.024   4.456  16.261  0.7725  0.0086 -0.1851
  568MPD2     H 8427   2.155   4.688  16.524  0.3388 -1.5383  0.9821
  568MPD2    H1 8428   2.037   4.603  16.117  1.1375 -0.5754 -0.1602
  568MPD2    H2 8429   2.023   4.303  16.415  0.0230 -1.2845 -1.2300
  568MPD2    H3 8430   1.977   4.389  16.190 -0.0068 -0.4695  0.7983
  568MPD2     N 8431   2.164   0.070  16.291  0.3789  0.7122 -0.1082
  568MPD2    H5 8432   2.198   0.124  16.371  0.4944 -0.4743  0.6430
  568MPD2    N1 8433   2.126   4.426  16.609  0.0707  0.3407  0.3980
  568MPD2    H7 8434   2.132   4.325  16.608  2.8763  0.5045  1.0346
  569TMC3    C1 8435   2.214   0.263  16.178 -0.4871 -0.4233 -0.0326
  569TMC3    C2 8436   2.317   0.307  16.259  0.3556  0.1607 -1.2072
  569TMC3    C3 8437   2.373   0.431  16.236 -0.3488  0.6071 -0.2446
  569TMC3    C4 8438   2.187   0.334  16.068  0.0507  0.3430 -0.1660
  569TMC3    C5 8439   2.242   0.457  16.041  0.5803  0.6796  0.4548
  569TMC3    C6 8440   2.343   0.503  16.124 -0.0170 -0.4107  0.7938
  569TMC3     C 8441   2.170   0.131  16.171 -0.1449  0.3512 -0.4274
  569TMC3     O 8442   2.130   0.085  16.065 -0.2179  0.2206 -0.0333
  569TMC3     H 8443   2.346   0.258  16.352 -0.8373  2.4572  0.3686
  569TMC3    H1 8444   2.105   0.297  16.008 -0.8452  0.6563  0.8516
  569TMC3    H2 8445   2.405   0.589  16.101  1.8977 -1.8487  0.6476
  569TMC3    C7 8446   2.211   0.525  15.914 -0.2895 -0.3553  0.3967
  569TMC3    C8 8447   2.452   0.488  16.340 -0.7388  0.3059  0.0850
  569TMC3    O1 8448   2.163   0.456  15.828  0.0250  0.0244 -0.6714
  569TMC3    O2 8449   2.506   0.419  16.426 -0.8447 -0.0632  0.5969
  570TMC3    C1 8450   1.844   3.472  16.171 -0.1245  0.4759 -0.0065
  570TMC3    C2 8451   1.938   3.477  16.076 -0.5229  0.3284 -0.0151
  570TMC3    C3 8452   1.959   3.605  16.030 -0.5224 -0.6044 -0.3458
  570TMC3    C4 8453   1.782   3.584  16.229  0.6666  0.7842 -0.0798
  570TMC3    C5 8454   1.799   3.705  16.174 -0.0876 -0.0547 -0.1568
  570TMC3    C6 8455   1.884   3.716  16.071 -0.1149  0.1918 -0.1109
  570TMC3     C 8456   1.830   3.351  16.239 -0.2038 -0.3910 -0.3780
  570TMC3     O 8457   1.865   3.244  16.190  0.4892  0.3339  0.2734
  570TMC3     H 8458   1.989   3.391  16.035 -1.8146 -0.7329  0.6016
  570TMC3    H1 8459   1.698   3.587  16.297  0.6880 -1.2606  0.0441
  570TMC3    H2 8460   1.901   3.812  16.023  1.6499  0.1096  0.3394
  570TMC3    C7 8461   1.792   3.818  16.253  0.4325  0.2083  0.0247
  570TMC3    C8 8462   2.087   3.645  15.977  0.1238 -0.0885 -0.0531
  570TMC3    O1 8463   1.785   3.792  16.378 -0.2264 -0.3380  0.1307
  570TMC3    O2 8464   2.098   3.759  15.937 -0.4580  0.0746  0.9037
  571MPD2     C 8465   0.738   0.354  17.668  0.6002 -0.0785 -0.6941
  571MPD2    C1 8466   0.625   0.281   0.002  0.2113 -0.1126 -0.3097
  571MPD2    C2 8467   0.504   0.342   0.012 -1.0216 -0.1225 -0.0925
  571MPD2    C3 8468   0.489   0.476  17.677  0.3094  0.0278  0.1933
  571MPD2    C4 8469   0.603   0.554  17.637  0.5948 -0.8184  0.4129
  571MPD2    C5 8470   0.725   0.485  17.630 -0.8064 -0.1998 -0.0162
  571MPD2     H 8471   0.413   0.285   0.031 -1.0931  0.5958  1.6755
  571MPD2    H1 8472   0.599   0.661  17.620 -1.3060 -0.5286  2.6565
  571MPD2    H2 8473   0.836   0.308  17.677  0.5649 -0.4383 -2.1200
  571MPD2    H3 8474   0.811   0.547  17.607 -0.2900 -1.2746 -1.0326
  571MPD2     N 8475   0.366   0.547   0.005 -0.1163  0.1331 -0.0777
  571MPD2    H5 8476   0.379   0.647   0.002 -0.1201  0.1961  1.9250
  571MPD2    N1 8477   0.637   0.150   0.043 -0.2919  0.0619 -0.4899
  571MPD2    H7 8478   0.732   0.127   0.069 -0.2447  1.8681  0.9440
  572TMC3    C1 8479   0.146   0.579   0.056  0.4511 -0.1051  0.7971
  572TMC3    C2 8480   0.024   0.529   0.056  0.1647 -0.6695 -0.0866
  572TMC3    C3 8481   4.644   0.601   0.100 -0.6455 -0.2942  0.2097
  572TMC3    C4 8482   0.178   0.696   0.126  0.1884  0.0114  0.3346
  572TMC3    C5 8483   0.061   0.772   0.170  0.4671 -0.4796 -0.3136
  572TMC3    C6 8484   4.662   0.720   0.158  0.2171 -0.0611  0.8694
  572TMC3     C 8485   0.244   0.480   0.038  0.6545  0.7328 -0.8378
  572TMC3     O 8486   0.208   0.365   0.036  0.0066  0.0769 -0.7785
  572TMC3     H 8487   4.718   0.444  17.691 -1.9391  0.3413 -0.4638
  572TMC3    H1 8488   0.275   0.713   0.171  1.1921 -0.4342 -1.6603
  572TMC3    H2 8489   4.579   0.787   0.180  1.5026  0.9751  2.6250
  572TMC3    C7 8490   0.085   0.909   0.227  0.7058 -0.1647 -0.8791
  572TMC3    C8 8491   4.513   0.562   0.056  0.7215  0.1134  0.3540
  572TMC3    O1 8492   4.712   0.960   0.281 -0.0719  0.3639  0.3650
  572TMC3    O2 8493   4.496   0.494  17.654 -0.1918  0.7786 -0.4856
  573MPD2     C 8494   0.893   1.048   0.738 -0.4865  0.7826  0.0358
  573MPD2    C1 8495   1.011   1.113   0.726  0.0494  0.1720  0.5078
  573MPD2    C2 8496   1.080   1.112   0.605  0.1862 -0.2674  0.3656
  573MPD2    C3 8497   1.028   1.048   0.489 -0.6230  0.1699  0.2159
  573MPD2    C4 8498   0.907   0.988   0.504  0.0634  0.0905 -0.1665
  573MPD2    C5 8499   0.841   0.995   0.622  0.5283 -0.7916 -0.8675
  573MPD2     H 8500   1.168   1.174   0.588 -0.8697  0.8009 -1.2302
  573MPD2    H1 8501   0.857   0.940   0.421 -0.4208 -2.0478  1.3543
  573MPD2    H2 8502   0.832   1.051   0.828 -0.2995 -2.5613  0.2441
  573MPD2    H3 8503   0.744   0.947   0.631  0.3889 -0.3331 -0.0333
  573MPD2     N 8504   1.082   1.051   0.359  0.0409  0.2806  0.3379
  573MPD2    H5 8505   1.026   1.012   0.284 -1.3413 -0.7060  1.8922
  573MPD2    N1 8506   1.070   1.183   0.834  0.6873 -0.4203  0.2249
  573MPD2    H7 8507   1.010   1.177   0.916  1.2012  1.5111  0.7508
  574TMC3    C1 8508   1.221   1.078   0.179 -0.1654 -0.4520  0.3254
  574TMC3    C2 8509   1.145   0.983   0.115 -0.7920  0.3721 -0.3731
  574TMC3    C3 8510   1.159   0.966  17.680 -0.3617 -0.1625  0.2064
  574TMC3    C4 8511   1.316   1.159   0.118  0.6388 -0.3491  0.0621
  574TMC3    C5 8512   1.332   1.131  17.678  0.3944 -0.2429  0.3865
  574TMC3    C6 8513   1.258   1.038  17.614  0.0320 -1.0339 -0.8455
  574TMC3     C 8514   1.205   1.103   0.322 -0.2904 -0.0030 -0.4511
  574TMC3     O 8515   1.291   1.156   0.390  0.0605  0.0358 -0.0636
  574TMC3     H 8516   1.081   0.916   0.172 -0.4408 -0.6322 -1.1554
  574TMC3    H1 8517   1.362   1.243   0.168 -0.6626  0.5953 -0.3365
  574TMC3    H2 8518   1.261   1.019  17.507  1.9132 -1.1827 -0.7652
  574TMC3    C7 8519   1.411   1.227  17.597  0.2600 -0.0279 -0.5634
  574TMC3    C8 8520   1.053   0.927  17.587 -0.1518 -0.0564 -0.4778
  574TMC3    O1 8521   1.421   1.206  17.478  0.0815  0.3602 -0.4422
  574TMC3    O2 8522   1.075   0.834  17.508 -0.0030  0.0890 -0.5561
  575TMC3    C1 8523   3.641   2.119  11.243  0.0774 -0.0007  0.0996
  575TMC3    C2 8524   3.534   2.053  11.301  0.2722  0.4153  0.5242
  575TMC3    C3 8525   3.408   2.073  11.251 -0.5212 -0.3825 -0.1832
  575TMC3    C4 8526   3.631   2.211  11.141  0.1297  0.3347 -0.3176
  575TMC3    C5 8527   3.502   2.230  11.097 -0.0751 -0.2737  0.6753
  575TMC3    C6 8528   3.395   2.163  11.150  0.1884 -1.4511  0.7986
  575TMC3     C 8529   3.774   2.098  11.300  0.0851  0.2646 -0.0335
  575TMC3     O 8530   3.792   1.988  11.353  0.6404 -0.3671  0.1300
  575TMC3     H 8531   3.559   1.991  11.387 -0.1127  0.0732  0.3904
  575TMC3    H1 8532   3.721   2.252  11.095 -1.4649  2.1623 -1.8167
  575TMC3    H2 8533   3.296   2.193  11.116 -0.1522 -0.7924  2.3913
  575TMC3    C7 8534   3.484   2.335  10.999  0.2291  0.0456  0.3112
  575TMC3    C8 8535   3.288   2.017  11.308  0.2905  0.2529 -0.5794
  575TMC3    O1 8536   3.566   2.422  10.979 -0.5408 -0.1851 -0.4638
  575TMC3    O2 8537   3.187   2.003  11.236  0.0771 -0.4564  0.0745
  576MPD2     C 8538   2.765   4.087  12.519  0.5203  0.3221  0.0151
  576MPD2    C1 8539   2.828   4.130  12.404  0.3135 -0.6520  0.2717
  576MPD2    C2 8540   2.778   4.246  12.347 -0.5727  0.9357 -0.2455
  576MPD2    C3 8541   2.667   4.315  12.390 -0.1114 -0.3752 -0.5647
  576MPD2    C4 8542   2.610   4.269  12.506  0.0703 -0.1987 -0.7029
  576MPD2    C5 8543   2.663   4.160  12.569  0.5272  0.9773  0.1477
  576MPD2     H 8544   2.819   4.276  12.250  2.3591  0.0739  0.7240
  576MPD2    H1 8545   2.521   4.318  12.546  0.5024  1.6747 -2.0169
  576MPD2    H2 8546   2.788   3.999  12.579  0.7707 -1.3001 -2.4259
  576MPD2    H3 8547   2.610   4.132  12.659 -0.8531  1.0528 -0.6452
  576MPD2     N 8548   2.613   4.418  12.317 -0.1337 -0.3271  0.1869
  576MPD2    H5 8549   2.645   4.439  12.223 -2.7805  0.9172 -0.4452
  576MPD2    N1 8550   2.924   4.054  12.332 -0.7577  0.5012  0.7708
  576MPD2    H7 8551   2.951   4.095  12.243 -0.4427  0.3574  0.8017
  577TMC3    C1 8552   3.069   3.893  12.250  0.3082  0.1487  0.4928
  577TMC3    C2 8553   3.110   3.763  12.242  0.1588 -0.5449 -0.3243
  577TMC3    C3 8554   3.227   3.734  12.163  0.2650 -0.0372 -0.1744
  577TMC3    C4 8555   3.128   3.991  12.167 -0.2375  0.3168  1.1311
  577TMC3    C5 8556   3.233   3.953  12.082 -0.1839 -0.4557 -0.6426
  577TMC3    C6 8557   3.286   3.823  12.082  0.4422  0.1698  0.2542
  577TMC3     C 8558   2.977   3.933  12.360  0.1395  0.0164  0.0731
  577TMC3     O 8559   2.952   3.864  12.457 -0.6860  0.5445 -0.4747
  577TMC3     H 8560   3.056   3.687  12.296 -0.4651 -1.3456 -2.0754
  577TMC3    H1 8561   3.096   4.094  12.172 -1.8050 -0.1597  0.8420
  577TMC3    H2 8562   3.387   3.808  12.047  0.4119  2.7776 -0.9429
  577TMC3    C7 8563   3.276   4.046  11.988 -0.0227  1.1020  0.0509
  577TMC3    C8 8564   3.295   3.612  12.197 -0.2136 -0.2445  0.0155
  577TMC3    O1 8565   3.266   4.164  12.020  0.6886 -0.1102  0.4665
  577TMC3    O2 8566   3.291   3.575  12.313 -0.7505 -0.3672  0.1744
  578MPD2     C 8567   0.788   3.128   1.251  0.4284  0.4728 -0.2682
  578MPD2    C1 8568   0.901   3.178   1.189  0.2533 -0.2509  0.2332
  578MPD2    C2 8569   1.026   3.116   1.228  0.4010 -0.0884 -0.2545
  578MPD2    C3 8570   1.037   3.012   1.329 -0.7289 -0.0586 -0.0822
  578MPD2    C4 8571   0.917   2.971   1.382 -0.1384  0.0303 -0.5178
  578MPD2    C5 8572   0.799   3.026   1.344  0.2458 -0.5589 -0.6066
  578MPD2     H 8573   1.122   3.143   1.185 -0.1346  3.0129  0.5272
  578MPD2    H1 8574   0.906   2.889   1.452 -0.0945  0.2229 -0.2845
  578MPD2    H2 8575   0.694   3.177   1.225  1.1418  0.9041 -2.0118
  578MPD2    H3 8576   0.710   2.990   1.393  0.2149  1.2211  0.6222
  578MPD2     N 8577   1.155   2.971   1.367  0.4631  0.1471  0.4926
  578MPD2    H5 8578   1.231   3.002   1.307  2.3499 -1.5029  2.0090
  578MPD2    N1 8579   0.889   3.279   1.091 -0.0795 -0.1963 -0.1862
  578MPD2    H7 8580   0.795   3.304   1.064 -0.9853 -3.7329 -0.2685
  579TMC3    C1 8581   1.322   2.875   1.490 -0.4045 -0.0629 -0.2582
  579TMC3    C2 8582   1.374   2.905   1.611  0.1917 -0.0385  0.0015
  579TMC3    C3 8583   1.508   2.919   1.637  0.2430 -0.2624  0.7328
  579TMC3    C4 8584   1.398   2.870   1.380  0.1171 -0.4599  0.1886
  579TMC3    C5 8585   1.535   2.867   1.407  0.1871  0.3884  0.0294
  579TMC3    C6 8586   1.593   2.902   1.531  0.1028 -0.5093  0.0072
  579TMC3     C 8587   1.183   2.892   1.473  0.3142 -0.9125 -0.0968
  579TMC3     O 8588   1.101   2.848   1.553 -0.3320  0.2199  0.4430
  579TMC3     H 8589   1.308   2.926   1.695  0.9720  0.7913  0.4068
  579TMC3    H1 8590   1.355   2.826   1.291  0.3156  1.3118 -0.7885
  579TMC3    H2 8591   1.701   2.900   1.545  0.1003 -2.3469 -0.2514
  579TMC3    C7 8592   1.626   2.859   1.295 -1.0672  0.5786 -0.1237
  579TMC3    C8 8593   1.560   2.963   1.763  0.8772 -0.3496  0.2221
  579TMC3    O1 8594   1.748   2.836   1.315  0.2113 -0.3811  0.7211
  579TMC3    O2 8595   1.475   3.011   1.839 -0.3142  0.3248 -0.4310
  580TMC3    C1 8596   0.894   2.877  12.530  0.6956  0.3957  0.5447
  580TMC3    C2 8597   0.787   2.871  12.440 -0.0413  0.6404 -0.5024
  580TMC3    C3 8598   0.764   2.769  12.363 -0.1644  1.0174 -0.2503
  580TMC3    C4 8599   0.973   2.765  12.544 -0.2246  0.4261  0.0799
  580TMC3    C5 8600   0.932   2.649  12.476  0.5561 -0.9518  0.2863
  580TMC3    C6 8601   0.835   2.653  12.378 -0.4682 -0.4617  1.2761
  580TMC3     C 8602   0.968   2.997  12.504 -0.2144  0.3301  0.0394
  580TMC3     O 8603   1.085   2.985  12.472 -0.7145 -0.4359 -0.0383
  580TMC3     H 8604   0.731   2.962  12.422  1.4257  1.9012  1.3231
  580TMC3    H1 8605   1.070   2.778  12.592  0.5770 -0.3476 -1.3495
  580TMC3    H2 8606   0.813   2.572  12.309 -0.2868  0.2725  0.3612
  580TMC3    C7 8607   1.021   2.537  12.487  0.3416  0.3613  0.2225
  580TMC3    C8 8608   0.722   2.815  12.225 -0.5880  0.0417 -0.4401
  580TMC3    O1 8609   1.122   2.552  12.555  0.7058 -0.4529  0.2937
  580TMC3    O2 8610   0.671   2.928  12.208  0.1616 -0.5230  0.2864
  581MPD2     C 8611   3.872   1.967  15.158 -0.0864 -0.2959  0.0553
  581MPD2    C1 8612   3.783   2.020  15.254  0.2449 -0.3234  0.8978
  581MPD2    C2 8613   3.675   2.089  15.212  0.1626 -0.7308 -1.1465
  581MPD2    C3 8614   3.661   2.130  15.076 -0.2512  0.4209 -0.5996
  581MPD2    C4 8615   3.746   2.079  14.979  1.2476 -0.0416 -0.3528
  581MPD2    C5 8616   3.852   1.999  15.022 -0.4470 -0.3229 -0.2665
  581MPD2     H 8617   3.599   2.128  15.279  3.1356  2.0995  0.5553
  581MPD2    H1 8618   3.719   2.096  14.876 -1.7986  1.1844  0.6452
  581MPD2    H2 8619   3.963   1.914  15.186 -0.2388  0.1316  1.3722
  581MPD2    H3 8620   3.921   1.945  14.958 -0.6235 -0.4248 -0.3701
  581MPD2     N 8621   3.558   2.217  15.032 -0.1635 -0.3681  0.2779
  581MPD2    H5 8622   3.570   2.263  14.943  2.2239  0.0562  0.8015
  581MPD2    N1 8623   3.797   2.017  15.398 -0.2344 -0.4121 -0.0525
  581MPD2    H7 8624   3.730   2.044  15.469  0.6733  0.2823  0.5285
  582TMC3    C1 8625   3.878   1.932  15.610 -1.5327 -0.1784  0.1228
  582TMC3    C2 8626   3.949   2.024  15.687  0.8805 -0.3233 -0.3271
  582TMC3    C3 8627   3.876   2.061  15.799 -0.4421  0.0871 -0.4306
  582TMC3    C4 8628   3.755   1.889  15.633 -0.6897  0.2493  0.0360
  582TMC3    C5 8629   3.679   1.938  15.738  0.3380  0.2406 -0.4129
  582TMC3    C6 8630   3.741   2.024  15.819  0.4696 -0.0008  0.1435
  582TMC3     C 8631   3.904   1.953  15.463  0.1193  0.6253 -0.4845
  582TMC3     O 8632   4.020   1.934  15.425  0.0258 -0.1258  0.0513
  582TMC3     H 8633   4.036   2.076  15.650  1.2732 -0.5082  0.3187
  582TMC3    H1 8634   3.702   1.841  15.552 -0.2941  0.4579 -0.3422
  582TMC3    H2 8635   3.684   2.059  15.904 -1.7286 -1.5766 -0.7026
  582TMC3    C7 8636   3.538   1.947  15.726  0.5097  1.0159 -0.8455
  582TMC3    C8 8637   3.918   2.169  15.882  0.6390 -0.3475  0.1720
  582TMC3    O1 8638   3.471   1.846  15.724  0.0112  0.0189  0.0169
  582TMC3    O2 8639   3.834   2.226  15.952  0.2669  0.2955  0.7267
  583MPD2     C 8640   3.768   4.198  17.157  0.2918 -0.2932 -0.1380
  583MPD2    C1 8641   3.771   4.269  17.044  0.2669 -0.4861  0.3201
  583MPD2    C2 8642   3.706   4.390  17.033  0.0940 -0.1514 -0.0809
  583MPD2    C3 8643   3.634   4.436  17.133  0.0648  0.2852 -0.6451
  583MPD2    C4 8644   3.651   4.378  17.259 -0.0275  0.0455  0.8143
  583MPD2    C5 8645   3.700   4.251  17.269 -0.4816  0.0486  0.2297
  583MPD2     H 8646   3.701   4.446  16.941  1.3494  0.2064  0.0802
  583MPD2    H1 8647   3.591   4.410  17.343 -1.7635  1.3542 -0.9112
  583MPD2    H2 8648   3.814   4.101  17.169 -2.8918 -1.8595 -0.4891
  583MPD2    H3 8649   3.686   4.185  17.353 -0.8617 -2.3490 -1.7336
  583MPD2     N 8650   3.564   4.562  17.119  0.4180 -0.0831  0.1371
  583MPD2    H5 8651   3.564   4.605  17.027  0.1934 -1.3038 -0.4308
  583MPD2    N1 8652   3.846   4.209  16.933  0.2788 -0.1277 -0.1211
  583MPD2    H7 8653   3.853   4.261  16.846 -1.2617  1.5238  0.7305
  584TMC3    C1 8654   3.445   0.031  17.160 -0.2170  0.3754 -1.2185
  584TMC3    C2 8655   3.515   0.099  17.063 -0.2282  0.1681 -0.1578
  584TMC3    C3 8656   3.481   0.227  17.035  0.4532 -0.1236 -0.2446
  584TMC3    C4 8657   3.350   0.093  17.238 -0.3573 -0.1449  0.5085
  584TMC3    C5 8658   3.328   0.226  17.207  0.2088  0.5326 -1.2892
  584TMC3    C6 8659   3.381   0.291  17.099  0.2301  0.6504 -0.0657
  584TMC3     C 8660   3.506   4.637  17.214  0.3584 -0.0409  0.6333
  584TMC3     O 8661   3.490   4.606  17.335  0.4758  0.2290  0.1517
  584TMC3     H 8662   3.605   0.068  17.012  0.1560 -0.6993  1.0497
  584TMC3    H1 8663   3.314   0.048  17.330 -0.0922 -0.2237  0.5747
  584TMC3    H2 8664   3.350   0.392  17.074  0.3391  0.9834  1.1442
  584TMC3    C7 8665   3.213   0.284  17.275 -0.0963  0.3947  0.0210
  584TMC3    C8 8666   3.570   0.298  16.954  0.4438 -0.3705  0.2838
  584TMC3    O1 8667   3.145   0.199  17.331 -0.2509 -0.3958  0.4250
  584TMC3    O2 8668   3.586   0.270  16.835 -0.1200  0.3431  0.7495
  585MPD2     C 8669   3.366   2.628   0.696  0.5551 -0.8447  0.0552
  585MPD2    C1 8670   3.315   2.749   0.654  0.1858 -0.2350 -0.1596
  585MPD2    C2 8671   3.321   2.784   0.520  0.6498 -1.1079  0.6458
  585MPD2    C3 8672   3.369   2.700   0.421 -0.0355  0.0822  1.1112
  585MPD2    C4 8673   3.434   2.587   0.468  1.4101  0.5384  0.0633
  585MPD2    C5 8674   3.440   2.554   0.603  0.0964  0.1574  0.2833
  585MPD2     H 8675   3.266   2.872   0.490 -1.5843 -2.7784 -0.1300
  585MPD2    H1 8676   3.496   2.530   0.400  0.6134 -0.5016  0.2166
  585MPD2    H2 8677   3.342   2.599   0.797  1.1256 -2.4823 -0.2758
  585MPD2    H3 8678   3.493   2.466   0.639  0.5438 -0.1619 -1.1647
  585MPD2     N 8679   3.366   2.712   0.277 -0.2859  0.3288  0.3457
  585MPD2    H5 8680   3.396   2.631   0.223 -0.6884  2.4618 -3.0317
  585MPD2    N1 8681   3.243   2.826   0.751  0.6000 -0.4107 -0.1533
  585MPD2    H7 8682   3.199   2.778   0.829  0.5876  1.1085  0.7657
  586TMC3    C1 8683   3.295   2.805   0.079  0.5049  0.0633  0.3657
  586TMC3    C2 8684   3.377   2.708   0.021  0.1565 -0.6426  0.1563
  586TMC3    C3 8685   3.340   2.661  17.594 -0.7681  0.0302  0.0253
  586TMC3    C4 8686   3.171   2.832   0.027  0.3132  0.1980  0.1030
  586TMC3    C5 8687   3.134   2.776  17.603 -0.9976  0.2170  0.3650
  586TMC3    C6 8688   3.223   2.691  17.534  0.1543 -0.1087 -0.7136
  586TMC3     C 8689   3.299   2.817   0.217 -0.2423 -0.4424 -0.1663
  586TMC3     O 8690   3.260   2.921   0.270 -0.7123 -0.6679  0.3932
  586TMC3     H 8691   3.477   2.698   0.061  0.4861  0.4268 -0.3987
  586TMC3    H1 8692   3.104   2.906   0.069  1.1562  0.2426  1.3547
  586TMC3    H2 8693   3.182   2.641  17.447 -0.5175  0.2130 -0.5860
  586TMC3    C7 8694   2.991   2.745  17.583  0.0894 -0.6086  0.3156
  586TMC3    C8 8695   3.433   2.594  17.508  0.2326  0.0296 -0.0655
  586TMC3    O1 8696   2.974   2.643  17.520  0.6983 -0.5639  0.3058
  586TMC3    O2 8697   3.409   2.588  17.388  0.8407 -0.0525  0.2014
  587TMC3    C1 8698   0.607   2.008  16.521  0.5634 -0.5043  0.3833
  587TMC3    C2 8699   0.616   2.143  16.497  0.4273  0.2306  0.7068
  587TMC3    C3 8700   0.735   2.197  16.466 -0.8409 -0.4772 -0.2529
  587TMC3    C4 8701   0.720   1.929  16.512 -0.2641  0.4685 -0.4482
  587TMC3    C5 8702   0.841   1.988  16.475  0.0514  0.0492 -0.1254
  587TMC3    C6 8703   0.847   2.116  16.451  0.2385  0.3184  0.1437
  587TMC3     C 8704   0.493   1.948  16.456 -0.7409  0.2695 -0.1434
  587TMC3     O 8705   0.513   1.848  16.391 -0.1312 -0.0906 -0.2841
  587TMC3     H 8706   0.528   2.202  16.515 -0.0940  0.5427 -2.9459
  587TMC3    H1 8707   0.718   1.823  16.534  0.7394  0.5544  0.0744
  587TMC3    H2 8708   0.944   2.161  16.428  0.0117  1.9050  2.3158
  587TMC3    C7 8709   0.964   1.942  16.536  0.1535 -0.4276 -0.0562
  587TMC3    C8 8710   0.738   2.334  16.416 -0.8392  0.6080  0.3545
  587TMC3    O1 8711   1.034   2.027  16.590 -0.1028 -0.0070 -0.4152
  587TMC3    O2 8712   0.810   2.360  16.323 -0.6383 -0.0280  0.7144
  588TMC3    C1 8713   2.269   4.336   9.883 -0.2083  0.0020  0.7603
  588TMC3    C2 8714   2.271   4.199   9.871 -0.2032 -0.6387 -0.2484
  588TMC3    C3 8715   2.360   4.128   9.942 -0.6713  0.2889 -0.2559
  588TMC3    C4 8716   2.345   4.403   9.969  0.3939  0.3860 -0.2422
  588TMC3    C5 8717   2.430   4.326  10.054  0.2351  0.2153  0.4966
  588TMC3    C6 8718   2.445   4.192  10.031 -0.4104 -0.2913 -0.3374
  588TMC3     C 8719   2.238   4.415   9.760 -0.3221  0.3301  0.1552
  588TMC3     O 8720   2.216   4.355   9.657  0.3467 -0.1895  0.2449
  588TMC3     H 8721   2.233   4.148   9.784 -0.7144 -0.0701 -0.3595
  588TMC3    H1 8722   2.322   4.500  10.012  0.8764  0.8361 -1.0126
  588TMC3    H2 8723   2.519   4.137  10.089 -0.9625  1.8584  2.3514
  588TMC3    C7 8724   2.545   4.405  10.097 -0.3382  0.2580 -0.0626
  588TMC3    C8 8725   2.363   3.987   9.926 -0.1150  0.3505 -0.3252
  588TMC3    O1 8726   2.615   4.342  10.173  0.3056  0.0092  0.6594
  588TMC3    O2 8727   2.262   3.935   9.871  0.0892 -0.2116  0.0522
  589TMC3    C1 8728   1.883   1.941   1.127  0.1640  0.5227  0.2539
  589TMC3    C2 8729   1.978   1.973   1.217  0.5780 -0.7060  0.1427
  589TMC3    C3 8730   2.101   1.907   1.205 -0.4127 -0.3826  0.0659
  589TMC3    C4 8731   1.904   1.846   1.035 -0.4314 -0.1306  0.0199
  589TMC3    C5 8732   2.022   1.778   1.026  0.0806 -0.4770 -0.5039
  589TMC3    C6 8733   2.121   1.814   1.105  0.3486  0.0590 -0.6750
  589TMC3     C 8734   1.742   1.978   1.155  0.1494  0.5446  0.7787
  589TMC3     O 8735   1.669   1.970   1.063  0.6318 -0.2296 -0.3659
  589TMC3     H 8736   1.957   2.052   1.289  0.8897  1.8091 -2.5393
  589TMC3    H1 8737   1.812   1.819   0.986 -0.9326  1.5620  0.0234
  589TMC3    H2 8738   2.216   1.762   1.103  0.5811  0.5126 -1.7037
  589TMC3    C7 8739   2.027   1.655   0.943  0.6781  0.3694 -0.2170
  589TMC3    C8 8740   2.219   1.972   1.268 -0.5377 -0.1053  0.2960
  589TMC3    O1 8741   1.924   1.625   0.891 -0.0855 -0.2253 -0.2065
  589TMC3    O2 8742   2.182   2.053   1.353 -0.2870 -0.5014  0.2240
  590MPD2     C 8743   1.604   0.335  16.697  0.5087  0.4574  0.3305
  590MPD2    C1 8744   1.541   0.333  16.577  0.0793  1.2257 -0.0521
  590MPD2    C2 8745   1.595   0.406  16.472  0.2353 -1.2137  0.3384
  590MPD2    C3 8746   1.709   0.483  16.492  0.3651  0.4668 -0.1877
  590MPD2    C4 8747   1.775   0.480  16.608 -0.3241 -1.1737  0.2180
  590MPD2    C5 8748   1.711   0.416  16.709 -0.3814  0.1071  0.7475
  590MPD2     H 8749   1.553   0.400  16.372 -1.9504 -0.9664  1.2579
  590MPD2    H1 8750   1.872   0.525  16.623 -0.9656 -0.5766  2.5051
  590MPD2    H2 8751   1.559   0.290  16.784 -0.2130 -1.9878 -1.3265
  590MPD2    H3 8752   1.750   0.435  16.809  0.1502 -2.7317  1.0772
  590MPD2     N 8753   1.769   0.540  16.375  0.4024  0.8049 -0.8586
  590MPD2    H5 8754   1.708   0.544  16.294 -1.3989  2.5039  0.5693
  590MPD2    N1 8755   1.416   0.259  16.557  0.0060 -0.1651  0.0201
  590MPD2    H7 8756   1.385   0.210  16.640  1.2771 -1.0422 -0.0157
  591TMC3    C1 8757   1.907   0.666  16.234 -0.2316  0.4892  0.1945
  591TMC3    C2 8758   1.854   0.593  16.128  0.4004  0.8404 -0.1806
  591TMC3    C3 8759   1.866   0.645  16.003 -0.4888  0.1736 -0.4219
  591TMC3    C4 8760   1.971   0.785  16.222 -0.2300 -0.1981  0.0674
  591TMC3    C5 8761   1.980   0.836  16.095  0.3545 -0.9551 -0.2879
  591TMC3    C6 8762   1.935   0.766  15.985  0.0412  0.5061  0.4558
  591TMC3     C 8763   1.884   0.614  16.366 -0.1854 -0.7594  0.6650
  591TMC3     O 8764   1.961   0.660  16.451  0.1828 -0.6742 -0.0371
  591TMC3     H 8765   1.805   0.497  16.144 -0.4900  1.1331 -1.1444
  591TMC3    H1 8766   2.003   0.838  16.312 -0.7060  1.1672 -0.5666
  591TMC3    H2 8767   1.968   0.776  15.882 -1.7190 -1.7172 -0.3238
  591TMC3    C7 8768   2.051   0.968  16.077  0.2619  0.4269  0.6740
  591TMC3    C8 8769   1.853   0.550  15.899  0.0658  0.2979  1.2884
  591TMC3    O1 8770   2.126   1.009  16.163 -0.9390  0.2043 -0.3569
  591TMC3    O2 8771   1.858   0.432  15.927  0.1728  0.0349  0.0839
  592MPD2     C 8772   1.953   2.453  11.474 -0.0409  0.3361  1.1985
  592MPD2    C1 8773   1.980   2.483  11.605  0.0558 -0.4870 -0.2090
  592MPD2    C2 8774   1.913   2.418  11.711  0.3085  0.2537  1.1266
  592MPD2    C3 8775   1.818   2.319  11.684 -0.1156  0.8420  0.4397
  592MPD2    C4 8776   1.784   2.293  11.551  0.0787 -0.3596 -0.2978
  592MPD2    C5 8777   1.850   2.361  11.448  0.1634  0.4792 -1.1162
  592MPD2     H 8778   1.949   2.434  11.812  3.1710  0.2219  0.1245
  592MPD2    H1 8779   1.709   2.219  11.524 -0.5960  0.0502  0.4466
  592MPD2    H2 8780   1.992   2.512  11.392  0.6399  0.5100  1.6460
  592MPD2    H3 8781   1.820   2.349  11.345  0.7334  1.0239 -1.3428
  592MPD2     N 8782   1.759   2.258  11.792 -0.7316 -0.0135 -0.2125
  592MPD2    H5 8783   1.765   2.307  11.881  1.9555  2.3776 -1.7074
  592MPD2    N1 8784   2.082   2.579  11.626 -0.1600  0.1820  0.0984
  592MPD2    H7 8785   2.127   2.606  11.539  1.2284  2.6305  1.5932
  593TMC3    C1 8786   2.263   2.693  11.718 -0.2049  0.0420  0.3467
  593TMC3    C2 8787   2.301   2.791  11.808  0.1560 -0.0920  0.5362
  593TMC3    C3 8788   2.434   2.811  11.825  0.3420 -0.3706 -0.0475
  593TMC3    C4 8789   2.348   2.638  11.623  0.0035 -0.2660 -0.5134
  593TMC3    C5 8790   2.480   2.678  11.637 -0.5757  0.2934  0.2005
  593TMC3    C6 8791   2.525   2.756  11.743 -0.1879 -0.3244 -1.2728
  593TMC3     C 8792   2.136   2.627  11.742 -0.1826  0.3743  0.0029
  593TMC3     O 8793   2.092   2.614  11.861  0.1172  0.1627  0.8080
  593TMC3     H 8794   2.236   2.854  11.869  0.6517  0.0576  0.9074
  593TMC3    H1 8795   2.317   2.556  11.559 -1.5624 -0.3022  0.2814
  593TMC3    H2 8796   2.630   2.781  11.737 -0.0532  0.0606  2.3797
  593TMC3    C7 8797   2.585   2.649  11.532  0.2098  0.6927 -0.4110
  593TMC3    C8 8798   2.466   2.936  11.884 -0.4407  1.1820 -0.0767
  593TMC3    O1 8799   2.696   2.685  11.556  0.3266  0.1883 -0.2536
  593TMC3    O2 8800   2.390   3.030  11.868 -0.1297  0.3744  0.5895
  594MPD2     C 8801   0.740   0.848  14.618  0.0740 -0.4598  0.2558
  594MPD2    C1 8802   0.686   0.961  14.675 -0.2246  0.4863  0.4026
  594MPD2    C2 8803   0.769   1.073  14.668  0.4124  0.2287  0.6641
  594MPD2    C3 8804   0.897   1.067  14.624  0.5339 -0.5466 -0.2304
  594MPD2    C4 8805   0.946   0.954  14.557  0.1762 -0.3384 -0.1934
  594MPD2    C5 8806   0.862   0.845  14.551 -0.4292 -0.3259 -0.6296
  594MPD2     H 8807   0.734   1.171  14.700  0.6502 -0.0974  1.9287
  594MPD2    H1 8808   1.042   0.955  14.509 -0.6071 -2.5633 -1.8072
  594MPD2    H2 8809   0.682   0.757  14.608 -1.6588  0.5448  1.1059
  594MPD2    H3 8810   0.892   0.758  14.494 -0.6531 -0.4883 -0.4993
  594MPD2     N 8811   0.971   1.177  14.654  0.8153 -0.9109  0.1723
  594MPD2    H5 8812   0.918   1.244  14.707 -0.1641 -2.5538  1.2456
  594MPD2    N1 8813   0.562   0.953  14.737 -0.2329  0.2569  0.0818
  594MPD2    H7 8814   0.522   0.861  14.750 -0.0820  0.1604 -0.1284
  595TMC3    C1 8815   1.147   1.545  14.546  0.1722  0.3482 -0.7915
  595TMC3    C2 8816   1.172   1.412  14.537 -0.3234 -0.0925  0.1129
  595TMC3    C3 8817   1.131   1.335  14.645  0.2618  0.5474 -0.3062
  595TMC3    C4 8818   1.068   1.605  14.645 -0.2213  0.1222 -0.2720
  595TMC3    C5 8819   1.025   1.529  14.744  0.1888  0.4954 -0.2925
  595TMC3    C6 8820   1.054   1.393  14.748  0.8477 -0.1854  0.1279
  595TMC3     C 8821   1.255   1.636  14.504  0.4459  0.6420 -0.3716
  595TMC3     O 8822   1.371   1.596  14.500 -0.9602  0.2581  0.1664
  595TMC3     H 8823   1.243   1.375  14.464  0.0271 -0.6589  0.7323
  595TMC3    H1 8824   1.043   1.710  14.634 -0.6178  0.2515  1.9634
  595TMC3    H2 8825   1.018   1.332  14.830 -0.3621 -0.6055 -0.7137
  595TMC3    C7 8826   0.930   1.578  14.842  1.1975 -1.2105  0.0246
  595TMC3    C8 8827   1.097   1.198  14.610 -0.5296  0.0329 -0.5888
  595TMC3    O1 8828   0.830   1.640  14.812  0.6236 -0.3191 -0.8945
  595TMC3    O2 8829   1.165   1.145  14.525 -0.2750 -0.6100  0.3972
  596MPD2     C 8830   4.565   4.119  17.244  0.5179 -0.1477  0.0334
  596MPD2    C1 8831   4.579   4.220  17.155  0.5627 -0.6072  0.4581
  596MPD2    C2 8832   4.634   4.183  17.031  0.2400  0.1039 -0.3698
  596MPD2    C3 8833   4.658   4.054  16.997  0.1715 -0.3297  0.5018
  596MPD2    C4 8834   4.652   3.962  17.095  0.5235 -0.2374  0.0822
  596MPD2    C5 8835   4.608   3.997  17.217 -0.6678  0.5876  0.4236
  596MPD2     H 8836   4.650   4.258  16.955  1.5604 -2.2158 -2.3676
  596MPD2    H1 8837   4.664   3.858  17.066 -0.4827 -0.2677 -0.2410
  596MPD2    H2 8838   4.508   4.136  17.334  1.0593  1.7559  0.0044
  596MPD2    H3 8839   4.595   3.927  17.299  1.5135  0.8984  1.0465
  596MPD2     N 8840   4.673   4.011  16.857  0.9914  0.4446 -0.1584
  596MPD2    H5 8841   4.693   3.913  16.841  1.2515  0.5899 -0.7088
  596MPD2    N1 8842   4.537   4.357  17.172 -0.4268 -0.5893  0.1322
  596MPD2    H7 8843   4.550   4.421  17.094  1.2301  1.3193  1.9811
  597TMC3    C1 8844   4.457   4.546  17.292  0.0637  0.1279 -0.4173
  597TMC3    C2 8845   4.564   4.629  17.261  0.0494  0.3699 -0.5905
  597TMC3    C3 8846   4.532   0.041  17.253 -0.2859  0.3974 -0.0297
  597TMC3    C4 8847   4.335   4.589  17.344 -0.1893  0.7085  0.4445
  597TMC3    C5 8848   4.312   4.722  17.326 -0.2808  0.2633  1.1120
  597TMC3    C6 8849   4.405   0.086  17.279 -0.4407  0.6491 -0.5100
  597TMC3     C 8850   4.478   4.402  17.290 -0.1680  1.0074 -0.3471
  597TMC3     O 8851   4.412   4.348  17.378 -0.2027 -0.0282 -0.3660
  597TMC3     H 8852   4.658   4.584  17.233 -1.1812 -1.7819 -1.3649
  597TMC3    H1 8853   4.260   4.516  17.371  0.5166  1.3993  4.3329
  597TMC3    H2 8854   4.372   0.187  17.257 -0.5675  0.9090  0.8838
  597TMC3    C7 8855   4.177   0.043  17.364  0.0102 -0.7364 -0.3235
  597TMC3    C8 8856   4.615   0.123  17.169  0.2873 -0.0934 -0.1039
  597TMC3    O1 8857   4.099   4.673  17.387 -0.0401 -0.2281  0.2214
  597TMC3    O2 8858   4.574   0.237  17.140 -0.2129 -0.0113  0.5407
  598TMC3    C1 8859   2.503   0.930  15.453  0.2095 -0.5152  0.1833
  598TMC3    C2 8860   2.417   0.829  15.416  0.1843  0.5119  0.3500
  598TMC3    C3 8861   2.383   0.824  15.285 -0.0414  0.2660 -0.0330
  598TMC3    C4 8862   2.556   1.021  15.371  0.5208  1.1232 -0.2345
  598TMC3    C5 8863   2.518   1.007  15.241 -0.6742  0.4797 -0.1311
  598TMC3    C6 8864   2.431   0.914  15.200  0.4518 -0.5495  0.5734
  598TMC3     C 8865   2.582   0.904  15.573  0.0814 -0.4759 -0.0568
  598TMC3     O 8866   2.664   0.987  15.609 -0.1974  0.0952 -0.4117
  598TMC3     H 8867   2.362   0.764  15.483  3.0471 -0.6322  1.5974
  598TMC3    H1 8868   2.632   1.093  15.399  0.5193  0.2674  2.0651
  598TMC3    H2 8869   2.421   0.897  15.093  0.2681 -2.7112  0.9321
  598TMC3    C7 8870   2.602   1.059  15.130 -0.6650  0.0084  0.6568
  598TMC3    C8 8871   2.289   0.731  15.248 -0.7617 -0.3926 -0.0332
  598TMC3    O1 8872   2.597   0.998  15.026  0.0655  0.3205  0.2049
  598TMC3    O2 8873   2.277   0.635  15.317  0.6819  0.4787  0.2155
  599MPD2     C 8874   2.999   3.594  16.340  0.4038 -0.4891 -0.3123
  599MPD2    C1 8875   2.954   3.469  16.302  0.0461 -0.6351  0.1056
  599MPD2    C2 8876   2.832   3.425  16.350 -0.9337 -0.9575  0.1165
  599MPD2    C3 8877   2.752   3.520  16.415  0.6145  0.2297 -0.3196
  599MPD2    C4 8878   2.793   3.651  16.433  0.9600 -0.8252  0.0869
  599MPD2    C5 8879   2.917   3.685  16.400  0.6798  0.1152  0.4074
  599MPD2     H 8880   2.812   3.319  16.354 -0.3145 -1.0756  0.1540
  599MPD2    H1 8881   2.727   3.722  16.482 -1.2011 -1.6832 -1.5686
  599MPD2    H2 8882   3.103   3.621  16.321 -0.5558  1.6408 -2.5185
  599MPD2    H3 8883   2.955   3.781  16.432  2.9623 -0.7302  0.1856
  599MPD2     N 8884   2.628   3.491  16.473  0.3848  0.6889 -0.3112
  599MPD2    H5 8885   2.564   3.564  16.503  1.3770  1.1044  0.7695
  599MPD2    N1 8886   3.046   3.391  16.234  0.4245  0.0004  0.2498
  599MPD2    H7 8887   3.132   3.437  16.205 -0.4776  1.8220  0.5197
  600TMC3    C1 8888   2.432   3.373  16.516  0.3606 -0.5196 -0.2399
  600TMC3    C2 8889   2.339   3.281  16.461 -0.2985 -1.1992  0.4426
  600TMC3    C3 8890   2.218   3.271  16.517 -0.1086  0.3242 -0.4196
  600TMC3    C4 8891   2.397   3.461  16.612  0.0860 -0.0159 -0.1928
  600TMC3    C5 8892   2.271   3.453  16.658  0.3295  0.4278 -0.0520
  600TMC3    C6 8893   2.178   3.360  16.613 -0.0633 -0.4132  0.1794
  600TMC3     C 8894   2.564   3.369  16.464 -0.2567  0.3378 -0.1440
  600TMC3     O 8895   2.601   3.270  16.402 -0.7741  0.1196  0.5439
  600TMC3     H 8896   2.373   3.221  16.378 -0.3302 -0.5262 -0.0527
  600TMC3    H1 8897   2.467   3.528  16.662  0.8696  0.1230 -1.4885
  600TMC3    H2 8898   2.074   3.353  16.641 -0.7206  1.3228 -1.8296
  600TMC3    C7 8899   2.213   3.569  16.717 -0.2165 -0.0283 -0.1458
  600TMC3    C8 8900   2.131   3.164  16.467  0.2087 -0.5592 -0.1257
  600TMC3    O1 8901   2.106   3.615  16.679 -0.2362  0.1343  0.0866
  600TMC3    O2 8902   2.144   3.140  16.343  0.2769 -0.0533 -0.2001
  601MPD2     C 8903   0.314   1.347   0.110 -0.0717  0.0846 -0.2256
  601MPD2    C1 8904   0.187   1.325   0.151 -0.0130 -0.5670  1.1509
  601MPD2    C2 8905   0.144   1.196   0.181 -0.6632 -0.5396  0.4603
  601MPD2    C3 8906   0.238   1.094   0.175 -0.2211  0.1134  0.2084
  601MPD2    C4 8907   0.368   1.120   0.138 -0.5986 -0.4568  0.0692
  601MPD2    C5 8908   0.411   1.248   0.113  0.4345  0.6225  0.3410
  601MPD2     H 8909   0.042   1.171   0.206 -0.4838 -0.0326  1.7123
  601MPD2    H1 8910   0.444   1.043   0.127 -0.2423 -0.1169  0.1716
  601MPD2    H2 8911   0.354   1.444   0.082  1.6727  0.0317  2.1148
  601MPD2    H3 8912   0.512   1.265   0.079  0.5548 -3.0627 -1.1195
  601MPD2     N 8913   0.204   0.958   0.179  0.3535 -0.0745  0.0976
  601MPD2    H5 8914   0.274   0.897   0.138  0.2195  1.4180 -2.3788
  601MPD2    N1 8915   0.096   1.428   0.156  0.7562  0.1360  0.0176
  601MPD2    H7 8916   4.723   1.397   0.166  1.3016 -1.7194 -0.4887
  602TMC3    C1 8917   0.012   1.658   0.137 -0.6667  1.0407  0.3015
  602TMC3    C2 8918   0.041   1.783   0.188  0.0095 -0.3800 -0.3568
  602TMC3    C3 8919   4.674   1.882   0.158 -0.7053  0.2922  0.1892
  602TMC3    C4 8920   4.615   1.628   0.076  0.3932  0.2095 -0.0572
  602TMC3    C5 8921   4.529   1.731   0.050  0.2103 -0.1658 -0.2390
  602TMC3    C6 8922   4.559   1.861   0.087  0.1670  0.2491  0.3344
  602TMC3     C 8923   0.126   1.568   0.155 -0.3294  0.0293  0.0868
  602TMC3     O 8924   0.231   1.617   0.181 -0.1134  0.3866  0.0863
  602TMC3     H 8925   0.133   1.805   0.242  0.4633 -2.5200 -0.2167
  602TMC3    H1 8926   4.597   1.527   0.040  2.5201  0.1900 -1.0602
  602TMC3    H2 8927   4.477   1.933   0.081 -0.1564 -0.3327 -1.9030
  602TMC3    C7 8928   4.412   1.717  17.659 -0.0898 -0.4548  0.5941
  602TMC3    C8 8929   0.008   2.015   0.149 -0.3944  0.3833  0.5872
  602TMC3    O1 8930   4.324   1.639  17.692  0.0519 -0.1740 -0.3560
  602TMC3    O2 8931   0.082   2.052   0.240  0.4886  0.4458 -0.1036
  603TMC3    C1 8932   3.082   1.997  10.497 -0.2989 -0.1224  0.6951
  603TMC3    C2 8933   3.078   1.982  10.636 -0.0622 -1.0303 -0.0916
  603TMC3    C3 8934   2.982   2.053  10.704 -0.1274  0.5910 -0.1649
  603TMC3    C4 8935   3.003   2.081  10.434  0.1617  0.1685 -1.1345
  603TMC3    C5 8936   2.910   2.151  10.506 -0.5883 -0.0782  0.0109
  603TMC3    C6 8937   2.900   2.143  10.642  0.8317  0.5505  0.2586
  603TMC3     C 8938   3.137   1.893  10.408 -0.1896  0.5680  0.1459
  603TMC3     O 8939   3.141   1.914  10.285  0.1351 -0.4716  0.1961
  603TMC3     H 8940   3.147   1.910  10.679  1.0185 -0.1816 -0.3874
  603TMC3    H1 8941   3.020   2.084  10.327 -2.7009  2.0664 -1.5182
  603TMC3    H2 8942   2.828   2.199  10.699 -0.4071  0.7354 -1.4828
  603TMC3    C7 8943   2.794   2.219  10.447  0.1834 -0.3834 -0.1393
  603TMC3    C8 8944   2.934   1.988  10.830  0.5920  0.6039 -1.4084
  603TMC3    O1 8945   2.691   2.236  10.512 -0.1494 -0.2126 -0.3678
  603TMC3    O2 8946   3.000   1.893  10.858 -0.1067  0.0109  0.0641
  604MPD2     C 8947   3.462   0.820  15.784  0.3861  0.0111  0.2776
  604MPD2    C1 8948   3.522   0.766  15.900  0.0008 -0.9025 -0.0628
  604MPD2    C2 8949   3.570   0.641  15.890 -0.4171  0.1654 -0.9121
  604MPD2    C3 8950   3.561   0.562  15.779  0.4396 -0.2990 -0.6643
  604MPD2    C4 8951   3.500   0.618  15.667  0.4637  0.1839  0.6664
  604MPD2    C5 8952   3.441   0.739  15.677 -0.6112  0.4687 -0.9285
  604MPD2     H 8953   3.617   0.600  15.979 -0.5540  0.0431 -0.8968
  604MPD2    H1 8954   3.490   0.562  15.574  0.3177  0.7985  0.3093
  604MPD2    H2 8955   3.416   0.919  15.777 -2.6150 -1.4603 -1.0284
  604MPD2    H3 8956   3.385   0.777  15.592 -0.0584  0.0260 -1.4896
  604MPD2     N 8957   3.615   0.433  15.781 -0.2515  0.0594 -0.5500
  604MPD2    H5 8958   3.656   0.395  15.866  0.1744  0.4737 -0.5689
  604MPD2    N1 8959   3.517   0.843  16.016  0.1868  0.0473  0.2368
  604MPD2    H7 8960   3.454   0.922  16.005  0.5068  0.3920  0.8394
  605TMC3    C1 8961   3.533   0.881  16.249  0.3154  0.2802  0.7465
  605TMC3    C2 8962   3.612   0.896  16.362  0.5591  0.0456 -0.4609
  605TMC3    C3 8963   3.552   0.946  16.476  0.2138  0.4998 -0.4089
  605TMC3    C4 8964   3.391   0.887  16.269  0.2668 -0.2729  0.1458
  605TMC3    C5 8965   3.337   0.935  16.383  0.2245 -0.3708 -0.2405
  605TMC3    C6 8966   3.418   0.963  16.489  0.2835  0.0909  1.1137
  605TMC3     C 8967   3.585   0.813  16.135 -0.1038 -0.3789 -0.5445
  605TMC3     O 8968   3.673   0.729  16.156 -0.2243 -0.4643  0.0101
  605TMC3     H 8969   3.719   0.879  16.359  0.5139 -0.7576  2.8131
  605TMC3    H1 8970   3.318   0.848  16.198  0.3804  0.6902 -0.5092
  605TMC3    H2 8971   3.378   1.016  16.575 -2.2480  3.8557 -2.3995
  605TMC3    C7 8972   3.196   0.936  16.408  0.1392 -0.8467  0.1945
  605TMC3    C8 8973   3.640   0.973  16.581 -0.0869  0.3990 -0.6099
  605TMC3    O1 8974   3.148   0.927  16.520  0.6741  0.0749  0.3928
  605TMC3    O2 8975   3.760   0.959  16.555  0.7302  0.4339 -0.4315
  606TMC3    C1 8976   4.565   3.380   1.085 -0.7476  0.7602 -0.2692
  606TMC3    C2 8977   4.682   3.446   1.078 -1.0861  0.0999  0.0457
  606TMC3    C3 8978   4.694   3.578   1.117  0.2206 -0.3990 -0.3825
  606TMC3    C4 8979   4.451   3.444   1.130  0.7396 -0.4692 -0.0170
  606TMC3    C5 8980   4.461   3.571   1.177  0.4677 -1.0428 -0.2179
  606TMC3    C6 8981   4.581   3.641   1.168 -0.4904 -1.1430 -0.2686
  606TMC3     C 8982   4.555   3.274   0.992  0.1973 -0.0637  0.0017
  606TMC3     O 8983   4.637   3.185   1.003 -0.4265  0.1043  0.5316
  606TMC3     H 8984   0.036   3.391   1.025 -2.6110 -1.9071 -0.1125
  606TMC3    H1 8985   4.356   3.393   1.144  1.1427 -0.7355  1.7684
  606TMC3    H2 8986   4.585   3.741   1.209  0.6010 -0.2558 -2.5295
  606TMC3    C7 8987   4.336   3.648   1.169  0.1916 -0.7726 -0.0233
  606TMC3    C8 8988   0.087   3.651   1.080 -0.0269  0.4094  0.3244
  606TMC3    O1 8989   4.330   3.742   1.249 -0.9091 -0.0180 -0.0391
  606TMC3    O2 8990   0.178   3.585   1.029 -0.0385 -0.2436 -0.6156
  607MPD2     C 8991   1.854   1.886  11.281  0.1436 -0.0033 -0.0536
  607MPD2    C1 8992   1.896   1.945  11.401 -0.1323  0.2507  0.1207
  607MPD2    C2 8993   1.863   1.886  11.520  0.3410 -0.3048 -0.6616
  607MPD2    C3 8994   1.804   1.763  11.518  0.8866 -0.1857 -0.4021
  607MPD2    C4 8995   1.764   1.703  11.401  0.1243 -0.2266  0.7885
  607MPD2    C5 8996   1.785   1.765  11.289  0.7163  0.1062 -0.1471
  607MPD2     H 8997   1.900   1.925  11.614 -0.5587 -1.7087  0.2884
  607MPD2    H1 8998   1.708   1.610  11.394 -2.0416  1.1860 -0.3746
  607MPD2    H2 8999   1.873   1.919  11.179  0.5884 -1.6626 -0.5044
  607MPD2    H3 9000   1.758   1.713  11.197  0.9514  0.2169 -0.2790
  607MPD2     N 9001   1.786   1.714  11.654  0.1662 -0.7787  0.3055
  607MPD2    H5 9002   1.815   1.773  11.730  1.5410 -1.1903  0.0983
  607MPD2    N1 9003   1.998   2.048  11.414 -0.1829  0.6391  0.0470
  607MPD2    H7 9004   2.038   2.057  11.507 -1.7758  1.5593  0.6390
  608TMC3    C1 9005   2.158   2.210  11.363  0.3338  0.2302 -0.2048
  608TMC3    C2 9006   2.171   2.230  11.494  0.8294 -0.1596  0.9980
  608TMC3    C3 9007   2.291   2.259  11.551  0.6478  0.3129 -0.0282
  608TMC3    C4 9008   2.272   2.235  11.287  0.2467 -0.2784 -0.2264
  608TMC3    C5 9009   2.393   2.263  11.345  1.1378 -0.1585  0.2673
  608TMC3    C6 9010   2.405   2.277  11.479  0.2393  0.2147  0.5555
  608TMC3     C 9011   2.053   2.121  11.310  0.4831  0.7455  0.2713
  608TMC3     O 9012   2.035   2.113  11.193  0.2611 -0.5139  0.1053
  608TMC3     H 9013   2.083   2.218  11.557  0.1482 -0.4369 -0.0114
  608TMC3    H1 9014   2.273   2.227  11.178  0.4603 -0.8697 -0.1841
  608TMC3    H2 9015   2.499   2.305  11.525  0.0039 -1.5184  2.0508
  608TMC3    C7 9016   2.508   2.274  11.252  0.1290  0.3287  0.3848
  608TMC3    C8 9017   2.301   2.267  11.691  0.0743 -0.0640  0.7427
  608TMC3    O1 9018   2.479   2.305  11.137 -0.4619  0.3482 -0.0788
  608TMC3    O2 9019   2.375   2.354  11.732 -0.2516 -0.0418 -0.7670
  609TMC3    C1 9020   1.691   1.802   8.690 -0.1264  0.2080 -0.2858
  609TMC3    C2 9021   1.773   1.816   8.579 -0.2175  0.3515 -0.0809
  609TMC3    C3 9022   1.877   1.726   8.568 -0.3176 -1.0564  0.3782
  609TMC3    C4 9023   1.717   1.718   8.788  0.0599 -0.6506  0.5509
  609TMC3    C5 9024   1.833   1.642   8.781 -0.0536  0.1539  0.6613
  609TMC3    C6 9025   1.905   1.633   8.664 -0.2083 -0.1665  0.8612
  609TMC3     C 9026   1.574   1.879   8.705 -0.8000  0.1570  0.0247
  609TMC3     O 9027   1.500   1.864   8.800  0.3741  0.1654  0.1113
  609TMC3     H 9028   1.758   1.890   8.501 -0.3612  0.6226  0.2045
  609TMC3    H1 9029   1.651   1.721   8.875 -1.6467 -2.2619 -0.6875
  609TMC3    H2 9030   1.998   1.578   8.651 -0.0309  0.4165 -0.3262
  609TMC3    C7 9031   1.842   1.540   8.886 -0.0691  0.2353 -0.2147
  609TMC3    C8 9032   1.946   1.719   8.438 -0.1707  0.9404  0.3657
  609TMC3    O1 9033   1.760   1.531   8.980 -0.1105 -0.4442 -0.2440
  609TMC3    O2 9034   1.993   1.607   8.417  0.1799  0.2393  0.2003
  610TMC3    C1 9035   2.243   1.076  12.188  0.3993  0.0569  0.3896
  610TMC3    C2 9036   2.133   1.157  12.218 -0.0986  0.4247  0.3821
  610TMC3    C3 9037   2.164   1.267  12.287  0.5111 -0.0907  0.2649
  610TMC3    C4 9038   2.379   1.106  12.207 -0.8483  0.3665  0.8375
  610TMC3    C5 9039   2.398   1.228  12.275  0.2609 -0.5194  0.0514
  610TMC3    C6 9040   2.290   1.304  12.317  0.4940 -0.8176 -0.7455
  610TMC3     C 9041   2.221   0.940  12.132  0.5986 -0.1186 -0.7036
  610TMC3     O 9042   2.315   0.892  12.073 -0.0037 -1.1066  0.2618
  610TMC3     H 9043   2.036   1.141  12.172  0.0648 -3.1267  1.2826
  610TMC3    H1 9044   2.452   1.027  12.196  2.3320  3.5713 -1.2156
  610TMC3    H2 9045   2.311   1.397  12.368 -0.6952 -0.8183 -0.2481
  610TMC3    C7 9046   2.527   1.249  12.335 -0.3118  0.2327  0.4079
  610TMC3    C8 9047   2.057   1.363  12.312  0.3140  0.0489 -0.2375
  610TMC3    O1 9048   2.608   1.157  12.334  0.1590  0.4385 -0.6439
  610TMC3    O2 9049   2.090   1.469  12.365  0.1112 -0.0712  0.2946
  611MPD2     C 9050   1.971   1.716  10.275  0.1029 -1.0738 -0.4474
  611MPD2    C1 9051   1.861   1.803  10.279  0.0281  0.2036  0.3941
  611MPD2    C2 9052   1.892   1.936  10.252 -0.1326 -0.7901 -0.4393
  611MPD2    C3 9053   2.011   1.979  10.207 -0.7853  0.1045 -0.2696
  611MPD2    C4 9054   2.109   1.886  10.186 -0.3215 -0.5425 -0.2946
  611MPD2    C5 9055   2.082   1.756  10.217  0.3436 -0.1073 -1.3138
  611MPD2     H 9056   1.811   2.007  10.266  0.1552 -0.3495 -0.9999
  611MPD2    H1 9057   2.210   1.912  10.156 -0.7907 -1.1895 -2.4317
  611MPD2    H2 9058   1.958   1.610  10.297 -0.1194 -0.3712  2.8224
  611MPD2    H3 9059   2.157   1.679  10.199  0.1238 -0.5095 -0.5198
  611MPD2     N 9060   2.039   2.113  10.169  0.0754 -0.2909  0.2963
  611MPD2    H5 9061   2.124   2.129  10.115 -0.7600 -1.0386 -1.2226
  611MPD2    N1 9062   1.739   1.750  10.324 -0.6008 -0.0656  0.8221
  611MPD2    H7 9063   1.740   1.651  10.345  0.8272 -0.4842 -1.2372
  612TMC3    C1 9064   2.014   2.353  10.160  0.4033  0.5838  0.0619
  612TMC3    C2 9065   2.149   2.366  10.151 -0.0206 -0.4120  0.0935
  612TMC3    C3 9066   2.186   2.496  10.116 -0.1852  0.4325 -0.4382
  612TMC3    C4 9067   1.917   2.450  10.128 -0.3567  0.0213 -0.2746
  612TMC3    C5 9068   1.967   2.577  10.097 -0.4349  0.5743  0.2225
  612TMC3    C6 9069   2.104   2.600  10.086 -0.4215 -0.3598 -0.1656
  612TMC3     C 9070   1.964   2.224  10.206  0.2225  0.4795  0.3686
  612TMC3     O 9071   1.858   2.222  10.264  0.2670  0.1025  0.0123
  612TMC3     H 9072   2.217   2.294  10.194  1.9270  0.2463 -1.8879
  612TMC3    H1 9073   1.810   2.434  10.119 -0.1087 -0.6919 -2.0168
  612TMC3    H2 9074   2.140   2.700  10.064 -3.8801  1.0239  0.5029
  612TMC3    C7 9075   1.868   2.673  10.056 -0.9023  0.0480 -1.0961
  612TMC3    C8 9076   2.324   2.521  10.079  0.3803 -0.3828  0.9983
  612TMC3    O1 9077   1.761   2.630  10.029 -0.7632  0.0418 -0.3411
  612TMC3    O2 9078   2.350   2.595   9.983 -0.1524  0.2136  0.9936
  613MPD2     C 9079   1.116   4.309  17.048 -0.1326  0.0151  1.1312
  613MPD2    C1 9080   1.039   4.336  16.938  0.3764 -0.2628  0.0494
  613MPD2    C2 9081   0.939   4.244  16.909  0.4075  0.2343 -0.3830
  613MPD2    C3 9082   0.934   4.117  16.977  0.3038 -0.2038  0.2980
  613MPD2    C4 9083   1.027   4.099  17.084  0.3281  0.7290 -0.3941
  613MPD2    C5 9084   1.105   4.198  17.122  0.5035  0.4714  0.3060
  613MPD2     H 9085   0.875   4.254  16.822  1.9479  2.1805 -1.3052
  613MPD2    H1 9086   1.028   4.007  17.141 -0.9333  0.7195 -0.3871
  613MPD2    H2 9087   1.200   4.374  17.070 -0.3388  0.4287  0.7150
  613MPD2    H3 9088   1.166   4.193  17.212 -2.4096  0.2119  2.2495
  613MPD2     N 9089   0.853   4.009  16.933 -0.2143 -0.1808  0.1830
  613MPD2    H5 9090   0.869   3.923  16.984  0.5841 -0.0253  0.1980
  613MPD2    N1 9091   1.066   4.449  16.861  0.3918 -0.2185 -0.3439
  613MPD2    H7 9092   1.115   4.521  16.914 -0.6735  0.0951  0.2073
  614TMC3    C1 9093   0.948   4.401  16.646  0.4878  0.2918 -0.0412
  614TMC3    C2 9094   1.013   4.289  16.615 -0.1856  0.1834  0.4071
  614TMC3    C3 9095   0.974   4.210  16.505 -0.0946 -0.5125 -0.1811
  614TMC3    C4 9096   0.866   4.457  16.555 -0.2098 -0.2155  0.0158
  614TMC3    C5 9097   0.838   4.386  16.439  0.4412 -0.1817  0.1502
  614TMC3    C6 9098   0.885   4.260  16.414  0.6425  0.0418 -0.4484
  614TMC3     C 9099   0.998   4.499  16.748  0.4652 -0.1399  0.3689
  614TMC3     O 9100   1.005   4.615  16.707 -0.7665  0.8127  0.2564
  614TMC3     H 9101   1.082   4.250  16.689  0.1058  1.0585  0.5964
  614TMC3    H1 9102   0.833   4.560  16.565 -0.7192 -0.5234  1.5779
  614TMC3    H2 9103   0.853   4.210  16.323  0.3051 -1.3804  0.4520
  614TMC3    C7 9104   0.817   4.471  16.322 -0.4066 -0.6569 -0.0383
  614TMC3    C8 9105   1.036   4.088  16.486 -0.7182 -0.2154  0.1249
  614TMC3    O1 9106   0.791   4.585  16.354 -0.2636 -0.0090  0.1079
  614TMC3    O2 9107   1.078   4.040  16.590 -0.0336 -0.3599  0.5683
  615MPD2     C 9108   0.795   0.811  16.331  0.2633 -0.1533  0.0681
  615MPD2    C1 9109   0.675   0.874  16.328  0.4169  0.2368  0.5555
  615MPD2    C2 9110   0.555   0.812  16.291  0.3363 -0.8318  0.4178
  615MPD2    C3 9111   0.568   0.676  16.248 -0.6236 -0.6072  0.2474
  615MPD2    C4 9112   0.692   0.613  16.251  0.8482 -0.8288 -0.1668
  615MPD2    C5 9113   0.806   0.679  16.287 -0.5653  0.1030  0.4716
  615MPD2     H 9114   0.457   0.858  16.281  0.5220 -0.1529  1.7777
  615MPD2    H1 9115   0.701   0.511  16.217  0.4355 -1.1038  0.5512
  615MPD2    H2 9116   0.892   0.848  16.364  0.7082  0.4597 -1.9098
  615MPD2    H3 9117   0.900   0.625  16.295 -1.1935 -1.2752 -1.3314
  615MPD2     N 9118   0.458   0.594  16.206  0.1485  0.3800 -0.6018
  615MPD2    H5 9119   0.483   0.512  16.151  0.9306 -0.4301  0.9533
  615MPD2    N1 9120   0.671   1.013  16.356  0.1072 -0.4434 -0.3878
  615MPD2    H7 9121   0.578   1.049  16.374  1.1115  1.2400  1.4020
  616TMC3    C1 9122   0.750   1.235  16.381 -0.6222  0.3324  0.0911
  616TMC3    C2 9123   0.814   1.335  16.322 -0.3660  0.7707 -0.0016
  616TMC3    C3 9124   0.790   1.456  16.369 -0.0881  0.7964 -0.5861
  616TMC3    C4 9125   0.681   1.250  16.498 -0.0365 -0.7457 -0.1320
  616TMC3    C5 9126   0.652   1.373  16.545 -0.2824  0.4979 -0.0985
  616TMC3    C6 9127   0.704   1.480  16.477 -0.5924 -0.7374  0.2768
  616TMC3     C 9128   0.772   1.104  16.327 -0.5705 -0.1453 -0.6418
  616TMC3     O 9129   0.873   1.080  16.260  0.0130  0.4146 -0.5942
  616TMC3     H 9130   0.878   1.319  16.237 -1.2968 -0.3342 -0.4871
  616TMC3    H1 9131   0.629   1.165  16.540 -0.5536  0.6319  2.0203
  616TMC3    H2 9132   0.679   1.577  16.520 -4.4624 -1.3674 -0.6268
  616TMC3    C7 9133   0.584   1.396  16.672  0.1561  0.3330 -0.2573
  616TMC3    C8 9134   0.856   1.575  16.323  1.6975  0.3239  0.0371
  616TMC3    O1 9135   0.625   1.497  16.730  0.5275  0.4218 -0.2174
  616TMC3    O2 9136   0.810   1.677  16.368  0.7119  0.7137  0.8150
  617MPD2     C 9137   3.204   3.601  13.814  0.0307 -0.4077 -0.9184
  617MPD2    C1 9138   3.287   3.638  13.915 -0.8688  0.3418  0.4379
  617MPD2    C2 9139   3.242   3.608  14.048  0.3554  0.2049 -0.0770
  617MPD2    C3 9140   3.123   3.545  14.063 -0.8444  0.3630  0.4759
  617MPD2    C4 9141   3.039   3.509  13.956  0.3869 -0.4083  0.6220
  617MPD2    C5 9142   3.087   3.537  13.834  0.3652  0.9969 -0.2574
  617MPD2     H 9143   3.307   3.629  14.133  1.3085 -0.1183 -0.7341
  617MPD2    H1 9144   2.947   3.451  13.963  0.0285  0.0763 -0.0919
  617MPD2    H2 9145   3.223   3.622  13.710  1.4732  0.1820 -0.5358
  617MPD2    H3 9146   3.018   3.513  13.755  0.2683  3.4316 -0.9085
  617MPD2     N 9147   3.077   3.509  14.190  0.1604 -0.2711  0.5229
  617MPD2    H5 9148   2.984   3.467  14.187 -1.3340  2.8791  3.3142
  617MPD2    N1 9149   3.405   3.705  13.871 -0.8211 -0.2510 -0.0365
  617MPD2    H7 9150   3.405   3.743  13.777 -1.4841  0.1218  0.1096
  618TMC3    C1 9151   3.595   3.834  13.907 -0.0907 -0.2449 -0.4982
  618TMC3    C2 9152   3.698   3.873  13.990 -0.5366 -0.6907 -0.5144
  618TMC3    C3 9153   3.812   3.907  13.925  0.5960 -0.3330  0.3085
  618TMC3    C4 9154   3.601   3.857  13.773  0.0421 -0.3206  0.0848
  618TMC3    C5 9155   3.717   3.903  13.712  0.6118  0.1898  0.1991
  618TMC3    C6 9156   3.825   3.925  13.789 -0.2081 -0.3918 -0.7835
  618TMC3     C 9157   3.496   3.743  13.963 -0.6684 -0.6817 -0.8053
  618TMC3     O 9158   3.518   3.697  14.074 -0.0629  0.1215 -0.5674
  618TMC3     H 9159   3.702   3.843  14.094 -1.2178  0.2293 -0.2263
  618TMC3    H1 9160   3.525   3.827  13.702  0.8548  1.8776 -1.7120
  618TMC3    H2 9161   3.921   3.937  13.739  1.3360  0.6922  2.4167
  618TMC3    C7 9162   3.736   3.859  13.573 -0.4778  0.3372  0.4985
  618TMC3    C8 9163   3.914   3.943  14.019  0.4730  0.2630  0.0028
  618TMC3    O1 9164   3.713   3.746  13.545  0.1326 -0.2531  0.6024
  618TMC3    O2 9165   3.891   4.031  14.101  0.6644 -0.2646  0.4003
  619MPD2     C 9166   4.653   0.373  14.084 -0.2381 -0.5154 -0.0728
  619MPD2    C1 9167   4.620   0.490  14.015  0.0567  0.4187  0.0188
  619MPD2    C2 9168   4.489   0.504  13.974 -0.9797 -0.7390  0.0178
  619MPD2    C3 9169   4.391   0.410  14.010 -0.5262 -0.5105  0.2500
  619MPD2    C4 9170   4.433   0.300  14.078  0.0231  0.5206  0.3295
  619MPD2    C5 9171   4.561   0.274  14.117 -0.1541 -0.4501 -0.2749
  619MPD2     H 9172   4.454   0.590  13.917  0.5787 -0.2167 -0.1452
  619MPD2    H1 9173   4.364   0.220  14.102 -0.3598  0.0354 -2.4258
  619MPD2    H2 9174   0.023   0.351  14.135 -1.2891  0.6124  2.3559
  619MPD2    H3 9175   4.577   0.187  14.179  0.9959  0.8732  1.2952
  619MPD2     N 9176   4.256   0.430  13.979 -0.0382  0.1355 -0.4148
  619MPD2    H5 9177   4.195   0.352  14.002  1.1224  0.3533  3.4427
  619MPD2    N1 9178   4.719   0.590  13.974 -0.1282 -0.4627 -0.4786
  619MPD2    H7 9179   4.692   0.676  13.929  1.5222  0.3530  0.0827
  620TMC3    C1 9180   0.196   0.689  13.936 -0.6929  0.6517  0.6893
  620TMC3    C2 9181   0.159   0.736  13.811  0.2631  0.4257  0.5933
  620TMC3    C3 9182   0.238   0.828  13.740 -0.2764 -0.5809 -0.4366
  620TMC3    C4 9183   0.296   0.757  14.007  0.1063  0.0366 -0.3581
  620TMC3    C5 9184   0.365   0.859  13.944  0.7553  0.9564 -0.2964
  620TMC3    C6 9185   0.350   0.888  13.811 -0.2215  0.2776 -0.3913
  620TMC3     C 9186   0.122   0.591  14.014  0.2554 -0.5660 -0.4659
  620TMC3     O 9187   0.184   0.529  14.101 -0.0970 -0.0412 -0.2087
  620TMC3     H 9188   0.070   0.702  13.760 -0.0255 -1.1859  2.1698
  620TMC3    H1 9189   0.325   0.727  14.107 -3.0994 -0.5305  0.4338
  620TMC3    H2 9190   0.389   0.980  13.769  2.8989 -0.9094 -0.1638
  620TMC3    C7 9191   0.473   0.927  14.018 -0.4195 -0.9130 -0.2372
  620TMC3    C8 9192   0.152   0.929  13.686  0.2669 -0.0110 -0.1165
  620TMC3    O1 9193   0.582   0.926  13.965 -0.4263  0.3621 -0.3714
  620TMC3    O2 9194   0.147   1.036  13.745 -0.2752 -0.2887  0.1293
  621MPD2     C 9195   0.847   0.660   9.231 -0.1384 -0.3224 -0.2576
  621MPD2    C1 9196   0.984   0.679   9.208 -0.1791  0.5082 -0.2149
  621MPD2    C2 9197   1.031   0.809   9.193 -0.3035 -0.1360 -0.3479
  621MPD2    C3 9198   0.943   0.911   9.199  0.1923 -0.0565 -0.6457
  621MPD2    C4 9199   0.806   0.890   9.211 -0.4306  0.0073 -0.2687
  621MPD2    C5 9200   0.759   0.765   9.224 -0.1009 -0.8198 -0.1134
  621MPD2     H 9201   1.136   0.834   9.192 -0.3181 -0.1187 -2.0742
  621MPD2    H1 9202   0.737   0.972   9.227 -1.6401 -1.4476  2.1027
  621MPD2    H2 9203   0.804   0.561   9.243 -0.6242  0.1210  1.5452
  621MPD2    H3 9204   0.653   0.751   9.245 -0.6370  1.1706 -1.5230
  621MPD2     N 9205   0.993   1.042   9.196  0.0529  0.4953 -0.1289
  621MPD2    H5 9206   1.094   1.047   9.200  0.0791  0.6522 -0.9581
  621MPD2    N1 9207   1.077   0.574   9.212 -0.0870  0.9526  0.6032
  621MPD2    H7 9208   1.170   0.598   9.178  0.6137 -2.3793  0.1748
  622TMC3    C1 9209   1.167   0.349   9.232 -0.1512  0.1573  0.0778
  622TMC3    C2 9210   1.125   0.220   9.234 -0.6072 -0.0922  0.8393
  622TMC3    C3 9211   1.185   0.136   9.143  0.4662  0.9590 -0.1161
  622TMC3    C4 9212   1.266   0.387   9.146 -0.9104 -0.3953  0.2720
  622TMC3    C5 9213   1.324   0.301   9.058  0.4264  0.7940 -0.0330
  622TMC3    C6 9214   1.282   0.173   9.057  0.2403  0.6288  0.5766
  622TMC3     C 9215   1.057   0.446   9.259  0.3089 -0.6998 -1.1364
  622TMC3     O 9216   0.955   0.399   9.302  0.3247  0.2856  0.2815
  622TMC3     H 9217   1.039   0.192   9.294 -1.0578  0.7613  0.5824
  622TMC3    H1 9218   1.293   0.490   9.129  0.8699 -0.6905  1.3714
  622TMC3    H2 9219   1.323   0.098   8.990 -1.1452  0.8821 -0.5670
  622TMC3    C7 9220   1.443   0.326   8.992 -0.4697  0.4149 -0.3818
  622TMC3    C8 9221   1.149   4.720   9.131  0.0740 -0.8652  0.4204
  622TMC3    O1 9222   1.517   0.228   8.978 -0.0787  0.7300  0.4042
  622TMC3    O2 9223   1.238   4.637   9.119 -0.3838  0.5027 -0.4245
  623MPD2     C 9224   3.899   1.314  16.135 -0.1008  0.1045  0.0082
  623MPD2    C1 9225   3.828   1.316  16.256  0.7694 -0.5570  0.2460
  623MPD2    C2 9226   3.899   1.313  16.373 -0.7490  0.4207  0.3910
  623MPD2    C3 9227   4.039   1.298  16.374  0.7411  0.4567 -0.0261
  623MPD2    C4 9228   4.100   1.290  16.255 -0.2177 -0.5531 -0.1379
  623MPD2    C5 9229   4.030   1.297  16.138 -0.1719 -0.0705 -0.2403
  623MPD2     H 9230   3.847   1.314  16.468 -1.9451 -0.4971 -0.2546
  623MPD2    H1 9231   4.206   1.266  16.255  0.4073  2.2177  1.7990
  623MPD2    H2 9232   3.852   1.317  16.038 -0.6943  0.2930  0.3008
  623MPD2    H3 9233   4.076   1.282  16.041 -0.9053  0.0080 -0.6024
  623MPD2     N 9234   4.098   1.294  16.503  0.0541 -0.3723 -0.3363
  623MPD2    H5 9235   4.027   1.319  16.571  0.4661 -1.8875  0.6525
  623MPD2    N1 9236   3.683   1.300  16.252 -0.1882  0.3265 -0.1601
  623MPD2    H7 9237   3.640   1.295  16.160  1.6824 -0.1635 -0.9885
  624TMC3    C1 9238   4.426   1.240  16.844  0.5490 -0.0050 -0.5039
  624TMC3    C2 9239   4.327   1.232  16.940  0.3020 -1.0688  0.7000
  624TMC3    C3 9240   4.198   1.258  16.897  0.1411  0.4735 -0.1551
  624TMC3    C4 9241   4.393   1.265  16.711  0.2403  0.0840 -0.2796
  624TMC3    C5 9242   4.269   1.297  16.677  0.0405  0.1016 -0.6825
  624TMC3    C6 9243   4.172   1.305  16.772  0.1737 -0.5902 -0.1611
  624TMC3     C 9244   4.547   1.162  16.871 -0.0483 -0.3519  0.0148
  624TMC3     O 9245   4.574   1.127  16.986 -0.5668 -0.1808  0.0750
  624TMC3     H 9246   4.345   1.219  17.046  0.4357 -1.8696  0.5730
  624TMC3    H1 9247   4.466   1.267  16.631  0.4365 -1.6313 -0.1289
  624TMC3    H2 9248   4.078   1.356  16.755  0.6948  1.4172  3.0225
  624TMC3    C7 9249   4.236   1.293  16.532  0.4097  0.2870 -0.7317
  624TMC3    C8 9250   4.075   1.224  16.968 -0.5300 -0.0424  0.1259
  624TMC3    O1 9251   4.324   1.296  16.450 -0.2280  0.0100 -0.3546
  624TMC3    O2 9252   4.063   1.216  17.088  0.0481  0.4261  0.2957
  625MPD2     C 9253   3.969   1.825   0.561 -0.5972  0.1295 -0.2019
  625MPD2    C1 9254   4.071   1.904   0.615 -0.0722 -0.5923  0.5698
  625MPD2    C2 9255   4.170   1.849   0.695 -0.0813  0.1205  0.1636
  625MPD2    C3 9256   4.167   1.710   0.724 -0.2443  0.0210 -0.0112
  625MPD2    C4 9257   4.068   1.633   0.663 -0.2933 -0.1495 -0.1557
  625MPD2    C5 9258   3.964   1.692   0.595  0.6502 -0.2152 -0.2006
  625MPD2     H 9259   4.237   1.920   0.742  0.3774 -1.2168  1.5277
  625MPD2    H1 9260   4.059   1.526   0.682  0.6711 -0.2595 -0.2810
  625MPD2    H2 9261   3.892   1.866   0.497 -1.0555  1.0795  0.9666
  625MPD2    H3 9262   3.887   1.627   0.555  1.2668  1.4907 -4.1371
  625MPD2     N 9263   4.277   1.659   0.806  0.0715  0.2106  0.1429
  625MPD2    H5 9264   4.350   1.725   0.829  3.2100 -2.7672 -1.2256
  625MPD2    N1 9265   4.089   2.037   0.579  0.1982 -0.0544 -0.1583
  625MPD2    H7 9266   4.160   2.083   0.636 -0.4493 -0.9635  1.3681
  626TMC3    C1 9267   4.017   2.243   0.502  0.1146 -0.8894 -0.4004
  626TMC3    C2 9268   3.979   2.321   0.399  0.1913 -0.5107 -0.1280
  626TMC3    C3 9269   3.960   2.451   0.424  0.5493  0.6196 -0.5349
  626TMC3    C4 9270   4.039   2.295   0.625  1.1081  0.5367 -0.5629
  626TMC3    C5 9271   4.023   2.427   0.644 -0.1477  0.0729 -0.4875
  626TMC3    C6 9272   3.978   2.511   0.539 -1.2249  0.1863  0.4424
  626TMC3     C 9273   4.020   2.098   0.482 -0.1412  0.2690  0.3452
  626TMC3     O 9274   3.964   2.051   0.386  0.4427 -0.4403  0.2162
  626TMC3     H 9275   3.958   2.280   0.301  1.0674  1.2761 -1.0634
  626TMC3    H1 9276   4.041   2.228   0.710 -1.0494 -1.4068 -2.0300
  626TMC3    H2 9277   3.991   2.618   0.543 -2.2966  0.3743 -0.9690
  626TMC3    C7 9278   4.052   2.478   0.775  0.7554  0.4210 -0.2789
  626TMC3    C8 9279   3.910   2.530   0.312 -0.3995 -0.0701 -0.5493
  626TMC3    O1 9280   4.112   2.408   0.855  0.3028  0.4956  0.2048
  626TMC3    O2 9281   3.951   2.486   0.203  0.6687  0.3146 -0.4918
  627MPD2     C 9282   2.792   2.592  15.214 -0.2036  0.4946 -0.4166
  627MPD2    C1 9283   2.840   2.479  15.149 -0.3317 -0.1987 -0.1538
  627MPD2    C2 9284   2.750   2.377  15.142  0.4165 -0.4398 -0.6949
  627MPD2    C3 9285   2.619   2.382  15.191  0.2024  0.0926 -0.1881
  627MPD2    C4 9286   2.576   2.501  15.256 -0.4075 -0.3221  0.0787
  627MPD2    C5 9287   2.665   2.602  15.269  0.1745 -0.7251 -0.2095
  627MPD2     H 9288   2.778   2.278  15.106  1.4092 -1.1524  2.0127
  627MPD2    H1 9289   2.475   2.512  15.294 -0.2896  1.0379  0.0221
  627MPD2    H2 9290   2.848   2.684  15.227  0.1281 -0.1108  2.5775
  627MPD2    H3 9291   2.641   2.689  15.328  1.2032 -1.1525  0.8454
  627MPD2     N 9292   2.535   2.267  15.183  0.2900  0.3795 -0.4429
  627MPD2    H5 9293   2.584   2.182  15.158 -1.4525 -1.2597  1.7216
  627MPD2    N1 9294   2.973   2.468  15.098 -0.3432 -0.6464  0.1086
  627MPD2    H7 9295   2.992   2.376  15.059  0.3818 -1.3289  2.0769
  628TMC3    C1 9296   3.204   2.519  15.056  0.6378  0.1207  0.0399
  628TMC3    C2 9297   3.257   2.396  15.085  0.7463 -0.4977  0.6393
  628TMC3    C3 9298   3.386   2.375  15.062 -0.6155 -0.5511  0.2920
  628TMC3    C4 9299   3.284   2.626  15.017 -0.2413  0.1483  0.0322
  628TMC3    C5 9300   3.411   2.594  14.990  0.4590  0.0023  0.4877
  628TMC3    C6 9301   3.459   2.467  14.998  0.0649 -0.0749 -0.3351
  628TMC3     C 9302   3.076   2.559  15.112 -0.3013 -0.3809 -0.2082
  628TMC3     O 9303   3.075   2.681  15.132 -0.1870 -0.5008 -0.4002
  628TMC3     H 9304   3.201   2.329  15.150  1.5539 -1.0778  0.7283
  628TMC3    H1 9305   3.247   2.728  15.012  0.7022  0.5526  1.1677
  628TMC3    H2 9306   3.568   2.460  14.997 -0.1102 -3.0821 -1.5804
  628TMC3    C7 9307   3.501   2.684  14.921 -0.3023 -0.1017  1.5834
  628TMC3    C8 9308   3.443   2.253  15.107  0.1078  0.9263 -0.0470
  628TMC3    O1 9309   3.604   2.648  14.878  0.2834 -0.2754  0.1177
  628TMC3    O2 9310   3.389   2.179  15.191 -0.1574 -0.8382 -0.0876
  629MPD2     C 9311   1.268   1.807  16.102  0.1560 -0.3132 -0.7027
  629MPD2    C1 9312   1.289   1.665  16.102 -0.1632 -0.4411 -0.3648
  629MPD2    C2 9313   1.186   1.582  16.142 -0.9954  0.0616 -0.1215
  629MPD2    C3 9314   1.070   1.639  16.192 -0.0426  0.0331  0.3661
  629MPD2    C4 9315   1.048   1.770  16.201 -1.1063 -0.4132  1.1641
  629MPD2    C5 9316   1.150   1.858  16.161 -0.1934 -0.4749 -0.2280
  629MPD2     H 9317   1.204   1.476  16.140  0.3631  0.2867  0.0478
  629MPD2    H1 9318   0.954   1.806  16.241 -1.9715  0.0682 -1.3098
  629MPD2    H2 9319   1.338   1.876  16.058  1.1285 -0.4021  0.7110
  629MPD2    H3 9320   1.139   1.965  16.174 -0.9202 -0.6710  0.7943
  629MPD2     N 9321   0.975   1.549  16.256 -0.3228 -0.1208 -0.2384
  629MPD2    H5 9322   0.982   1.448  16.252 -0.0902 -0.1269  0.2890
  629MPD2    N1 9323   1.414   1.615  16.070 -0.5713  0.2117  0.3481
  629MPD2    H7 9324   1.478   1.691  16.050 -0.8857  1.1681  2.9750
  630TMC3    C1 9325   1.601   1.469  16.072  0.3705  0.0745  0.7405
  630TMC3    C2 9326   1.687   1.570  16.019  0.2887  0.3425  0.3422
  630TMC3    C3 9327   1.818   1.548  16.029  0.4198  0.3630 -0.3149
  630TMC3    C4 9328   1.641   1.364  16.150 -0.5821 -0.0036 -0.4022
  630TMC3    C5 9329   1.774   1.355  16.170  0.2618 -0.5373  0.4429
  630TMC3    C6 9330   1.861   1.434  16.096 -0.1682 -0.3899 -0.3933
  630TMC3     C 9331   1.458   1.486  16.079 -0.7074  1.2746 -0.4852
  630TMC3     O 9332   1.404   1.380  16.100  0.1875  0.1603 -0.2058
  630TMC3     H 9333   1.645   1.653  15.963  1.2866 -1.3245 -2.8910
  630TMC3    H1 9334   1.564   1.325  16.217 -0.6492 -1.6887 -1.4636
  630TMC3    H2 9335   1.966   1.406  16.096 -0.3436 -1.1057  2.7688
  630TMC3    C7 9336   1.808   1.340  16.307  0.0067 -0.6840 -0.1156
  630TMC3    C8 9337   1.909   1.660  16.028  0.2283 -0.0629 -0.1092
  630TMC3    O1 9338   1.740   1.271  16.379 -0.4974 -0.1297  0.3934
  630TMC3    O2 9339   2.012   1.634  16.091  0.4141  0.2600 -0.0180
  631MPD2     C 9340   4.224   0.684  15.811 -0.3726 -0.1473 -0.1379
  631MPD2    C1 9341   4.333   0.739  15.734 -0.1669  0.0738 -0.8044
  631MPD2    C2 9342   4.461   0.677  15.751  0.0619 -0.0470 -0.5975
  631MPD2    C3 9343   4.478   0.581  15.851 -0.0773  0.0264  0.1685
  631MPD2    C4 9344   4.374   0.535  15.930 -0.4827  0.0970 -0.1524
  631MPD2    C5 9345   4.244   0.584  15.904  0.9203  0.4377 -0.0442
  631MPD2     H 9346   4.539   0.718  15.688  1.8215 -2.6440 -0.1502
  631MPD2    H1 9347   4.386   0.455  16.002  1.6926  0.9648  0.4427
  631MPD2    H2 9348   4.120   0.707  15.792  0.2618  2.5946 -0.2491
  631MPD2    H3 9349   4.161   0.552  15.966 -1.8765 -0.7463 -4.4133
  631MPD2     N 9350   4.608   0.546  15.876  0.1116  0.2748  0.8137
  631MPD2    H5 9351   4.675   0.563  15.802 -1.0116  0.3701 -0.1876
  631MPD2    N1 9352   4.299   0.839  15.644 -0.1379 -0.7520 -0.7481
  631MPD2    H7 9353   4.205   0.872  15.623 -0.3463  0.6503  2.3586
  632TMC3    C1 9354   4.319   1.032  15.507 -0.4661 -0.3253  0.5298
  632TMC3    C2 9355   4.263   1.125  15.590  0.4927  0.0867 -0.1459
  632TMC3    C3 9356   4.248   1.257  15.548  0.1365  0.6824 -0.6592
  632TMC3    C4 9357   4.381   1.072  15.391 -0.7770 -0.2498 -1.0023
  632TMC3    C5 9358   4.367   1.207  15.353 -0.0829 -0.4082 -0.4171
  632TMC3    C6 9359   4.300   1.299  15.429 -0.0881 -0.3756  0.0247
  632TMC3     C 9360   4.385   0.923  15.581  0.1736  0.7935  0.3093
  632TMC3     O 9361   4.506   0.934  15.581 -0.2653  0.4348 -0.1490
  632TMC3     H 9362   4.219   1.084  15.681 -0.0604  1.3743  0.1589
  632TMC3    H1 9363   4.439   1.003  15.330 -0.0244  0.9761 -1.6847
  632TMC3    H2 9364   4.294   1.401  15.395  1.5007 -0.4369 -0.4072
  632TMC3    C7 9365   4.351   1.233  15.208 -0.0333  0.6019  0.1875
  632TMC3    C8 9366   4.189   1.347  15.642 -0.1817 -0.2655  0.1244
  632TMC3    O1 9367   4.289   1.334  15.173  0.0951 -0.1450 -0.8234
  632TMC3    O2 9368   4.099   1.297  15.707 -0.7492 -0.6249 -0.0576
  633MPD2     C 9369   3.914   4.324   0.101 -0.5085 -0.1780  0.0980
  633MPD2    C1 9370   3.913   4.220   0.012 -0.6437 -0.5934 -0.3459
  633MPD2    C2 9371   3.890   4.098   0.070 -0.6384 -0.4523 -0.5350
  633MPD2    C3 9372   3.855   4.080   0.202 -0.0508 -0.2157 -0.7004
  633MPD2    C4 9373   3.866   4.185   0.285 -0.2861  0.4472  0.1407
  633MPD2    C5 9374   3.899   4.312   0.234  0.0714  0.1974  0.3401
  633MPD2     H 9375   3.890   4.014   0.002  0.8446 -1.1004  0.2584
  633MPD2    H1 9376   3.849   4.179   0.392 -1.0626  0.2597  0.0087
  633MPD2    H2 9377   3.918   4.429   0.076  0.6774 -0.2549 -0.0194
  633MPD2    H3 9378   3.900   4.396   0.302  2.4056  0.7051 -0.3330
  633MPD2     N 9379   3.855   3.950   0.256 -1.2240  0.0111  0.0226
  633MPD2    H5 9380   3.879   3.932   0.353  1.7697 -0.1754 -0.7710
  633MPD2    N1 9381   3.950   4.224  17.564 -0.0534 -0.3899 -0.3668
  633MPD2    H7 9382   3.958   4.139  17.509  1.2552  0.1994 -1.0755
  634TMC3    C1 9383   4.028   4.317  17.368 -0.0953  0.8411 -0.1888
  634TMC3    C2 9384   4.119   4.221  17.355 -1.0260 -0.2008 -0.1219
  634TMC3    C3 9385   4.179   4.209  17.230  0.4827  0.4604  0.0097
  634TMC3    C4 9386   4.004   4.410  17.274 -0.1083  0.0179  0.2066
  634TMC3    C5 9387   4.072   4.403  17.160 -0.0998  0.5528 -0.4209
  634TMC3    C6 9388   4.158   4.301  17.133 -0.8163 -0.3873 -0.1385
  634TMC3     C 9389   3.964   4.343  17.495 -0.6714 -0.1544  0.7000
  634TMC3     O 9390   3.918   4.455  17.517 -0.1009 -0.0987  0.0331
  634TMC3     H 9391   4.140   4.152  17.435  3.0935  0.2398 -0.8271
  634TMC3    H1 9392   3.940   4.492  17.305  0.8211  1.2813 -1.1659
  634TMC3    H2 9393   4.193   4.290  17.031 -1.1421 -0.7204 -0.2160
  634TMC3    C7 9394   4.047   4.510  17.058  0.0061  0.1141 -0.2714
  634TMC3    C8 9395   4.242   4.079  17.207 -0.0329  0.3749 -0.6640
  634TMC3    O1 9396   4.112   4.484  16.955 -0.2326  0.8063  0.2639
  634TMC3    O2 9397   4.205   3.996  17.289  0.3063 -0.1853 -0.1644
  635TMC3    C1 9398   0.577   4.661   0.129  0.4622  0.5154 -0.3976
  635TMC3    C2 9399   0.681   4.656   0.218  0.4575  0.2025 -0.3794
  635TMC3    C3 9400   0.700   4.546   0.297  0.3168 -0.1371  0.3050
  635TMC3    C4 9401   0.488   4.553   0.124 -0.8668 -0.2117  0.4629
  635TMC3    C5 9402   0.507   4.440   0.195 -0.0843  0.7151 -0.3775
  635TMC3    C6 9403   0.605   4.445   0.293 -0.2499 -0.1875  0.3276
  635TMC3     C 9404   0.531   0.060   0.068 -0.6235  0.0076  0.0952
  635TMC3     O 9405   0.420   0.066   0.014 -0.4762  0.6129 -0.1423
  635TMC3     H 9406   0.752   0.014   0.234  2.2666 -1.6662  0.9675
  635TMC3    H1 9407   0.424   4.562   0.038 -0.1210  0.3969 -0.0322
  635TMC3    H2 9408   0.626   4.360   0.356  3.0277  0.2068 -0.2464
  635TMC3    C7 9409   0.442   4.312   0.158  0.2428 -0.2629  0.2593
  635TMC3    C8 9410   0.797   4.551   0.406  0.6288 -0.0955 -0.0388
  635TMC3    O1 9411   0.442   4.223   0.245  0.0979 -0.2036  0.0598
  635TMC3    O2 9412   0.763   4.505   0.516 -0.2396  0.1059  0.6531
  636MPD2     C 9413   0.532   4.187  16.049  0.5450 -0.3816 -0.0476
  636MPD2    C1 9414   0.526   4.247  16.175  0.2708 -0.4113 -0.4753
  636MPD2    C2 9415   0.566   4.183  16.289 -0.2991 -0.3018  0.4106
  636MPD2    C3 9416   0.612   4.047  16.274  0.5265  0.3858  0.2054
  636MPD2    C4 9417   0.619   3.996  16.145 -0.7487 -0.9276  0.5096
  636MPD2    C5 9418   0.594   4.072  16.032 -0.4066 -0.1169  0.5088
  636MPD2     H 9419   0.566   4.243  16.379 -0.3192 -3.5504  2.5931
  636MPD2    H1 9420   0.669   3.902  16.127 -0.0646 -0.0824 -2.1292
  636MPD2    H2 9421   0.497   4.252  15.969 -0.8867 -2.0798 -0.7931
  636MPD2    H3 9422   0.608   4.031  15.933  1.4311 -1.4408  1.3113
  636MPD2     N 9423   0.639   3.981  16.394 -0.3057 -0.1802  0.6060
  636MPD2    H5 9424   0.615   4.024  16.483 -1.9981 -0.6562  0.3746
  636MPD2    N1 9425   0.481   4.377  16.200  0.2742  0.2357  0.2863
  636MPD2    H7 9426   0.500   4.415  16.292 -0.2778 -1.0605  0.9435
  637TMC3    C1 9427   0.682   3.802  16.536  0.0417  0.4600  0.2800
  637TMC3    C2 9428   0.672   3.897  16.641 -0.4636 -0.6818  0.0681
  637TMC3    C3 9429   0.755   3.878  16.752  0.6373  0.2236  0.3689
  637TMC3    C4 9430   0.761   3.694  16.550  1.3964  0.0296 -0.0057
  637TMC3    C5 9431   0.845   3.688  16.661  0.3177  0.3064  0.1953
  637TMC3    C6 9432   0.842   3.774  16.771  0.1704 -0.5187  0.5492
  637TMC3     C 9433   0.666   3.842  16.400 -0.0376  0.0724  0.0003
  637TMC3     O 9434   0.670   3.756  16.312 -0.1483 -0.4382 -0.3051
  637TMC3     H 9435   0.594   3.972  16.647  0.8448  0.7966 -1.2935
  637TMC3    H1 9436   0.773   3.616  16.477  0.8611  0.3064 -0.3873
  637TMC3    H2 9437   0.922   3.774  16.844  2.4291 -3.0328 -1.9503
  637TMC3    C7 9438   0.956   3.582  16.658  0.3555 -0.3198  0.2486
  637TMC3    C8 9439   0.778   4.009  16.821 -0.2092 -0.4305 -0.1290
  637TMC3    O1 9440   0.939   3.505  16.751  0.3842  0.1364 -0.1147
  637TMC3    O2 9441   0.727   4.101  16.757  0.3434 -0.2784  0.5172
  638MPD2     C 9442   0.466   2.857  15.222 -0.7836  0.5639 -0.1366
  638MPD2    C1 9443   0.432   2.740  15.169 -0.3656  0.8946 -0.3000
  638MPD2    C2 9444   0.387   2.637  15.255  0.2220  0.3303  0.9042
  638MPD2    C3 9445   0.396   2.654  15.394 -0.6018  0.5988  0.0742
  638MPD2    C4 9446   0.429   2.776  15.440  0.3757  0.2344 -0.1672
  638MPD2    C5 9447   0.458   2.883  15.354  0.6687 -0.4120 -1.1202
  638MPD2     H 9448   0.362   2.535  15.229  1.1466  0.6692 -1.2736
  638MPD2    H1 9449   0.435   2.797  15.547 -0.3431  0.3971 -0.1590
  638MPD2    H2 9450   0.486   2.941  15.157  1.8543  0.2470  0.2527
  638MPD2    H3 9451   0.479   2.981  15.396  0.3048 -1.1323  0.7410
  638MPD2     N 9452   0.378   2.549  15.483 -0.6408 -0.1814  0.0886
  638MPD2    H5 9453   0.366   2.459  15.437  1.2522 -0.0577 -0.6289
  638MPD2    N1 9454   0.445   2.717  15.030  0.2663 -0.0796 -0.2224
  638MPD2    H7 9455   0.487   2.787  14.970  0.5607 -0.1959 -0.1512
  639TMC3    C1 9456   0.379   2.425  15.666 -0.6530 -0.3286  0.6309
  639TMC3    C2 9457   0.253   2.379  15.702 -0.4144  0.8742  0.0610
  639TMC3    C3 9458   0.227   2.245  15.676  0.2875 -0.0255  0.0985
  639TMC3    C4 9459   0.476   2.344  15.613 -0.3552 -0.7890 -0.3824
  639TMC3    C5 9460   0.441   2.213  15.586 -0.1337 -0.4754  0.5595
  639TMC3    C6 9461   0.319   2.163  15.628  0.2627 -0.2649 -0.1491
  639TMC3     C 9462   0.379   2.563  15.619 -1.4225  0.5183 -1.1953
  639TMC3     O 9463   0.309   2.644  15.680  0.0168  0.3056 -0.6327
  639TMC3     H 9464   0.176   2.455  15.708  0.4083  1.8438 -1.9839
  639TMC3    H1 9465   0.557   2.392  15.559 -1.6387 -0.6852 -2.2268
  639TMC3    H2 9466   0.295   2.063  15.594  0.2193  0.3818 -1.9853
  639TMC3    C7 9467   0.448   2.206  15.440  0.6660  0.9226  0.3916
  639TMC3    C8 9468   0.094   2.206  15.626  0.4981 -0.5028 -0.2031
  639TMC3    O1 9469   0.361   2.269  15.387 -0.6797 -0.0904  0.0871
  639TMC3    O2 9470   0.097   2.127  15.537  0.0613  0.4815  0.4167
  640MPD2     C 9471   0.741   1.800  10.051 -0.4629  0.3851  0.5784
  640MPD2    C1 9472   0.754   1.875   9.931 -1.4732 -0.6693 -0.5743
  640MPD2    C2 9473   0.684   1.986   9.918 -0.8336  0.0337 -0.3843
  640MPD2    C3 9474   0.587   2.028  10.015  0.0245  0.5220  0.8380
  640MPD2    C4 9475   0.573   1.949  10.129 -0.4758  0.6605 -0.1548
  640MPD2    C5 9476   0.645   1.839  10.144  0.7601 -0.7254 -0.1582
  640MPD2     H 9477   0.685   2.038   9.822  2.3826 -0.1423 -0.4553
  640MPD2    H1 9478   0.494   1.971  10.200  0.7489  0.6884  1.1981
  640MPD2    H2 9479   0.799   1.713  10.081 -2.3118  0.0457  3.2379
  640MPD2    H3 9480   0.634   1.777  10.232 -0.4067  0.0989  0.2814
  640MPD2     N 9481   0.512   2.144  10.010  0.3583  0.4798  0.0997
  640MPD2    H5 9482   0.445   2.148  10.086 -1.1879 -1.9664 -1.1172
  640MPD2    N1 9483   0.859   1.840   9.848 -0.0678 -0.0347  0.4343
  640MPD2    H7 9484   0.919   1.763   9.875 -2.7955 -2.0296  0.8041
  641TMC3    C1 9485   1.024   1.860   9.690 -0.5488  0.1248 -0.1707
  641TMC3    C2 9486   1.081   1.738   9.719  0.1659 -0.6130  0.4187
  641TMC3    C3 9487   1.212   1.721   9.684  0.1517 -0.4010  0.5613
  641TMC3    C4 9488   1.098   1.961   9.623  0.4851  0.9669 -0.4840
  641TMC3    C5 9489   1.224   1.934   9.595  0.2269 -0.3615 -0.2599
  641TMC3    C6 9490   1.287   1.813   9.623  0.3390  0.2920 -0.2701
  641TMC3     C 9491   0.891   1.905   9.730  0.1250  0.5905  0.0965
  641TMC3     O 9492   0.853   2.016   9.689  0.0358 -0.1077  0.1336
  641TMC3     H 9493   1.033   1.654   9.767  0.9659  0.1626  2.5444
  641TMC3    H1 9494   1.050   2.050   9.585  2.5822  1.7855 -1.2349
  641TMC3    H2 9495   1.385   1.783   9.588 -0.8006 -1.2510 -2.0936
  641TMC3    C7 9496   1.302   2.041   9.534  0.3716 -0.1441  0.4868
  641TMC3    C8 9497   1.277   1.596   9.690  0.8579  0.4396 -0.5830
  641TMC3    O1 9498   1.231   2.128   9.488 -0.7911 -0.4478  0.6537
  641TMC3    O2 9499   1.365   1.567   9.608 -0.0299 -0.3066  0.4234
  642TMC3    C1 9500   2.150   3.068  12.172 -0.0092 -0.5807 -0.1313
  642TMC3    C2 9501   2.283   3.066  12.203 -0.3706  0.2850 -0.0607
  642TMC3    C3 9502   2.336   2.948  12.254 -0.1297 -0.0753 -0.1444
  642TMC3    C4 9503   2.071   2.959  12.162 -0.8061 -0.5743  0.7020
  642TMC3    C5 9504   2.137   2.845  12.207 -0.4713 -0.2375  0.3023
  642TMC3    C6 9505   2.260   2.835  12.255 -0.0115  0.2291  0.5354
  642TMC3     C 9506   2.088   3.202  12.189 -0.4291  0.8503 -0.2113
  642TMC3     O 9507   2.145   3.302  12.142  0.1042 -0.0975  0.4828
  642TMC3     H 9508   2.335   3.161  12.201 -0.1868  0.1722 -0.4742
  642TMC3    H1 9509   1.966   2.953  12.137 -0.3213 -0.7785 -1.3435
  642TMC3    H2 9510   2.298   2.743  12.297  0.0034 -0.3577 -0.7605
  642TMC3    C7 9511   2.041   2.725  12.212 -0.5994  0.6848 -0.4618
  642TMC3    C8 9512   2.462   2.942  12.321  0.1746 -0.9532  0.5006
  642TMC3    O1 9513   1.952   2.716  12.126  0.7630  0.1700 -0.5062
  642TMC3    O2 9514   2.499   2.828  12.356 -0.0390  0.4635  0.6164
  643TMC3    C1 9515   1.243   1.839   0.088 -0.3255  0.0071 -0.0155
  643TMC3    C2 9516   1.130   1.878   0.017  0.4482  0.1538 -0.6648
  643TMC3    C3 9517   1.089   1.807  17.608 -0.1677 -0.4768  0.0168
  643TMC3    C4 9518   1.314   1.723   0.056 -0.1794 -0.6102 -1.0629
  643TMC3    C5 9519   1.283   1.661  17.639 -0.1532 -0.1123 -0.1660
  643TMC3    C6 9520   1.168   1.693  17.571  0.1774 -0.2750 -0.2285
  643TMC3     C 9521   1.291   1.939   0.182  0.1915  1.3754  0.9804
  643TMC3     O 9522   1.217   2.032   0.211  0.4565 -0.5714  0.0752
  643TMC3     H 9523   1.059   1.946   0.062  0.9265  1.0751 -1.3096
  643TMC3    H1 9524   1.404   1.687   0.103 -0.5691  1.7436  1.5322
  643TMC3    H2 9525   1.129   1.644  17.482 -0.7079  0.3290 -0.1722
  643TMC3    C7 9526   1.403   1.656  17.559  0.7281  0.3250 -0.6045
  643TMC3    C8 9527   1.043   1.884  17.492  0.3914 -0.0701  0.2063
  643TMC3    O1 9528   1.493   1.731  17.586  0.3850  0.5253 -0.1547
  643TMC3    O2 9529   1.021   1.831  17.380 -0.1189 -0.2321 -0.4176
  644MPD2     C 9530   1.930   2.522   9.741  0.1069  0.2178  0.8476
  644MPD2    C1 9531   1.920   2.387   9.777  0.8957 -0.2836  0.1293
  644MPD2    C2 9532   2.037   2.315   9.802 -0.3413  0.4086 -0.4003
  644MPD2    C3 9533   2.159   2.374   9.786  0.9759 -0.5957 -0.3612
  644MPD2    C4 9534   2.169   2.506   9.743  1.2503  0.2591 -0.0457
  644MPD2    C5 9535   2.052   2.573   9.723  0.9671 -0.4681 -0.9203
  644MPD2     H 9536   2.042   2.212   9.835  0.9589  0.9701  1.1585
  644MPD2    H1 9537   2.261   2.562   9.727  1.1904  0.4219  0.1602
  644MPD2    H2 9538   1.845   2.579   9.707  0.9149  1.1304  0.3477
  644MPD2    H3 9539   2.055   2.680   9.702  0.1488 -0.2488  0.0934
  644MPD2     N 9540   2.270   2.295   9.811  0.5272 -0.4316 -0.3287
  644MPD2    H5 9541   2.256   2.203   9.851 -1.2725 -0.9125 -2.0809
  644MPD2    N1 9542   1.785   2.343   9.780 -0.2662 -0.1799  0.2530
  644MPD2    H7 9543   1.718   2.416   9.760  2.0965  2.2096  1.0174
  645TMC3    C1 9544   2.499   2.224   9.839 -0.6512  0.5698 -0.2377
  645TMC3    C2 9545   2.471   2.162   9.957 -0.0651  0.0600 -0.0932
  645TMC3    C3 9546   2.544   2.053   9.992 -0.3280  0.6516  0.4146
  645TMC3    C4 9547   2.593   2.178   9.756  0.3293  0.0645  0.6914
  645TMC3    C5 9548   2.660   2.069   9.795 -0.0571  0.0279 -0.8132
  645TMC3    C6 9549   2.649   1.999   9.917  0.6729 -0.2207 -0.3248
  645TMC3     C 9550   2.404   2.318   9.782 -0.1086 -0.3216  0.2264
  645TMC3     O 9551   2.443   2.398   9.702  0.4055  0.0378  0.4786
  645TMC3     H 9552   2.385   2.186  10.018  0.2087 -1.5218  0.9380
  645TMC3    H1 9553   2.610   2.213   9.655  1.2530 -3.1997 -0.2892
  645TMC3    H2 9554   2.716   1.920   9.949  0.4031 -0.4579 -0.3477
  645TMC3    C7 9555   2.761   2.017   9.705 -0.0729  0.0816  0.5280
  645TMC3    C8 9556   2.490   1.979  10.111  0.0555 -0.1784 -0.2511
  645TMC3    O1 9557   2.836   2.093   9.643 -0.0102 -0.0683 -0.0217
  645TMC3    O2 9558   2.440   2.058  10.188  0.1490  0.1022 -0.0576
  646MPD2     C 9559   4.650   1.350  15.061 -0.4678 -0.7157 -0.3625
  646MPD2    C1 9560   4.690   1.433  15.164  0.0819 -0.6043  0.1055
  646MPD2    C2 9561   4.637   1.564  15.180  0.7689  0.3923  0.1332
  646MPD2    C3 9562   4.528   1.598  15.096  0.5931  0.3197  0.5722
  646MPD2    C4 9563   4.474   1.502  15.014  0.0735 -0.3405  0.1083
  646MPD2    C5 9564   4.536   1.382  14.998  0.1581 -0.0307  0.0509
  646MPD2     H 9565   4.669   1.627  15.263 -0.2987  0.3435  0.5790
  646MPD2    H1 9566   4.377   1.511  14.967 -0.2171  3.1732  1.3808
  646MPD2    H2 9567   4.697   1.253  15.050  1.1289 -0.0494  0.7685
  646MPD2    H3 9568   4.492   1.307  14.933 -2.9491  3.2267 -1.5686
  646MPD2     N 9569   4.471   1.728  15.102  0.4941 -0.0245 -0.7352
  646MPD2    H5 9570   4.523   1.799  15.154  0.0376 -0.1989 -0.0478
  646MPD2    N1 9571   0.073   1.387  15.246  0.0277 -0.2838  0.1382
  646MPD2    H7 9572   0.118   1.298  15.228 -0.5763 -0.8012  1.1692
  647TMC3    C1 9573   0.254   1.391  15.396  0.3785 -1.1730  0.1388
  647TMC3    C2 9574   0.302   1.424  15.519 -0.3500  0.4805  0.1493
  647TMC3    C3 9575   0.437   1.416  15.538  0.1253  0.5318  0.1399
  647TMC3    C4 9576   0.336   1.370  15.293  0.2699 -0.6611  0.1112
  647TMC3    C5 9577   0.473   1.387  15.308  0.1625 -0.3017 -0.7922
  647TMC3    C6 9578   0.526   1.415  15.432 -0.2177  0.0435  0.3038
  647TMC3     C 9579   0.122   1.448  15.359  0.9292  0.3277 -0.1585
  647TMC3     O 9580   0.059   1.527  15.431 -0.6915 -0.2019  0.1430
  647TMC3     H 9581   0.240   1.449  15.604 -0.6013  1.8363 -0.4366
  647TMC3    H1 9582   0.299   1.333  15.198  0.5348  0.5779 -0.4813
  647TMC3    H2 9583   0.632   1.435  15.446 -0.1807 -0.2776  0.4754
  647TMC3    C7 9584   0.547   1.279  15.242  0.3473  0.7454  0.2212
  647TMC3    C8 9585   0.494   1.363  15.656 -0.0302 -0.1881 -0.0839
  647TMC3    O1 9586   0.664   1.303  15.212 -0.1969 -0.1944  0.3532
  647TMC3    O2 9587   0.617   1.346  15.666 -0.1680  0.0583  0.7384
  648TMC3    C1 9588   4.618   4.003  16.619  0.0034 -0.2814  0.4949
  648TMC3    C2 9589   4.653   3.872  16.618  0.4002  0.2310 -0.5946
  648TMC3    C3 9590   4.668   3.816  16.491  0.4096 -0.1763 -0.5695
  648TMC3    C4 9591   4.565   4.067  16.513  0.1290  0.1745  0.4923
  648TMC3    C5 9592   4.574   4.009  16.390  0.9800  0.0057  0.1493
  648TMC3    C6 9593   4.617   3.878  16.379 -0.0843  0.8990  0.4757
  648TMC3     C 9594   4.638   4.084  16.742 -0.4948  0.3731  0.6802
  648TMC3     O 9595   4.600   4.201  16.747  0.4019  0.1581  0.3767
  648TMC3     H 9596   4.713   3.830  16.698 -1.2913  0.0200  0.5801
  648TMC3    H1 9597   4.556   4.175  16.521  0.0182  0.0658  1.8975
  648TMC3    H2 9598   4.617   3.825  16.284  1.4222  0.5162  0.6921
  648TMC3    C7 9599   4.535   4.073  16.264  0.1813  0.5747 -0.1934
  648TMC3    C8 9600   4.705   3.677  16.489 -0.0020 -0.3519  0.5495
  648TMC3    O1 9601   4.580   4.033  16.162  0.3269 -0.4070 -0.0891
  648TMC3    O2 9602   4.677   3.611  16.587  0.2801 -0.3722 -0.5578
  649TMC3    C1 9603   3.288   0.484  12.944 -0.0036 -1.1127 -0.1741
  649TMC3    C2 9604   3.379   0.582  12.946  0.3133  0.3939 -0.3221
  649TMC3    C3 9605   3.421   0.614  13.073  0.0036  0.3044 -0.3046
  649TMC3    C4 9606   3.241   0.406  13.050  0.2502 -0.8975  0.1640
  649TMC3    C5 9607   3.277   0.452  13.174 -0.2071 -0.1680 -0.8699
  649TMC3    C6 9608   3.370   0.557  13.188  0.0138  0.2850  0.3683
  649TMC3     C 9609   3.208   0.472  12.823  0.4570  0.5253  0.3229
  649TMC3     O 9610   3.092   0.428  12.832  0.1265  0.3352  0.2319
  649TMC3     H 9611   3.398   0.653  12.867 -0.2698  1.2846  0.3353
  649TMC3    H1 9612   3.173   0.323  13.034 -0.1506 -0.8870  1.8158
  649TMC3    H2 9613   3.399   0.600  13.283  2.2929 -1.8209  0.6337
  649TMC3    C7 9614   3.224   0.393  13.302  0.0847  0.1516  0.2899
  649TMC3    C8 9615   3.495   0.739  13.091 -0.4886 -0.2136  1.0546
  649TMC3    O1 9616   3.195   0.476  13.388  0.3543 -0.5298 -0.2680
  649TMC3    O2 9617   3.506   0.774  13.205 -0.5218 -0.1105  0.2953
  650TMC3    C1 9618   1.499   2.048  12.851 -0.0972  0.3291  0.4808
  650TMC3    C2 9619   1.500   2.179  12.886 -0.4163  0.3429  0.5139
  650TMC3    C3 9620   1.536   2.269  12.789 -0.5778 -0.0711  0.1176
  650TMC3    C4 9621   1.534   1.997  12.731  0.5776  0.3286 -0.6329
  650TMC3    C5 9622   1.554   2.091  12.629  0.5349 -0.6810 -0.1330
  650TMC3    C6 9623   1.554   2.224  12.657  0.4786  0.4165 -0.0589
  650TMC3     C 9624   1.428   1.956  12.944 -0.3975 -0.2062  0.5914
  650TMC3     O 9625   1.450   1.971  13.063  0.3710  0.5069 -0.4811
  650TMC3     H 9626   1.478   2.211  12.988 -0.8641 -1.0310  0.8471
  650TMC3    H1 9627   1.533   1.893  12.702 -1.2535 -0.1286  1.1170
  650TMC3    H2 9628   1.590   2.290  12.579 -0.0177 -0.9569 -1.4294
  650TMC3    C7 9629   1.465   2.071  12.520  1.1295  1.0959  0.0790
  650TMC3    C8 9630   1.503   2.407  12.796  0.0618 -0.1114 -0.1170
  650TMC3    O1 9631   1.446   1.952  12.487 -0.1384 -0.0587  0.3826
  650TMC3    O2 9632   1.542   2.478  12.702  0.1910 -0.0785  0.1023
  651MPD2     C 9633   0.360   3.767  10.845  0.8005  0.0265 -0.4485
  651MPD2    C1 9634   0.364   3.889  10.900 -0.3159 -0.3970 -0.1607
  651MPD2    C2 9635   0.456   3.979  10.867 -0.4332  0.9215 -0.2006
  651MPD2    C3 9636   0.554   3.952  10.775  0.2715 -0.1862  1.0013
  651MPD2    C4 9637   0.553   3.829  10.714  0.3885 -0.1440 -0.2369
  651MPD2    C5 9638   0.457   3.743  10.748  0.4998  0.4659 -0.2797
  651MPD2     H 9639   0.454   4.081  10.904 -2.5852  0.6443  0.4294
  651MPD2    H1 9640   0.620   3.805  10.632  1.2861  1.5261  0.0188
  651MPD2    H2 9641   0.284   3.695  10.874  0.5152  1.0984  1.4341
  651MPD2    H3 9642   0.455   3.642  10.709  1.9158  0.3061  0.0843
  651MPD2     N 9643   0.640   4.049  10.724  0.1209  0.3743 -0.4382
  651MPD2    H5 9644   0.617   4.142  10.759  1.7311  0.9155 -0.7729
  651MPD2    N1 9645   0.264   3.939  10.995  0.0136 -0.0188 -0.6347
  651MPD2    H7 9646   0.279   4.027  11.042 -0.5087 -1.2931  1.9061
  652TMC3    C1 9647   0.972   4.299  10.524  0.5447  0.3223  0.3915
  652TMC3    C2 9648   0.924   4.186  10.580  0.6497 -0.2696  0.1175
  652TMC3    C3 9649   0.793   4.170  10.597  0.4960  0.4434  0.2141
  652TMC3    C4 9650   0.883   4.394  10.497  0.2803 -0.4025  0.1813
  652TMC3    C5 9651   0.747   4.381  10.522 -0.2638 -0.2629  0.1670
  652TMC3    C6 9652   0.699   4.269  10.579 -0.1494 -0.6187  0.0576
  652TMC3     C 9653   1.096   4.323  10.591  0.5375 -0.3346 -0.6498
  652TMC3     O 9654   1.126   4.265  10.696 -0.1250 -0.5489 -0.3403
  652TMC3     H 9655   0.991   4.106  10.609 -0.9198 -1.2919  0.9480
  652TMC3    H1 9656   0.917   4.490  10.459  1.2483 -0.1825  1.5999
  652TMC3    H2 9657   0.592   4.261  10.589 -0.2700  0.7129 -0.1758
  652TMC3    C7 9658   0.652   4.465  10.454  0.1674  0.5067  0.0683
  652TMC3    C8 9659   0.742   4.035  10.636  0.3209  0.1827 -0.9882
  652TMC3    O1 9660   0.537   4.426  10.437  0.2917 -0.2313  0.0166
  652TMC3    O2 9661   0.807   3.937  10.606 -0.0242 -0.1580 -0.5854
  653MPD2     C 9662   3.514   4.216   0.055  0.6841  0.2205  0.1381
  653MPD2    C1 9663   3.480   4.294  17.640  0.7500 -0.3961 -0.2338
  653MPD2    C2 9664   3.442   4.234  17.525 -0.7337  0.7413  0.0017
  653MPD2    C3 9665   3.437   4.098  17.519  0.1959 -0.2123 -0.5430
  653MPD2    C4 9666   3.480   4.023  17.632  0.1937  0.6330  0.5223
  653MPD2    C5 9667   3.520   4.081   0.058 -0.3336  0.3673  0.0447
  653MPD2     H 9668   3.404   4.300  17.448 -2.2923 -0.7466 -0.5027
  653MPD2    H1 9669   3.483   3.915  17.630  1.5875  0.7347 -1.9221
  653MPD2    H2 9670   3.537   4.274   0.144 -1.6673  1.1815  0.1350
  653MPD2    H3 9671   3.561   4.029   0.144 -5.1488  0.3176  2.3113
  653MPD2     N 9672   3.392   4.046  17.398  0.0285 -0.2886  1.5058
  653MPD2    H5 9673   3.363   4.112  17.327 -1.4606 -0.7943  1.6369
  653MPD2    N1 9674   3.465   4.437  17.637  0.0360  0.0316 -0.1881
  653MPD2    H7 9675   3.443   4.486  17.551 -1.8966  0.6379  0.6555
  654TMC3    C1 9676   3.336   3.888  17.233 -0.6306 -0.0348  0.2341
  654TMC3    C2 9677   3.225   3.963  17.191  0.0760  0.9975  0.1620
  654TMC3    C3 9678   3.164   3.925  17.070  0.4002 -1.1876  0.3068
  654TMC3    C4 9679   3.395   3.791  17.161 -0.3544 -0.1496 -0.3135
  654TMC3    C5 9680   3.349   3.773  17.037  1.0829 -0.2377  0.3986
  654TMC3    C6 9681   3.235   3.833  16.993 -0.2781 -0.2089 -0.0780
  654TMC3     C 9682   3.395   3.906  17.362 -0.1106  1.0349  0.2546
  654TMC3     O 9683   3.440   3.814  17.428 -0.2801  0.5771  0.0599
  654TMC3     H 9684   3.171   4.026  17.262 -2.0090  0.5012 -0.9745
  654TMC3    H1 9685   3.483   3.738  17.195 -1.2425 -1.6772 -0.3949
  654TMC3    H2 9686   3.212   3.823  16.888  0.7972  0.5953 -0.3876
  654TMC3    C7 9687   3.417   3.674  16.955 -0.0611 -0.3355 -0.6472
  654TMC3    C8 9688   3.028   3.975  17.030 -0.0444 -0.0792  0.3500
  654TMC3    O1 9689   3.398   3.692  16.838  0.4698 -0.3831 -0.1284
  654TMC3    O2 9690   3.006   4.093  17.055 -0.1656 -0.5294  0.0362
  655MPD2     C 9691   0.292   3.958  15.944 -0.5681 -0.3562  0.6892
  655MPD2    C1 9692   0.172   3.994  15.883 -0.2988 -0.3333  0.3867
  655MPD2    C2 9693   0.132   3.940  15.766  0.3206  0.0663 -0.3073
  655MPD2    C3 9694   0.205   3.835  15.711  0.3060 -0.2654  0.1070
  655MPD2    C4 9695   0.323   3.798  15.780  0.0023  0.4272 -0.1000
  655MPD2    C5 9696   0.369   3.866  15.887 -0.0066  0.4601 -0.5987
  655MPD2     H 9697   0.048   3.984  15.712  0.2514  0.8709  0.4553
  655MPD2    H1 9698   0.397   3.733  15.734 -0.7157  1.2026 -2.3548
  655MPD2    H2 9699   0.335   4.019  16.023 -1.7943 -1.4536  2.1765
  655MPD2    H3 9700   0.466   3.845  15.929 -0.8231  0.9702  1.5182
  655MPD2     N 9701   0.176   3.766  15.595 -0.1644  0.0673 -0.6572
  655MPD2    H5 9702   0.236   3.686  15.581 -1.0847 -0.6773 -0.3750
  655MPD2    N1 9703   0.110   4.115  15.921 -0.1281 -0.2514 -0.4689
  655MPD2    H7 9704   0.034   4.141  15.858 -1.1404  0.1561  0.9401
  656TMC3    C1 9705   0.057   4.308  16.045  0.7870 -0.2190 -0.5033
  656TMC3    C2 9706   0.016   4.346  16.169  0.2324 -0.8885 -0.9564
  656TMC3    C3 9707   4.656   4.454  16.188 -0.1506  0.1052  0.9339
  656TMC3    C4 9708   0.010   4.374  15.939  0.1884 -0.1553 -0.2024
  656TMC3    C5 9709   4.624   4.461  15.959 -0.3344 -0.2762 -0.0106
  656TMC3    C6 9710   4.587   4.510  16.085  1.0736  0.2691 -0.2204
  656TMC3     C 9711   0.129   4.184  16.035  0.4183  0.4488  0.5298
  656TMC3     O 9712   0.180   4.133  16.140  0.5026 -0.7321 -0.5063
  656TMC3     H 9713   0.041   4.278  16.249 -0.5771 -0.6951 -0.5422
  656TMC3    H1 9714   0.047   4.339  15.844 -2.3323 -0.5635 -1.0370
  656TMC3    H2 9715   4.522   4.595  16.101  1.8729  0.4443  2.1494
  656TMC3    C7 9716   4.577   4.534  15.849  0.2658  1.0462 -0.0182
  656TMC3    C8 9717   4.609   4.466  16.326  0.5605  0.5440 -0.3884
  656TMC3    O1 9718   4.654   4.540  15.759 -0.1355 -0.4563  0.5190
  656TMC3    O2 9719   4.633   4.375  16.405  0.0486  0.3174 -0.0677
  657TMC3    C1 9720   4.046   3.177  15.551  0.8122  0.3789  0.0840
  657TMC3    C2 9721   4.138   3.181  15.648  0.4948  0.1033 -0.2123
  657TMC3    C3 9722   4.120   3.274  15.749 -0.0003  0.1578  0.0742
  657TMC3    C4 9723   3.938   3.257  15.549 -0.2933  0.0289  0.0229
  657TMC3    C5 9724   3.923   3.354  15.646  0.0489 -0.5159 -0.8457
  657TMC3    C6 9725   4.012   3.361  15.753  0.3013 -0.9653  0.0046
  657TMC3     C 9726   4.066   3.104  15.430 -0.3355  0.5947  0.5361
  657TMC3     O 9727   3.968   3.058  15.374  0.2761  0.3689 -0.3513
  657TMC3     H 9728   4.215   3.104  15.652  1.2923  0.9950  1.4179
  657TMC3    H1 9729   3.893   3.269  15.451  2.1503 -0.3716 -1.1456
  657TMC3    H2 9730   4.003   3.433  15.834 -0.4769 -1.9038  0.7386
  657TMC3    C7 9731   3.861   3.480  15.603  0.2549  0.0646 -0.7576
  657TMC3    C8 9732   4.214   3.276  15.860 -1.0304 -0.0052 -0.1492
  657TMC3    O1 9733   3.910   3.574  15.663 -0.8607  0.0302 -0.4267
  657TMC3    O2 9734   4.181   3.343  15.954  0.5551  0.5412  0.6838
  658MPD2     C 9735   0.506   3.508  14.998 -0.2193  0.0780  0.8444
  658MPD2    C1 9736   0.431   3.615  15.020 -0.3965 -0.1266 -0.1720
  658MPD2    C2 9737   0.446   3.728  14.938 -0.1418 -0.7293 -0.1983
  658MPD2    C3 9738   0.537   3.733  14.833  0.0213 -0.0954 -0.1064
  658MPD2    C4 9739   0.620   3.617  14.818  0.4294 -0.4018  0.2536
  658MPD2    C5 9740   0.603   3.515  14.904  0.3959 -0.0555 -0.4470
  658MPD2     H 9741   0.389   3.819  14.954  0.2150 -0.6622  0.7139
  658MPD2    H1 9742   0.702   3.615  14.748 -1.3544  0.8578 -1.8663
  658MPD2    H2 9743   0.496   3.421  15.061 -0.3892 -1.1487 -0.8776
  658MPD2    H3 9744   0.673   3.432  14.907  1.8861  1.1895 -1.1111
  658MPD2     N 9745   0.543   3.856  14.766 -0.2229  0.2642 -0.4607
  658MPD2    H5 9746   0.469   3.924  14.781 -1.6786 -1.6417  1.0487
  658MPD2    N1 9747   0.320   3.606  15.110 -0.5046  0.2223 -0.4332
  658MPD2    H7 9748   0.266   3.692  15.117 -1.3576 -0.3537  0.1010
  659TMC3    C1 9749   0.157   3.525  15.261  0.2215  0.9413 -0.1078
  659TMC3    C2 9750   0.172   3.610  15.363 -0.3364 -0.1139 -0.0084
  659TMC3    C3 9751   0.064   3.675  15.413 -0.9927  0.1427 -0.4509
  659TMC3    C4 9752   0.039   3.490  15.215 -0.4713  0.1970  0.2440
  659TMC3    C5 9753   4.651   3.542  15.279 -0.7827 -0.1525 -0.6522
  659TMC3    C6 9754   4.662   3.647  15.368  0.1849  0.4059  0.1988
  659TMC3     C 9755   0.273   3.495  15.183  0.5757 -0.5771  0.4632
  659TMC3     O 9756   0.312   3.379  15.181  0.4605 -0.0845 -0.3065
  659TMC3     H 9757   0.272   3.645  15.388 -0.8142  0.9746  0.3761
  659TMC3    H1 9758   0.042   3.418  15.134 -1.3763  2.2092 -1.5590
  659TMC3    H2 9759   4.581   3.678  15.432  0.9966 -0.0100  1.4405
  659TMC3    C7 9760   4.519   3.542  15.214  0.0173 -0.9079 -0.6815
  659TMC3    C8 9761   0.070   3.781  15.510  0.7308 -0.4428 -0.4441
  659TMC3    O1 9762   4.456   3.647  15.223 -0.4266 -0.3853  0.7918
  659TMC3    O2 9763   4.699   3.857  15.518  0.3727 -0.2588 -0.4875
  660MPD2     C 9764   3.557   2.946  12.816 -0.6680  0.0086 -0.0271
  660MPD2    C1 9765   3.429   2.960  12.769  0.2413 -0.3506 -0.1958
  660MPD2    C2 9766   3.325   2.957  12.862 -0.0472 -0.3797 -0.3358
  660MPD2    C3 9767   3.343   2.971  12.997 -0.1132  0.8097  0.0130
  660MPD2    C4 9768   3.482   2.968  13.040 -0.6903 -0.0485 -0.5237
  660MPD2    C5 9769   3.579   2.947  12.944 -0.2919  0.3701  0.3989
  660MPD2     H 9770   3.225   2.975  12.824 -0.1920  0.7415  0.5757
  660MPD2    H1 9771   3.506   2.981  13.145 -0.8063  3.0050 -0.8527
  660MPD2    H2 9772   3.642   2.946  12.749  0.6564 -1.4694  1.6468
  660MPD2    H3 9773   3.679   2.939  12.985 -0.6393 -0.3254  1.1173
  660MPD2     N 9774   3.238   2.999  13.088 -0.6200  0.4797 -0.3760
  660MPD2    H5 9775   3.260   2.995  13.188  3.1733  1.2453 -1.1804
  660MPD2    N1 9776   3.415   2.975  12.626 -0.4104 -0.2257 -0.0665
  660MPD2    H7 9777   3.492   3.019  12.576 -1.3610 -1.3154 -2.4659
  661TMC3    C1 9778   3.308   3.014  12.415  0.7306 -0.8035 -0.2401
  661TMC3    C2 9779   3.425   3.013  12.350  0.1903  0.1241  0.6080
  661TMC3    C3 9780   3.426   3.041  12.215 -0.7790  0.6635  0.1473
  661TMC3    C4 9781   3.195   3.042  12.350 -0.4415  0.5886  0.7639
  661TMC3    C5 9782   3.198   3.073  12.220 -0.0786 -0.1332  0.1590
  661TMC3    C6 9783   3.314   3.085  12.150 -0.4103  0.6671 -0.2695
  661TMC3     C 9784   3.296   2.975  12.551 -0.0462  0.1039 -0.1599
  661TMC3     O 9785   3.192   2.924  12.590  0.1653 -0.1134  0.0100
  661TMC3     H 9786   3.517   2.972  12.391  1.1232  2.6789  1.0615
  661TMC3    H1 9787   3.099   3.049  12.401  0.2948 -0.5866  2.3285
  661TMC3    H2 9788   3.316   3.121  12.048 -0.7709  1.1711 -0.0984
  661TMC3    C7 9789   3.082   3.147  12.171  0.5331 -0.8969 -0.0078
  661TMC3    C8 9790   3.548   3.002  12.144  0.4036  0.5628  0.0200
  661TMC3    O1 9791   3.096   3.254  12.112 -0.0665 -0.2088  0.1599
  661TMC3    O2 9792   3.650   2.971  12.206 -0.4278 -0.1712  0.7098
  662MPD2     C 9793   3.817   2.266  17.441 -0.3519 -0.1884 -0.0387
  662MPD2    C1 9794   3.721   2.304  17.354 -0.3474  0.8039  0.5613
  662MPD2    C2 9795   3.621   2.381  17.397 -0.0477 -0.0708  0.7732
  662MPD2    C3 9796   3.627   2.439  17.528  0.6882  0.1298  0.0889
  662MPD2    C4 9797   3.721   2.402  17.614  0.4469 -0.3614  0.6743
  662MPD2    C5 9798   3.813   2.314  17.567  0.1390  0.3161  0.0257
  662MPD2     H 9799   3.541   2.406  17.328 -0.4707  1.7013  1.8971
  662MPD2    H1 9800   3.732   2.442   0.019  3.8117 -0.6177  0.4102
  662MPD2    H2 9801   3.906   2.213  17.411 -0.1764  2.0927 -3.6019
  662MPD2    H3 9802   3.898   2.293  17.631  0.2010 -1.7855 -0.7349
  662MPD2     N 9803   3.528   2.522  17.586 -0.3656 -0.5461 -0.1263
  662MPD2    H5 9804   3.543   2.560  17.679 -1.7964 -0.9174  0.2499
  662MPD2    N1 9805   3.709   2.255  17.216 -0.4194  0.8004  1.1258
  662MPD2    H7 9806   3.628   2.279  17.160  0.1293 -1.6918 -0.7093
  663TMC3    C1 9807   3.737   2.114  17.032  0.0486 -0.3534 -0.2157
  663TMC3    C2 9808   3.622   2.163  16.989 -0.1134  0.2215 -0.1465
  663TMC3    C3 9809   3.506   2.084  16.976 -0.0168  0.4507 -0.0649
  663TMC3    C4 9810   3.747   1.981  17.045 -0.0401 -0.0686 -0.4869
  663TMC3    C5 9811   3.632   1.911  17.042 -0.2855  0.2733 -0.3518
  663TMC3    C6 9812   3.502   1.956  17.022  0.2959 -0.8277 -0.3673
  663TMC3     C 9813   3.803   2.184  17.143 -0.1090  0.2073 -0.4246
  663TMC3     O 9814   3.920   2.176  17.156  0.3404 -0.0564 -0.3944
  663TMC3     H 9815   3.605   2.270  16.990 -0.8123  0.1055  0.3464
  663TMC3    H1 9816   3.840   1.932  17.070  0.0872 -0.3552 -1.5131
  663TMC3    H2 9817   3.419   1.887  17.013  0.3044 -0.4701 -3.2658
  663TMC3    C7 9818   3.647   1.774  17.081  0.4279  0.4757  0.1641
  663TMC3    C8 9819   3.399   2.155  17.026  0.4770 -0.5079 -0.4539
  663TMC3    O1 9820   3.754   1.721  17.070 -0.0558  0.6465 -0.0430
  663TMC3    O2 9821   3.358   2.239  16.940 -0.3839  0.3178 -0.1109
  664MPD2     C 9822   1.407   0.909  17.198  0.0991 -0.4269  0.1862
  664MPD2    C1 9823   1.531   0.958  17.228 -0.4145 -0.0701  0.4988
  664MPD2    C2 9824   1.577   0.942  17.358  0.2817 -0.5065 -0.0842
  664MPD2    C3 9825   1.518   0.865  17.452  0.0662 -0.2783 -0.2864
  664MPD2    C4 9826   1.387   0.827  17.424  0.5197  0.0769 -0.4979
  664MPD2    C5 9827   1.332   0.851  17.299  0.1232 -0.0996  0.2608
  664MPD2     H 9828   1.676   0.981  17.378  0.3139 -1.0370  0.7907
  664MPD2    H1 9829   1.323   0.779  17.497 -1.1068  0.4588 -1.6672
  664MPD2    H2 9830   1.348   0.932  17.110  0.4163 -2.6985 -0.6234
  664MPD2    H3 9831   1.232   0.816  17.275  0.3051 -0.0052 -0.6513
  664MPD2     N 9832   1.586   0.843  17.575  0.0120 -0.5743 -0.2689
  664MPD2    H5 9833   1.673   0.894  17.587 -1.3212  1.4242  0.8773
  664MPD2    N1 9834   1.602   1.039  17.139 -0.1156 -0.3162 -0.1972
  664MPD2    H7 9835   1.694   1.071  17.168  1.2448 -1.1110 -3.6649
  665TMC3    C1 9836   1.594   0.808   0.108  0.1184 -0.7458  0.2344
  665TMC3    C2 9837   1.538   0.739   0.211  0.3074 -0.1213 -0.0520
  665TMC3    C3 9838   1.516   0.790   0.334 -0.0751 -0.3132  0.6250
  665TMC3    C4 9839   1.623   0.944   0.127  0.2745 -0.7190  0.4495
  665TMC3    C5 9840   1.592   0.999   0.251 -0.4203  0.3891 -0.1331
  665TMC3    C6 9841   1.539   0.928   0.356  0.1381  0.1964 -0.2839
  665TMC3     C 9842   1.534   0.773  17.679 -0.8742 -0.0789 -0.0574
  665TMC3     O 9843   1.436   0.701  17.687  0.0754 -0.8011  0.3934
  665TMC3     H 9844   1.528   0.633   0.194 -0.8044 -0.5590  3.2871
  665TMC3    H1 9845   1.679   1.001   0.054 -2.3420  0.2339 -0.7786
  665TMC3    H2 9846   1.516   0.963   0.456  1.1038  0.6167 -0.2072
  665TMC3    C7 9847   1.673   1.114   0.285 -1.0422 -0.0193 -0.5065
  665TMC3    C8 9848   1.382   0.753   0.387 -0.2289  0.1022 -0.2171
  665TMC3    O1 9849   1.738   1.153   0.189 -0.3739 -0.0517  0.3560
  665TMC3    O2 9850   1.360   0.802   0.496  0.0784 -0.0758 -0.0601
  666TMC3    C1 9851   0.988   1.249   9.297 -0.6605  0.5501  0.4161
  666TMC3    C2 9852   1.063   1.195   9.396  0.0439 -0.8167  0.2184
  666TMC3    C3 9853   1.075   1.257   9.514 -0.3177  0.2204 -0.6067
  666TMC3    C4 9854   0.933   1.371   9.314 -0.1015 -0.0515  0.3887
  666TMC3    C5 9855   0.944   1.434   9.430  0.6528 -0.2286  0.2642
  666TMC3    C6 9856   1.023   1.381   9.529 -0.7267  0.2796 -0.3436
  666TMC3     C 9857   0.920   1.157   9.207  0.4041  0.1492 -0.4038
  666TMC3     O 9858   0.818   1.186   9.148 -0.0696  0.2151  0.3755
  666TMC3     H 9859   1.118   1.102   9.394  0.0327 -0.8219  0.1136
  666TMC3    H1 9860   0.859   1.397   9.240 -0.4604 -1.0726  0.3982
  666TMC3    H2 9861   1.036   1.443   9.616  0.5664 -0.0996 -0.2754
  666TMC3    C7 9862   0.844   1.519   9.477  0.0057 -0.0103 -0.3045
  666TMC3    C8 9863   1.032   1.173   9.624  0.1481 -0.0440 -0.3566
  666TMC3    O1 9864   0.819   1.509   9.595 -0.3530  0.3241 -0.2656
  666TMC3    O2 9865   1.047   1.047   9.621 -1.3141 -0.6525 -0.4202
  667MPD2     C 9866   2.351   0.833  14.578 -0.0427  0.5387  0.4553
  667MPD2    C1 9867   2.247   0.925  14.615  0.5853 -0.4184  0.0176
  667MPD2    C2 9868   2.116   0.884  14.596  0.1007  0.4117 -0.0277
  667MPD2    C3 9869   2.085   0.782  14.509 -0.4617 -0.2332 -0.5589
  667MPD2    C4 9870   2.188   0.700  14.475 -0.8117 -0.0416  0.1114
  667MPD2    C5 9871   2.320   0.725  14.506  0.5430 -0.0398  0.1658
  667MPD2     H 9872   2.038   0.953  14.629 -3.0787 -2.6659 -1.1457
  667MPD2    H1 9873   2.169   0.614  14.413 -0.3107 -0.1945  0.1709
  667MPD2    H2 9874   2.450   0.840  14.622  0.2791  1.1619 -0.3751
  667MPD2    H3 9875   2.389   0.643  14.493  0.2888 -0.2922  0.4111
  667MPD2     N 9876   1.955   0.745  14.463 -0.4276  0.0586 -0.0792
  667MPD2    H5 9877   1.944   0.667  14.398  2.4814 -1.6403  1.4546
  667MPD2    N1 9878   2.274   1.051  14.677  0.0635 -0.1140 -0.0171
  667MPD2    H7 9879   2.198   1.100  14.722 -1.2854 -1.9781 -0.2574
  668TMC3    C1 9880   2.397   1.198  14.805  0.0014  0.0707 -0.3081
  668TMC3    C2 9881   2.461   1.317  14.790 -0.7005  0.4110 -0.1709
  668TMC3    C3 9882   2.458   1.405  14.894  0.2449  0.5838  0.5513
  668TMC3    C4 9883   2.323   1.172  14.924 -0.4568 -0.0392  0.1490
  668TMC3    C5 9884   2.324   1.260  15.022 -0.5543  0.5562 -0.4782
  668TMC3    C6 9885   2.388   1.385  15.013  0.0996  0.2262 -0.0102
  668TMC3     C 9886   2.401   1.108  14.692  0.8361  0.2505  0.0217
  668TMC3     O 9887   2.504   1.089  14.627 -0.2964  0.7289 -0.1136
  668TMC3     H 9888   2.515   1.344  14.700 -0.2458  0.4439  0.1133
  668TMC3    H1 9889   2.288   1.070  14.935 -0.3169 -0.0618  0.3770
  668TMC3    H2 9890   2.373   1.462  15.088 -0.2985  1.1425 -1.0349
  668TMC3    C7 9891   2.224   1.250  15.123  0.4271 -0.0157  0.1000
  668TMC3    C8 9892   2.547   1.520  14.901  0.3124  0.0890  0.4092
  668TMC3    O1 9893   2.243   1.284  15.237 -0.6897 -0.5661  0.1131
  668TMC3    O2 9894   2.541   1.575  15.010 -0.4441  0.4090  0.2427
  669TMC3    C1 9895   0.223   0.905  14.976 -0.5192  1.3659 -0.1638
  669TMC3    C2 9896   0.115   0.984  14.946  0.3425 -0.0624 -0.4248
  669TMC3    C3 9897   0.137   1.103  14.878 -0.9630 -0.4406 -0.4422
  669TMC3    C4 9898   0.350   0.927  14.924  0.3241  0.0159  0.1821
  669TMC3    C5 9899   0.366   1.036  14.839  0.4154 -0.2946 -0.5145
  669TMC3    C6 9900   0.264   1.125  14.825 -0.8320  0.0488  0.4912
  669TMC3     C 9901   0.186   0.781  15.039  0.1875  0.4208  0.2277
  669TMC3     O 9902   0.070   0.773  15.087  0.1966 -0.0303 -0.1842
  669TMC3     H 9903   0.015   0.964  14.982  0.8623 -0.7757  0.6436
  669TMC3    H1 9904   0.431   0.857  14.938 -1.4499 -1.8827  1.0941
  669TMC3    H2 9905   0.281   1.214  14.766  2.2213  0.1536  1.4880
  669TMC3    C7 9906   0.491   1.061  14.768 -0.7367 -0.4979 -0.4325
  669TMC3    C8 9907   0.019   1.141  14.803  0.0339  0.1680  0.0243
  669TMC3    O1 9908   0.509   1.172  14.729 -0.6032  0.2039  0.6087
  669TMC3    O2 9909   4.643   1.077  14.822  0.1768  0.6567  0.2794
  670MPD2     C 9910   2.789   3.368  13.460 -0.4859  0.0337  0.6108
  670MPD2    C1 9911   2.923   3.357  13.481 -0.4879  0.4229  0.2014
  670MPD2    C2 9912   2.965   3.289  13.590  0.0728  0.0904  0.2902
  670MPD2    C3 9913   2.875   3.242  13.681 -0.6735  0.9300  0.1598
  670MPD2    C4 9914   2.741   3.263  13.665  0.0641  0.0614  0.2329
  670MPD2    C5 9915   2.699   3.334  13.562 -0.4633 -0.3485 -0.2511
  670MPD2     H 9916   3.069   3.272  13.616  0.0556  1.2395  1.0934
  670MPD2    H1 9917   2.671   3.237  13.743 -0.8917 -0.4281 -0.7990
  670MPD2    H2 9918   2.739   3.412  13.374  2.7182  2.9134  0.2307
  670MPD2    H3 9919   2.592   3.338  13.547 -0.5374 -1.1707  0.0944
  670MPD2     N 9920   2.932   3.183  13.801  0.0727  0.3958 -0.3225
  670MPD2    H5 9921   3.032   3.193  13.820  0.4734  0.4842 -2.4964
  670MPD2    N1 9922   3.013   3.402  13.377  0.0622 -0.2102  0.4917
  670MPD2    H7 9923   3.105   3.430  13.409 -0.6942  1.3406  1.2943
  671TMC3    C1 9924   2.933   3.104  14.021 -0.5400  0.1117 -0.3199
  671TMC3    C2 9925   3.055   3.164  14.048 -0.1024  0.4549  0.0509
  671TMC3    C3 9926   3.098   3.153  14.173  0.5217  0.5103  0.6757
  671TMC3    C4 9927   2.863   3.040  14.122 -0.4051 -0.0992  0.9661
  671TMC3    C5 9928   2.916   3.023  14.248 -0.3109 -0.1687  0.9893
  671TMC3    C6 9929   3.043   3.072  14.270 -0.2927 -0.8414 -0.6431
  671TMC3     C 9930   2.859   3.136  13.903  0.2246  0.0033  0.2903
  671TMC3     O 9931   2.741   3.096  13.898  0.4039  0.7679 -0.3412
  671TMC3     H 9932   3.090   3.245  13.986 -2.7630  1.2657 -0.3949
  671TMC3    H1 9933   2.770   2.989  14.099 -0.0313  0.3890 -1.5276
  671TMC3    H2 9934   3.093   3.061  14.366 -2.0790  1.7905  0.5680
  671TMC3    C7 9935   2.843   2.941  14.338  0.2666 -0.3512  0.4436
  671TMC3    C8 9936   3.242   3.156  14.184 -0.8080  0.0659 -0.0127
  671TMC3    O1 9937   2.733   2.902  14.302  0.7214 -0.3400 -0.5120
  671TMC3    O2 9938   3.287   3.165  14.296 -0.3565 -0.3937  0.1534
  672MPD2     C 9939   2.697   3.706   1.181  0.7353  0.1720  0.3578
  672MPD2    C1 9940   2.663   3.841   1.179  0.5154  0.2756 -0.2854
  672MPD2    C2 9941   2.605   3.896   1.286 -0.0478 -0.5835 -0.5317
  672MPD2    C3 9942   2.592   3.825   1.406 -0.3417  0.0956  0.0049
  672MPD2    C4 9943   2.606   3.682   1.400  0.0283  0.1009  0.5392
  672MPD2    C5 9944   2.665   3.633   1.289 -0.0886  1.1617  0.5807
  672MPD2     H 9945   2.598   4.003   1.271 -2.2136 -0.9295 -1.9628
  672MPD2    H1 9946   2.582   3.615   1.482 -1.7018 -0.1548 -0.1817
  672MPD2    H2 9947   2.736   3.666   1.088 -0.0540 -0.7293  0.4183
  672MPD2    H3 9948   2.677   3.525   1.289  0.2561  1.2031  1.2261
  672MPD2     N 9949   2.550   3.894   1.521  0.2331 -0.1941 -0.5588
  672MPD2    H5 9950   2.515   3.834   1.595 -0.7729  1.2161  0.1127
  672MPD2    N1 9951   2.679   3.923   1.065 -0.0815 -0.0331 -0.5332
  672MPD2    H7 9952   2.661   4.022   1.077 -4.8086 -1.0941  1.2073
  673TMC3    C1 9953   2.774   3.988   0.855  0.1690 -0.3011 -0.1457
  673TMC3    C2 9954   2.881   3.985   0.773  0.1677  0.4093  0.6934
  673TMC3    C3 9955   2.918   4.079   0.688 -0.2556 -0.0171 -0.3869
  673TMC3    C4 9956   2.694   4.100   0.832 -0.1621  0.5907  0.3097
  673TMC3    C5 9957   2.739   4.200   0.759 -0.1798  0.0373  0.0913
  673TMC3    C6 9958   2.848   4.195   0.682  0.0356 -0.4205  0.5922
  673TMC3     C 9959   2.752   3.887   0.951 -0.1877 -0.4318 -0.3385
  673TMC3     O 9960   2.810   3.787   0.922 -0.5631  0.4674  0.2105
  673TMC3     H 9961   2.933   3.890   0.763 -2.2016 -0.9705  1.5110
  673TMC3    H1 9962   2.606   4.110   0.895 -1.7033 -0.9879 -1.5979
  673TMC3    H2 9963   2.898   4.276   0.631 -0.3947  0.1600  1.1028
  673TMC3    C7 9964   2.674   4.333   0.774  0.3215 -0.5608  0.8145
  673TMC3    C8 9965   3.049   4.089   0.622  0.2003  0.3101  0.3745
  673TMC3    O1 9966   2.609   4.338   0.880 -0.5066 -0.8332 -0.4267
  673TMC3    O2 9967   3.047   4.130   0.507  0.2699  0.4658  1.3375
  674MPD2     C 9968   2.932   3.714   0.520  0.7665  0.0732  0.6132
  674MPD2    C1 9969   3.055   3.657   0.487  0.3966  0.0989 -0.2967
  674MPD2    C2 9970   3.107   3.565   0.576  0.0864 -0.1981  0.9028
  674MPD2    C3 9971   3.029   3.519   0.680 -0.0033 -0.2141 -0.3020
  674MPD2    C4 9972   2.900   3.570   0.706  0.3018  0.2328  0.0678
  674MPD2    C5 9973   2.850   3.671   0.629  0.5670 -0.1053 -0.4868
  674MPD2     H 9974   3.197   3.510   0.551 -0.7951 -0.9828 -0.5689
  674MPD2    H1 9975   2.840   3.541   0.791  1.0788 -0.6638  0.3105
  674MPD2    H2 9976   2.896   3.795   0.459 -3.0446  0.8021  3.8173
  674MPD2    H3 9977   2.747   3.694   0.656 -0.1511 -0.9874 -2.4843
  674MPD2     N 9978   3.084   3.417   0.760 -0.2465 -0.0026  0.0627
  674MPD2    H5 9979   3.174   3.386   0.725 -0.1615 -0.3562  0.6040
  674MPD2    N1 9980   3.132   3.712   0.381 -0.5213  0.3685  0.4687
  674MPD2    H7 9981   3.083   3.787   0.332 -1.1745  1.0621  2.1513
  675TMC3    C1 9982   3.294   3.730   0.213  0.3724  0.4780 -0.5582
  675TMC3    C2 9983   3.422   3.681   0.186  0.6336 -0.0681  0.8380
  675TMC3    C3 9984   3.453   3.612   0.070 -0.4084  0.3150 -0.2856
  675TMC3    C4 9985   3.201   3.713   0.110  0.0400 -0.2141 -0.0675
  675TMC3    C5 9986   3.237   3.651  17.689  0.5104 -0.1335  0.0004
  675TMC3    C6 9987   3.358   3.586  17.670 -0.7752 -0.1766 -0.1680
  675TMC3     C 9988   3.263   3.676   0.342  0.2759  0.2944  0.1021
  675TMC3     O 9989   3.339   3.595   0.389 -0.0390  0.5048 -0.2277
  675TMC3     H 9990   3.498   3.703   0.260  2.1625 -1.8819 -0.2094
  675TMC3    H1 9991   3.104   3.757   0.131  0.6448  0.3852  1.3843
  675TMC3    H2 9992   3.384   3.556  17.569 -0.1617  0.1764 -0.1124
  675TMC3    C7 9993   3.157   3.674  17.568 -0.2171 -0.0311  0.0468
  675TMC3    C8 9994   3.553   3.505   0.100  0.1480  0.3760 -0.0424
  675TMC3    O1 9995   3.175   3.597  17.475 -0.1529 -0.4002 -0.4705
  675TMC3    O2 9996   3.608   3.443   0.010  0.2715 -0.2530 -0.0277
  676MPD2     C 9997   1.063   1.597  11.213  0.1463  0.1317  0.3546
  676MPD2    C1 9998   1.015   1.513  11.314 -0.2748 -0.3443 -0.5458
  676MPD2    C2 9999   0.945   1.399  11.282 -0.1060  0.3479 -0.2444
  676MPD2    C310000   0.917   1.367  11.152  0.2596  0.2619 -0.2122
  676MPD2    C410001   0.959   1.449  11.055  0.0911  0.0783 -0.9514
  676MPD2    C510002   1.030   1.564  11.083 -0.8496 -0.3059  0.0009
  676MPD2     H10003   0.924   1.330  11.363  1.1311  0.7536  0.4285
  676MPD2    H110004   0.931   1.435  10.951 -2.3038  0.5618 -0.3776
  676MPD2    H210005   1.116   1.689  11.234 -0.8210  1.2874 -2.3017
  676MPD2    H310006   1.057   1.632  11.003  1.6769 -1.2515  0.0412
  676MPD2     N10007   0.856   1.247  11.115  0.0972 -0.3275  0.0660
  676MPD2    H510008   0.850   1.229  11.015 -1.8226  1.8484 -0.2006
  676MPD2    N110009   1.031   1.534  11.454 -0.6617  0.1329  0.4605
  676MPD2    H710010   0.978   1.475  11.517  1.3016 -1.2310  0.8160
  677TMC3    C110011   1.093   1.651  11.648  0.3346  0.0490 -0.4130
  677TMC3    C210012   1.092   1.539  11.731 -0.2235 -0.1350 -0.0110
  677TMC3    C310013   1.082   1.556  11.865  0.7132 -0.0421 -0.2036
  677TMC3    C410014   1.089   1.773  11.706 -0.8280 -0.0337 -0.2323
  677TMC3    C510015   1.061   1.783  11.843 -0.5215 -0.6461 -0.1135
  677TMC3    C610016   1.049   1.679  11.924 -0.6305 -0.4945 -0.9978
  677TMC3     C10017   1.098   1.645  11.505 -0.0188 -0.4013  0.0597
  677TMC3     O10018   1.131   1.755  11.459  0.3787  0.5805 -0.2221
  677TMC3     H10019   1.100   1.439  11.689  0.4648 -0.2800  0.4500
  677TMC3    H110020   1.086   1.862  11.644 -1.5054 -1.0306 -1.6357
  677TMC3    H210021   1.006   1.675  12.023  0.6416  1.4475 -0.3682
  677TMC3    C710022   1.094   1.902  11.913  1.0487 -0.0047  0.6214
  677TMC3    C810023   1.090   1.427  11.935 -0.6619 -0.4286  0.5696
  677TMC3    O110024   1.040   1.916  12.023 -0.5624 -0.0880  0.0733
  677TMC3    O210025   1.074   1.324  11.871  0.3001  0.4382 -0.7783
  678MPD2     C10026   2.714   2.100   1.323  0.3315 -0.2521  0.4630
  678MPD2    C110027   2.712   1.984   1.248 -0.0213 -0.1659  0.3084
  678MPD2    C210028   2.585   1.931   1.219  0.3510 -0.0244  0.1299
  678MPD2    C310029   2.470   1.981   1.270 -0.6464 -0.2003 -0.1627
  678MPD2    C410030   2.480   2.096   1.343  0.1190  0.2219  0.3474
  678MPD2    C510031   2.602   2.154   1.373  0.6723 -0.1888  0.4025
  678MPD2     H10032   2.589   1.842   1.157 -1.8161  0.1181 -0.2186
  678MPD2    H110033   2.384   2.138   1.371  0.1720  0.5565  0.0360
  678MPD2    H210034   2.808   2.145   1.352  0.4905 -0.4734  0.2983
  678MPD2    H310035   2.611   2.246   1.430 -1.3979  0.1239  0.2170
  678MPD2     N10036   2.347   1.927   1.231  0.1658  0.4848 -0.2782
  678MPD2    H510037   2.344   1.852   1.163  0.1611 -0.7575  1.1088
  678MPD2    N110038   2.816   1.905   1.221 -0.0819 -0.2046 -0.5878
  678MPD2    H710039   2.798   1.820   1.168  0.8358  1.0715 -2.9697
  679TMC3    C110040   3.108   1.618   1.139  0.4005  0.2104 -0.2223
  679TMC3    C210041   3.032   1.710   1.209 -0.4149 -0.7716 -0.1125
  679TMC3    C310042   3.034   1.839   1.170 -0.2818 -0.1832  0.8968
  679TMC3    C410043   3.191   1.656   1.035  0.1482  0.2763  0.2709
  679TMC3    C510044   3.202   1.789   1.012  0.3298  0.4035  0.2457
  679TMC3    C610045   3.125   1.883   1.077 -0.4355  0.7402 -0.6591
  679TMC3     C10046   3.133   1.482   1.185 -0.6675 -0.0688  0.8279
  679TMC3     O10047   3.226   1.421   1.137 -0.2480  0.2771 -0.3361
  679TMC3     H10048   2.968   1.670   1.286 -0.8138 -1.1679 -0.6454
  679TMC3    H110049   3.239   1.579   0.976  0.8218 -0.4496  1.7462
  679TMC3    H210050   3.129   1.989   1.051  2.0006  1.0603  1.0093
  679TMC3    C710051   3.249   1.827   0.882  0.2577 -1.0941  0.8456
  679TMC3    C810052   2.944   1.943   1.223 -0.4967  0.0668  0.0079
  679TMC3    O110053   3.192   1.931   0.846 -0.0102 -0.4591  0.2764
  679TMC3    O210054   2.992   2.049   1.252 -0.2658 -0.0805 -0.5904
  680MPD2     C10055   2.641   0.856  13.566  0.0978 -0.1941 -0.3885
  680MPD2    C110056   2.713   0.806  13.672  0.7021 -0.0961 -0.4671
  680MPD2    C210057   2.827   0.866  13.718 -0.3797  0.5922 -0.7711
  680MPD2    C310058   2.883   0.973  13.652 -0.2640 -0.6984 -0.6102
  680MPD2    C410059   2.800   1.022  13.553 -0.1944 -0.3222  0.3721
  680MPD2    C510060   2.688   0.965  13.507  0.1580 -0.0873 -0.3645
  680MPD2     H10061   2.881   0.815  13.797  0.0582  1.6271 -0.4071
  680MPD2    H110062   2.819   1.121  13.514 -0.0199 -1.2117 -1.7681
  680MPD2    H210063   2.546   0.807  13.550 -0.7414  1.0356  0.8241
  680MPD2    H310064   2.634   0.996  13.418 -0.4975 -0.1427  0.0145
  680MPD2     N10065   3.005   1.039  13.682 -0.0056 -0.0760  0.3355
  680MPD2    H510066   3.039   1.106  13.614 -0.5709 -0.2033 -0.0752
  680MPD2    N110067   2.677   0.690  13.741 -0.1543 -0.4130 -0.2955
  680MPD2    H710068   2.735   0.669  13.822  0.0894  1.4760  0.0075
  681TMC3    C110069   2.595   0.488  13.781  0.7607 -0.3421 -0.2786
  681TMC3    C210070   2.606   0.530  13.911  0.5640 -0.3902 -0.1265
  681TMC3    C310071   2.681   0.454  14.006  0.6319  0.3251 -0.2170
  681TMC3    C410072   2.671   0.382  13.741  0.3305 -0.5723 -0.3568
  681TMC3    C510073   2.747   0.314  13.833 -0.1901 -0.6067  0.4726
  681TMC3    C610074   2.741   0.342  13.966 -0.0110  0.2500 -0.8000
  681TMC3     C10075   2.580   0.602  13.699 -0.6246 -0.1118 -0.1224
  681TMC3     O10076   2.512   0.600  13.599 -0.5828  0.3804  0.1290
  681TMC3     H10077   2.567   0.626  13.944 -1.2810 -0.3444 -2.4056
  681TMC3    H110078   2.673   0.357  13.635  0.4468 -1.4981 -0.1331
  681TMC3    H210079   2.796   0.288  14.042 -1.5767 -1.2140 -0.7139
  681TMC3    C710080   2.830   0.213  13.782  0.4053  0.1400  0.2004
  681TMC3    C810081   2.683   0.501  14.142  0.5653  0.1643 -0.3785
  681TMC3    O110082   2.865   0.125  13.857  0.1926 -0.4218  0.4891
  681TMC3    O210083   2.599   0.584  14.169 -0.1778  0.2287  0.4103
  682MPD2     C10084   0.122   2.124  10.380  0.1025  1.1184  0.5631
  682MPD2    C110085   0.199   2.013  10.384  0.1326 -0.2316 -0.1974
  682MPD2    C210086   0.255   1.967  10.501 -0.0221  0.2087  0.2559
  682MPD2    C310087   0.228   2.027  10.620  0.5171  0.4892  0.4057
  682MPD2    C410088   0.139   2.138  10.620  0.4550  0.0675 -0.0717
  682MPD2    C510089   0.082   2.178  10.502  0.5145 -0.8347  0.3271
  682MPD2     H10090   0.330   1.890  10.486 -0.6532 -0.5257  0.8698
  682MPD2    H110091   0.111   2.183  10.715  1.0013 -1.5586  0.8634
  682MPD2    H210092   0.068   2.168  10.298 -0.3931 -0.3236  0.1236
  682MPD2    H310093   0.027   2.272  10.504  0.1933 -1.0272  0.6211
  682MPD2     N10094   0.277   1.981  10.744  0.7460 -0.5216  0.1054
  682MPD2    H510095   0.233   2.012  10.830 -0.0995 -1.2909 -0.0433
  682MPD2    N110096   0.224   1.942  10.269 -0.2798  0.7144  0.0406
  682MPD2    H710097   0.256   1.847  10.282 -0.9725  0.5290  0.3470
  683TMC3    C110098   0.377   1.841  11.123  0.5228 -0.3946  0.0393
  683TMC3    C210099   0.422   1.720  11.142 -0.1436 -0.2188 -0.4090
  683TMC3    C310100   0.469   1.665  11.023  0.0979 -0.2300  0.0243
  683TMC3    C410101   0.371   1.913  11.004 -0.8137 -0.1008 -0.4972
  683TMC3    C510102   0.407   1.850  10.890 -0.1295 -0.0364 -0.8820
  683TMC3    C610103   0.459   1.724  10.900  0.4869  0.1328  0.6134
  683TMC3     C10104   0.344   1.918  11.245  0.1682  0.0710 -0.3537
  683TMC3     O10105   0.352   2.041  11.239  0.2219 -0.1342 -0.4724
  683TMC3     H10106   0.443   1.673  11.237  0.9238 -0.4078 -0.7465
  683TMC3    H110107   0.330   2.013  10.997  1.0186  0.6790  0.0178
  683TMC3    H210108   0.487   1.675  10.807  1.5478  0.9376  0.5088
  683TMC3    C710109   0.383   1.894  10.753 -0.2184 -0.2416 -0.0970
  683TMC3    C810110   0.436   1.527  10.995 -0.2252 -0.1034 -0.3734
  683TMC3    O110111   0.441   1.833  10.664 -0.3621  0.3542 -0.6418
  683TMC3    O210112   0.390   1.498  10.884 -0.2351 -0.1286 -0.3295
  684MPD2     C10113   3.032   1.759  16.412  0.4581  0.8732  0.0808
  684MPD2    C110114   3.161   1.720  16.449  0.2186 -0.3773  0.1729
  684MPD2    C210115   3.251   1.817  16.481  0.2457  0.4183 -0.6160
  684MPD2    C310116   3.215   1.954  16.464 -0.2410 -0.0414 -0.4188
  684MPD2    C410117   3.092   1.987  16.418 -0.5188  0.1841  0.5468
  684MPD2    C510118   2.998   1.890  16.401 -0.1880 -0.3522  0.2722
  684MPD2     H10119   3.348   1.792  16.523 -1.1810  0.6753  2.8160
  684MPD2    H110120   3.055   2.086  16.391 -2.2472 -0.1969  1.5000
  684MPD2    H210121   2.951   1.689  16.394 -0.0872  1.7102 -0.6532
  684MPD2    H310122   2.896   1.921  16.378  0.1319 -1.8116 -3.1819
  684MPD2     N10123   3.314   2.056  16.478  0.2471  0.1640 -0.2087
  684MPD2    H510124   3.288   2.145  16.437  0.9076  0.2649 -0.4152
  684MPD2    N110125   3.216   1.593  16.420  0.8882 -0.2313 -0.4964
  684MPD2    H710126   3.317   1.597  16.422  0.8872  0.6829 -2.1097
  685TMC3    C110127   3.244   1.389  16.322 -0.7196  0.6023 -0.6206
  685TMC3    C210128   3.216   1.336  16.198 -0.3633 -0.0486  0.7769
  685TMC3    C310129   3.311   1.262  16.139  0.0000  0.1682 -0.3924
  685TMC3    C410130   3.363   1.363  16.388  0.1760 -0.4163  0.7025
  685TMC3    C510131   3.465   1.304  16.318 -0.2602  0.5641  1.1540
  685TMC3    C610132   3.438   1.249  16.192  0.0821 -0.6693  0.0992
  685TMC3     C10133   3.151   1.485  16.370 -0.7167 -0.2791 -0.6129
  685TMC3     O10134   3.040   1.474  16.318  0.0330 -0.1277  0.0551
  685TMC3     H10135   3.118   1.348  16.152 -0.0250  0.4516  0.1809
  685TMC3    H110136   3.371   1.409  16.485 -2.7209 -0.7798  1.1212
  685TMC3    H210137   3.503   1.173  16.150  1.5595  0.8244 -0.3252
  685TMC3    C710138   3.602   1.318  16.361  0.3568 -0.0694  0.4110
  685TMC3    C810139   3.280   1.169  16.039 -0.0770  0.3087 -0.1577
  685TMC3    O110140   3.628   1.342  16.479 -0.0948 -0.4164 -0.0951
  685TMC3    O210141   3.350   1.070  16.027  0.8567  0.7105  0.4860
  686MPD2     C10142   0.086   0.828  15.497 -0.0737 -0.6321  0.1593
  686MPD2    C110143   0.097   0.814  15.637 -0.1932 -0.0463 -0.0138
  686MPD2    C210144   0.174   0.711  15.685 -0.2542 -0.0101 -0.3148
  686MPD2    C310145   0.222   0.610  15.599  0.0694  0.3739 -0.1962
  686MPD2    C410146   0.210   0.624  15.470 -0.4382 -0.8691  0.6931
  686MPD2    C510147   0.146   0.734  15.415 -0.9262  0.0240 -0.0149
  686MPD2     H10148   0.180   0.710  15.794 -1.5132  1.8942 -0.2376
  686MPD2    H110149   0.261   0.554  15.404  0.4191  0.2247  0.2052
  686MPD2    H210150   0.023   0.906  15.454 -0.8857 -1.2346  0.2482
  686MPD2    H310151   0.138   0.743  15.307 -2.4955  0.7040  0.1574
  686MPD2     N10152   0.306   0.503  15.637 -0.2351 -0.1969  0.2317
  686MPD2    H510153   0.356   0.456  15.563 -2.4836 -1.4168 -0.5261
  686MPD2    N110154   0.035   0.901  15.722  0.0021 -0.5782  0.1621
  686MPD2    H710155   4.689   0.962  15.681  0.2463 -0.1818  0.3279
  687TMC3    C110156   0.274   0.497  15.873  0.1235  0.4964  0.0130
  687TMC3    C210157   0.142   0.472  15.876  0.0550 -0.1107  0.8633
  687TMC3    C310158   0.074   0.473  15.994  0.0881 -0.0470 -0.3163
  687TMC3    C410159   0.346   0.529  15.990 -0.3882 -0.4899  0.8388
  687TMC3    C510160   0.264   0.545  16.106 -0.4675 -0.2482  0.4849
  687TMC3    C610161   0.131   0.516  16.114  0.6137  0.0760  1.0068
  687TMC3     C10162   0.355   0.466  15.759 -0.1756 -0.5434 -0.2950
  687TMC3     O10163   0.452   0.395  15.769 -0.1393  0.2687 -0.0900
  687TMC3     H10164   0.096   0.452  15.780 -0.6265  1.7973  0.7953
  687TMC3    H110165   0.454   0.539  15.987 -0.8180  3.9704  0.2063
  687TMC3    H210166   0.074   0.535  16.203  0.1524  0.7259  0.5744
  687TMC3    C710167   0.322   0.617  16.218  0.6092  0.2547  0.0893
  687TMC3    C810168   4.657   0.492  15.998 -0.3752 -0.4691  0.4268
  687TMC3    O110169   0.251   0.689  16.286 -0.5681 -0.3712  0.1292
  687TMC3    O210170   4.601   0.495  16.107 -0.3200 -0.1175 -0.1167
  688MPD2     C10171   3.782   0.372  17.408  0.0268 -0.3605  0.2705
  688MPD2    C110172   3.784   0.238  17.448 -0.0048  0.2015  0.1906
  688MPD2    C210173   3.910   0.171  17.437 -0.4431 -0.5075  0.1828
  688MPD2    C310174   4.024   0.238  17.379  0.1091 -0.4990  0.1431
  688MPD2    C410175   4.016   0.374  17.359 -0.5277  0.4307  0.0238
  688MPD2    C510176   3.893   0.438  17.366  0.1455  0.6114 -0.1694
  688MPD2     H10177   3.915   0.067  17.466  0.9675 -0.2289  0.9563
  688MPD2    H110178   4.087   0.436  17.305  0.4131 -0.2275  0.5201
  688MPD2    H210179   3.699   0.442  17.417  1.3895  1.1895  0.7792
  688MPD2    H310180   3.890   0.545  17.345  2.3610  0.6848 -0.1465
  688MPD2     N10181   4.148   0.177  17.363  0.6656  0.0602 -0.0671
  688MPD2    H510182   4.214   0.243  17.324 -0.3864  0.0598 -1.8606
  688MPD2    N110183   3.671   0.158  17.501  0.7878  0.6817  0.5001
  688MPD2    H710184   3.689   0.061  17.525 -1.9140  0.2365  0.7259
  689TMC3    C110185   3.448   0.117  17.576  0.6333 -0.6251  0.1864
  689TMC3    C210186   3.349   0.179  17.647 -0.3878 -0.2447  0.1656
  689TMC3    C310187   3.313   0.119   0.075 -0.3125  0.7862 -0.2655
  689TMC3    C410188   3.486   4.716  17.607  0.2432  0.3902  0.5094
  689TMC3    C510189   3.436   4.656   0.023 -0.8652  0.4521  0.5082
  689TMC3    C610190   3.362   4.715   0.115  0.0038  0.3402 -0.0941
  689TMC3     C10191   3.552   0.212  17.518  0.2795  0.0560  0.1898
  689TMC3     O10192   3.509   0.324  17.491  0.0870 -0.2941  0.1805
  689TMC3     H10193   3.328   0.285  17.634  1.3890  0.1146  0.2043
  689TMC3    H110194   3.565   4.655  17.565 -0.8089 -0.4420 -0.2728
  689TMC3    H210195   3.339   4.673   0.212 -1.9893 -0.3516 -0.8555
  689TMC3    C710196   3.475   4.521   0.053  0.6745 -0.0245 -0.0408
  689TMC3    C810197   3.222   0.187   0.168 -0.1482 -0.4511 -0.6673
  689TMC3    O110198   3.485   4.498   0.176  0.3747 -0.2914 -0.3015
  689TMC3    O210199   3.196   0.117   0.262 -0.4741 -0.7320 -0.1269
  690MPD2     C10200   1.447   2.090  15.614 -0.0641  0.9742  0.1096
  690MPD2    C110201   1.529   1.985  15.631 -0.2281 -0.2333 -0.4037
  690MPD2    C210202   1.669   2.003  15.635  0.4097 -0.5204 -0.0948
  690MPD2    C310203   1.728   2.134  15.610  0.0353 -0.0241 -0.6642
  690MPD2    C410204   1.639   2.241  15.617 -0.4335  0.9349  0.4834
  690MPD2    C510205   1.501   2.213  15.609  0.2363  0.0762  0.3135
  690MPD2     H10206   1.734   1.916  15.637  0.7788 -0.2740 -1.4577
  690MPD2    H110207   1.671   2.344  15.622  0.2784  0.8736 -2.6771
  690MPD2    H210208   1.339   2.079  15.609 -0.0227  0.7604 -0.2807
  690MPD2    H310209   1.430   2.290  15.582 -0.1742 -0.2613  0.4295
  690MPD2     N10210   1.868   2.148  15.599  0.4132 -0.0999  0.2040
  690MPD2    H510211   1.916   2.059  15.605  1.2149  0.3011 -0.2548
  690MPD2    N110212   1.467   1.859  15.647 -0.4241 -0.4314 -0.3092
  690MPD2    H710213   1.371   1.850  15.617 -0.6023 -2.4049  0.8894
  691TMC3    C110214   1.442   1.627  15.696  0.0361  0.2668  0.5715
  691TMC3    C210215   1.321   1.649  15.752  0.1198  0.7715  0.0403
  691TMC3    C310216   1.235   1.549  15.767  0.4546  0.1827  0.4355
  691TMC3    C410217   1.484   1.496  15.671 -1.0812  0.3863  0.0253
  691TMC3    C510218   1.393   1.398  15.693 -0.2794  1.4587  0.0536
  691TMC3    C610219   1.264   1.420  15.734  0.2703 -0.0373 -0.6998
  691TMC3     C10220   1.527   1.735  15.666  0.1756 -0.1739  0.3571
  691TMC3     O10221   1.644   1.707  15.660  0.6409  0.2348  0.1583
  691TMC3     H10222   1.288   1.752  15.764  0.3726  1.0430 -1.5716
  691TMC3    H110223   1.586   1.471  15.645 -0.7412  1.9541 -0.1473
  691TMC3    H210224   1.195   1.342  15.762  0.6626  0.4543  1.6118
  691TMC3    C710225   1.418   1.273  15.612 -0.7444  0.2100 -0.5051
  691TMC3    C810226   1.097   1.590  15.747  0.4790 -0.1376 -0.1664
  691TMC3    O110227   1.521   1.261  15.545 -0.4566  0.1259 -0.1832
  691TMC3    O210228   1.045   1.510  15.668  0.0747  0.4598  0.5980
  692TMC3    C110229   3.140   3.198  16.124 -0.5996  0.1605 -0.1186
  692TMC3    C210230   3.260   3.231  16.168  0.2390  0.7523 -0.5275
  692TMC3    C310231   3.374   3.152  16.151 -0.0140 -0.0904 -0.8339
  692TMC3    C410232   3.120   3.091  16.038 -0.4024  1.1109 -0.0800
  692TMC3    C510233   3.236   3.031  15.995  0.1644  0.4734  0.2350
  692TMC3    C610234   3.354   3.055  16.058  0.8681  0.4793 -0.6704
  692TMC3     C10235   3.027   3.265  16.179 -0.3192 -0.5395 -0.3413
  692TMC3     O10236   2.926   3.197  16.171 -0.4297  0.4816  0.4980
  692TMC3     H10237   3.262   3.298  16.253  2.7098  0.4648 -0.3558
  692TMC3    H110238   3.021   3.051  16.020  1.1509 -1.9333 -1.9027
  692TMC3    H210239   3.440   3.012  16.009  0.7913 -2.1087  1.4274
  692TMC3    C710240   3.223   2.892  15.941  0.6995  0.0238 -0.3938
  692TMC3    C810241   3.427   3.070  16.266 -0.1195 -0.0800 -0.0581
  692TMC3    O110242   3.114   2.873  15.889  0.1833  0.0424 -0.5400
  692TMC3    O210243   3.448   2.953  16.233  0.3519  0.4036  0.3403
  693MPD2     C10244   2.154   1.273  10.979  0.0586 -0.4913 -0.1192
  693MPD2    C110245   2.151   1.141  10.964  0.8736 -0.0958  0.3393
  693MPD2    C210246   2.267   1.066  10.977  0.5915 -0.3600 -0.1468
  693MPD2    C310247   2.390   1.121  10.975  0.1353 -0.0303 -0.5249
  693MPD2    C410248   2.394   1.257  10.970 -0.3679  0.1469  0.2313
  693MPD2    C510249   2.279   1.329  10.969 -0.2765 -0.1488 -0.1806
  693MPD2     H10250   2.271   0.958  10.972  1.1243 -0.2505 -1.9026
  693MPD2    H110251   2.482   1.319  10.963 -1.4384  1.6046 -0.2428
  693MPD2    H210252   2.059   1.321  10.960 -0.7239 -2.2806 -0.7154
  693MPD2    H310253   2.284   1.432  10.936  0.1389  0.2257  1.0373
  693MPD2     N10254   2.513   1.048  10.967 -0.0448  0.3609 -0.2896
  693MPD2    H510255   2.601   1.084  11.001 -0.7838  3.1213 -1.3425
  693MPD2    N110256   2.027   1.076  10.973  0.2785  0.0689  0.3624
  693MPD2    H710257   1.944   1.130  10.994 -0.3892 -0.2826 -1.3292
  694TMC3    C110258   1.872   0.904  10.957  0.8898 -0.4881  0.4091
  694TMC3    C210259   1.856   0.810  10.863 -0.4267 -0.2378 -0.5343
  694TMC3    C310260   1.779   0.706  10.895 -0.2097 -0.0111  0.4131
  694TMC3    C410261   1.819   0.896  11.079 -0.1414  0.3490 -1.8494
  694TMC3    C510262   1.744   0.777  11.107 -0.2646 -0.4379 -0.9227
  694TMC3    C610263   1.722   0.686  11.015 -0.2828 -0.2684 -0.4865
  694TMC3     C10264   2.012   0.941  10.951  0.3521  0.4013  0.6338
  694TMC3     O10265   2.093   0.848  10.925 -0.2572  0.2710  0.5498
  694TMC3     H10266   1.897   0.817  10.763 -1.5275 -1.8937 -1.1007
  694TMC3    H110267   1.819   0.976  11.153 -0.5825 -0.7655 -0.6474
  694TMC3    H210268   1.633   0.623  11.021 -1.5046  1.7625  2.7664
  694TMC3    C710269   1.674   0.764  11.232 -0.1857  0.3607 -0.1681
  694TMC3    C810270   1.716   0.633  10.787  0.4690  0.5684 -0.0703
  694TMC3    O110271   1.618   0.868  11.275  0.0272 -0.4748  0.4121
  694TMC3    O210272   1.682   0.520  10.820 -0.1160 -0.5544  0.2548
  695MPD2     C10273   2.839   2.312  14.775  0.8014  0.3964 -0.5202
  695MPD2    C110274   2.869   2.396  14.671 -0.2367  0.3693  0.3108
  695MPD2    C210275   2.754   2.458  14.609  0.2394  0.4126 -0.2163
  695MPD2    C310276   2.631   2.433  14.652 -0.5434  0.3243 -0.4467
  695MPD2    C410277   2.613   2.347  14.758  0.3507 -0.1839  0.2481
  695MPD2    C510278   2.709   2.274  14.812  0.2706 -0.3991 -0.0787
  695MPD2     H10279   2.770   2.533  14.533 -0.4912  0.4236 -0.3646
  695MPD2    H110280   2.515   2.324  14.796 -1.3854  2.8771 -2.3590
  695MPD2    H210281   2.918   2.259  14.827  2.2466  0.8701 -2.2538
  695MPD2    H310282   2.705   2.215  14.903 -3.0782 -1.0396 -0.6324
  695MPD2     N10283   2.528   2.509  14.590 -0.3103 -0.0790 -0.0308
  695MPD2    H510284   2.556   2.585  14.529 -0.5147  1.8136  2.2349
  695MPD2    N110285   2.995   2.443  14.637  0.0898 -0.0843  0.1088
  695MPD2    H710286   3.002   2.496  14.550  2.4311 -1.5184 -0.5829
  696TMC3    C110287   2.317   2.606  14.589  0.4300 -0.1392  0.5974
  696TMC3    C210288   2.348   2.678  14.702  0.1779  0.2968  0.4835
  696TMC3    C310289   2.325   2.811  14.693 -0.5305 -0.5719  0.4673
  696TMC3    C410290   2.282   2.661  14.469 -0.2663  0.5765  0.4849
  696TMC3    C510291   2.251   2.795  14.469  0.2013 -0.0239 -0.1313
  696TMC3    C610292   2.264   2.877  14.577 -0.4080 -0.4319 -0.7044
  696TMC3     C10293   2.393   2.485  14.597 -0.4066  0.1598 -0.7501
  696TMC3     O10294   2.336   2.393  14.655 -0.0975 -0.0320 -0.3374
  696TMC3     H10295   2.380   2.629  14.794  1.9481 -0.7594 -0.7156
  696TMC3    H110296   2.266   2.600  14.381  0.2815  2.6248 -1.0107
  696TMC3    H210297   2.224   2.977  14.584  0.6303 -0.0550 -0.1231
  696TMC3    C710298   2.275   2.872  14.345  0.7645  0.1639  0.4451
  696TMC3    C810299   2.449   2.893  14.707  0.1945  0.2159  0.0467
  696TMC3    O110300   2.242   2.833  14.233  0.1100 -0.6718  0.0215
  696TMC3    O210301   2.457   2.992  14.634 -0.5445  0.1027 -0.1831
  697MPD2     C10302   2.452   0.052  15.836  0.3309  0.0417  0.3529
  697MPD2    C110303   2.499   4.710  15.728  0.6150 -0.6955 -0.3261
  697MPD2    C210304   2.499   0.060  15.614 -0.1904 -0.1862  0.6517
  697MPD2    C310305   2.463   0.191  15.603 -0.3293  0.7545  0.1369
  697MPD2    C410306   2.414   0.256  15.714 -0.1730  0.1285 -0.0263
  697MPD2    C510307   2.414   0.181  15.828  0.0279  0.1904 -0.4388
  697MPD2     H10308   2.546   0.003  15.535 -2.0761 -0.5233 -0.2075
  697MPD2    H110309   2.375   0.357  15.716  0.5028  0.4052 -0.7103
  697MPD2    H210310   2.450   0.013  15.937 -1.7365  1.1390  0.7273
  697MPD2    H310311   2.380   0.238  15.913 -0.0772 -0.7469  0.1527
  697MPD2     N10312   2.479   0.264  15.483  1.0042 -0.5101 -0.1878
  697MPD2    H510313   2.449   0.360  15.494 -0.1120 -0.7518 -1.1273
  697MPD2    N110314   2.523   4.565  15.733  0.3787 -0.4077  0.2262
  697MPD2    H710315   2.555   4.530  15.643 -0.0700  0.0164 -0.0950
  698TMC3    C110316   2.527   0.319  15.259 -0.2693  0.0860 -0.2414
  698TMC3    C210317   2.580   0.441  15.300  0.4923 -0.2189 -0.6191
  698TMC3    C310318   2.611   0.532  15.200 -0.8535 -0.1141  0.6598
  698TMC3    C410319   2.512   0.286  15.126  0.3735  0.5313 -0.2522
  698TMC3    C510320   2.547   0.378  15.032  0.4468 -0.1350  0.1757
  698TMC3    C610321   2.598   0.499  15.061 -0.3358  0.0174 -0.3222
  698TMC3     C10322   2.509   0.215  15.358 -0.1603 -1.2185  0.2026
  698TMC3     O10323   2.522   0.097  15.327 -0.0079 -0.1681  0.1342
  698TMC3     H10324   2.604   0.466  15.403  1.1183 -1.8219 -0.3806
  698TMC3    H110325   2.457   0.196  15.102 -0.3337  0.8618  0.1463
  698TMC3    H210326   2.607   0.573  14.982 -0.0281  1.2786  0.8861
  698TMC3    C710327   2.534   0.338  14.896 -0.1690  0.1732 -0.3392
  698TMC3    C810328   2.697   0.633  15.243  0.5225 -0.1734  0.2529
  698TMC3    O110329   2.509   0.429  14.816  0.6030  0.2376  0.3225
  698TMC3    O210330   2.703   0.659  15.363  0.5673 -0.4363  0.5909
  699TMC3    C110331   3.027   3.042  13.182 -0.1680  0.4793 -0.2395
  699TMC3    C210332   3.059   2.959  13.291  0.1032  0.8117  0.8663
  699TMC3    C310333   2.971   2.959  13.394  0.3621  0.9806 -0.0608
  699TMC3    C410334   2.902   3.107  13.167 -0.1978  0.4141  0.2117
  699TMC3    C510335   2.818   3.094  13.273  0.5936  0.0052 -0.4536
  699TMC3    C610336   2.852   3.020  13.382 -0.1402  0.1611 -0.2157
  699TMC3     C10337   3.110   3.039  13.059  0.8814  0.2241  0.3830
  699TMC3     O10338   3.070   3.064  12.949 -0.2943 -1.0664 -0.3587
  699TMC3     H10339   3.142   2.889  13.298 -0.3610  0.1465 -0.4752
  699TMC3    H110340   2.881   3.164  13.077 -0.6908  1.7269  1.1597
  699TMC3    H210341   2.785   3.018  13.467  1.9438  1.0992  1.4484
  699TMC3    C710342   2.674   3.137  13.267  0.5118  0.2759  0.1849
  699TMC3    C810343   2.968   2.843  13.482 -0.0628  0.3834 -0.2217
  699TMC3    O110344   2.616   3.117  13.371  0.0222  0.0151  0.4086
  699TMC3    O210345   2.880   2.761  13.458 -0.3864  0.0934  0.3024
  700TMC3    C110346   1.646   0.447  17.267 -0.0963  0.6183  0.1968
  700TMC3    C210347   1.665   0.312  17.266 -0.8256  0.3151 -0.0144
  700TMC3    C310348   1.724   0.254  17.379  0.0763  0.2253  0.1434
  700TMC3    C410349   1.689   0.524  17.372  0.0944 -0.3555 -0.2338
  700TMC3    C510350   1.750   0.458  17.483 -0.7333  0.1939  0.0894
  700TMC3    C610351   1.771   0.317  17.489  1.0277 -0.8473  0.9446
  700TMC3     C10352   1.628   0.513  17.136 -0.0630  0.0093  0.3743
  700TMC3     O10353   1.568   0.450  17.052  0.0158  0.3942 -0.5736
  700TMC3     H10354   1.636   0.253  17.180 -1.0915  0.7239 -0.2075
  700TMC3    H110355   1.676   0.632  17.378  0.0089 -0.4420  1.2823
  700TMC3    H210356   1.827   0.270  17.569  2.2246 -1.2531 -0.1295
  700TMC3    C710357   1.789   0.534  17.598  0.0715  0.0716 -0.9960
  700TMC3    C810358   1.781   0.123  17.348 -0.6021  0.3051  0.0891
  700TMC3    O110359   1.728   0.510   0.009 -0.4951  0.1140  0.0719
  700TMC3    O210360   1.786   0.087  17.233 -0.2473 -0.6931  0.0239
  701TMC3    C110361   1.816   3.624  15.613 -0.4920 -0.5443 -0.9715
  701TMC3    C210362   1.803   3.583  15.484 -0.3916  0.5168 -0.4194
  701TMC3    C310363   1.879   3.647  15.387 -0.5639  0.0542 -0.3041
  701TMC3    C410364   1.908   3.723  15.642 -0.0714  0.6877 -0.1368
  701TMC3    C510365   1.984   3.780  15.552 -0.2818 -0.4486  0.5935
  701TMC3    C610366   1.969   3.750  15.422  0.8255  0.4382 -0.5318
  701TMC3     C10367   1.712   3.604  15.708 -1.0747  0.0183  0.5068
  701TMC3     O10368   1.680   3.700  15.772 -1.3289 -0.3461  0.1324
  701TMC3     H10369   1.717   3.521  15.464 -0.1687 -0.1775  0.7558
  701TMC3    H110370   1.924   3.739  15.748  0.1529 -0.7193  0.0367
  701TMC3    H210371   2.033   3.796  15.347  0.3791 -2.8370 -2.8824
  701TMC3    C710372   2.052   3.909  15.579  0.0468 -0.1763  1.0031
  701TMC3    C810373   1.827   3.653  15.255 -0.5536  0.7039  0.1417
  701TMC3    O110374   2.083   3.977  15.488  0.6801  0.5084  0.1605
  701TMC3    O210375   1.798   3.766  15.215  0.7797 -0.1114 -0.2460
  702MPD2     C10376   1.335   0.933  10.713 -0.0692 -0.3147  0.0998
  702MPD2    C110377   1.232   1.019  10.742 -0.5278  0.2433 -0.2231
  702MPD2    C210378   1.241   1.153  10.708 -0.5288  0.4621  0.3969
  702MPD2    C310379   1.356   1.207  10.655  0.0529 -0.2370 -0.5632
  702MPD2    C410380   1.457   1.121  10.614 -0.3252 -1.0026  0.1364
  702MPD2    C510381   1.442   0.984  10.634  0.4562 -0.1467 -0.0960
  702MPD2     H10382   1.161   1.220  10.736 -1.7618 -1.6405  1.8992
  702MPD2    H110383   1.541   1.155  10.554 -1.8181 -0.2785 -1.5619
  702MPD2    H210384   1.341   0.834  10.756  1.1612  0.5468  1.9335
  702MPD2    H310385   1.527   0.920  10.616 -0.7366 -1.5512 -0.8129
  702MPD2     N10386   1.353   1.346  10.624 -0.0078 -0.7382 -0.0719
  702MPD2    H510387   1.269   1.396  10.651 -0.2471 -0.9280 -0.4642
  702MPD2    N110388   1.129   0.997  10.831 -0.3109 -0.2525  0.3419
  702MPD2    H710389   1.062   1.072  10.847 -1.3555 -0.4655 -3.0109
  703TMC3    C110390   1.428   1.547  10.509  0.0546  0.3937 -0.0217
  703TMC3    C210391   1.304   1.601  10.515  0.3248 -0.2205  0.6167
  703TMC3    C310392   1.288   1.723  10.465 -0.6943 -0.0330 -0.3159
  703TMC3    C410393   1.540   1.622  10.470 -0.0987 -0.0242 -0.5492
  703TMC3    C510394   1.520   1.748  10.425  0.4524  0.2535  0.5923
  703TMC3    C610395   1.394   1.800  10.418  0.0825 -0.0101 -0.6509
  703TMC3     C10396   1.453   1.413  10.552  0.2124  0.3414  0.1468
  703TMC3     O10397   1.540   1.362  10.479 -0.1048 -0.3961 -0.2570
  703TMC3     H10398   1.212   1.551  10.541 -0.7083  2.3521  1.8714
  703TMC3    H110399   1.637   1.585  10.500  0.5747  0.4803 -2.0746
  703TMC3    H210400   1.376   1.899  10.378  1.2598 -0.8738 -3.2895
  703TMC3    C710401   1.623   1.822  10.356  0.5882  0.0093  1.6483
  703TMC3    C810402   1.154   1.782  10.488  0.5842 -0.1350  0.1109
  703TMC3    O110403   1.603   1.942  10.367  0.4248  0.3298  0.6254
  703TMC3    O210404   1.090   1.826  10.393 -0.3479 -0.1146  0.3172
  704TMC3    C110405   3.603   0.024  11.886 -0.2618 -1.1064  0.5617
  704TMC3    C210406   3.623   0.053  12.018 -0.2876 -0.1367  0.1044
  704TMC3    C310407   3.585   4.678  12.102 -0.4224  0.0017 -0.7706
  704TMC3    C410408   3.543   4.638  11.839 -0.7614  0.6265  0.0509
  704TMC3    C510409   3.510   4.539  11.929 -0.5801 -0.3794  0.3135
  704TMC3    C610410   3.529   4.565  12.063 -0.4104 -0.2126 -0.0945
  704TMC3     C10411   3.600   0.134  11.789 -1.0260  0.1181  0.4242
  704TMC3     O10412   3.509   0.155  11.709  0.3573  0.3560  0.5047
  704TMC3     H10413   3.681   0.136  12.058  0.4333 -0.3404 -0.5117
  704TMC3    H110414   3.548   4.619  11.732 -0.0434  1.1733 -0.0142
  704TMC3    H210415   3.487   4.491  12.130  0.7894 -1.0814 -0.2952
  704TMC3    C710416   3.571   4.406  11.909 -0.0793 -0.0192  0.1939
  704TMC3    C810417   3.660   4.672  12.228 -0.6179  0.5880  0.5588
  704TMC3    O110418   3.593   4.327  12.004  0.4031  0.1057 -0.9468
  704TMC3    O210419   3.766   0.011  12.237 -0.0249  0.3503  0.6474
  705MPD2     C10420   3.838   2.603  17.039 -0.3997  0.1137  0.0260
  705MPD2    C110421   3.759   2.623  16.930  0.2374  0.3360  0.8180
  705MPD2    C210422   3.621   2.625  16.941 -0.2987  0.7363  0.4144
  705MPD2    C310423   3.567   2.618  17.071  0.4364 -0.3712 -0.2270
  705MPD2    C410424   3.651   2.612  17.185 -0.0027  0.1413  0.3950
  705MPD2    C510425   3.781   2.599  17.162  0.2743  0.4228  0.0651
  705MPD2     H10426   3.567   2.633  16.847 -0.6138  0.7537  0.5968
  705MPD2    H110427   3.617   2.605  17.288  1.8897 -0.6372  0.9658
  705MPD2    H210428   3.946   2.602  17.036 -0.4001  0.7754 -0.1265
  705MPD2    H310429   3.845   2.574  17.245  1.7416  0.3622 -1.0948
  705MPD2     N10430   3.430   2.601  17.094 -0.2147  0.1582 -0.3426
  705MPD2    H510431   3.388   2.596  17.186 -1.0613  3.3742 -0.5578
  705MPD2    N110432   3.811   2.659  16.807 -0.3369  0.1314 -0.1445
  705MPD2    H710433   3.744   2.666  16.731 -1.9083  1.8517  1.4171
  706TMC3    C110434   4.024   2.651  16.403 -0.6084 -0.0241 -0.2546
  706TMC3    C210435   3.920   2.730  16.349  0.1986 -0.8531  0.0915
  706TMC3    C310436   3.836   2.798  16.436 -0.2933  0.0140 -0.2140
  706TMC3    C410437   4.044   2.639  16.538 -0.1630 -0.8073 -0.3103
  706TMC3    C510438   3.954   2.697  16.619 -0.5095  0.5100  0.0052
  706TMC3    C610439   3.850   2.772  16.571  0.9650  0.3249 -0.4011
  706TMC3     C10440   4.131   2.602  16.320  0.6338  0.2998 -0.0213
  706TMC3     O10441   4.248   2.599  16.359 -0.8040 -0.2271  0.4298
  706TMC3     H10442   3.923   2.756  16.244 -0.4068  0.9220  0.5114
  706TMC3    H110443   4.133   2.592  16.578  0.4546 -0.1928 -0.9601
  706TMC3    H210444   3.781   2.807  16.647  0.1587 -3.1799  0.4819
  706TMC3    C710445   3.942   2.653  16.761 -0.0437  0.1979  0.4453
  706TMC3    C810446   3.803   2.930  16.398  0.2089 -0.1380  0.0783
  706TMC3    O110447   4.040   2.612  16.823  0.3607 -0.0905 -0.4136
  706TMC3    O210448   3.792   2.941  16.280  0.2845  0.1431 -0.0521
  707TMC3    C110449   0.261   1.317   1.266 -0.1864  0.4024 -0.3727
  707TMC3    C210450   0.235   1.195   1.220 -0.7565  0.0156 -0.4800
  707TMC3    C310451   0.109   1.150   1.217 -0.1534 -0.0837  0.6087
  707TMC3    C410452   0.160   1.407   1.302 -0.1442  0.1627 -0.3919
  707TMC3    C510453   0.036   1.347   1.315  0.1884 -0.1515 -0.4162
  707TMC3    C610454   0.006   1.220   1.261  0.6724 -0.4039  0.1346
  707TMC3     C10455   0.403   1.362   1.268  0.0320 -0.1329 -0.0717
  707TMC3     O10456   0.494   1.281   1.253 -0.3846 -0.1940  0.7816
  707TMC3     H10457   0.320   1.136   1.190 -0.3221  1.0322 -1.2455
  707TMC3    H110458   0.180   1.509   1.330  2.1529  0.2986 -2.5195
  707TMC3    H210459   4.631   1.180   1.282  1.0906 -1.1189  0.7143
  707TMC3    C710460   4.653   1.416   1.385  0.2686 -1.1010 -0.2126
  707TMC3    C810461   0.073   1.012   1.175  0.0266  0.7614  1.0344
  707TMC3    O110462   4.540   1.363   1.386  0.2369 -0.5615  0.4626
  707TMC3    O210463   4.678   0.978   1.175 -0.1109 -0.1349 -0.2767
  708MPD2     C10464   1.823   0.688  13.170  0.7888 -0.4203  0.4014
  708MPD2    C110465   1.859   0.818  13.203  0.1758  0.0543  0.7847
  708MPD2    C210466   1.882   0.851  13.335  0.2762  0.6917 -0.5364
  708MPD2    C310467   1.863   0.760  13.438  0.1473  0.2660  0.4864
  708MPD2    C410468   1.832   0.626  13.406 -0.1742  0.1992  0.0438
  708MPD2    C510469   1.817   0.589  13.270  0.6086 -0.8729 -0.5368
  708MPD2     H10470   1.900   0.955  13.360  0.7732  0.6605 -0.7687
  708MPD2    H110471   1.816   0.552  13.484 -1.4826  0.9404  0.4676
  708MPD2    H210472   1.811   0.658  13.066  2.8526 -1.8539  0.5714
  708MPD2    H310473   1.777   0.494  13.238 -1.4008 -0.5088  0.8887
  708MPD2     N10474   1.866   0.802  13.572 -0.9500  0.1857  1.0231
  708MPD2    H510475   1.831   0.726  13.630 -1.5545 -2.5836 -2.9065
  708MPD2    N110476   1.866   0.913  13.094  0.0733 -0.0478 -0.5496
  708MPD2    H710477   1.865   0.884  12.997 -2.4834  0.1360 -0.5932
  709TMC3    C110478   1.889   1.120  12.986 -0.3899  0.1083 -0.3673
  709TMC3    C210479   1.863   1.046  12.871  0.0476 -0.4608 -0.6826
  709TMC3    C310480   1.745   1.063  12.804  0.2592 -0.0114  0.8369
  709TMC3    C410481   1.797   1.220  13.013 -0.3222  0.1558  0.3781
  709TMC3    C510482   1.669   1.212  12.960 -0.1001 -0.1895  0.5105
  709TMC3    C610483   1.642   1.138  12.853 -0.1266  0.5605  0.2368
  709TMC3     C10484   1.896   1.049  13.111  0.4460  0.0893 -0.1786
  709TMC3     O10485   1.877   1.126  13.210 -0.2648  0.2569  0.2410
  709TMC3     H10486   1.934   0.983  12.818 -0.4896 -1.4053 -0.2777
  709TMC3    H110487   1.830   1.305  13.071  0.8531  0.4780 -0.7567
  709TMC3    H210488   1.538   1.127  12.824  0.2448 -0.9151 -0.4790
  709TMC3    C710489   1.562   1.235  13.052  0.1210 -0.4401 -0.3039
  709TMC3    C810490   1.712   0.956  12.711 -0.5194 -0.2206  0.5730
  709TMC3    O110491   1.448   1.267  13.020  0.1192 -0.7930  0.2779
  709TMC3    O210492   1.796   0.869  12.697  0.4273  0.3550 -0.5265
  710TMC3    C110493   3.145   2.406   0.287  0.2403 -0.1212 -0.2004
  710TMC3    C210494   3.165   2.373   0.158  0.2486  1.0848 -0.0640
  710TMC3    C310495   3.245   2.264   0.128  0.1943 -0.4729  0.2565
  710TMC3    C410496   3.197   2.335   0.395 -0.5932 -0.1469  0.3969
  710TMC3    C510497   3.280   2.231   0.357 -1.1252 -0.2687  1.1440
  710TMC3    C610498   3.314   2.206   0.225  0.2736  0.0814  0.6570
  710TMC3     C10499   3.060   2.528   0.307 -0.0416 -0.3398  0.4256
  710TMC3     O10500   3.009   2.583   0.210 -0.0501  0.3787 -0.1652
  710TMC3     H10501   3.126   2.435   0.078  0.9190  3.2042  1.2489
  710TMC3    H110502   3.159   2.348   0.496  0.1228  0.9946  0.5125
  710TMC3    H210503   3.400   2.141   0.214 -0.5345 -1.0041  0.6659
  710TMC3    C710504   3.306   2.133   0.459  0.0461  0.1498  0.2892
  710TMC3    C810505   3.280   2.249  17.682 -0.2570 -0.3440  0.2347
  710TMC3    O110506   3.257   2.157   0.570 -0.5603  0.0863  0.8495
  710TMC3    O210507   3.380   2.179  17.661 -0.5110  0.3776 -0.3674
  711TMC3    C110508   2.540   3.696  15.266  0.5166 -0.2663 -0.0596
  711TMC3    C210509   2.574   3.751  15.379  0.4335 -0.8679  0.3530
  711TMC3    C310510   2.692   3.712  15.434 -0.4086 -0.9389 -0.1138
  711TMC3    C410511   2.608   3.593  15.206 -0.5846  0.6362 -0.8399
  711TMC3    C510512   2.733   3.559  15.258  0.3252 -0.2686 -0.0811
  711TMC3    C610513   2.772   3.620  15.371  0.2145 -0.4069 -0.7516
  711TMC3     C10514   2.401   3.666  15.259 -0.0585 -0.1100  0.5613
  711TMC3     O10515   2.380   3.553  15.300  0.0167  0.0026 -0.1515
  711TMC3     H10516   2.506   3.820  15.427  2.1865 -1.0866  3.1533
  711TMC3    H110517   2.556   3.554  15.119 -0.5351  0.4964 -0.8073
  711TMC3    H210518   2.871   3.591  15.405 -1.3709 -2.7202  1.8495
  711TMC3    C710519   2.785   3.423  15.236  0.0347  0.1455 -0.7842
  711TMC3    C810520   2.724   3.729  15.584 -0.1203 -0.3616 -0.0177
  711TMC3    O110521   2.898   3.411  15.281 -0.5487 -0.3874 -0.4344
  711TMC3    O210522   2.634   3.780  15.650  0.0869 -0.0077 -0.0092
  712MPD2     C10523   3.802   4.495  13.910 -0.2149  0.4770  0.8684
  712MPD2    C110524   3.747   4.552  13.801  0.2875 -0.2658 -0.0315
  712MPD2    C210525   3.766   4.685  13.776 -0.0971  0.4357  0.2068
  712MPD2    C310526   3.846   0.039  13.869 -0.4001 -1.0076 -0.8049
  712MPD2    C410527   3.896   4.700  13.977  0.0515  0.1230 -0.2459
  712MPD2    C510528   3.871   4.568  13.998 -0.2746 -0.5125 -0.5905
  712MPD2     H10529   3.718   0.014  13.694 -1.8907 -1.4157  0.0811
  712MPD2    H110530   3.953   0.027  14.054 -0.3712 -1.1123  0.8679
  712MPD2    H210531   3.789   4.392  13.938  0.1304  0.3594  0.5992
  712MPD2    H310532   3.891   4.526  14.096  2.7563  1.5322 -0.3256
  712MPD2     N10533   3.880   0.171  13.853  0.2516 -0.3709 -0.4435
  712MPD2    H510534   3.951   0.216  13.910 -0.5371 -0.9484  1.0024
  712MPD2    N110535   3.672   4.478  13.713 -0.0751 -0.2125 -0.2762
  712MPD2    H710536   3.628   4.528  13.637  2.1179  1.7166 -0.2620
  713TMC3    C110537   3.906   0.386  13.754  0.2405  0.3829  0.0260
  713TMC3    C210538   4.017   0.403  13.833  0.3566  0.0555  0.2082
  713TMC3    C310539   4.050   0.524  13.877 -0.0009  0.1171 -0.3612
  713TMC3    C410540   3.825   0.487  13.713 -0.1980  0.6071 -0.4485
  713TMC3    C510541   3.863   0.607  13.755 -0.5125 -0.3021  0.5476
  713TMC3    C610542   3.977   0.627  13.829 -0.3904 -0.4074  0.4828
  713TMC3     C10543   3.835   0.259  13.760 -0.2909 -0.4533 -0.0729
  713TMC3     O10544   3.762   0.236  13.665  0.2974 -0.0128 -0.0053
  713TMC3     H10545   4.092   0.325  13.847  0.0624 -0.2292  0.2031
  713TMC3    H110546   3.738   0.474  13.650 -2.0220 -0.0362  2.2025
  713TMC3    H210547   3.996   0.731  13.854 -0.2742 -0.0829 -0.9947
  713TMC3    C710548   3.799   0.719  13.688  1.0758  0.1999  0.3777
  713TMC3    C810549   4.188   0.539  13.929  0.4560  0.5305 -0.2337
  713TMC3    O110550   3.873   0.814  13.664  0.2425 -0.2479  0.1835
  713TMC3    O210551   4.243   0.644  13.898  0.2648  0.2403 -0.1901
  714MPD2     C10552   1.002   2.528   1.454 -0.0869 -0.1245  0.1283
  714MPD2    C110553   1.087   2.567   1.353  0.4264  0.0960 -0.3634
  714MPD2    C210554   1.031   2.634   1.242  0.2650  0.5430  0.6263
  714MPD2    C310555   0.897   2.642   1.227 -0.2434 -0.3186 -0.9877
  714MPD2    C410556   0.814   2.592   1.334 -0.7736  0.5861 -0.1469
  714MPD2    C510557   0.864   2.530   1.443  0.5076 -0.2505  0.1213
  714MPD2     H10558   1.095   2.682   1.169 -1.9226 -1.0109 -2.3039
  714MPD2    H110559   0.706   2.600   1.329 -0.8199 -0.5831 -0.9854
  714MPD2    H210560   1.043   2.485   1.545 -0.5655  1.9943  1.3462
  714MPD2    H310561   0.795   2.496   1.519  1.8370 -1.1969  0.8971
  714MPD2     N10562   0.840   2.721   1.121  0.0591  0.3775  0.1187
  714MPD2    H510563   0.910   2.762   1.060 -0.8331 -0.4904 -1.4912
  714MPD2    N110564   1.225   2.558   1.364 -0.0938 -0.8745 -0.0768
  714MPD2    H710565   1.256   2.528   1.456 -1.4064 -1.4498  0.1858
  715TMC3    C110566   1.442   2.495   1.294 -0.3759  0.5034  0.6498
  715TMC3    C210567   1.522   2.460   1.190  0.6603 -0.5398 -0.8775
  715TMC3    C310568   1.649   2.428   1.221 -0.5495  0.5896  0.5354
  715TMC3    C410569   1.477   2.507   1.427 -0.1646 -0.3824  0.3202
  715TMC3    C510570   1.605   2.479   1.452 -0.6530 -0.5130 -0.5617
  715TMC3    C610571   1.692   2.442   1.352  0.7680  0.2085  1.0269
  715TMC3     C10572   1.313   2.545   1.253 -0.1690  0.3108  0.5162
  715TMC3     O10573   1.294   2.565   1.135 -0.0012 -0.3588  0.0717
  715TMC3     H10574   1.487   2.446   1.089  1.1383 -0.5638 -1.0405
  715TMC3    H110575   1.414   2.551   1.503 -1.6914 -3.1568  0.6550
  715TMC3    H210576   1.792   2.414   1.382  0.5604 -2.7311 -1.1227
  715TMC3    C710577   1.663   2.531   1.575  0.2544  0.6832 -0.3424
  715TMC3    C810578   1.736   2.368   1.129  0.2087 -0.4720 -0.0671
  715TMC3    O110579   1.779   2.559   1.569  0.7660  0.2168  0.3841
  715TMC3    O210580   1.681   2.319   1.028 -0.2068 -0.0858  0.4777
  716MPD2     C10581   1.219   1.313   9.919  0.2255 -0.2902 -0.1815
  716MPD2    C110582   1.261   1.370   9.799  0.4919  0.1260 -0.7086
  716MPD2    C210583   1.337   1.297   9.710  0.1429 -0.1100  0.1661
  716MPD2    C310584   1.380   1.171   9.738 -0.1262  0.1030 -0.2412
  716MPD2    C410585   1.347   1.115   9.858  0.4878  0.9182  0.2160
  716MPD2    C510586   1.267   1.187   9.947  0.4664 -0.4258  0.8624
  716MPD2     H10587   1.350   1.345   9.613  0.2345  1.7805  1.1194
  716MPD2    H110588   1.371   1.014   9.888  0.4940  1.5575  2.3228
  716MPD2    H210589   1.166   1.371   9.993  1.7175 -0.2391  0.8364
  716MPD2    H310590   1.235   1.131  10.034 -0.1215  4.2619  3.6819
  716MPD2     N10591   1.466   1.107   9.644 -0.9310  0.2181 -0.3760
  716MPD2    H510592   1.468   1.147   9.551  0.8826 -0.3532 -0.5768
  716MPD2    N110593   1.218   1.509   9.778 -0.1825  0.0096  0.4990
  716MPD2    H710594   1.169   1.552   9.856  1.5961 -0.3223  1.7968
  717TMC3    C110595   1.631   0.969   9.550  0.6510 -0.5218 -0.0979
  717TMC3    C210596   1.682   1.069   9.471  0.1393 -0.0628 -0.0673
  717TMC3    C310597   1.783   1.036   9.382  0.1563  0.4903 -0.1377
  717TMC3    C410598   1.687   0.837   9.540 -0.7300 -0.1059 -0.1353
  717TMC3    C510599   1.788   0.812   9.451 -0.0761  0.1196 -0.8936
  717TMC3    C610600   1.823   0.905   9.362  0.4041  0.1768  0.2416
  717TMC3     C10601   1.538   0.991   9.661 -0.3587  0.1904 -0.5606
  717TMC3     O10602   1.543   0.918   9.758  0.4886 -0.0091 -0.3083
  717TMC3     H10603   1.640   1.168   9.487 -0.1916 -0.2137  0.0070
  717TMC3    H110604   1.624   0.758   9.580 -0.3851 -0.2901  0.0445
  717TMC3    H210605   1.900   0.886   9.288 -0.9113 -2.1621 -0.5497
  717TMC3    C710606   1.842   0.681   9.435  0.5106 -0.1069  0.4162
  717TMC3    C810607   1.813   1.150   9.289  0.7697 -0.5796 -0.2576
  717TMC3    O110608   1.905   0.666   9.332 -0.1075 -0.1632  0.6622
  717TMC3    O210609   1.732   1.242   9.275  0.3795 -0.0775  0.1191
  718MPD2     C10610   0.566   4.552  13.312 -0.0804  0.2523 -0.3147
  718MPD2    C110611   0.595   4.678  13.345 -0.0925 -0.0227 -0.6661
  718MPD2    C210612   0.515   0.029  13.431  0.2394  0.1734  0.3737
  718MPD2    C310613   0.398   4.697  13.484 -0.1502 -0.2031 -0.2238
  718MPD2    C410614   0.371   4.565  13.455  0.0297  0.1897 -0.1885
  718MPD2    C510615   0.460   4.496  13.377 -0.3814 -0.5811 -0.3920
  718MPD2     H10616   0.536   0.130  13.464  2.1337 -0.9442  2.6346
  718MPD2    H110617   0.282   4.523  13.500  0.0130  0.1941 -0.2172
  718MPD2    H210618   0.622   4.492  13.242  0.9488  1.3390 -0.4169
  718MPD2    H310619   0.446   4.391  13.352 -0.9919 -1.1555  2.3076
  718MPD2     N10620   0.309   0.059  13.553 -0.7513 -0.1416 -0.3858
  718MPD2    H510621   0.346   0.152  13.565 -0.8757 -0.2266  0.6177
  718MPD2    N110622   0.687   0.036  13.274 -0.2515  0.5692  0.3506
  718MPD2    H710623   0.685   0.132  13.308  0.7698  1.4154 -2.0136
  719TMC3    C110624   0.842   0.103  13.113 -0.2273 -0.2943 -0.3396
  719TMC3    C210625   0.857   0.215  13.193  0.7006 -1.0788 -0.6249
  719TMC3    C310626   0.821   0.338  13.132 -0.6499  0.0303 -0.1476
  719TMC3    C410627   0.841   0.126  12.979  0.0188 -0.0048  0.1553
  719TMC3    C510628   0.818   0.250  12.927 -0.2551  0.8106 -0.7796
  719TMC3    C610629   0.798   0.363  13.005 -0.3122  0.0425 -0.0026
  719TMC3     C10630   0.767   4.720  13.166  0.1339  0.4263 -0.2612
  719TMC3     O10631   0.759   4.623  13.092  0.0111  0.0548  0.6150
  719TMC3     H10632   0.855   0.196  13.300  0.8978  1.8647 -0.0829
  719TMC3    H110633   0.831   0.047  12.905 -0.6401  0.7413 -0.5501
  719TMC3    H210634   0.762   0.460  12.973 -3.2944 -0.3604  2.0454
  719TMC3    C710635   0.843   0.260  12.787 -0.6607 -0.1172  0.0269
  719TMC3    C810636   0.717   0.393  13.224 -0.1839  0.1793 -0.1052
  719TMC3    O110637   0.926   0.181  12.740  0.3920  0.0817 -0.4100
  719TMC3    O210638   0.692   0.326  13.319 -1.1121 -0.2034  0.0445
  720MPD2     C10639   3.695   1.916  13.974 -0.3405  0.4860 -0.8067
  720MPD2    C110640   3.806   1.864  13.897 -0.7056  0.1888  0.3739
  720MPD2    C210641   3.886   1.767  13.952 -0.5772  0.3860  0.0730
  720MPD2    C310642   3.858   1.718  14.075 -0.0428 -0.0224  0.2843
  720MPD2    C410643   3.747   1.766  14.143  0.3500  0.0220 -0.0957
  720MPD2    C510644   3.665   1.859  14.088  0.6230  0.2983  0.3763
  720MPD2     H10645   3.977   1.730  13.907 -0.0736  1.9760 -0.1787
  720MPD2    H110646   3.714   1.721  14.237  0.0561  1.4022  0.4591
  720MPD2    H210647   3.627   1.982  13.921 -1.8661  0.9332  1.7275
  720MPD2    H310648   3.576   1.888  14.143  0.3055  0.0799 -0.0241
  720MPD2     N10649   3.957   1.644  14.144 -0.0535 -0.2490 -0.3955
  720MPD2    H510650   4.048   1.636  14.098  0.2610 -2.4514  0.5978
  720MPD2    N110651   3.810   1.913  13.761  0.1227  0.5516  0.1823
  720MPD2    H710652   3.752   1.994  13.740 -1.3071  0.0729  2.3308
  721TMC3    C110653   4.056   1.522  14.315 -0.1410  0.0426 -0.5071
  721TMC3    C210654   4.026   1.422  14.404 -0.1276  0.0796  0.3995
  721TMC3    C310655   4.095   1.412  14.524 -0.4503  0.3069 -0.0132
  721TMC3    C410656   4.160   1.611  14.331 -0.6630  0.1415 -0.2525
  721TMC3    C510657   4.233   1.601  14.449  0.3836  0.2085  0.2927
  721TMC3    C610658   4.198   1.505  14.543  0.1606  0.2240  0.1337
  721TMC3     C10659   3.939   1.588  14.272 -0.0874 -0.2256  0.2451
  721TMC3     O10660   3.840   1.572  14.342  0.3047  0.0728  0.0001
  721TMC3     H10661   3.959   1.340  14.382  0.4683 -0.3048  0.0198
  721TMC3    H110662   4.178   1.699  14.270  1.5225 -1.2286 -1.5921
  721TMC3    H210663   4.258   1.486  14.631 -1.8334 -0.7408  1.3056
  721TMC3    C710664   4.348   1.685  14.465  0.1071 -0.0946 -1.0720
  721TMC3    C810665   4.095   1.284  14.594  0.5140  0.9695  0.0248
  721TMC3    O110666   4.364   1.766  14.378 -0.1311  0.2833 -0.1073
  721TMC3    O210667   4.029   1.192  14.546  0.3072  0.0334 -0.4526
  722MPD2     C10668   2.673   0.284  13.376  0.1246  0.5853  0.0340
  722MPD2    C110669   2.662   0.396  13.295 -0.0325 -0.2516  0.6657
  722MPD2    C210670   2.570   0.392  13.196 -0.1901 -0.5922  0.2603
  722MPD2    C310671   2.469   0.307  13.196 -0.1857 -0.0591 -0.0323
  722MPD2    C410672   2.472   0.190  13.279 -0.6637 -0.2080 -0.5197
  722MPD2    C510673   2.569   0.192  13.379 -0.7364 -0.0419 -0.0046
  722MPD2     H10674   2.569   0.476  13.128 -1.0302  0.7923  2.0076
  722MPD2    H110675   2.398   0.112  13.265 -0.3239 -0.4286 -1.1187
  722MPD2    H210676   2.752   0.268  13.448  0.2023  1.7893  0.2171
  722MPD2    H310677   2.578   0.109  13.449 -0.7695  0.6276  0.7940
  722MPD2     N10678   2.376   0.326  13.096  0.1246  0.7444  0.0275
  722MPD2    H510679   2.385   0.412  13.044 -1.0353  0.3851 -0.7843
  722MPD2    N110680   2.760   0.494  13.293  0.3935 -0.2136 -0.3482
  722MPD2    H710681   2.767   0.550  13.209 -0.3256  0.0952 -0.1980
  723TMC3    C110682   2.216   0.280  12.940 -0.2567  0.2765  0.1159
  723TMC3    C210683   2.157   0.202  12.847 -1.2330  0.2876 -0.0838
  723TMC3    C310684   2.064   0.255  12.766  0.1074  0.2391  0.8382
  723TMC3    C410685   2.185   0.415  12.951  0.6775  0.1487  0.0663
  723TMC3    C510686   2.091   0.470  12.867 -0.0494 -0.3919  0.1377
  723TMC3    C610687   2.036   0.390  12.770  0.2271  0.0219 -0.7557
  723TMC3     C10688   2.300   0.228  13.037 -0.5298  0.2842 -0.4771
  723TMC3     O10689   2.306   0.110  13.052  0.1626  0.1510 -0.2329
  723TMC3     H10690   2.167   0.095  12.835  0.2120  0.3356  0.6360
  723TMC3    H110691   2.246   0.486  13.005 -1.2828  1.7817  0.1348
  723TMC3    H210692   1.971   0.424  12.689 -1.7501  0.4911  1.0207
  723TMC3    C710693   2.080   0.615  12.851 -0.1940  0.4572  0.2656
  723TMC3    C810694   2.000   0.185  12.647 -0.2181 -0.2827  0.4800
  723TMC3    O110695   2.057   0.663  12.740  0.1058 -0.2364  0.1003
  723TMC3    O210696   1.897   0.231  12.596  0.2969  0.1185  0.3310
  724TMC3    C110697   0.021   3.619   9.719  0.2527 -0.2678 -0.6648
  724TMC3    C210698   0.119   3.630   9.619 -0.2353 -0.4487 -0.5932
  724TMC3    C310699   0.141   3.755   9.582 -0.3312 -0.0090 -1.0309
  724TMC3    C410700   4.708   3.716   9.807  0.1425  0.1642  0.2729
  724TMC3    C510701   0.031   3.842   9.778 -0.4623 -0.4661  0.5959
  724TMC3    C610702   0.111   3.863   9.665 -0.5996  0.3352  0.6129
  724TMC3     C10703   4.685   3.484   9.740  0.4935  0.1306  0.1115
  724TMC3     O10704   0.015   3.391   9.680 -0.5626 -0.0638 -0.6212
  724TMC3     H10705   0.112   3.558   9.538 -0.7300 -1.7602  0.6137
  724TMC3    H110706   4.617   3.714   9.865  0.6012  2.7162  1.0615
  724TMC3    H210707   0.148   3.960   9.634  1.2838 -0.8271 -0.7414
  724TMC3    C710708   4.676   3.957   9.825  1.0028  0.2881  0.0590
  724TMC3    C810709   0.244   3.774   9.478  0.2651 -0.1902  0.0561
  724TMC3    O110710   4.581   3.940   9.906  0.3752  0.0734 -0.2570
  724TMC3    O210711   0.311   3.674   9.454 -0.3202  0.0496 -0.6904
  725TMC3    C110712   4.515   2.200  12.958  0.2804  0.3376  0.6831
  725TMC3    C210713   4.473   2.186  12.833  1.0436 -0.4166  0.3111
  725TMC3    C310714   4.414   2.057  12.797 -0.2409  0.6082  0.7129
  725TMC3    C410715   4.502   2.107  13.053 -0.1556 -0.2373  0.2342
  725TMC3    C510716   4.450   1.987  13.015 -0.2520  0.2429 -0.0627
  725TMC3    C610717   4.415   1.954  12.887 -0.0339  0.7308  0.5011
  725TMC3     C10718   4.620   2.303  12.978  0.0817 -0.5137  0.4496
  725TMC3     O10719   4.619   2.369  13.081  0.3902 -0.2029  0.2298
  725TMC3     H10720   4.485   2.268  12.762 -0.4429 -0.5345 -0.0659
  725TMC3    H110721   4.545   2.120  13.152  1.2413 -1.3794 -0.2293
  725TMC3    H210722   4.381   1.854  12.863 -0.7065  0.8660  0.9055
  725TMC3    C710723   4.505   1.876  13.086 -0.6897  0.0145 -0.2899
  725TMC3    C810724   4.394   2.011  12.664 -0.0087  0.7840  0.2939
  725TMC3    O110725   4.495   1.866  13.208  0.0423  0.5015  0.3794
  725TMC3    O210726   4.354   1.896  12.643  0.1889 -0.5833  0.0368
  726MPD2     C10727   2.598   3.013  10.728  0.2989 -0.1362 -0.5622
  726MPD2    C110728   2.673   3.089  10.817 -0.1522 -0.0051 -0.3577
  726MPD2    C210729   2.634   3.086  10.953 -0.3489 -0.1411 -0.0076
  726MPD2    C310730   2.523   3.020  10.999 -0.6253  0.0771  0.6955
  726MPD2    C410731   2.448   2.950  10.911  0.0571  0.3527  0.2211
  726MPD2    C510732   2.485   2.943  10.778 -0.2712 -0.2633 -0.0406
  726MPD2     H10733   2.683   3.158  11.017 -0.4681  0.3670 -0.4903
  726MPD2    H110734   2.357   2.899  10.940 -0.5323  3.2307  3.4835
  726MPD2    H210735   2.612   3.016  10.621  1.2043  0.2484 -0.4329
  726MPD2    H310736   2.422   2.892  10.705  1.6250 -0.5799 -1.4491
  726MPD2     N10737   2.492   3.019  11.134  0.2147  0.1505 -0.0100
  726MPD2    H510738   2.399   2.993  11.164  0.0065 -1.2906 -1.9110
  726MPD2    N110739   2.785   3.178  10.776 -0.0755 -0.0552  0.4771
  726MPD2    H710740   2.835   3.225  10.850 -0.8691 -0.4299  1.2483
  727TMC3    C110741   2.880   3.336  10.628 -0.7635  0.2782 -0.2266
  727TMC3    C210742   2.941   3.382  10.737 -0.8619  0.3330 -0.7284
  727TMC3    C310743   2.956   3.518  10.745  0.8382 -0.0278 -0.0203
  727TMC3    C410744   2.845   3.410  10.516  0.0445  0.4357  0.1498
  727TMC3    C510745   2.864   3.542  10.526 -0.0026 -0.0591 -0.0550
  727TMC3    C610746   2.922   3.593  10.637 -0.3379  0.0601  0.5699
  727TMC3     C10747   2.805   3.223  10.649  0.0074 -0.6870  0.0082
  727TMC3     O10748   2.761   3.173  10.548  0.1905 -0.1365  0.1410
  727TMC3     H10749   2.982   3.314  10.810 -2.2342  0.8937  0.5465
  727TMC3    H110750   2.793   3.371  10.429  1.1330  1.1305 -0.8182
  727TMC3    H210751   2.951   3.697  10.645 -0.9604  0.2654  0.1220
  727TMC3    C710752   2.774   3.627  10.445 -0.3359 -0.4179 -0.0194
  727TMC3    C810753   3.063   3.580  10.822  0.4768  0.5101  0.1047
  727TMC3    O110754   2.739   3.586  10.335 -0.1862 -0.7350  0.1086
  727TMC3    O210755   3.118   3.682  10.774 -0.0015 -0.4204  0.5091
  728TMC3    C110756   2.076   2.261  15.575 -0.7892 -0.0947 -0.6719
  728TMC3    C210757   2.144   2.169  15.652  0.1105 -0.1886 -0.7738
  728TMC3    C310758   2.277   2.199  15.680 -0.8729  0.0378  0.0828
  728TMC3    C410759   2.132   2.379  15.534 -0.8597  0.4037  0.8023
  728TMC3    C510760   2.264   2.407  15.567  0.3187  0.6652 -1.3789
  728TMC3    C610761   2.340   2.317  15.636  0.1482 -0.0156  0.4570
  728TMC3     C10762   1.936   2.258  15.563  0.0882 -0.3272 -0.3270
  728TMC3     O10763   1.880   2.359  15.530 -0.3176  0.2031  0.9265
  728TMC3     H10764   2.103   2.073  15.682  2.2800 -1.1969 -1.0286
  728TMC3    H110765   2.069   2.455  15.489  0.2216  0.7296 -0.1901
  728TMC3    H210766   2.447   2.335  15.648  0.0547  1.9449 -1.6638
  728TMC3    C710767   2.327   2.535  15.540 -0.2863 -0.3459 -0.1970
  728TMC3    C810768   2.361   2.121  15.765  0.4764 -0.0587 -0.3433
  728TMC3    O110769   2.429   2.560  15.598  0.5229  0.0332 -0.2217
  728TMC3    O210770   2.438   2.180  15.838  0.9693  0.1705  0.0541
  729MPD2     C10771   4.044   3.236  17.359  0.0418 -0.2822 -0.2844
  729MPD2    C110772   4.154   3.265  17.440 -0.2313 -0.5276  0.3756
  729MPD2    C210773   4.131   3.333  17.560  0.2395  0.4539  0.0535
  729MPD2    C310774   3.998   3.351  17.603 -0.0550 -1.1201 -0.7174
  729MPD2    C410775   3.892   3.308  17.523  0.3870 -0.0012  0.2025
  729MPD2    C510776   3.910   3.255  17.398 -0.0855  0.1350 -0.0049
  729MPD2     H10777   4.217   3.345  17.624 -0.0307 -0.3982  0.5683
  729MPD2    H110778   3.793   3.326  17.561  0.9542  0.3195  1.5385
  729MPD2    H210779   4.066   3.184  17.267 -1.5941  0.9861 -1.3942
  729MPD2    H310780   3.827   3.216  17.341  2.0006 -2.2256 -1.4253
  729MPD2     N10781   3.961   3.414   0.033  0.2846 -0.1477 -0.0791
  729MPD2    H510782   3.861   3.426   0.048  0.1195 -1.3005 -0.2670
  729MPD2    N110783   4.276   3.237  17.381  0.2712 -0.6384  0.4307
  729MPD2    H710784   4.276   3.201  17.286 -0.6416  1.0395 -0.2044
  730TMC3    C110785   3.994   3.544   0.222  0.7656 -1.2227 -0.2894
  730TMC3    C210786   4.044   3.550   0.349  0.5565  0.0095 -0.3589
  730TMC3    C310787   3.989   3.639   0.430  0.8117 -0.5811 -0.2684
  730TMC3    C410788   3.894   3.625   0.178  0.2098  0.3076 -0.5651
  730TMC3    C510789   3.848   3.716   0.258 -0.2948  0.1128 -0.0986
  730TMC3    C610790   3.892   3.724   0.386  0.3107 -0.0164  0.1390
  730TMC3     C10791   4.057   3.454   0.129  0.3936  0.2787 -0.2014
  730TMC3     O10792   4.179   3.439   0.144  0.1857 -0.3098 -0.1694
  730TMC3     H10793   4.119   3.480   0.385  0.9527  1.5821  1.9159
  730TMC3    H110794   3.867   3.632   0.073 -1.2470  0.4848 -0.1848
  730TMC3    H210795   3.844   3.800   0.446 -1.2952 -0.4807 -0.5699
  730TMC3    C710796   3.812   3.840   0.192  0.6925 -0.7544 -0.0693
  730TMC3    C810797   4.051   3.632   0.570  0.0094 -0.5839 -0.2407
  730TMC3    O110798   3.771   3.839   0.078  0.1272 -0.2929 -0.2148
  730TMC3    O210799   4.159   3.575   0.586  0.1534 -0.1368  0.3199
  731MPD2     C10800   4.177   1.338  12.249  0.1940  0.0184 -0.0503
  731MPD2    C110801   4.290   1.257  12.244 -0.0532 -0.5938  0.0686
  731MPD2    C210802   4.326   1.192  12.358  0.1330  0.6081 -0.0666
  731MPD2    C310803   4.248   1.197  12.472 -0.3563  0.3939 -0.1255
  731MPD2    C410804   4.135   1.286  12.475  0.3688  0.5523  0.6236
  731MPD2    C510805   4.111   1.360  12.369  0.5544  0.2758 -0.6256
  731MPD2     H10806   4.411   1.126  12.360 -0.3495  0.0430  1.2482
  731MPD2    H110807   4.075   1.314  12.560  1.1729 -2.3602  2.1206
  731MPD2    H210808   4.146   1.403  12.167 -0.9707 -0.3966  0.0658
  731MPD2    H310809   4.038   1.440  12.363  1.8506  1.4961 -0.0853
  731MPD2     N10810   4.284   1.115  12.583  0.0489  0.3679  0.4228
  731MPD2    H510811   4.373   1.068  12.577  0.3207  1.0128 -0.6788
  731MPD2    N110812   4.352   1.255  12.116  0.3582 -0.1550 -0.1490
  731MPD2    H710813   4.291   1.297  12.047 -1.1464 -2.2185 -0.0838
  732TMC3    C110814   4.527   1.262  11.974  0.8671  0.7049 -0.4045
  732TMC3    C210815   4.436   1.283  11.871 -0.0804  0.2175  0.5210
  732TMC3    C310816   4.483   1.350  11.761 -0.3413  0.5252 -0.5997
  732TMC3    C410817   4.643   1.333  11.984  0.2425 -0.1074  0.2156
  732TMC3    C510818   4.678   1.418  11.880 -0.3250 -0.8893 -0.4090
  732TMC3    C610819   4.604   1.414  11.766 -0.3225  0.2542  0.1342
  732TMC3     C10820   4.478   1.215  12.092 -0.5814 -0.2430 -0.0699
  732TMC3     O10821   4.555   1.161  12.172 -0.2114 -0.1274  0.1003
  732TMC3     H10822   4.341   1.233  11.882  1.0040 -2.2747 -1.5688
  732TMC3    H110823   4.707   1.328  12.071 -3.3036  0.1792  2.8060
  732TMC3    H210824   4.649   1.466  11.682 -0.0730  1.1462  0.8307
  732TMC3    C710825   0.045   1.530  11.896 -0.0741 -0.9838 -0.7888
  732TMC3    C810826   4.400   1.360  11.641  0.2463 -0.0649  0.0582
  732TMC3    O110827   4.714   1.633  11.856 -0.4036  0.2192  0.0937
  732TMC3    O210828   4.459   1.395  11.537 -0.4018  0.6444  0.5804
  733TMC3    C110829   4.643   0.298  13.683 -0.1585  0.0883  0.2206
  733TMC3    C210830   4.707   0.176  13.677 -0.6618 -0.0130  0.5065
  733TMC3    C310831   0.103   0.174  13.609 -0.1840  0.4051  0.6238
  733TMC3    C410832   4.701   0.413  13.644  0.8750  0.4759  0.5396
  733TMC3    C510833   0.101   0.405  13.573 -0.1799 -0.3587 -0.6964
  733TMC3    C610834   0.164   0.284  13.556 -0.3537  0.2402 -0.3767
  733TMC3     C10835   4.495   0.307  13.686  0.8436  0.1173  0.9709
  733TMC3     O10836   4.453   0.417  13.654 -0.7037 -0.3361 -0.2106
  733TMC3     H10837   4.657   0.085  13.707  0.3597 -1.3599 -1.9318
  733TMC3    H110838   4.650   0.507  13.662 -2.7792 -1.1331 -1.3344
  733TMC3    H210839   0.238   0.266  13.478  1.0162 -0.4600  1.0943
  733TMC3    C710840   0.156   0.527  13.521  0.9327  0.5608  0.0865
  733TMC3    C810841   0.180   0.047  13.595  0.0415 -0.1145  0.7229
  733TMC3    O110842   0.074   0.615  13.499 -0.1969 -0.1493  0.0452
  733TMC3    O210843   0.107   4.674  13.591  0.3458 -0.2902 -0.3149
  734MPD2     C10844   2.145   2.086  12.146  0.8023  0.2902  0.1765
  734MPD2    C110845   2.075   2.018  12.040  0.4481 -0.1609 -0.4031
  734MPD2    C210846   2.095   2.064  11.916  0.1348  0.4032 -0.3222
  734MPD2    C310847   2.187   2.160  11.887 -0.2015 -0.0339 -0.5602
  734MPD2    C410848   2.249   2.231  11.991  0.3787 -0.6654  0.3260
  734MPD2    C510849   2.233   2.190  12.124  0.1263  0.6658  0.7691
  734MPD2     H10850   2.058   2.015  11.827  1.9788 -1.9110  0.2008
  734MPD2    H110851   2.321   2.308  11.967  0.9475 -1.7075 -1.3087
  734MPD2    H210852   2.113   2.065  12.248  0.6348 -0.3165 -0.0022
  734MPD2    H310853   2.276   2.243  12.208 -1.9622  2.7000  0.5613
  734MPD2     N10854   2.220   2.172  11.751 -0.3590  0.1782  0.0463
  734MPD2    H510855   2.170   2.111  11.687 -0.3959  0.2236  0.0311
  734MPD2    N110856   1.992   1.908  12.069 -0.8132  0.2345  0.6960
  734MPD2    H710857   1.998   1.865  12.161 -1.6037  0.9467  1.0862
  735TMC3    C110858   1.846   1.719  11.993 -0.2432 -0.1624 -1.0983
  735TMC3    C210859   1.752   1.687  11.894  0.2276  0.3049  0.3890
  735TMC3    C310860   1.755   1.567  11.830  0.0696  0.2046 -0.7780
  735TMC3    C410861   1.944   1.625  12.013 -0.1007  0.3385  0.1326
  735TMC3    C510862   1.943   1.506  11.942  0.0547  0.3970  0.0282
  735TMC3    C610863   1.845   1.464  11.856 -0.3181 -0.0695  0.2460
  735TMC3     C10864   1.904   1.848  11.975  0.1843 -0.5011  0.7788
  735TMC3     O10865   1.877   1.886  11.862  0.9777 -0.1415  0.0235
  735TMC3     H10866   1.674   1.762  11.881 -1.6452 -1.9258 -1.2681
  735TMC3    H110867   2.025   1.630  12.084  0.0879 -1.4816  0.0504
  735TMC3    H210868   1.857   1.390  11.779 -0.1300 -0.0060  0.2138
  735TMC3    C710869   2.074   1.441  11.932  0.2862 -0.1661  0.5222
  735TMC3    C810870   1.745   1.590  11.688 -0.1825  0.1558  0.7659
  735TMC3    O110871   2.171   1.489  11.987  0.1183  0.5070 -0.1098
  735TMC3    O210872   1.713   1.494  11.619 -0.0587 -0.0778  0.1280
  736MPD2     C10873   2.162   1.116  11.800  1.1172 -0.9504 -0.0373
  736MPD2    C110874   2.171   1.253  11.818  0.4899 -0.0256 -0.2469
  736MPD2    C210875   2.289   1.312  11.775 -0.1816  0.0345  0.2536
  736MPD2    C310876   2.393   1.237  11.717 -0.3876  0.2075  0.1606
  736MPD2    C410877   2.372   1.105  11.689  0.1850  0.1272  0.2479
  736MPD2    C510878   2.256   1.040  11.735 -0.7774 -0.5487 -0.1951
  736MPD2     H10879   2.302   1.420  11.771 -0.3972 -0.0153 -2.0011
  736MPD2    H110880   2.450   1.049  11.639  0.7491  1.9053 -0.8237
  736MPD2    H210881   2.073   1.061  11.827  0.2504 -0.4283 -1.7904
  736MPD2    H310882   2.237   0.934  11.721  0.0304 -0.5377 -1.3803
  736MPD2     N10883   2.517   1.284  11.676 -0.1685 -0.3165 -0.4328
  736MPD2    H510884   2.574   1.214  11.629  2.8391  2.1417 -0.4745
  736MPD2    N110885   2.058   1.321  11.865 -0.2638 -0.1559 -0.7949
  736MPD2    H710886   1.966   1.280  11.847  0.0743 -1.1716 -0.1938
  737TMC3    C110887   2.691   1.435  11.628  0.7792  0.5420 -0.2484
  737TMC3    C210888   2.707   1.568  11.594  0.1541 -0.1065 -0.7395
  737TMC3    C310889   2.776   1.604  11.484 -0.4222 -1.1961 -0.5781
  737TMC3    C410890   2.772   1.339  11.566 -0.6503  0.4286  0.1529
  737TMC3    C510891   2.859   1.378  11.471  0.4325 -0.1509 -0.2752
  737TMC3    C610892   2.854   1.506  11.421  0.5431 -0.2932 -0.9726
  737TMC3     C10893   2.566   1.412  11.698 -0.4251  0.8130  0.2174
  737TMC3     O10894   2.519   1.506  11.756 -0.0703 -0.3405  0.0270
  737TMC3     H10895   2.663   1.646  11.655  0.9118 -1.1805  1.1731
  737TMC3    H110896   2.786   1.240  11.607  2.9322  1.1648  0.7339
  737TMC3    H210897   2.917   1.523  11.334  0.7069  0.0837 -0.7808
  737TMC3    C710898   2.972   1.284  11.442  0.3958 -0.7457  1.0658
  737TMC3    C810899   2.721   1.718  11.404  0.0641 -0.3764  0.1452
  737TMC3    O110900   2.986   1.197  11.525 -0.1468  0.7344  0.2681
  737TMC3    O210901   2.633   1.775  11.468 -0.6756 -0.1986 -0.4194
  738MPD2     C10902   2.866   0.865  15.284 -0.2860 -0.3988  0.0358
  738MPD2    C110903   2.860   0.795  15.164 -0.4723 -0.5980  0.4456
  738MPD2    C210904   2.954   0.811  15.061 -0.4874  0.6341 -0.1772
  738MPD2    C310905   3.061   0.905  15.088  0.2747 -0.6072  0.2813
  738MPD2    C410906   3.066   0.980  15.201 -0.1745 -0.2230  0.2126
  738MPD2    C510907   2.969   0.955  15.296 -0.4233  1.0360 -0.0486
  738MPD2     H10908   2.944   0.748  14.973 -2.0186 -1.3830  1.4053
  738MPD2    H110909   3.138   1.059  15.218  0.3524 -1.0486  1.7466
  738MPD2    H210910   2.786   0.865  15.358 -1.2425 -0.2247 -0.9967
  738MPD2    H310911   2.966   1.025  15.379  2.1376  2.7366 -1.3901
  738MPD2     N10912   3.166   0.936  14.996  0.5123 -0.8838 -0.0547
  738MPD2    H510913   3.235   1.007  15.016  0.9280 -1.4052  0.3310
  738MPD2    N110914   2.771   0.686  15.143 -0.3485 -0.3792  0.3213
  738MPD2    H710915   2.762   0.633  15.057 -1.2154  1.5341 -0.7765
  739TMC3    C110916   3.321   0.923  14.831  1.1241 -0.1164  0.1677
  739TMC3    C210917   3.344   0.918  14.694  0.1920 -0.2173 -0.1138
  739TMC3    C310918   3.462   0.864  14.646 -0.0614  0.4805 -0.0154
  739TMC3    C410919   3.423   0.894  14.916  0.3741 -0.2783 -0.1764
  739TMC3    C510920   3.540   0.850  14.866 -0.1956  0.1992  0.0965
  739TMC3    C610921   3.569   0.828  14.732  0.5794 -0.1904 -0.4191
  739TMC3     C10922   3.179   0.903  14.867 -0.3028 -0.0345  0.0613
  739TMC3     O10923   3.096   0.854  14.789 -0.1753  0.1088  0.5477
  739TMC3     H10924   3.275   0.953  14.618 -1.9641 -2.2298  0.9019
  739TMC3    H110925   3.405   0.900  15.022 -0.6789  0.5812 -0.3951
  739TMC3    H210926   3.661   0.783  14.698  0.7445  0.1719 -0.4471
  739TMC3    C710927   3.618   0.783  14.971  0.4276  0.3076 -0.5633
  739TMC3    C810928   3.483   0.877  14.501 -0.3504  0.0568  0.1924
  739TMC3    O110929   3.617   0.834  15.084  0.2245  0.1506 -0.7776
  739TMC3    O210930   3.410   0.950  14.439 -0.0137 -0.2675  0.0690
  740TMC3    C110931   3.816   2.082  14.322 -0.6855 -1.1074  0.0438
  740TMC3    C210932   3.844   2.020  14.445  0.3789  0.4089  0.3464
  740TMC3    C310933   3.971   1.961  14.438  0.3631 -0.6708  0.4491
  740TMC3    C410934   3.899   2.096  14.218 -0.6570 -0.3052 -0.4554
  740TMC3    C510935   4.022   2.037  14.230  0.1631  0.1327 -0.1216
  740TMC3    C610936   4.063   1.974  14.337 -0.1922  0.0856 -0.0927
  740TMC3     C10937   3.697   2.155  14.312 -0.0536 -0.2024  0.5359
  740TMC3     O10938   3.677   2.243  14.228 -0.2316 -0.2719 -0.7043
  740TMC3     H10939   3.776   2.006  14.528  1.7149  0.0675  1.3702
  740TMC3    H110940   3.865   2.143  14.127 -1.2986 -3.4143 -1.8022
  740TMC3    H210941   4.168   1.947  14.341 -0.5723 -1.0837  2.1640
  740TMC3    C710942   4.108   1.999  14.117 -1.0289 -0.2954  0.9272
  740TMC3    C810943   4.001   1.881  14.554 -0.9565 -0.0224  0.3911
  740TMC3    O110944   4.182   1.905  14.131 -0.5686  0.1386  0.4120
  740TMC3    O210945   4.126   1.875  14.574  0.7118 -0.1125  0.3016
  741TMC3    C110946   3.468   1.613  13.937  0.2927 -0.1938 -0.0488
  741TMC3    C210947   3.357   1.570  13.999 -0.0879 -0.5503 -0.1406
  741TMC3    C310948   3.366   1.449  14.064 -0.1197 -0.6444  0.0699
  741TMC3    C410949   3.582   1.539  13.927  0.7095  0.5930  0.2711
  741TMC3    C510950   3.598   1.436  14.017  0.2276  0.8504  0.3358
  741TMC3    C610951   3.489   1.385  14.085  0.2182  0.7215  0.3239
  741TMC3     C10952   3.436   1.724  13.841 -0.3732  0.0926  0.6959
  741TMC3     O10953   3.348   1.808  13.863 -0.1429 -0.3868  0.5983
  741TMC3     H10954   3.262   1.623  13.993  1.1341  1.8009  1.0323
  741TMC3    H110955   3.668   1.589  13.883  1.4189  0.4730  1.5065
  741TMC3    H210956   3.505   1.299  14.148  1.5631 -0.9344 -2.2636
  741TMC3    C710957   3.720   1.364  14.003 -0.0418  0.0286 -1.0848
  741TMC3    C810958   3.245   1.387  14.104 -0.1434  0.4103  0.7418
  741TMC3    O110959   3.802   1.408  13.918 -0.2399 -0.1206 -0.3383
  741TMC3    O210960   3.137   1.432  14.059  0.1151  0.2054  0.1333
  742TMC3    C110961   3.353   4.535  15.385  0.2503  0.0894  0.2275
  742TMC3    C210962   3.254   4.495  15.303 -0.5739  1.0304  0.3265
  742TMC3    C310963   3.267   4.368  15.252 -1.0764 -0.1982  0.3191
  742TMC3    C410964   3.473   4.475  15.395 -0.7346  0.6017  0.0535
  742TMC3    C510965   3.489   4.354  15.332  0.1130  0.2771  0.5754
  742TMC3    C610966   3.383   4.294  15.269 -0.1884  0.4076  0.4614
  742TMC3     C10967   3.305   4.609  15.501 -0.2738 -0.3346 -0.2499
  742TMC3     O10968   3.206   4.678  15.497 -0.3615  0.0073 -0.0210
  742TMC3     H10969   3.160   4.547  15.314 -0.1133  1.7108  1.0183
  742TMC3    H110970   3.552   4.525  15.448 -2.6804  2.3674  1.2711
  742TMC3    H210971   3.392   4.190  15.238  2.5719  0.4935  0.9405
  742TMC3    C710972   3.608   4.278  15.333 -0.0745  0.9754  1.2356
  742TMC3    C810973   3.160   4.305  15.178 -0.4925 -0.1464 -0.5272
  742TMC3    O110974   3.599   4.158  15.313 -0.2926 -0.0570  0.1975
  742TMC3    O210975   3.189   4.200  15.127  0.4159 -0.3017  0.5520
  743MPD2     C10976   0.752   0.137   1.333 -0.2880  0.3436 -0.0794
  743MPD2    C110977   0.842   0.205   1.262 -0.0925  0.0327  0.1170
  743MPD2    C210978   0.973   0.208   1.310 -0.2327 -0.7806 -0.0819
  743MPD2    C310979   1.005   0.137   1.426 -0.4312 -0.3241 -0.2757
  743MPD2    C410980   0.910   0.062   1.493 -0.0767  0.2012 -0.6056
  743MPD2    C510981   0.778   0.063   1.445  0.2876 -0.6347 -0.1247
  743MPD2     H10982   1.053   0.265   1.265 -0.6202 -1.7597 -2.0073
  743MPD2    H110983   0.941   0.005   1.579 -0.2111 -0.4104 -0.9658
  743MPD2    H210984   0.649   0.141   1.298  0.8081  1.4639 -3.1134
  743MPD2    H310985   0.698   0.017   1.501  0.6537 -1.8810 -0.6166
  743MPD2     N10986   1.144   0.124   1.458  0.9280 -0.0253  0.7289
  743MPD2    H510987   1.205   0.186   1.404  2.3657  0.7386  3.2326
  743MPD2    N110988   0.794   0.278   1.156  0.4753  0.4140  0.1603
  743MPD2    H710989   0.694   0.277   1.140  0.1432  0.0698  2.2242
  744TMC3    C110990   0.816   0.407   0.959  0.0060 -0.3127  0.1759
  744TMC3    C210991   0.684   0.450   0.963  0.7097 -0.1141  0.4238
  744TMC3    C310992   0.651   0.553   0.872  0.1694  0.3340  0.7820
  744TMC3    C410993   0.901   0.446   0.861  0.4396 -0.3107 -0.0160
  744TMC3    C510994   0.859   0.532   0.767 -0.0344  0.6131  0.1666
  744TMC3    C610995   0.740   0.597   0.775 -0.6587  0.2559  0.6265
  744TMC3     C10996   0.877   0.333   1.070  0.0686  0.1607 -0.2431
  744TMC3     O10997   0.999   0.329   1.069 -0.4797  0.0349  0.1392
  744TMC3     H10998   0.636   0.451   1.060 -1.2666  0.9421 -0.5881
  744TMC3    H110999   0.997   0.398   0.847 -0.4373 -1.9236 -0.4081
  744TMC3    H211000   0.713   0.682   0.714  0.8116 -0.8578 -1.5700
  744TMC3    C711001   0.958   0.572   0.663  0.0731  0.0560  0.1808
  744TMC3    C811002   0.538   0.636   0.915 -0.0387 -1.2859  0.0689
  744TMC3    O111003   1.076   0.547   0.680  0.1257  0.1099 -0.3558
  744TMC3    O211004   0.540   0.755   0.878  0.0806  0.4904  0.2771
  745TMC3    C111005   3.558   4.288  13.615  1.2362  0.1433 -0.0127
  745TMC3    C211006   3.476   4.187  13.663  1.1746 -0.1396 -0.5359
  745TMC3    C311007   3.351   4.176  13.601  0.7558  0.0107 -0.2873
  745TMC3    C411008   3.525   4.371  13.516 -0.0895  0.3516  0.5021
  745TMC3    C511009   3.409   4.341  13.450 -0.2293  0.7456  0.0980
  745TMC3    C611010   3.315   4.246  13.489  0.0617  0.1859  0.2851
  745TMC3     C11011   3.652   4.338  13.713  0.1438 -0.6574 -0.1636
  745TMC3     O11012   3.705   4.244  13.774 -0.0892 -0.1546 -0.0583
  745TMC3     H11013   3.510   4.119  13.740 -2.7062  0.4938  1.7650
  745TMC3    H111014   3.602   4.434  13.473 -0.4697  1.1288  0.9616
  745TMC3    H211015   3.224   4.227  13.434  0.1371 -2.0990  0.9425
  745TMC3    C711016   3.376   4.427  13.336 -0.0917  0.5441  0.3677
  745TMC3    C811017   3.233   4.118  13.668  0.4776 -0.1909 -0.4331
  745TMC3    O111018   3.290   4.391  13.256  0.3445 -0.6785  0.5312
  745TMC3    O211019   3.124   4.109  13.614  0.1689 -0.5176  0.0745
  746TMC3    C111020   0.855   1.021  11.142 -0.6366  0.3749 -0.0251
  746TMC3    C211021   0.939   1.022  11.033 -0.3861  0.1442  0.6806
  746TMC3    C311022   0.973   0.896  10.989 -0.4247 -0.2353  0.8894
  746TMC3    C411023   0.808   0.905  11.202 -0.0949 -0.3722  0.3202
  746TMC3    C511024   0.830   0.785  11.134  0.4264 -0.3898  0.3480
  746TMC3    C611025   0.929   0.780  11.044 -0.2935 -0.1939 -0.0398
  746TMC3     C11026   0.822   1.147  11.197 -0.2138  0.0606 -0.6241
  746TMC3     O11027   0.792   1.147  11.314 -0.5355  0.0736 -0.0741
  746TMC3     H11028   0.991   1.108  10.992 -1.0936 -0.4467 -1.4230
  746TMC3    H111029   0.757   0.909  11.298 -0.1059  1.5910  0.2166
  746TMC3    H211030   0.960   0.685  11.002 -0.5989 -0.1282 -0.4169
  746TMC3    C711031   0.788   0.667  11.203  0.7140  0.5040 -0.1353
  746TMC3    C811032   1.096   0.887  10.904 -0.1314  0.5932  0.3946
  746TMC3    O111033   0.872   0.588  11.236 -0.0044 -0.3564  0.2240
  746TMC3    O211034   1.158   0.781  10.902 -1.0147  0.7971 -0.0224
  747TMC3    C111035   3.642   1.366  10.642 -0.2723  0.5074 -0.4766
  747TMC3    C211036   3.557   1.277  10.691 -0.3397 -0.4359  0.3259
  747TMC3    C311037   3.543   1.275  10.828 -0.1489 -0.3997 -0.2146
  747TMC3    C411038   3.708   1.459  10.714 -0.1537 -0.0639  0.2551
  747TMC3    C511039   3.689   1.456  10.851  0.4676 -0.9018 -0.2743
  747TMC3    C611040   3.604   1.368  10.907  0.0047  0.4548 -0.0133
  747TMC3     C11041   3.631   1.403  10.502 -0.0302 -0.2189 -0.0326
  747TMC3     O11042   3.639   1.521  10.473 -0.1120 -0.0438  0.6840
  747TMC3     H11043   3.496   1.210  10.632 -0.4398  0.0301 -0.0938
  747TMC3    H111044   3.775   1.528  10.663  0.1921 -1.1605 -0.7880
  747TMC3    H211045   3.588   1.371  11.014  1.5705 -0.8356  0.2569
  747TMC3    C711046   3.776   1.533  10.943 -0.3936 -0.8916 -0.1270
  747TMC3    C811047   3.447   1.194  10.888 -0.7564 -0.4972  0.5361
  747TMC3    O111048   3.745   1.536  11.061  0.3632 -0.2409  0.4616
  747TMC3    O211049   3.454   1.077  10.866 -0.9105 -0.4396 -0.6844
  748MPD2     C11050   0.067   2.230   1.707 -0.1664  0.8423  0.9197
  748MPD2    C111051   0.138   2.117   1.672  0.1324  0.1711 -0.0852
  748MPD2    C211052   0.228   2.116   1.566 -0.3079 -0.2138  0.4570
  748MPD2    C311053   0.263   2.229   1.499  0.1375  0.3772 -0.1738
  748MPD2    C411054   0.198   2.347   1.536  0.1205 -0.1737  0.0740
  748MPD2    C511055   0.100   2.346   1.640 -0.5637 -0.6588  0.1444
  748MPD2     H11056   0.281   2.025   1.540  1.0669  0.3003  1.3987
  748MPD2    H111057   0.227   2.441   1.490  0.6543 -0.9820 -1.2405
  748MPD2    H211058   4.712   2.226   1.781 -1.8076 -1.0639 -0.9055
  748MPD2    H311059   0.052   2.442   1.648 -2.8539 -1.6897 -1.4212
  748MPD2     N11060   0.381   2.230   1.424  0.8783 -0.3551  0.5312
  748MPD2    H511061   0.436   2.145   1.421 -0.4200 -1.1825  0.3919
  748MPD2    N111062   0.107   2.007   1.750  0.3682 -0.0312 -0.2012
  748MPD2    H711063   0.033   2.010   1.819 -1.0979 -1.1962 -1.7234
  749TMC3    C111064   0.555   2.289   1.281 -0.5911  0.0918 -0.0263
  749TMC3    C211065   0.627   2.191   1.339  0.3662  0.4397  0.7341
  749TMC3    C311066   0.747   2.155   1.278 -0.5431 -0.4632 -0.0928
  749TMC3    C411067   0.596   2.353   1.165 -0.2830 -0.4792  0.6220
  749TMC3    C511068   0.718   2.305   1.112  0.1009 -0.0824 -0.8733
  749TMC3    C611069   0.795   2.218   1.174 -0.3217  0.2505 -0.5316
  749TMC3     C11070   0.427   2.329   1.339  0.5218 -0.5273  0.0834
  749TMC3     O11071   0.365   2.429   1.308  0.4347 -0.6034 -0.1046
  749TMC3     H11072   0.606   2.147   1.436  0.3756 -2.6528 -0.6730
  749TMC3    H111073   0.547   2.432   1.110 -1.2098 -1.0046  0.6785
  749TMC3    H211074   0.894   2.195   1.138  0.1621  2.5841 -0.7365
  749TMC3    C711075   0.768   2.380   0.988  0.0837 -0.1585 -0.0386
  749TMC3    C811076   0.840   2.083   1.367 -0.0039  0.6899 -0.2895
  749TMC3    O111077   0.890   2.380   0.978  0.4083 -0.0616  0.2681
  749TMC3    O211078   0.807   2.079   1.488  0.5403  0.4242 -0.3920
  750MPD2     C11079   1.837   3.504  11.652 -0.2413  0.4059 -0.6661
  750MPD2    C111080   1.751   3.409  11.706 -0.3327 -0.3011 -0.4208
  750MPD2    C211081   1.707   3.312  11.627  0.2294 -0.2132 -0.2519
  750MPD2    C311082   1.748   3.300  11.493  0.0513  0.3322 -0.0932
  750MPD2    C411083   1.839   3.390  11.440 -0.3238 -1.1065 -0.5667
  750MPD2    C511084   1.880   3.490  11.525  0.4612 -0.1326  0.2395
  750MPD2     H11085   1.643   3.235  11.668  1.0729  1.9211  5.0519
  750MPD2    H111086   1.871   3.381  11.337 -1.7429  2.5011 -1.3564
  750MPD2    H211087   1.872   3.591  11.706  0.2435  0.5428 -1.2102
  750MPD2    H311088   1.942   3.572  11.490  1.1510 -1.0207 -0.5861
  750MPD2     N11089   1.707   3.198  11.404 -0.3553 -0.6437  0.2358
  750MPD2    H511090   1.743   3.211  11.310  0.9438 -4.1400  0.2337
  750MPD2    N111091   1.710   3.432  11.840 -0.5154 -0.1600 -0.0449
  750MPD2    H711092   1.762   3.506  11.886 -3.1918  1.5625  0.2361
  751TMC3    C111093   1.568   3.030  11.308  0.2642  0.6917 -0.3204
  751TMC3    C211094   1.462   2.942  11.319 -0.1221  0.5004 -0.5384
  751TMC3    C311095   1.439   2.858  11.207 -0.0476  0.2116 -0.1081
  751TMC3    C411096   1.649   3.027  11.202  0.5217  0.6248  0.4842
  751TMC3    C511097   1.639   2.929  11.101 -0.0590 -0.0600  0.1769
  751TMC3    C611098   1.532   2.837  11.106 -0.1450  0.0026 -0.4091
  751TMC3     C11099   1.601   3.107  11.434  0.3094 -0.3124 -0.5169
  751TMC3     O11100   1.531   3.097  11.534  0.0493  0.1056  0.6797
  751TMC3     H11101   1.395   2.945  11.404  0.9876  1.3578  0.3079
  751TMC3    H111102   1.735   3.092  11.193  0.2840  1.0175  1.0589
  751TMC3    H211103   1.502   2.766  11.029  1.7777 -2.1325  0.8115
  751TMC3    C711104   1.713   2.938  10.980  0.1041  0.4045  0.4561
  751TMC3    C811105   1.328   2.767  11.231  0.0539  0.2603  0.5618
  751TMC3    O111106   1.769   3.043  10.952 -0.1003 -0.2568  0.1402
  751TMC3    O211107   1.349   2.658  11.181  0.0058  0.1222  0.1322
  752TMC3    C111108   0.634   2.740   0.088 -0.1674  0.0636  0.4703
  752TMC3    C211109   0.578   2.641   0.023  0.0910 -0.3246  0.3244
  752TMC3    C311110   0.591   2.517   0.080 -0.4801 -0.0687 -0.4631
  752TMC3    C411111   0.721   2.721   0.185 -0.0033 -0.6350  0.0891
  752TMC3    C511112   0.735   2.603   0.244  0.0536  0.4033  0.5103
  752TMC3    C611113   0.679   2.489   0.183 -0.1558  0.7946  0.4538
  752TMC3     C11114   0.611   2.877   0.044  0.1758 -0.1428 -0.8926
  752TMC3     O11115   0.689   2.960   0.089 -0.4162 -0.2040  0.0484
  752TMC3     H11116   0.515   2.647  17.631 -0.4296 -1.7203  0.5992
  752TMC3    H111117   0.759   2.811   0.232  0.8769 -1.0904  0.2610
  752TMC3    H211118   0.717   2.392   0.215 -0.4975 -0.2195 -2.2249
  752TMC3    C711119   0.857   2.573   0.315 -0.4304 -0.0750 -0.6154
  752TMC3    C811120   0.513   2.409   0.017  0.4489 -0.5698 -0.0503
  752TMC3    O111121   0.952   2.641   0.280 -0.0330 -0.0937  0.4082
  752TMC3    O211122   0.443   2.440  17.617 -0.4671  0.4545  0.4217
  753TMC3    C111123   2.045   4.368  13.296  0.4021  0.7707  0.0797
  753TMC3    C211124   2.178   4.395  13.327 -0.4378  0.4906 -0.0970
  753TMC3    C311125   2.248   4.287  13.367  0.2686  0.1049  0.1751
  753TMC3    C411126   1.987   4.245  13.289  0.2113 -0.3349  0.3070
  753TMC3    C511127   2.062   4.143  13.333  0.2504 -1.0657  1.0081
  753TMC3    C611128   2.191   4.166  13.385  0.8101 -0.2441 -0.0791
  753TMC3     C11129   1.968   4.474  13.248 -0.3965  0.2979 -0.4462
  753TMC3     O11130   1.884   4.431  13.171  0.2000  0.4147  0.3921
  753TMC3     H11131   2.221   4.494  13.317 -2.0191  1.3139  1.1581
  753TMC3    H111132   1.884   4.223  13.265 -0.7521  2.5038  1.9883
  753TMC3    H211133   2.244   4.075  13.413 -1.8895 -2.0031 -0.6218
  753TMC3    C711134   1.997   4.025  13.373 -0.5538 -0.1399  0.3010
  753TMC3    C811135   2.375   4.297  13.433  0.9084 -0.0673  0.5843
  753TMC3    O111136   1.927   3.961  13.297 -0.5709 -0.2037 -0.4552
  753TMC3    O211137   2.433   4.195  13.459 -0.1486 -0.2707 -0.3269
  754MPD2     C11138   1.204   2.879  13.242  0.0899  0.0588 -0.5261
  754MPD2    C111139   1.131   2.765  13.274  0.5018 -0.4940 -0.1858
  754MPD2    C211140   0.995   2.775  13.261 -0.8697 -0.4971 -0.7965
  754MPD2    C311141   0.932   2.896  13.231 -0.2837  0.6834 -0.1122
  754MPD2    C411142   1.004   3.003  13.187  0.5176  0.4699  0.2777
  754MPD2    C511143   1.142   2.996  13.198  0.2472  0.0871 -0.9109
  754MPD2     H11144   0.932   2.689  13.283  0.1388 -0.2063  3.2509
  754MPD2    H111145   0.958   3.091  13.143  0.3773  1.6773  2.8590
  754MPD2    H211146   1.310   2.875  13.261 -0.0974  0.9342  0.7571
  754MPD2    H311147   1.198   3.088  13.188 -0.1282  0.3417 -0.7069
  754MPD2     N11148   0.789   2.918  13.232  0.3091 -0.0319 -0.3531
  754MPD2    H511149   0.750   3.009  13.212  1.8775  1.2613  2.5140
  754MPD2    N111150   1.199   2.645  13.312 -0.2062  0.0374  0.6097
  754MPD2    H711151   1.299   2.645  13.297 -0.4850 -1.6206 -1.1457
  755MPD2     C11152   4.678   3.494  13.256  0.3848 -0.0108  0.0466
  755MPD2    C111153   0.070   3.489  13.336 -0.0437  0.2005  0.2442
  755MPD2    C211154   0.159   3.383  13.324 -0.0992 -0.1982  0.1546
  755MPD2    C311155   0.136   3.300  13.216 -1.0658 -0.4861 -0.4810
  755MPD2    C411156   0.026   3.306  13.129  0.3239 -0.1872  0.1460
  755MPD2    C511157   4.658   3.406  13.156  0.2545  0.1709 -0.4213
  755MPD2     H11158   0.252   3.386  13.380 -0.6025  0.3835  0.9605
  755MPD2    H111159   4.718   3.243  13.046 -0.5667 -0.7798  0.9287
  755MPD2    H211160   4.606   3.574  13.271 -0.9101 -1.4310  1.4895
  755MPD2    H311161   4.569   3.423  13.096 -0.5324  1.7976  1.1890
  755MPD2     N11162   0.227   3.196  13.196 -0.5849  0.3495  0.1706
  755MPD2    H511163   0.191   3.152  13.111  1.1953 -0.3890 -0.1988
  755MPD2    N111164   0.097   3.586  13.430 -0.1127 -0.9510  0.1936
  755MPD2    H711165   0.164   3.559  13.500  1.0794  0.9027 -0.2339
  756MPD2     C11166   1.734   3.796   9.272  0.9155 -0.2590 -0.2032
  756MPD2    C111167   1.647   3.866   9.350  0.1593 -0.5683  0.2195
  756MPD2    C211168   1.546   3.940   9.285 -0.0646 -0.0685  0.1225
  756MPD2    C311169   1.534   3.937   9.138 -0.0595  0.5136 -0.3168
  756MPD2    C411170   1.621   3.869   9.067  0.0719  0.2657  0.0820
  756MPD2    C511171   1.720   3.795   9.134  0.2129  0.0567 -0.5948
  756MPD2     H11172   1.471   3.988   9.346  0.1323  1.2881 -0.7100
  756MPD2    H111173   1.619   3.873   8.959  1.4900 -1.3251 -0.0063
  756MPD2    H211174   1.816   3.738   9.315 -0.2588 -1.1353  0.8453
  756MPD2    H311175   1.795   3.735   9.086  2.4851  1.2447  1.4395
  756MPD2     N11176   1.435   4.027   9.086  0.1227 -1.0509  0.1546
  756MPD2    H511177   1.376   4.073   9.155  2.0974  1.1469  0.3521
  756MPD2    N111178   1.660   3.873   9.493 -0.2381  0.2542 -0.3707
  756MPD2    H711179   1.586   3.928   9.533 -0.9817  1.0308 -2.7903
  757MPD2     C11180   0.636   4.171   9.402 -0.4132 -0.5629  0.8138
  757MPD2    C111181   0.718   4.059   9.400  0.6169 -0.6063 -0.5349
  757MPD2    C211182   0.816   4.056   9.300  0.6224 -0.0340 -0.0723
  757MPD2    C311183   0.846   4.166   9.221 -0.1722 -0.1123  0.4519
  757MPD2    C411184   0.764   4.282   9.231  0.0912  0.4404  0.1170
  757MPD2    C511185   0.664   4.281   9.323  0.0820  0.1244 -1.0585
  757MPD2     H11186   0.883   3.972   9.283  0.6070 -0.5929  2.5834
  757MPD2    H111187   0.770   4.358   9.155 -1.6814  0.9214  0.4652
  757MPD2    H211188   0.550   4.164   9.468 -2.2518 -0.3632 -1.5639
  757MPD2    H311189   0.601   4.369   9.326 -0.2203 -0.1000 -0.6852
  757MPD2     N11190   0.957   4.167   9.135 -0.2768  0.1661 -0.8222
  757MPD2    H511191   1.005   4.085   9.100  0.2594 -0.5782  1.6486
  757MPD2    N111192   0.697   3.948   9.490 -0.3291 -0.4198 -0.0987
  757MPD2    H711193   0.631   3.957   9.566  0.8037  0.2836  0.8122
  758MPD2     C11194   1.074   2.942  15.579 -0.0843  0.5527 -0.3612
  758MPD2    C111195   1.138   2.824  15.618  0.5721 -0.1379 -0.1252
  758MPD2    C211196   1.103   2.770  15.743 -0.3608  0.2252  0.0535
  758MPD2    C311197   1.004   2.822  15.823 -0.1006  0.5867 -0.1360
  758MPD2    C411198   0.955   2.948  15.789 -0.0682  0.1229 -0.1472
  758MPD2    C511199   0.991   3.000  15.668  0.7932 -0.3349 -0.5287
  758MPD2     H11200   1.156   2.679  15.769 -0.2252  0.7191  1.5487
  758MPD2    H111201   0.887   2.998  15.858  1.2113 -0.3364  1.4397
  758MPD2    H211202   1.084   2.991  15.483  0.5921  0.3568 -0.3935
  758MPD2    H311203   0.952   3.099  15.647  0.9754 -0.1748 -0.1184
  758MPD2     N11204   0.971   2.761  15.952 -0.2202 -0.2918 -0.0919
  758MPD2    H511205   0.907   2.813  16.011 -0.7667 -0.0329 -0.9144
  758MPD2    N111206   1.232   2.757  15.539 -0.6510  0.4594 -0.1399
  758MPD2    H711207   1.277   2.681  15.588  1.7534  0.5236 -2.3203
  759MPD2     C11208   1.144   1.096   8.833  0.3410 -0.5231 -0.0186
  759MPD2    C111209   1.008   1.100   8.835  0.3201 -0.3103 -0.4402
  759MPD2    C211210   0.939   1.213   8.807 -0.0248 -0.4534 -0.4465
  759MPD2    C311211   1.003   1.326   8.770 -0.2281 -0.3418  0.2159
  759MPD2    C411212   1.140   1.322   8.754 -0.5112 -0.3589  0.3280
  759MPD2    C511213   1.211   1.209   8.790  0.4446 -0.1303  0.1021
  759MPD2     H11214   0.830   1.214   8.802 -0.0515  1.4530  0.6980
  759MPD2    H111215   1.199   1.400   8.707  1.0949 -1.1621  0.9916
  759MPD2    H211216   1.201   1.005   8.852 -0.4775 -1.0700 -0.1801
  759MPD2    H311217   1.319   1.205   8.784  0.5130  1.5577  0.1556
  759MPD2     N11218   0.929   1.431   8.725  0.0970  0.0800 -0.1128
  759MPD2    H511219   0.832   1.419   8.698 -0.0873  1.0472  0.1480
  759MPD2    N111220   0.929   0.983   8.854  0.0733  0.6324  0.3211
  759MPD2    H711221   0.828   0.980   8.866  0.0513 -1.1268 -0.2753
  760MPD2     C11222   4.233   3.243  11.964  0.6011  0.6968  0.2280
  760MPD2    C111223   4.368   3.247  11.952  0.4423 -1.0844 -0.9978
  760MPD2    C211224   4.446   3.138  11.989  0.3711 -0.7899  0.0736
  760MPD2    C311225   4.387   3.022  12.025  0.3497  0.1655 -0.4916
  760MPD2    C411226   4.248   3.016  12.032  0.2732  0.7426  0.2018
  760MPD2    C511227   4.176   3.129  12.008 -0.6560  0.5372  0.0831
  760MPD2     H11228   4.552   3.161  11.981  0.4024 -1.1433 -0.5039
  760MPD2    H111229   4.206   2.918  12.050  1.1804  0.9024  3.2144
  760MPD2    H211230   4.167   3.326  11.942  1.8268  1.4351 -0.6924
  760MPD2    H311231   4.071   3.114  11.986 -0.4571  1.7775 -1.6905
  760MPD2     N11232   4.469   2.908  12.046  0.7275 -0.2138  0.2451
  760MPD2    H511233   4.422   2.820  12.066 -1.2269  0.6059 -0.7182
  760MPD2    N111234   4.444   3.360  11.915  0.4114 -0.7635  0.2377
  760MPD2    H711235   4.544   3.365  11.929  0.5793 -1.2115 -0.8402
  761MPD2     C11236   0.930   2.622  11.488  0.6431  0.7065  0.8999
  761MPD2    C111237   1.019   2.545  11.414 -0.6799 -0.1329 -0.1194
  761MPD2    C211238   1.121   2.615  11.351  0.0647  0.3466 -0.8714
  761MPD2    C311239   1.123   2.750  11.352 -0.4085 -0.3853 -0.0296
  761MPD2    C411240   1.030   2.824  11.423 -0.0383  0.8125  0.1465
  761MPD2    C511241   0.940   2.754  11.494 -0.2160 -0.1050 -0.2102
  761MPD2     H11242   1.197   2.553  11.307 -1.5102 -1.0948 -1.5481
  761MPD2    H111243   1.026   2.932  11.421 -0.0826  0.7872 -1.4345
  761MPD2    H211244   0.846   2.580  11.542  0.0681 -1.0922 -1.3821
  761MPD2    H311245   0.869   2.818  11.546  0.3018  0.9863 -0.8464
  761MPD2     N11246   1.220   2.824  11.292  0.1152 -0.2044 -0.2513
  761MPD2    H511247   1.213   2.923  11.315  2.7003 -0.4183  1.4783
  761MPD2    N111248   1.002   2.407  11.419 -0.1774 -0.0165  0.2152
  761MPD2    H711249   0.926   2.371  11.475 -1.1717  1.7583  0.0154
  762MPD2     C11250   0.785   1.915  10.827  0.0744 -0.3386 -0.2357
  762MPD2    C111251   0.912   1.902  10.898  0.0779 -0.1893 -0.3962
  762MPD2    C211252   1.018   1.859  10.822  0.5315 -0.0245  0.8356
  762MPD2    C311253   1.012   1.835  10.685 -0.2905  0.0189  0.0065
  762MPD2    C411254   0.886   1.844  10.620  0.4409 -0.0819 -0.0683
  762MPD2    C511255   0.777   1.881  10.696 -0.1981  0.7013  0.0036
  762MPD2     H11256   1.118   1.854  10.864  1.8232 -0.0764 -2.2581
  762MPD2    H111257   0.865   1.834  10.514  1.0356 -3.0070  0.0723
  762MPD2    H211258   0.698   1.943  10.885  1.3871  1.7801  0.6980
  762MPD2    H311259   0.680   1.895  10.650 -0.3128  0.5234  0.1899
  762MPD2     N11260   1.137   1.806  10.623 -0.6571  0.7635 -0.3475
  762MPD2    H511261   1.221   1.789  10.678 -0.2943 -2.6958 -1.9612
  762MPD2    N111262   0.917   1.936  11.036  0.5236 -0.3644  0.6852
  762MPD2    H711263   0.830   1.972  11.075  0.1806  1.2901 -1.5384
  763MPD2     C11264   3.138   2.607  16.272 -0.4122  0.1710  0.5408
  763MPD2    C111265   3.046   2.698  16.231  0.7309  0.4586  0.6992
  763MPD2    C211266   3.027   2.810  16.317  0.4466  0.0758  0.2794
  763MPD2    C311267   3.107   2.835  16.423  0.0824 -0.6176 -0.1986
  763MPD2    C411268   3.199   2.743  16.464 -0.0683 -0.0259  0.2448
  763MPD2    C511269   3.209   2.629  16.394  0.1943 -0.4669  0.2836
  763MPD2     H11270   2.962   2.889  16.281 -0.5192 -1.2494 -0.9033
  763MPD2    H111271   3.261   2.751  16.552  1.1815  1.4297 -0.7739
  763MPD2    H211272   3.170   2.533  16.199  0.6444 -0.4289  1.6140
  763MPD2    H311273   3.294   2.567  16.420  1.2365  0.8706  0.0188
  763MPD2     N11274   3.097   2.952  16.502 -0.2301 -0.1164  0.4994
  763MPD2    H511275   3.162   2.960  16.579  0.4205 -1.8698  0.1261
  763MPD2    N111276   2.961   2.688  16.116  0.0260  0.0802 -0.2169
  763MPD2    H711277   2.901   2.767  16.095  1.2421  1.5805  1.9287
  764MPD2     C11278   0.788   4.268  17.522 -0.5225  0.3689  0.2437
  764MPD2    C111279   0.723   4.147  17.509  0.8698 -0.2720 -0.4568
  764MPD2    C211280   0.704   4.079  17.625  0.2359 -0.4878  0.1232
  764MPD2    C311281   0.765   4.114   0.050 -0.2075 -0.1993  0.1224
  764MPD2    C411282   0.847   4.228   0.052 -0.5373  0.0866  0.2443
  764MPD2    C511283   0.852   4.304  17.635 -0.1531  0.6573  0.8987
  764MPD2     H11284   0.630   4.000  17.628  1.6322 -1.7728  0.6765
  764MPD2    H111285   0.885   4.273   0.143  0.8491  1.7529 -1.1382
  764MPD2    H211286   0.801   4.332  17.435 -0.6086 -0.2616 -0.2302
  764MPD2    H311287   0.890   4.405  17.647 -1.9929  1.2789  1.4663
  764MPD2     N11288   0.738   4.030   0.162  0.3242 -0.6964  0.7666
  764MPD2    H511289   0.675   3.951   0.148  0.2579 -0.6932  1.0530
  764MPD2    N111290   0.652   4.106  17.394 -0.5083  0.1569 -0.7936
  764MPD2    H711291   0.601   4.018  17.394  0.4586 -0.4031 -0.4811
  765MPD2     C11292   0.643   1.815  15.792 -0.1238  0.4067 -0.3340
  765MPD2    C111293   0.720   1.859  15.895 -0.4850  0.6574  0.0845
  765MPD2    C211294   0.855   1.826  15.893  0.4737  0.1624  0.5440
  765MPD2    C311295   0.905   1.736  15.796  0.2826  0.0904 -0.1829
  765MPD2    C411296   0.822   1.698  15.693 -0.5666 -0.1935  0.4335
  765MPD2    C511297   0.697   1.741  15.691  0.9325 -0.7031 -0.2225
  765MPD2     H11298   0.927   1.855  15.969  1.4442  4.2540 -1.9038
  765MPD2    H111299   0.852   1.633  15.612 -0.0752  0.0985  0.3788
  765MPD2    H211300   0.544   1.852  15.769 -0.0626  0.0113 -1.2105
  765MPD2    H311301   0.636   1.716  15.605 -0.5782  2.4649 -0.0855
  765MPD2     N11302   1.044   1.703  15.806 -0.3776 -0.0060 -0.0553
  765MPD2    H511303   1.105   1.745  15.875 -3.2134  3.3932  0.4260
  765MPD2    N111304   0.665   1.942  15.989  0.2002  0.0226 -0.0012
  765MPD2    H711305   0.564   1.953  15.990 -0.0018 -1.8115 -2.7539
  766MPD2     C11306   4.673   2.074  15.972 -1.5379  0.6602 -0.1331
  766MPD2    C111307   0.081   2.032  15.946  0.3963 -0.4720 -0.0668
  766MPD2    C211308   0.113   1.955  15.838  0.3877  0.8487 -0.3711
  766MPD2    C311309   0.009   1.905  15.757  0.2287 -0.0111  0.4394
  766MPD2    C411310   4.608   1.916  15.804 -0.1055  0.1108 -0.5447
  766MPD2    C511311   4.576   2.005  15.903 -0.2071  0.0160 -0.1056
  766MPD2     H11312   0.213   1.956  15.797 -0.0722 -1.6116 -1.5433
  766MPD2    H111313   4.521   1.874  15.755  0.2561  0.0898 -1.1763
  766MPD2    H211314   4.647   2.158  16.035  0.5599  1.6200 -0.5687
  766MPD2    H311315   4.471   2.028  15.919 -0.6635 -1.2124 -1.3429
  766MPD2     N11316   0.034   1.830  15.632  0.3742 -0.0741 -0.6798
  766MPD2    H511317   4.681   1.822  15.566  0.9082 -1.6595 -1.1196
  766MPD2    N111318   0.189   2.089  16.021 -0.3293 -0.0227  0.3533
  766MPD2    H711319   0.161   2.165  16.081 -0.1681 -0.9110  1.5631
  767MPD2     C11320   4.505   2.367  15.681 -0.3908 -0.4289 -0.0907
  767MPD2    C111321   4.586   2.294  15.606 -0.1898 -0.1669  0.0614
  767MPD2    C211322   4.542   2.227  15.498 -0.6129 -0.3675 -0.4886
  767MPD2    C311323   4.407   2.234  15.467  0.2484 -0.1069  0.3306
  767MPD2    C411324   4.322   2.319  15.539 -0.3953  0.5478 -0.3533
  767MPD2    C511325   4.370   2.381  15.652  0.1368  0.2520 -0.1667
  767MPD2     H11326   4.608   2.165  15.438 -0.8585 -1.3193  0.2134
  767MPD2    H111327   4.219   2.344  15.518  0.0522  2.5486 -0.1810
  767MPD2    H211328   4.534   2.427  15.766  0.2013 -2.2773  1.0128
  767MPD2    H311329   4.304   2.440  15.715  0.2882  1.4385 -1.0983
  767MPD2     N11330   4.368   2.167  15.346 -0.1431 -0.1106  0.3617
  767MPD2    H511331   4.440   2.117  15.296 -0.1640 -0.2759  0.4994
  767MPD2    N111332   4.720   2.300  15.656  0.0691  0.3393 -0.1547
  767MPD2    H711333   0.007   2.351  15.743  3.0081 -1.3993  0.5179
  768MPD2     C11334   1.015   0.737  10.470  0.0387  0.1092 -0.5151
  768MPD2    C111335   0.911   0.672  10.538  0.3392 -0.0965  0.3244
  768MPD2    C211336   0.951   0.589  10.646 -0.0924  0.3853 -0.4474
  768MPD2    C311337   1.084   0.567  10.682  0.4845 -0.1001 -0.8790
  768MPD2    C411338   1.184   0.645  10.612  0.1743  0.1632  0.5891
  768MPD2    C511339   1.144   0.725  10.507 -0.7884 -0.2702 -0.2003
  768MPD2     H11340   0.874   0.538  10.703 -1.3464  0.0189 -2.4910
  768MPD2    H111341   1.289   0.621  10.623  0.1004 -0.6348 -0.5292
  768MPD2    H211342   0.994   0.786  10.376 -0.0714  0.1840 -0.4516
  768MPD2    H311343   1.215   0.766  10.435 -2.0805  1.6940 -0.3495
  768MPD2     N11344   1.118   0.493  10.795 -0.6741  0.3811 -0.0012
  768MPD2    H511345   1.214   0.511  10.822 -0.4432 -1.1927  0.2047
  768MPD2    N111346   0.767   0.698  10.515 -0.1656 -0.0691 -0.6314
  768MPD2    H711347   0.707   0.652  10.583  0.5988 -0.0015  0.0892
  769MPD2     C11348   1.597   3.461  14.851  0.6485  0.8369  0.1156
  769MPD2    C111349   1.631   3.353  14.929 -0.6886  0.3133 -0.4273
  769MPD2    C211350   1.693   3.384  15.054  0.1964  0.1325  0.0893
  769MPD2    C311351   1.722   3.513  15.089 -0.4478 -1.1391  0.3624
  769MPD2    C411352   1.665   3.616  15.023  1.0703 -0.1522 -0.3136
  769MPD2    C511353   1.600   3.581  14.909  0.6791 -0.2672 -0.0311
  769MPD2     H11354   1.716   3.294  15.112 -0.2762 -1.2422 -1.8610
  769MPD2    H111355   1.665   3.723  15.045  1.9883 -0.0508 -0.8096
  769MPD2    H211356   1.545   3.446  14.757 -0.1475 -1.3549  0.8782
  769MPD2    H311357   1.549   3.663  14.860 -1.0556 -2.9972 -2.8271
  769MPD2     N11358   1.797   3.530  15.204 -0.0319  0.2032 -0.6009
  769MPD2    H511359   1.824   3.442  15.247  1.2941  1.6582  1.5449
  769MPD2    N111360   1.593   3.222  14.886 -0.5509 -0.3212 -0.4677
  769MPD2    H711361   1.548   3.225  14.795  2.0200  1.0479 -1.6999
  770MPD2     C11362   1.660   2.152  14.728 -0.0492  0.3657 -0.1173
  770MPD2    C111363   1.523   2.184  14.742 -0.3941 -0.9951  1.2821
  770MPD2    C211364   1.487   2.307  14.781  0.2064 -0.0445  0.2825
  770MPD2    C311365   1.586   2.402  14.808  0.4268  0.0836 -0.4875
  770MPD2    C411366   1.718   2.364  14.810 -0.7025 -0.2002 -0.5503
  770MPD2    C511367   1.752   2.239  14.772 -0.1569 -0.0793 -0.6304
  770MPD2     H11368   1.383   2.335  14.797  0.2174  0.9972 -1.4670
  770MPD2    H111369   1.799   2.428  14.842 -1.7311  0.3347  0.9767
  770MPD2    H211370   1.686   2.054  14.691  2.9903 -0.0916  3.2338
  770MPD2    H311371   1.858   2.216  14.765 -0.2068 -1.0920  2.0146
  770MPD2     N11372   1.541   2.537  14.817  0.0893  0.1623  0.1661
  770MPD2    H511373   1.442   2.554  14.806  0.0702  0.2758  0.5341
  770MPD2    N111374   1.431   2.081  14.729 -0.9191  0.0907 -0.3275
  770MPD2    H711375   1.468   1.987  14.716  2.2519  1.1573  1.0954
  771MPD2     C11376   2.712   1.737  13.928 -0.6749  0.8961 -0.0944
  771MPD2    C111377   2.580   1.774  13.914 -0.5370 -0.5452  0.2210
  771MPD2    C211378   2.494   1.689  13.849 -0.6068  0.2137  0.6930
  771MPD2    C311379   2.548   1.573  13.796 -0.2472 -0.3859  0.1394
  771MPD2    C411380   2.680   1.543  13.804 -0.4123 -0.1037 -0.0649
  771MPD2    C511381   2.760   1.623  13.874 -0.0052 -0.3696  0.2574
  771MPD2     H11382   2.389   1.713  13.839 -0.0701  2.6538  0.9502
  771MPD2    H111383   2.713   1.451  13.757 -2.5897  0.4564 -2.6923
  771MPD2    H211384   2.790   1.798  13.971  1.0629 -0.8373 -0.7929
  771MPD2    H311385   2.866   1.603  13.884  0.3722  0.9353 -1.2815
  771MPD2     N11386   2.446   1.493  13.731 -0.1870  0.4936 -0.3593
  771MPD2    H511387   2.353   1.531  13.741  0.6900  2.7713 -0.7737
  771MPD2    N111388   2.539   1.899  13.960 -0.4267 -0.0713  0.3105
  771MPD2    H711389   2.444   1.920  13.933 -0.3989 -2.7636 -1.9088
  772MPD2     C11390   2.103   2.430  13.689 -0.1256  0.0750  0.3096
  772MPD2    C111391   2.124   2.325  13.780  0.0253  0.5657  0.3944
  772MPD2    C211392   2.017   2.268  13.847 -0.2250 -0.7109 -0.2461
  772MPD2    C311393   1.891   2.313  13.816  0.0595 -0.3680 -0.1469
  772MPD2    C411394   1.868   2.412  13.726 -0.3146 -0.4101  0.1852
  772MPD2    C511395   1.975   2.469  13.664  0.0564  0.5155  0.2496
  772MPD2     H11396   2.025   2.185  13.916 -1.8579 -0.5911  0.1013
  772MPD2    H111397   1.762   2.433  13.710 -0.9911 -1.5526  3.1289
  772MPD2    H211398   2.177   2.488  13.635  0.8603 -1.3777  0.0804
  772MPD2    H311399   1.956   2.550  13.595 -3.1940  0.9958  1.6971
  772MPD2     N11400   1.770   2.249  13.861  0.0894  0.2087 -0.5128
  772MPD2    H511401   1.681   2.284  13.827 -1.6755 -1.3521  2.5449
  772MPD2    N111402   2.259   2.287  13.821  0.5258  0.5601 -0.4335
  772MPD2    H711403   2.271   2.215  13.892  2.4892  1.5503  0.2184
  773MPD2     C11404   1.761   2.647   0.136  0.1381 -0.6448 -1.0358
  773MPD2    C111405   1.681   2.567   0.059  0.2103 -0.3178 -0.1012
  773MPD2    C211406   1.718   2.439   0.034 -0.5246  1.2292 -0.0457
  773MPD2    C311407   1.824   2.385   0.101 -0.0407 -0.4851 -0.4658
  773MPD2    C411408   1.901   2.459   0.189  0.2361  0.1940 -0.7853
  773MPD2    C511409   1.865   2.590   0.206 -0.4822  0.3162 -0.1257
  773MPD2     H11410   1.656   2.374  17.668  1.7220 -2.1157  1.2006
  773MPD2    H111411   1.981   2.416   0.248  0.8454  0.5918 -1.3355
  773MPD2    H211412   1.733   2.752   0.138 -2.2363 -1.2808 -1.1800
  773MPD2    H311413   1.927   2.658   0.264 -0.4907  0.8154 -0.7029
  773MPD2     N11414   1.851   2.247   0.072 -0.1270  0.4011 -0.6545
  773MPD2    H511415   1.790   2.202   0.004 -0.0892  1.3673 -1.3274
  773MPD2    N111416   1.570   2.612  17.680 -0.4631 -0.1757 -0.8759
  773MPD2    H711417   1.536   2.541  17.615  2.0494 -0.6956 -1.6214
  774MPD2     C11418   0.440   1.975  13.745  0.1475 -0.6645  0.0516
  774MPD2    C111419   0.509   2.048  13.845 -0.1483  0.0793 -0.3141
  774MPD2    C211420   0.597   2.143  13.801 -0.5446 -0.3305 -0.2552
  774MPD2    C311421   0.619   2.164  13.666  0.1905 -0.5761  0.6867
  774MPD2    C411422   0.552   2.086  13.570  0.3783 -0.4917 -0.6719
  774MPD2    C511423   0.460   1.993  13.610  0.1552 -0.5217  0.4257
  774MPD2     H11424   0.652   2.205  13.871 -0.4192  0.6790 -1.2373
  774MPD2    H111425   0.553   2.108  13.464 -0.9876  0.0934 -0.5619
  774MPD2    H211426   0.381   1.887  13.771 -0.6417  0.3674  1.7129
  774MPD2    H311427   0.423   1.929  13.531  1.7868  0.8280 -1.4626
  774MPD2     N11428   0.683   2.286  13.630  0.6301 -0.0499 -0.3138
  774MPD2    H511429   0.699   2.352  13.705 -0.4807 -1.7386  1.4057
  774MPD2    N111430   0.506   1.990  13.978 -0.2224 -0.4444 -0.3184
  774MPD2    H711431   0.582   2.016  14.040 -0.7020  1.4413 -0.5003
  775MPD2     C11432   2.394   3.530  16.131  0.2496 -0.0622 -0.3682
  775MPD2    C111433   2.320   3.615  16.051 -0.5044  0.5657  0.2521
  775MPD2    C211434   2.372   3.735  16.003 -0.4981 -0.3809 -0.5714
  775MPD2    C311435   2.496   3.777  16.054  0.1999  0.1721  0.3359
  775MPD2    C411436   2.566   3.695  16.139  0.9630  0.0144 -0.9064
  775MPD2    C511437   2.517   3.575  16.173  0.3759  0.3117  0.3773
  775MPD2     H11438   2.319   3.800  15.935 -0.4363  0.0314 -0.2176
  775MPD2    H111439   2.655   3.738  16.183 -0.2231  0.4925  1.0424
  775MPD2    H211440   2.359   3.432  16.159 -0.0677  0.5349  1.3145
  775MPD2    H311441   2.593   3.512  16.219  1.4186  1.1608 -0.1902
  775MPD2     N11442   2.552   3.904  16.027 -0.6000 -0.2567  0.1082
  775MPD2    H511443   2.640   3.918  16.075 -0.7157  2.2833 -0.4334
  775MPD2    N111444   2.190   3.570  16.026 -0.0444  0.1917  0.2056
  775MPD2    H711445   2.168   3.483  16.074 -0.0622  1.1319  1.8897
  776MPD2     C11446   1.061   3.871  11.930 -0.1800  0.2191 -0.4711
  776MPD2    C111447   1.200   3.875  11.931 -0.1894 -0.4206  0.3576
  776MPD2    C211448   1.260   3.941  11.827 -0.3795  0.3023 -0.2905
  776MPD2    C311449   1.190   4.005  11.726 -1.2274  0.4465 -0.1054
  776MPD2    C411450   1.054   4.010  11.738  0.3338 -0.6017 -0.0909
  776MPD2    C511451   0.994   3.944  11.841  0.1333 -0.0227  0.4928
  776MPD2     H11452   1.368   3.939  11.818 -0.3215 -0.0464  0.4939
  776MPD2    H111453   1.001   4.080  11.675  0.0246 -1.3725 -0.7024
  776MPD2    H211454   1.002   3.820  12.006 -2.8580  0.4476 -2.4309
  776MPD2    H311455   0.886   3.952  11.852 -0.0442  0.9078 -1.9370
  776MPD2     N11456   1.257   4.057  11.616  0.1959  0.2188 -0.0811
  776MPD2    H511457   1.358   4.046  11.621 -0.0186 -0.1200  3.7426
  776MPD2    N111458   1.264   3.787  12.023 -0.1909 -0.2216  0.1989
  776MPD2    H711459   1.204   3.713  12.057 -0.8811  0.4233  0.3893
  777MPD2     C11460   1.877   1.460   0.595 -0.7323 -0.1609  0.5321
  777MPD2    C111461   1.753   1.419   0.654 -0.8043 -0.5489 -0.0165
  777MPD2    C211462   1.677   1.321   0.591  0.0692  0.2164  0.0102
  777MPD2    C311463   1.710   1.284   0.465 -0.0400 -0.2028 -0.1329
  777MPD2    C411464   1.822   1.330   0.403  0.0514 -0.2367  0.5360
  777MPD2    C511465   1.912   1.411   0.473 -0.4515 -0.0338 -0.5106
  777MPD2     H11466   1.600   1.272   0.650 -0.6764  1.0047 -0.3208
  777MPD2    H111467   1.861   1.304   0.305 -0.0221  0.1966  0.3895
  777MPD2    H211468   1.944   1.527   0.648 -1.6144  2.0448 -1.1341
  777MPD2    H311469   2.004   1.450   0.432  0.8710 -2.2041  0.4220
  777MPD2     N11470   1.645   1.175   0.409  0.1176  0.5437 -0.0771
  777MPD2    H511471   1.565   1.141   0.462  0.8549 -2.7816 -1.0492
  777MPD2    N111472   1.732   1.466   0.782 -0.1272  0.3068  0.4043
  777MPD2    H711473   1.815   1.510   0.822  1.1214 -4.0108  2.5721
  778MPD2     C11474   2.637   1.796  14.828  0.4986  0.5990 -0.1791
  778MPD2    C111475   2.667   1.686  14.753 -0.4113  0.2900 -0.2960
  778MPD2    C211476   2.746   1.712  14.643 -0.7893 -0.2540 -0.2171
  778MPD2    C311477   2.787   1.836  14.602  0.0865  0.0791 -0.1355
  778MPD2    C411478   2.744   1.941  14.672  0.4243 -0.7288 -0.6801
  778MPD2    C511479   2.673   1.916  14.782  0.4342  0.1006 -0.5768
  778MPD2     H11480   2.784   1.629  14.584  2.4306 -0.0271  1.5487
  778MPD2    H111481   2.769   2.046  14.657 -0.9113 -0.2145  0.7577
  778MPD2    H211482   2.570   1.794  14.914  0.9389 -3.8549  0.0672
  778MPD2    H311483   2.630   2.006  14.824 -0.5511 -1.2346  1.2372
  778MPD2     N11484   2.873   1.842  14.494  0.5724 -0.1530 -0.0946
  778MPD2    H511485   2.904   1.758  14.446 -0.1581 -1.6771  2.1155
  778MPD2    N111486   2.614   1.557  14.784  0.5371 -0.5354 -0.1901
  778MPD2    H711487   2.637   1.480  14.722 -0.3001  0.8169 -2.1838
  779MPD2     C11488   2.134   0.710  14.099 -0.2182 -0.4821 -0.7974
  779MPD2    C111489   2.268   0.696  14.144 -0.0929 -0.8266 -0.4457
  779MPD2    C211490   2.338   0.803  14.201  1.1868 -0.0415  0.1553
  779MPD2    C311491   2.266   0.920  14.224  0.5484  0.4086  0.0962
  779MPD2    C411492   2.128   0.929  14.192  0.3754  0.4979  0.2289
  779MPD2    C511493   2.067   0.823  14.128 -0.0010 -0.1445  0.4083
  779MPD2     H11494   2.445   0.800  14.221  1.6160 -0.9337 -2.3165
  779MPD2    H111495   2.065   1.017  14.208 -0.2129  0.3759 -1.4511
  779MPD2    H211496   2.066   0.638  14.055 -2.2095  1.2040 -0.4732
  779MPD2    H311497   1.971   0.834  14.077 -0.1682 -0.7810  0.5881
  779MPD2     N11498   2.334   1.029  14.287  1.0057 -0.2454 -0.5870
  779MPD2    H511499   2.433   1.011  14.301  1.0313 -0.8305 -1.5745
  779MPD2    N111500   2.333   0.576  14.120 -0.1762 -0.5221  0.0517
  779MPD2    H711501   2.424   0.565  14.163  0.3666  0.0590 -0.9498
  780MPD2     C11502   0.620   0.092   0.664 -0.3765  0.2112  0.4772
  780MPD2    C111503   0.749   0.093   0.714  0.2893  0.4518  0.0967
  780MPD2    C211504   0.848   0.155   0.642  0.3204 -0.0485  0.4230
  780MPD2    C311505   0.827   0.192   0.513  0.0076  1.3465 -0.5033
  780MPD2    C411506   0.694   0.198   0.464  0.0625  0.2142  0.1835
  780MPD2    C511507   0.598   0.147   0.544 -0.1033 -0.0792  0.1838
  780MPD2     H11508   0.950   0.160   0.679 -0.0752 -0.0981  1.5085
  780MPD2    H111509   0.660   0.260   0.381 -1.6253  0.4938  1.1035
  780MPD2    H211510   0.538   0.054   0.723  0.6298 -3.3079 -0.4088
  780MPD2    H311511   0.498   0.149   0.502 -0.4357 -1.2049  0.9228
  780MPD2     N11512   0.945   0.249   0.445 -0.6103 -0.7148  0.1860
  780MPD2    H511513   1.027   0.269   0.500 -1.9318  1.2697  1.4077
  780MPD2    N111514   0.765   0.015   0.831 -0.1908 -0.4496  0.5163
  780MPD2    H711515   0.677   4.693   0.855  0.2188 -1.3188  0.3547
  781MPD2     C11516   3.820   2.424  11.835 -1.2703  0.1490  0.4401
  781MPD2    C111517   3.781   2.309  11.892  0.2507  0.9791 -0.4431
  781MPD2    C211518   3.824   2.194  11.836 -0.1141  1.4095  0.1745
  781MPD2    C311519   3.903   2.188  11.724  0.5340 -0.5227 -0.4951
  781MPD2    C411520   3.947   2.307  11.673 -0.4975 -0.9041 -0.2881
  781MPD2    C511521   3.903   2.426  11.726 -0.3297  0.1864  0.2083
  781MPD2     H11522   3.787   2.101  11.876  0.5797  0.7431 -0.7075
  781MPD2    H111523   4.002   2.315  11.580 -0.3965  1.8327  0.0196
  781MPD2    H211524   3.778   2.516  11.875  1.5395  1.6782 -0.1321
  781MPD2    H311525   3.925   2.521  11.679  2.2957 -0.7436 -0.4699
  781MPD2     N11526   3.942   2.065  11.670 -0.8495 -0.4848 -0.0756
  781MPD2    H511527   4.007   2.058  11.592 -0.2811 -1.0104  0.4516
  781MPD2    N111528   3.712   2.295  12.015  0.2884  0.5358 -0.4840
  781MPD2    H711529   3.687   2.198  12.032  0.9470  0.1817 -1.5368
  782MPD2     C11530   2.130   3.522  10.802  0.0680  0.9035 -0.5348
  782MPD2    C111531   2.197   3.402  10.788 -0.1165  0.0840  0.5072
  782MPD2    C211532   2.274   3.346  10.893  0.3884  0.0016 -0.1029
  782MPD2    C311533   2.265   3.410  11.013  0.1252  0.6493  0.2766
  782MPD2    C411534   2.204   3.531  11.021  0.0115 -0.0989 -0.4551
  782MPD2    C511535   2.131   3.584  10.921 -0.4279 -0.2882 -1.0699
  782MPD2     H11536   2.323   3.251  10.879  2.0541  0.7292  0.7801
  782MPD2    H111537   2.211   3.598  11.105 -3.6887  1.3525 -1.3424
  782MPD2    H211538   2.067   3.572  10.729  0.4843  0.3647 -1.2635
  782MPD2    H311539   2.088   3.683  10.931  2.0772  0.8775 -1.7466
  782MPD2     N11540   2.316   3.348  11.128 -0.8089 -0.7481 -0.2398
  782MPD2    H511541   2.375   3.267  11.110  0.0611  0.1454 -1.4135
  782MPD2    N111542   2.186   3.324  10.666 -0.2247 -0.0799  0.5472
  782MPD2    H711543   2.246   3.242  10.663 -0.6735 -0.3230 -2.3442
  783MPD2     C11544   1.776   2.652  10.749 -0.0411  0.2558  0.0419
  783MPD2    C111545   1.775   2.779  10.798 -0.1170 -0.7251 -0.9180
  783MPD2    C211546   1.804   2.884  10.711 -0.5227  0.2819  0.3311
  783MPD2    C311547   1.829   2.862  10.574  0.4341 -0.0073 -0.2364
  783MPD2    C411548   1.831   2.731  10.526  0.3753  0.3410  0.1224
  783MPD2    C511549   1.805   2.626  10.613 -0.1570  0.4085 -0.2038
  783MPD2     H11550   1.795   2.985  10.748 -1.1354  0.2191  0.3585
  783MPD2    H111551   1.852   2.712  10.422 -0.2084  0.2326  0.0253
  783MPD2    H211552   1.750   2.564  10.807 -1.3562  0.7971  0.2760
  783MPD2    H311553   1.774   2.531  10.572 -0.1417  0.0465  0.6290
  783MPD2     N11554   1.863   2.976  10.496  0.1461 -0.3237  0.2495
  783MPD2    H511555   1.867   3.070  10.534  0.7712  0.4068 -1.6251
  783MPD2    N111556   1.725   2.806  10.927  0.1881  0.2489  0.3097
  783MPD2    H711557   1.695   2.732  10.989 -1.1962  0.1861 -0.4266
  784MPD2     C11558   3.505   3.869   0.508 -0.5557 -0.7935  0.3552
  784MPD2    C111559   3.442   3.812   0.618 -0.2315  0.0252  0.2636
  784MPD2    C211560   3.327   3.868   0.669 -0.5257 -0.6134  0.5825
  784MPD2    C311561   3.258   3.962   0.605 -0.4275  0.5745  0.2316
  784MPD2    C411562   3.315   4.012   0.488  0.5647 -0.0805 -0.1218
  784MPD2    C511563   3.438   3.966   0.442 -0.7097  0.5145  0.0866
  784MPD2     H11564   3.296   3.831   0.766 -3.1665 -1.1526 -0.4424
  784MPD2    H111565   3.268   4.090   0.430 -1.1149 -1.7473 -1.0058
  784MPD2    H211566   3.598   3.827   0.470  0.9506  0.2714  2.8928
  784MPD2    H311567   3.482   4.012   0.355  2.0921 -2.7246 -0.1945
  784MPD2     N11568   3.139   4.009   0.675 -0.5672  0.2995 -0.0082
  784MPD2    H511569   3.117   3.966   0.764 -0.8694  0.3292 -0.0674
  784MPD2    N111570   3.505   3.722   0.711 -0.4394 -0.0293  0.1680
  784MPD2    H711571   3.446   3.682   0.784 -1.8025  1.0524 -0.3380
  785MPD2     C11572   4.107   2.533   9.686 -0.4054  0.0098 -0.0433
  785MPD2    C111573   4.127   2.399   9.718 -0.3542 -0.3824 -0.2089
  785MPD2    C211574   4.052   2.339   9.816 -0.0192 -0.0349 -0.4244
  785MPD2    C311575   3.952   2.407   9.866 -0.4763 -0.0873 -0.5103
  785MPD2    C411576   3.916   2.535   9.825 -0.1112  0.1062  0.3223
  785MPD2    C511577   3.993   2.593   9.722 -0.2933 -0.3090 -0.5863
  785MPD2     H11578   4.071   2.239   9.853  1.1605  0.6675  0.8772
  785MPD2    H111579   3.845   2.599   9.877  0.2071  1.1085 -0.4822
  785MPD2    H211580   4.174   2.587   9.621 -0.8673  0.7183  0.0747
  785MPD2    H311581   3.983   2.697   9.693 -2.4010 -0.8382 -1.7461
  785MPD2     N11582   3.891   2.349   9.986  0.1381 -0.0526 -0.2018
  785MPD2    H511583   3.925   2.260  10.021  1.6268  0.5867 -0.0180
  785MPD2    N111584   4.240   2.339   9.659 -0.1739  0.0919  0.0970
  785MPD2    H711585   4.293   2.393   9.591  0.3978 -0.4293  0.1307
  786MPD2     C11586   2.725   4.328  14.899  0.0487  0.8042  0.1651
  786MPD2    C111587   2.849   4.266  14.876  0.5825  1.0627 -0.5246
  786MPD2    C211588   2.949   4.287  14.964  0.3063  0.2991  0.6328
  786MPD2    C311589   2.938   4.363  15.080 -0.3637 -0.1914  0.0986
  786MPD2    C411590   2.815   4.424  15.099  0.3274  0.2860 -0.6165
  786MPD2    C511591   2.710   4.412  15.009 -0.6883  0.2979 -0.8371
  786MPD2     H11592   3.044   4.237  14.948 -0.5041 -1.0158  0.0283
  786MPD2    H111593   2.801   4.468  15.197 -0.9808  1.3466 -1.2719
  786MPD2    H211594   2.639   4.301  14.839  0.0068  0.1293  0.5193
  786MPD2    H311595   2.615   4.463  15.023 -0.9439 -0.8703  1.6333
  786MPD2     N11596   3.044   4.376  15.174 -0.0351 -0.6475  0.2734
  786MPD2    H511597   3.028   4.449  15.243 -0.7258 -0.7674  0.2410
  786MPD2    N111598   2.882   4.195  14.764  0.0072  0.7343  0.0772
  786MPD2    H711599   2.977   4.159  14.759 -0.3117 -0.2925  1.3921
  787MPD2     C11600   2.865   3.423  14.826 -0.0532  0.7891  0.2956
  787MPD2    C111601   2.962   3.507  14.779  0.3988  0.7311  1.0393
  787MPD2    C211602   3.097   3.481  14.812  0.2177 -0.2157  0.2383
  787MPD2    C311603   3.131   3.375  14.895 -0.0025 -0.0868  0.1997
  787MPD2    C411604   3.032   3.288  14.934 -0.6283 -0.7591 -0.3657
  787MPD2    C511605   2.901   3.311  14.898  0.5940 -1.1769 -0.5691
  787MPD2     H11606   3.179   3.537  14.769 -1.6065  2.4157  0.2043
  787MPD2    H111607   3.058   3.206  15.001 -1.7252 -0.1773  0.7640
  787MPD2    H211608   2.764   3.443  14.792 -0.6029  0.1173  1.5514
  787MPD2    H311609   2.819   3.246  14.928 -1.3897  0.3307 -2.6959
  787MPD2     N11610   3.268   3.354  14.925  0.3916 -0.4713  0.0321
  787MPD2    H511611   3.347   3.398  14.879 -0.0442 -1.0032 -1.2062
  787MPD2    N111612   2.928   3.615  14.697  0.3271  0.1698  0.1207
  787MPD2    H711613   2.835   3.616  14.654  0.4058  0.9668 -0.0407
  788MPD2     C11614   0.110   1.907   1.156  0.1260 -0.2837 -0.4264
  788MPD2    C111615   0.047   1.900   1.029  0.1448  0.9231  0.0450
  788MPD2    C211616   0.072   1.994   0.932 -0.0048  0.2665 -0.1714
  788MPD2    C311617   0.170   2.087   0.954 -0.7900  0.0826 -0.2654
  788MPD2    C411618   0.245   2.089   1.075  0.3156 -0.3368 -0.2818
  788MPD2    C511619   0.216   2.000   1.175 -0.2392  0.1231 -0.6248
  788MPD2     H11620   0.014   1.994   0.840 -0.1215  2.4566 -0.1088
  788MPD2    H111621   0.323   2.163   1.088  0.3064 -0.6100  1.4239
  788MPD2    H211622   0.093   1.822   1.221  0.8194  0.3870  0.6368
  788MPD2    H311623   0.282   1.989   1.261  1.2559 -0.9805 -1.9242
  788MPD2     N11624   0.227   2.166   0.858  0.5773 -0.6795 -0.5084
  788MPD2    H511625   0.314   2.212   0.880 -0.1617  1.8948 -2.9629
  788MPD2    N111626   4.685   1.790   0.999  0.4376 -0.4311  0.2102
  788MPD2    H711627   4.630   1.795   0.914 -1.2422  1.1017  1.3970
  789MPD2     C11628   0.625   2.581  16.307 -0.1549  0.4147  0.3675
  789MPD2    C111629   0.607   2.537  16.441  0.2574  0.1176 -0.4699
  789MPD2    C211630   0.539   2.623  16.533 -0.8894 -0.1770 -0.2946
  789MPD2    C311631   0.488   2.746  16.490  0.4959 -0.3226 -0.0549
  789MPD2    C411632   0.502   2.781  16.360 -0.2463 -0.2951  0.3854
  789MPD2    C511633   0.577   2.703  16.270  0.3517 -0.3724 -0.5226
  789MPD2     H11634   0.537   2.605  16.640  0.5606  0.0922 -0.2299
  789MPD2    H111635   0.462   2.877  16.331 -0.0500 -0.0010  1.1083
  789MPD2    H211636   0.693   2.528  16.242 -0.8227 -0.2906  0.2448
  789MPD2    H311637   0.608   2.735  16.171  1.6239 -3.7891 -1.2287
  789MPD2     N11638   0.403   2.826  16.571  1.3002  0.5287 -0.0196
  789MPD2    H511639   0.376   2.915  16.530  2.1557  0.0537 -1.6167
  789MPD2    N111640   0.652   2.410  16.484 -0.7117 -0.4362 -0.4392
  789MPD2    H711641   0.623   2.386  16.578  2.1565  0.3682  0.6226
  790MPD2     C11642   1.673   3.990  13.843 -0.2982  0.6716  0.1889
  790MPD2    C111643   1.634   3.859  13.810  0.2304  0.0949 -0.3697
  790MPD2    C211644   1.579   3.836  13.685 -0.1402  0.7010 -0.1876
  790MPD2    C311645   1.558   3.940  13.592 -0.2042  0.0702  0.0150
  790MPD2    C411646   1.598   4.067  13.628  0.3818  1.0872  0.1917
  790MPD2    C511647   1.654   4.090  13.751  0.1552 -0.4909 -1.1725
  790MPD2     H11648   1.556   3.736  13.651  0.2466  0.7171 -0.4963
  790MPD2    H111649   1.598   4.150  13.558  0.5981 -0.3837 -1.5457
  790MPD2    H211650   1.718   4.030  13.933  0.0355 -0.7932  0.6756
  790MPD2    H311651   1.673   4.194  13.777 -0.6016 -0.3250 -1.2696
  790MPD2     N11652   1.504   3.910  13.468  0.1579  0.2751  0.7668
  790MPD2    H511653   1.497   3.813  13.441  1.1801 -0.0264  1.6062
  790MPD2    N111654   1.677   3.759  13.905 -0.2378 -0.6556 -0.2564
  790MPD2    H711655   1.733   3.798  13.981  0.8191 -1.8285 -0.4285
  791MPD2     C11656   0.879   4.151  13.087  0.4732  0.5621 -0.6640
  791MPD2    C111657   0.911   4.017  13.083  0.2660  0.0334  0.2024
  791MPD2    C211658   0.813   3.931  13.028  0.2041 -0.1207 -0.2903
  791MPD2    C311659   0.694   3.985  12.974  0.2310  0.6736  0.3360
  791MPD2    C411660   0.667   4.116  12.986 -0.4216 -1.1664 -0.5298
  791MPD2    C511661   0.761   4.194  13.039  0.2450 -0.1431 -0.7816
  791MPD2     H11662   0.838   3.826  13.019 -1.9766 -0.7035  0.4604
  791MPD2    H111663   0.575   4.161  12.953  0.4001  0.6370 -0.3494
  791MPD2    H211664   0.936   4.227  13.139  1.2793 -1.5056  1.4928
  791MPD2    H311665   0.745   4.301  13.046 -0.3186 -0.3158  0.5019
  791MPD2     N11666   0.613   3.893  12.897  0.3231 -0.4378  0.2058
  791MPD2    H511667   0.654   3.800  12.892  2.1270  0.3121  1.1131
  791MPD2    N111668   1.043   3.974  13.118  0.4583 -0.0778  0.2351
  791MPD2    H711669   1.115   4.045  13.123  0.1401  0.4000 -1.8254
  792MPD2     C11670   1.681   3.845  11.385 -0.1202 -0.5846 -0.2366
  792MPD2    C111671   1.680   3.884  11.258 -0.0184  0.7660 -0.2488
  792MPD2    C211672   1.620   3.802  11.168 -0.1071  0.2276 -0.6161
  792MPD2    C311673   1.580   3.671  11.192  0.1069 -0.4596 -0.3036
  792MPD2    C411674   1.596   3.628  11.322  0.0792 -0.0526 -0.0539
  792MPD2    C511675   1.633   3.724  11.421 -0.2643  0.6917 -0.2264
  792MPD2     H11676   1.609   3.847  11.069 -2.6720 -0.2381 -0.5475
  792MPD2    H111677   1.561   3.531  11.356  2.0194  0.1743  2.6185
  792MPD2    H211678   1.707   3.912  11.466 -0.5359 -1.0734  0.2997
  792MPD2    H311679   1.619   3.708  11.527  1.3898 -0.9281 -0.2529
  792MPD2     N11680   1.541   3.574  11.096 -0.5414  0.3262 -0.0965
  792MPD2    H511681   1.505   3.485  11.129  0.0299  0.6846  1.4951
  792MPD2    N111682   1.732   4.014  11.230 -0.0028  0.3224  0.8134
  792MPD2    H711683   1.758   4.069  11.311  1.1449  1.2707 -0.2179
  793MPD2     C11684   1.283   3.773  10.118  0.8822  0.4021  0.1600
  793MPD2    C111685   1.408   3.793  10.165  0.5999  0.1689  1.0715
  793MPD2    C211686   1.431   3.736  10.288  0.4202  0.4510  0.0807
  793MPD2    C311687   1.347   3.647  10.354  0.6041  0.5197 -1.1295
  793MPD2    C411688   1.224   3.629  10.299  0.3676 -0.8219  0.8157
  793MPD2    C511689   1.193   3.687  10.178  0.5981 -0.1365 -0.0220
  793MPD2     H11690   1.529   3.764  10.324  0.6101 -0.1195  0.0066
  793MPD2    H111691   1.155   3.556  10.342 -0.9163  0.4991  0.9985
  793MPD2    H211692   1.278   3.793  10.012 -1.8726  0.4148  0.2951
  793MPD2    H311693   1.098   3.675  10.128 -0.8146 -1.2414  2.9318
  793MPD2     N11694   1.390   3.588  10.474 -0.2334  0.4595  0.0076
  793MPD2    H511695   1.478   3.623  10.509 -0.3978  1.6266 -0.7442
  793MPD2    N111696   1.509   3.865  10.094 -0.6196 -0.2758  0.0704
  793MPD2    H711697   1.592   3.890  10.146 -1.3125 -0.7934  1.4444
  794MPD2     C11698   1.218   3.283  17.238 -0.5407  1.2706  0.4664
  794MPD2    C111699   1.213   3.153  17.184  0.7817 -0.3578  0.1651
  794MPD2    C211700   1.143   3.134  17.070  0.3044 -0.1610 -0.4261
  794MPD2    C311701   1.083   3.244  17.006 -0.3046 -0.1468 -0.0088
  794MPD2    C411702   1.086   3.367  17.063  0.4203  0.4987 -0.4129
  794MPD2    C511703   1.162   3.385  17.170  0.2256 -0.6978 -0.1075
  794MPD2     H11704   1.139   3.033  17.033 -0.9425  0.3319 -1.6202
  794MPD2    H111705   1.033   3.453  17.024 -1.8882 -0.1150  1.3768
  794MPD2    H211706   1.282   3.302  17.323 -1.2120  2.8289  0.6246
  794MPD2    H311707   1.175   3.489  17.197  0.5802 -0.7003 -0.2606
  794MPD2     N11708   0.984   3.222  16.906 -0.5395  0.6331  0.3510
  794MPD2    H511709   0.921   3.295  16.873  1.2914  2.0326 -0.0658
  794MPD2    N111710   1.252   3.036  17.258  0.0751 -0.4882  0.0952
  794MPD2    H711711   1.263   2.946  17.212  2.1789 -0.1205 -0.1544
  795MPD2     C11712   3.418   0.970  13.483  0.1733 -0.0832  0.5856
  795MPD2    C111713   3.365   0.853  13.516  0.7031 -0.8754 -0.5969
  795MPD2    C211714   3.444   0.761  13.588  0.2259  0.8767 -0.0405
  795MPD2    C311715   3.576   0.794  13.611  0.3348 -0.8731  0.5643
  795MPD2    C411716   3.619   0.921  13.591  0.1580  0.8456 -0.5066
  795MPD2    C511717   3.539   1.008  13.526 -0.0674 -0.1185 -0.5353
  795MPD2     H11718   3.402   0.665  13.616 -1.6563  1.5988 -0.3296
  795MPD2    H111719   3.715   0.963  13.621  1.0806 -2.6579  1.3574
  795MPD2    H211720   3.373   1.038  13.411  0.1827 -1.9970 -1.2423
  795MPD2    H311721   3.580   1.106  13.501  1.4880 -0.6081  0.0431
  795MPD2     N11722   3.663   0.700  13.666 -0.8639 -0.8008 -1.0374
  795MPD2    H511723   3.622   0.609  13.687 -2.1018 -0.0615 -0.2356
  795MPD2    N111724   3.234   0.814  13.481 -0.2107 -0.2704 -0.0989
  795MPD2    H711725   3.209   0.723  13.517  0.6720  0.1071  1.5136
  796MPD2     C11726   3.316   2.401  15.985 -0.5110  0.1455 -0.0482
  796MPD2    C111727   3.402   2.467  16.081 -0.1271 -0.0164 -0.9326
  796MPD2    C211728   3.397   2.605  16.084 -0.5918  0.1566  0.2372
  796MPD2    C311729   3.306   2.673  15.999  0.9627 -0.1252 -0.3234
  796MPD2    C411730   3.240   2.606  15.898  0.2023  0.0064 -0.9054
  796MPD2    C511731   3.240   2.473  15.893 -0.4042 -0.0256 -0.4157
  796MPD2     H11732   3.453   2.661  16.159  0.4589 -0.5692 -0.0147
  796MPD2    H111733   3.182   2.650  15.818  0.6506  1.0894 -0.6498
  796MPD2    H211734   3.319   2.293  15.977 -0.3339  0.3073 -2.3952
  796MPD2    H311735   3.178   2.430  15.816  0.5059 -0.1434 -1.0779
  796MPD2     N11736   3.306   2.811  16.016  0.9950  0.0765  0.0997
  796MPD2    H511737   3.372   2.852  16.082 -1.3647  1.3185  1.6596
  796MPD2    N111738   3.476   2.378  16.163  0.5704 -0.0772 -0.7113
  796MPD2    H711739   3.461   2.279  16.146  3.0582 -0.9193  2.0813
  797MPD2     C11740   4.194   1.781  17.455 -0.1275  0.0581 -0.3963
  797MPD2    C111741   4.309   1.855  17.484  1.0763  0.2625 -0.0868
  797MPD2    C211742   4.323   1.976  17.414 -0.5145  0.4440 -0.3687
  797MPD2    C311743   4.217   2.029  17.334 -0.2982 -0.3890  0.5430
  797MPD2    C411744   4.108   1.952  17.318  0.6983  0.4260  0.0325
  797MPD2    C511745   4.095   1.835  17.379 -0.1403 -0.3512  0.4250
  797MPD2     H11746   4.413   2.034  17.431  0.8112 -0.8244 -3.0413
  797MPD2    H111747   4.027   1.986  17.254  0.6863  0.0186 -0.1719
  797MPD2    H211748   4.174   1.685  17.500 -0.0224  0.9194  1.4730
  797MPD2    H311749   4.002   1.779  17.381 -0.1543 -0.3368  0.1254
  797MPD2     N11750   4.210   2.161  17.286 -0.3051  0.1379 -0.0949
  797MPD2    H511751   4.140   2.166  17.213 -2.2626  1.9857  1.8701
  797MPD2    N111752   4.415   1.814  17.568 -0.0163  0.0890 -0.7757
  797MPD2    H711753   4.503   1.861  17.551  0.8192 -0.6180  1.7377
  798MPD2     C11754   0.060   2.436  17.548 -0.0653 -0.6416 -0.1808
  798MPD2    C111755   4.688   2.354  17.501  0.3067  0.1547  0.6180
  798MPD2    C211756   4.653   2.235  17.565 -0.2993  0.5728  0.4995
  798MPD2    C311757   4.717   2.195  17.682 -0.7811 -0.1769  0.7844
  798MPD2    C411758   0.086   2.283   0.038  0.3995 -0.3195 -0.5411
  798MPD2    C511759   0.121   2.397  17.663 -0.0703  0.0792 -0.8361
  798MPD2     H11760   4.572   2.177  17.522  0.4925 -2.0979  2.5854
  798MPD2    H111761   0.137   2.260   0.131  0.0097 -1.0351 -0.5057
  798MPD2    H211762   0.104   2.527  17.507 -0.3833  0.0382  1.0037
  798MPD2    H311763   0.197   2.460   0.014 -0.9714  0.6392 -0.0861
  798MPD2     N11764   4.683   2.071   0.038 -0.5510 -0.1437  0.2023
  798MPD2    H511765   4.624   2.010  17.677  0.7393 -0.1916 -1.1279
  798MPD2    N111766   4.621   2.387  17.386 -0.0055 -0.2451  0.0454
  798MPD2    H711767   4.540   2.328  17.368 -1.1410  0.8539  1.5273
  799MPD2     C11768   3.569   2.845  14.686 -0.0179  0.9618 -0.0193
  799MPD2    C111769   3.470   2.873  14.774 -0.1743 -0.5487 -0.0878
  799MPD2    C211770   3.381   2.974  14.738  0.4371 -0.8682  0.2688
  799MPD2    C311771   3.388   3.044  14.617 -0.0889  0.0089  0.1271
  799MPD2    C411772   3.495   3.023  14.531  0.0747 -0.6221 -0.1647
  799MPD2    C511773   3.572   2.918  14.567  0.0134  0.5676 -0.0582
  799MPD2     H11774   3.298   2.999  14.803 -1.3190 -1.8859 -1.5969
  799MPD2    H111775   3.523   3.073  14.439  1.5481 -1.6406 -0.2778
  799MPD2    H211776   3.641   2.764  14.692 -0.4544  0.8268  3.4892
  799MPD2    H311777   3.634   2.889  14.483 -0.7497  0.5434 -0.6151
  799MPD2     N11778   3.283   3.128  14.568  0.2916 -0.3413  0.3191
  799MPD2    H511779   3.294   3.152  14.470  2.4033 -1.0509  0.3675
  799MPD2    N111780   3.439   2.799  14.890 -0.3547 -0.3390  0.4704
  799MPD2    H711781   3.347   2.822  14.929 -0.5677 -1.0267  0.3749
  800MPD2     C11782   3.020   3.926  14.090 -0.1712 -0.4070 -0.2363
  800MPD2    C111783   3.153   3.944  14.122 -0.4997  0.6255 -0.3214
  800MPD2    C211784   3.237   3.989  14.019  0.4106 -0.0077  0.3684
  800MPD2    C311785   3.188   4.016  13.895  0.6952 -0.7972  0.0667
  800MPD2    C411786   3.057   3.989  13.869  0.3314 -1.0100 -0.2229
  800MPD2    C511787   2.970   3.945  13.966  0.1374 -0.0507  0.6060
  800MPD2     H11788   3.343   4.007  14.036  0.2836  0.0499  1.1059
  800MPD2    H111789   3.022   4.001  13.767 -0.9277  0.3088  0.3508
  800MPD2    H211790   2.950   3.891  14.164  0.0721  2.2937  1.2930
  800MPD2    H311791   2.875   3.906  13.933 -0.4006  1.0576  0.8339
  800MPD2     N11792   3.272   4.080  13.798 -0.1459 -0.0177 -0.0875
  800MPD2    H511793   3.367   4.108  13.821 -0.5081 -0.3062  1.7069
  800MPD2    N111794   3.190   3.911  14.255  0.1202 -0.1292  0.2259
  800MPD2    H711795   3.118   3.877  14.317 -1.7588  0.9067 -1.3772
  801MPD2     C11796   3.501   4.312  14.891  0.0138 -0.5445  0.2188
  801MPD2    C111797   3.383   4.294  14.830  0.3693 -0.3526  0.0391
  801MPD2    C211798   3.290   4.397  14.830 -0.5554  0.2577 -0.3835
  801MPD2    C311799   3.306   4.505  14.918 -0.2498 -0.2723  0.7065
  801MPD2    C411800   3.424   4.514  14.989 -0.3016  0.0740  0.2156
  801MPD2    C511801   3.523   4.420  14.972 -0.1509 -0.0369  0.2228
  801MPD2     H11802   3.191   4.380  14.791 -0.6519 -0.5253  0.2070
  801MPD2    H111803   3.441   4.599  15.054  0.2526 -0.3468  0.6206
  801MPD2    H211804   3.577   4.235  14.877 -0.0038 -0.6003  0.4405
  801MPD2    H311805   3.615   4.430  15.028  0.2305 -0.4029 -0.3345
  801MPD2     N11806   3.208   4.608  14.932 -0.0935  0.3975  0.3490
  801MPD2    H511807   3.219   4.670  15.011  0.2749 -0.4729  0.9735
  801MPD2    N111808   3.368   4.164  14.773 -0.5145  0.2486  0.2632
  801MPD2    H711809   3.450   4.103  14.772 -0.2111  0.6554  0.0444
  802MPD2     C11810   2.424   4.586  17.592  0.4738 -0.0034  1.0929
  802MPD2    C111811   2.478   4.706  17.555  0.0772 -1.0799  0.3301
  802MPD2    C211812   2.599   4.704  17.486  0.3068 -0.0397 -0.1305
  802MPD2    C311813   2.674   4.586  17.488 -0.4528 -0.7416  0.1768
  802MPD2    C411814   2.630   4.465  17.540  0.6706 -0.0554  0.2660
  802MPD2    C511815   2.499   4.471  17.595 -1.0088  0.0169 -0.1624
  802MPD2     H11816   2.634   0.076  17.447  3.1175 -1.1148 -0.2357
  802MPD2    H111817   2.686   4.373  17.544 -0.1596 -0.5811 -0.1602
  802MPD2    H211818   2.339   4.566  17.656  0.6181 -1.7283  0.7303
  802MPD2    H311819   2.454   4.381  17.635  1.5806 -0.9605  0.5415
  802MPD2     N11820   2.798   4.596  17.423  0.0595  0.6843  0.1813
  802MPD2    H511821   2.822   4.686  17.384 -1.9753  0.7725 -0.8807
  802MPD2    N111822   2.411   0.109  17.577 -0.2819  0.0245 -0.6283
  802MPD2    H711823   2.448   0.194  17.535 -0.6488  0.6548  0.3273
  803MPD2     C11824   4.592   4.556  12.367 -0.0649  0.3823 -0.0522
  803MPD2    C111825   4.463   4.514  12.390  0.2181 -0.2284  0.1868
  803MPD2    C211826   4.413   4.405  12.330 -0.2530 -0.0605 -0.6870
  803MPD2    C311827   4.485   4.330  12.241 -0.3150  0.1234 -0.1951
  803MPD2    C411828   4.620   4.365  12.219  0.0841  0.4982  0.2137
  803MPD2    C511829   4.670   4.480  12.283  0.9360 -0.3423  0.1081
  803MPD2     H11830   4.310   4.372  12.333  0.5283 -2.4035  0.2380
  803MPD2    H111831   4.682   4.302  12.157  1.4799  0.5893  1.5240
  803MPD2    H211832   4.639   4.651  12.391  1.2952 -0.0302 -1.0854
  803MPD2    H311833   0.052   4.496  12.266  0.7835  0.4043 -0.1308
  803MPD2     N11834   4.431   4.236  12.158 -0.4064  0.1082  0.0545
  803MPD2    H511835   4.501   4.179  12.112  0.6671 -0.0224  1.8606
  803MPD2    N111836   4.379   4.575  12.479  0.3196  0.2158 -0.4736
  803MPD2    H711837   4.287   4.535  12.490  0.1529  0.8350  0.4204
  804MPD2     C11838   3.733   0.532  16.862  0.0180 -0.0663 -0.3346
  804MPD2    C111839   3.696   0.513  16.992  0.1975 -0.2655 -0.5328
  804MPD2    C211840   3.742   0.597  17.091  0.5766 -0.3826 -0.2153
  804MPD2    C311841   3.820   0.706  17.062 -0.3507 -0.0588  0.4861
  804MPD2    C411842   3.853   0.723  16.927  0.2248 -0.6672  0.0961
  804MPD2    C511843   3.803   0.643  16.831 -0.2495 -0.1954  0.0094
  804MPD2     H11844   3.717   0.572  17.194  1.5292 -0.3862  0.0174
  804MPD2    H111845   3.910   0.807  16.890  1.0022 -0.0007  2.7617
  804MPD2    H211846   3.708   0.462  16.783 -2.6410  0.2748  0.2054
  804MPD2    H311847   3.835   0.654  16.728  1.6343 -1.1773  0.4981
  804MPD2     N11848   3.890   0.782  17.165  0.3284 -0.0625  0.0730
  804MPD2    H511849   3.973   0.834  17.140  1.9806 -2.2629  1.0425
  804MPD2    N111850   3.611   0.408  17.031 -0.0769 -0.4086 -0.2017
  804MPD2    H711851   3.570   0.414  17.124 -0.7710  1.8352 -0.6529
  805MPD2     C11852   2.822   3.688  15.863 -0.2057  0.1970 -0.9160
  805MPD2    C111853   2.900   3.703  15.747  0.0633 -0.3052 -0.3847
  805MPD2    C211854   3.035   3.683  15.753  0.5228 -0.1174 -0.5753
  805MPD2    C311855   3.100   3.662  15.872 -0.2208 -0.3591 -0.5329
  805MPD2    C411856   3.023   3.668  15.992 -0.7471 -0.1518 -0.3754
  805MPD2    C511857   2.882   3.678  15.982  0.1669  0.5900 -0.4543
  805MPD2     H11858   3.098   3.683  15.664  0.3333 -0.4227 -0.7096
  805MPD2    H111859   3.067   3.671  16.091 -3.8354 -0.0251  0.9801
  805MPD2    H211860   2.714   3.691  15.864 -0.1812  1.4306 -1.7642
  805MPD2    H311861   2.821   3.678  16.071 -2.1572 -1.4426 -2.0409
  805MPD2     N11862   3.240   3.639  15.872  0.3378 -0.2181  0.0641
  805MPD2    H511863   3.289   3.658  15.785 -0.4983  2.8340  0.2435
  805MPD2    N111864   2.853   3.715  15.616 -0.2500  0.3714 -0.3880
  805MPD2    H711865   2.920   3.701  15.540 -1.0293  2.1875 -1.3898
  806MPD2     C11866   3.787   3.210   0.455  0.4147 -0.0341  0.2511
  806MPD2    C111867   3.668   3.263   0.513  0.2550 -0.1200  0.7211
  806MPD2    C211868   3.593   3.352   0.431 -0.6313  0.2982 -1.3311
  806MPD2    C311869   3.620   3.371   0.299  0.0470  0.0581  0.5119
  806MPD2    C411870   3.723   3.295   0.240  0.1109 -0.1836  0.0321
  806MPD2    C511871   3.798   3.208   0.318 -0.0492 -0.0752 -0.4858
  806MPD2     H11872   3.512   3.406   0.478  0.1495 -2.0144  2.6936
  806MPD2    H111873   3.736   3.299   0.132 -2.3666 -1.5126 -0.3433
  806MPD2    H211874   3.856   3.152   0.516  0.6245  0.0753  0.1207
  806MPD2    H311875   3.877   3.159   0.263  1.1428  0.9298  0.3596
  806MPD2     N11876   3.546   3.470   0.234  0.0904  0.0771 -0.3150
  806MPD2    H511877   3.472   3.515   0.288  0.9682  0.3564  0.6570
  806MPD2    N111878   3.640   3.246   0.649  0.1397  0.2218  0.1879
  806MPD2    H711879   3.708   3.193   0.703 -0.5125  1.0748  1.8516
  807MPD2     C11880   3.119   3.415   1.335 -1.2193  0.3376  0.1401
  807MPD2    C111881   3.199   3.306   1.337  0.0151  0.3057 -0.3882
  807MPD2    C211882   3.177   3.195   1.420 -0.4896 -0.0467  0.0561
  807MPD2    C311883   3.070   3.201   1.509  0.0797 -0.7473 -0.2526
  807MPD2    C411884   2.982   3.308   1.501  0.1945  0.1440  0.4215
  807MPD2    C511885   3.009   3.414   1.417  0.1002 -0.0152 -0.9115
  807MPD2     H11886   3.243   3.109   1.422  0.6417  0.7999 -0.3208
  807MPD2    H111887   2.901   3.319   1.573 -1.3238  1.1133 -1.4298
  807MPD2    H211888   3.137   3.505   1.277 -0.1458  0.7590  1.1211
  807MPD2    H311889   2.947   3.503   1.413 -1.4674 -1.1118 -1.2303
  807MPD2     N11890   3.042   3.099   1.599  0.1524  0.4796 -0.1214
  807MPD2    H511891   2.952   3.105   1.647  0.4420 -1.2040  0.6301
  807MPD2    N111892   3.318   3.294   1.257 -0.4613  0.1022  0.0619
  807MPD2    H711893   3.377   3.214   1.278  0.6483  1.1792  1.0273
  808MPD2     C11894   0.731   0.126   8.735 -0.5206 -0.3485  0.2487
  808MPD2    C111895   0.593   0.132   8.720 -0.5622 -0.4081 -0.0004
  808MPD2    C211896   0.540   0.213   8.624  0.3375  0.8204  0.1758
  808MPD2    C311897   0.620   0.304   8.546  0.1915 -0.5011  0.6208
  808MPD2    C411898   0.759   0.300   8.574  0.1870  0.0688 -0.2556
  808MPD2    C511899   0.809   0.208   8.658 -0.2480  0.1016 -0.0736
  808MPD2     H11900   0.433   0.227   8.628  0.0640 -1.7886  1.5956
  808MPD2    H111901   0.828   0.362   8.518  1.0262 -0.7731 -0.1565
  808MPD2    H211902   0.780   0.058   8.803  0.2143  0.2736  0.3328
  808MPD2    H311903   0.918   0.206   8.667 -0.5149 -1.2045  3.0005
  808MPD2     N11904   0.590   0.402   8.446  0.0438  0.0200 -0.1288
  808MPD2    H511905   0.660   0.469   8.416  0.4443 -0.2104  0.3003
  808MPD2    N111906   0.500   0.057   8.796 -0.1807  0.7602 -0.0740
  808MPD2    H711907   0.402   0.085   8.796 -0.5579 -0.5636  0.5425
  809MPD2     C11908   0.955   1.280   8.359  0.6447  0.0925 -0.3018
  809MPD2    C111909   0.998   1.151   8.400  0.2726  0.4681  0.2834
  809MPD2    C211910   0.907   1.046   8.408 -0.0673  0.0430  0.3566
  809MPD2    C311911   0.772   1.069   8.384 -0.0158  0.4097 -0.3059
  809MPD2    C411912   0.733   1.200   8.366 -0.1233  0.6699 -0.1392
  809MPD2    C511913   0.821   1.307   8.352  0.2541  0.7481  0.0712
  809MPD2     H11914   0.944   0.950   8.442  0.0270 -0.9172 -2.4324
  809MPD2    H111915   0.633   1.227   8.334 -0.6069 -0.6203  0.2754
  809MPD2    H211916   1.018   1.366   8.345  1.2441 -0.6486 -2.0895
  809MPD2    H311917   0.782   1.404   8.323 -2.2168 -0.1183  0.4996
  809MPD2     N11918   0.671   0.973   8.363 -0.0942 -0.2695 -1.0819
  809MPD2    H511919   0.576   1.002   8.342 -0.9907 -2.3946  0.0650
  809MPD2    N111920   1.131   1.118   8.427 -0.1933  0.3372  0.2626
  809MPD2    H711921   1.158   1.022   8.448  1.1366  1.1476  2.2899
  810MPD2     C11922   3.372   4.099  10.162 -0.8215 -0.1183 -0.5840
  810MPD2    C111923   3.410   3.978  10.218  0.7392  0.2632 -0.2656
  810MPD2    C211924   3.498   3.983  10.321 -0.1818  0.5129  0.0791
  810MPD2    C311925   3.560   4.094  10.368  0.1399 -0.2658  0.2426
  810MPD2    C411926   3.516   4.212  10.317 -0.3531  0.4309  0.1950
  810MPD2    C511927   3.422   4.213  10.217 -0.3547  0.1782 -0.7918
  810MPD2     H11928   3.531   3.890  10.365  1.0327  0.1547 -1.5758
  810MPD2    H111929   3.561   4.302  10.358  1.3544 -0.1014 -0.5141
  810MPD2    H211930   3.296   4.105  10.086 -1.2071  2.1794 -0.0153
  810MPD2    H311931   3.388   4.308  10.177  2.3590  2.7851  3.0421
  810MPD2     N11932   3.642   4.092  10.476  0.4777  0.3584  0.1133
  810MPD2    H511933   3.653   4.174  10.535  1.1953  1.4390 -1.5165
  810MPD2    N111934   3.351   3.865  10.167 -0.0647  0.6692 -0.0873
  810MPD2    H711935   3.274   3.875  10.103 -2.5759  0.8699  2.9572
  811MPD2     C11936   2.605   3.534   9.962  0.2847  0.4602 -0.0382
  811MPD2    C111937   2.704   3.632   9.988  0.7908 -0.3641  0.3285
  811MPD2    C211938   2.661   3.767   9.978 -0.0333  0.2900 -0.3567
  811MPD2    C311939   2.529   3.800   9.951 -0.3402 -0.1068 -0.0894
  811MPD2    C411940   2.443   3.696   9.912  0.3503  0.2211 -0.9215
  811MPD2    C511941   2.478   3.567   9.923 -0.5418  0.0927 -0.8359
  811MPD2     H11942   2.725   3.853   9.997 -0.2544  0.2477  0.5767
  811MPD2    H111943   2.340   3.720   9.887  0.6887  1.5847 -0.9829
  811MPD2    H211944   2.637   3.431   9.966 -1.7529 -0.1508  0.7711
  811MPD2    H311945   2.405   3.490   9.902 -0.7190 -0.3445  1.4109
  811MPD2     N11946   2.486   3.934   9.958 -0.3024 -0.2763  0.0218
  811MPD2    H511947   2.562   4.002   9.966  0.6424 -1.4713  1.2694
  811MPD2    N111948   2.831   3.594  10.038 -0.4804  0.2530 -0.3824
  811MPD2    H711949   2.844   3.494  10.051 -1.1048 -0.0430 -2.0101
  812MPD2     C11950   2.315   3.726  12.077  0.3871  0.1337  0.2326
  812MPD2    C111951   2.208   3.752  12.166 -0.2740  0.0652 -1.2749
  812MPD2    C211952   2.202   3.684  12.287  0.3105 -0.0118 -0.1963
  812MPD2    C311953   2.299   3.585  12.312 -0.2191 -0.4166  0.1993
  812MPD2    C411954   2.394   3.551  12.214  0.0093  0.0937  0.0945
  812MPD2    C511955   2.398   3.616  12.099 -0.4012  0.2059  0.7609
  812MPD2     H11956   2.143   3.718  12.371 -0.4153  0.7327 -1.0057
  812MPD2    H111957   2.472   3.478  12.234 -0.6396 -1.0998 -1.6907
  812MPD2    H211958   2.324   3.788  11.989 -0.9330  0.4725  0.3349
  812MPD2    H311959   2.478   3.588  12.032 -0.1018 -2.4095  2.1808
  812MPD2     N11960   2.294   3.524  12.444 -0.0952 -0.0628  0.0819
  812MPD2    H511961   2.237   3.564  12.517 -0.2296 -1.3418  0.6794
  812MPD2    N111962   2.125   3.867  12.141  0.3016 -0.0105 -0.3925
  812MPD2    H711963   2.168   3.924  12.069  2.5452  1.6459  2.2322
  813MPD2     C11964   1.427   0.780  12.960  0.1800 -0.5146 -0.1769
  813MPD2    C111965   1.313   0.857  12.979  0.1649  0.6649 -0.0094
  813MPD2    C211966   1.280   0.885  13.115  0.1259  1.1055  0.4592
  813MPD2    C311967   1.351   0.835  13.219 -0.1766 -0.0223 -0.3623
  813MPD2    C411968   1.449   0.743  13.196  0.0142  0.0636 -0.2344
  813MPD2    C511969   1.484   0.719  13.070 -0.0235 -0.2590 -1.0540
  813MPD2     H11970   1.198   0.953  13.137 -1.8687 -1.1923  0.0883
  813MPD2    H111971   1.513   0.714  13.279  0.5307  0.2260 -0.5804
  813MPD2    H211972   1.461   0.752  12.861  1.0745 -2.3458  0.6438
  813MPD2    H311973   1.567   0.655  13.044 -0.8743 -2.4300  1.6594
  813MPD2     N11974   1.305   0.866  13.353 -0.0554  0.2037 -0.1837
  813MPD2    H511975   1.236   0.941  13.361  2.9327  2.8538  0.5174
  813MPD2    N111976   1.242   0.915  12.870  0.6826 -0.5546  0.4725
  813MPD2    H711977   1.173   0.983  12.900  0.9270  0.8153 -2.0643
  814MPD2     C11978   1.937   2.274  12.443  0.5073  0.8577 -0.3892
  814MPD2    C111979   1.889   2.326  12.321 -0.2583 -0.0277  0.2433
  814MPD2    C211980   1.936   2.446  12.279 -0.0560 -0.2246  0.8269
  814MPD2    C311981   2.015   2.523  12.360 -0.7556 -0.7753 -0.2727
  814MPD2    C411982   2.063   2.468  12.477  0.2734 -0.3538 -0.8186
  814MPD2    C511983   2.021   2.351  12.525  0.1114 -0.5960 -0.2627
  814MPD2     H11984   1.896   2.495  12.191  1.2078 -1.6974 -0.5790
  814MPD2    H111985   2.123   2.523  12.548 -0.1145 -1.6289  0.4935
  814MPD2    H211986   1.907   2.179  12.484  1.0926  1.7596  2.1074
  814MPD2    H311987   2.050   2.305  12.618 -1.8740 -0.7502  0.2717
  814MPD2     N11988   2.076   2.642  12.320 -0.0858 -0.1535  0.3179
  814MPD2    H511989   2.136   2.684  12.389  0.7061 -0.2892 -0.2952
  814MPD2    N111990   1.805   2.250  12.240  0.0834 -0.3927  0.3138
  814MPD2    H711991   1.762   2.287  12.156  2.1644  2.3750  0.4963
  815MPD2     C11992   1.665   4.621  12.163 -0.4382  0.3375 -0.2681
  815MPD2    C111993   1.631   4.712  12.064  0.0330  0.1788 -0.2656
  815MPD2    C211994   1.493   0.003  12.038 -0.4718 -0.4239  0.3246
  815MPD2    C311995   1.399   4.663  12.117 -0.8518 -0.1610  0.0027
  815MPD2    C411996   1.434   4.576  12.217  0.1425  0.5251 -0.6125
  815MPD2    C511997   1.569   4.553  12.234 -0.3909  0.7643 -0.1541
  815MPD2     H11998   1.462   0.078  11.965  2.5779  1.4776  0.9775
  815MPD2    H111999   1.364   4.515  12.273 -0.3446  0.5254 -1.2152
  815MPD2    H212000   1.770   4.597  12.179  0.0917  3.0021  0.2260
  815MPD2    H312001   1.601   4.469  12.294 -0.7650  0.5588 -0.2406
  815MPD2     N12002   1.265   4.673  12.087  0.6605 -0.8188  0.0874
  815MPD2    H512003   1.240   0.006  12.006 -1.6797  0.4572  1.7177
  815MPD2    N112004   1.734   0.071  12.006  0.0554  0.6458  0.1118
  815MPD2    H712005   1.828   0.063  12.041 -2.1462  0.1276  5.9049
  816MPD2     C12006   1.980   4.643  17.569 -0.3034 -0.5450  0.6320
  816MPD2    C112007   1.926   4.672  17.446 -0.1339  0.6724 -0.0551
  816MPD2    C212008   1.962   4.611  17.332 -0.2910  0.1588  0.1515
  816MPD2    C312009   2.060   4.512  17.343  0.9234  0.0055 -0.6689
  816MPD2    C412010   2.114   4.477  17.468  0.3024 -0.1763  0.5519
  816MPD2    C512011   2.069   4.538  17.575 -0.2428 -0.1599  0.1200
  816MPD2     H12012   1.917   4.634  17.236  1.5029  2.2958 -0.1912
  816MPD2    H112013   2.193   4.403  17.475 -1.8083 -2.5720 -0.8049
  816MPD2    H212014   1.943   4.698  17.654 -1.1924 -1.4792  0.8572
  816MPD2    H312015   2.126   4.517  17.665  0.1489 -1.0848 -0.3475
  816MPD2     N12016   2.096   4.454  17.220 -0.4091  0.1339 -0.2143
  816MPD2    H512017   2.051   4.492  17.138  1.7355  0.4671 -1.2478
  816MPD2    N112018   1.829   0.058  17.458  0.0382  0.1926  0.0315
  816MPD2    H712019   1.795   0.076  17.552  0.8209 -1.8880  0.7204
  817MPD2     C12020   1.437   1.456  10.143 -0.1498  0.2314  0.5647
  817MPD2    C112021   1.534   1.480  10.050 -0.3636  0.3378  0.1021
  817MPD2    C212022   1.537   1.609   9.995 -0.2818 -0.0988  0.2296
  817MPD2    C312023   1.445   1.706  10.025  0.4393 -0.0464 -0.1921
  817MPD2    C412024   1.338   1.678  10.110 -0.3809 -0.2047  0.2606
  817MPD2    C512025   1.338   1.554  10.166 -0.7102  0.3656  0.2822
  817MPD2     H12026   1.620   1.634   9.929 -0.5171 -2.2613 -0.8654
  817MPD2    H112027   1.253   1.746  10.121 -1.6592 -1.9079  0.8530
  817MPD2    H212028   1.417   1.361  10.191 -2.6881 -0.1970 -1.3354
  817MPD2    H312029   1.256   1.527  10.232 -0.1731  1.6121  1.4362
  817MPD2     N12030   1.469   1.828   9.963  0.2237 -0.7545 -0.4182
  817MPD2    H512031   1.551   1.840   9.904  1.0933  0.7952  1.1082
  817MPD2    N112032   1.634   1.387  10.002 -0.6519  0.4410 -0.0865
  817MPD2    H712033   1.694   1.424   9.929 -2.5040 -0.2045 -1.9447
  818MPD2     C12034   0.451   1.858   9.436  0.2014  0.2063 -0.0788
  818MPD2    C112035   0.506   1.796   9.543 -0.7387  0.3089  1.0266
  818MPD2    C212036   0.621   1.715   9.527  0.3216  0.7273 -0.0072
  818MPD2    C312037   0.669   1.688   9.405  0.2135  0.2500  0.1769
  818MPD2    C412038   0.609   1.743   9.294 -0.0592  0.4717 -0.0020
  818MPD2    C512039   0.500   1.819   9.315  0.1540 -0.5043  0.3206
  818MPD2     H12040   0.676   1.682   9.615 -0.5786  1.5884  0.8779
  818MPD2    H112041   0.651   1.736   9.194 -1.2514 -1.1577 -0.3965
  818MPD2    H212042   0.366   1.925   9.429 -2.2424 -2.7899  0.6912
  818MPD2    H312043   0.467   1.875   9.229  0.0722 -0.9210  0.0815
  818MPD2     N12044   0.790   1.607   9.383  0.0805  0.1436  0.1333
  818MPD2    H512045   0.831   1.598   9.290  0.6861  2.2352  0.1846
  818MPD2    N112046   0.447   1.790   9.665 -0.2289 -0.4881  1.0602
  818MPD2    H712047   0.486   1.723   9.731  2.0003 -0.9587 -0.7066
  819MPD2     C12048   3.500   3.213  15.719  0.5639  0.4280 -0.0594
  819MPD2    C112049   3.524   3.079  15.717  0.1779  0.4800 -0.3696
  819MPD2    C212050   3.647   3.028  15.763 -0.3361 -0.2377 -0.7177
  819MPD2    C312051   3.732   3.106  15.839 -0.5846  0.2904  0.5604
  819MPD2    C412052   3.694   3.240  15.846 -0.1223  0.1736 -0.2614
  819MPD2    C512053   3.581   3.288  15.792 -0.4997  0.0644 -0.2815
  819MPD2     H12054   3.668   2.922  15.758 -0.6294 -0.4672  2.9163
  819MPD2    H112055   3.751   3.309  15.907 -1.0021  1.1199 -0.5115
  819MPD2    H212056   3.421   3.268  15.669 -0.0633 -2.8321 -2.5875
  819MPD2    H312057   3.556   3.393  15.807 -0.6376  0.0833 -0.6486
  819MPD2     N12058   3.847   3.060  15.903  0.4630  0.0213 -0.5406
  819MPD2    H512059   3.879   2.966  15.884 -1.0556 -0.7107  0.5322
  819MPD2    N112060   3.426   2.995  15.654  0.2233 -0.5453  0.7162
  819MPD2    H712061   3.353   3.046  15.605 -0.5324 -3.2969 -1.0180
  820MPD2     C12062   2.641   3.114  15.080 -0.1232 -0.3210 -0.3511
  820MPD2    C112063   2.722   3.190  15.170 -0.0727 -0.0214 -0.7670
  820MPD2    C212064   2.828   3.125  15.238 -1.1379 -0.1156  0.5196
  820MPD2    C312065   2.859   2.997  15.207 -0.7106  0.2866  0.4879
  820MPD2    C412066   2.783   2.927  15.114  0.3602  0.2231 -0.1722
  820MPD2    C512067   2.668   2.983  15.065  0.0997  0.0226 -0.2164
  820MPD2     H12068   2.894   3.178  15.305  0.9903  0.1747 -1.7908
  820MPD2    H112069   2.811   2.826  15.085 -1.3003 -0.0239 -0.8878
  820MPD2    H212070   2.552   3.159  15.038  0.6640 -0.9941 -2.7831
  820MPD2    H312071   2.600   2.929  15.001  1.6499 -2.0888 -0.1060
  820MPD2     N12072   2.957   2.924  15.279  0.0740  0.3581 -0.4676
  820MPD2    H512073   2.987   2.838  15.235  2.9224  1.5706 -0.8873
  820MPD2    N112074   2.693   3.328  15.186 -0.6112 -0.1585  0.5498
  820MPD2    H712075   2.614   3.366  15.135 -1.9958 -1.3616  1.8182
  821MPD2     C12076   3.397   4.600  13.081 -0.2217 -0.4142  0.2781
  821MPD2    C112077   3.432   4.636  13.215 -0.1319  0.7072 -0.6778
  821MPD2    C212078   3.484   0.042  13.224 -0.0295  0.4486 -0.3588
  821MPD2    C312079   3.492   0.128  13.112  0.1225  0.5922  0.9056
  821MPD2    C412080   3.443   0.089  12.990 -0.1797 -0.5131  0.0198
  821MPD2    C512081   3.411   4.684  12.977  0.0831  0.2098 -0.1834
  821MPD2     H12082   3.515   0.078  13.322  0.4293  0.9280 -0.6842
  821MPD2    H112083   3.456   0.153  12.903 -1.2504  0.1983  0.3842
  821MPD2    H212084   3.360   4.499  13.066  2.7196 -1.5241  0.6321
  821MPD2    H312085   3.377   4.647  12.881  0.0212 -2.0814  0.7156
  821MPD2     N12086   3.568   0.248  13.108  0.7030 -0.4412 -0.5603
  821MPD2    H512087   3.621   0.263  13.024 -0.5152  1.2669 -1.0313
  821MPD2    N112088   3.434   4.548  13.333 -0.0481  0.6507 -0.3133
  821MPD2    H712089   3.488   4.581  13.412  0.4537  1.9410 -1.2125
  822MPD2     C12090   4.406   4.210  16.042 -0.3852  0.3387 -0.8700
  822MPD2    C112091   4.373   4.226  16.178  0.3187  0.4353  0.8863
  822MPD2    C212092   4.267   4.303  16.220  0.6909  0.2046  0.1942
  822MPD2    C312093   4.199   4.384  16.131 -0.7743  0.1774 -0.7064
  822MPD2    C412094   4.227   4.363  16.001 -0.5175  0.3543 -0.0670
  822MPD2    C512095   4.329   4.282  15.954 -0.1254 -0.1631  0.2531
  822MPD2     H12096   4.239   4.312  16.324  2.3504  1.0714  0.5624
  822MPD2    H112097   4.162   4.417  15.933 -0.9637  2.1023  1.7414
  822MPD2    H212098   4.482   4.151  15.993  2.1413  2.1719  0.8522
  822MPD2    H312099   4.349   4.265  15.848 -0.7025 -1.1757  0.3063
  822MPD2     N12100   4.106   4.473  16.193 -0.1830 -0.1205 -0.3115
  822MPD2    H512101   4.104   4.480  16.294 -1.0525 -1.0234 -0.2641
  822MPD2    N112102   4.434   4.156  16.285 -0.0884  0.0081 -0.5167
  822MPD2    H712103   4.409   4.174  16.381  1.3570 -1.3627  0.1274
  823MPD2     C12104   3.909   0.230  16.861 -0.5894  0.1973  0.1112
  823MPD2    C112105   3.941   0.110  16.801  0.7474  0.0180 -0.4025
  823MPD2    C212106   3.958   4.719  16.874  0.0963  0.2686 -0.0261
  823MPD2    C312107   3.941   0.003  17.011 -0.0795 -0.2036 -0.2785
  823MPD2    C412108   3.907   0.115  17.078  0.1488  0.1301  0.4464
  823MPD2    C512109   3.899   0.228  16.998  0.0268 -0.3595  0.0013
  823MPD2     H12110   3.977   4.621  16.832 -3.3056 -0.6966  0.6783
  823MPD2    H112111   3.892   0.122  17.185  0.1152  1.7612  0.3288
  823MPD2    H212112   3.894   0.319  16.802  0.0572  1.4141  1.8004
  823MPD2    H312113   3.888   0.327  17.041 -0.7965 -1.1206  1.5569
  823MPD2     N12114   3.969   4.619  17.094  0.5948 -0.4334  0.3520
  823MPD2    H512115   3.947   4.625  17.193 -2.1710  2.0476 -0.4056
  823MPD2    N112116   3.947   0.110  16.658  0.5383 -0.0657 -0.5150
  823MPD2    H712117   3.935   0.199  16.611  1.8967  0.9233  0.9851
  824MPD2     C12118   0.058   3.408  16.415 -0.1279 -0.1451 -0.9076
  824MPD2    C112119   0.089   3.515  16.337 -0.5640 -0.2239 -0.1059
  824MPD2    C212120   0.156   3.500  16.217 -0.6316  0.5544 -0.1598
  824MPD2    C312121   0.197   3.376  16.176  0.7205  0.9580  0.3424
  824MPD2    C412122   0.168   3.271  16.258  0.0131 -0.1241 -0.6065
  824MPD2    C512123   0.111   3.294  16.382 -0.1495  0.0274 -0.4872
  824MPD2     H12124   0.175   3.589  16.157  1.5640  1.8640  2.5011
  824MPD2    H112125   0.208   3.171  16.242  0.4860 -0.0997  0.4196
  824MPD2    H212126   4.722   3.413  16.506 -0.6388 -4.3377 -1.0177
  824MPD2    H312127   0.101   3.206  16.446  1.4752  0.1748 -0.0202
  824MPD2     N12128   0.273   3.355  16.051 -0.6306 -0.0404 -0.1095
  824MPD2    H512129   0.293   3.439  15.998 -0.9375 -0.5236 -0.9936
  824MPD2    N112130   0.051   3.646  16.373 -0.2929 -0.3995  0.4705
  824MPD2    H712131   0.072   3.720  16.306 -1.9319 -0.3065  0.0604
  825MPD2     C12132   0.654   3.559  15.302 -0.3473  0.3091  0.2503
  825MPD2    C112133   0.571   3.588  15.407  0.1872 -0.1264 -0.2767
  825MPD2    C212134   0.534   3.722  15.429 -0.2238  0.9048 -0.1971
  825MPD2    C312135   0.574   3.819  15.337 -0.2827 -0.6475  0.3913
  825MPD2    C412136   0.650   3.785  15.226 -0.2677 -0.3063  0.1570
  825MPD2    C512137   0.687   3.656  15.212 -0.0706 -1.3592  0.0851
  825MPD2     H12138   0.478   3.744  15.520  1.9418 -0.3407  1.4288
  825MPD2    H112139   0.678   3.859  15.152 -0.1625 -0.3157  0.1881
  825MPD2    H212140   0.678   3.456  15.282  0.0597  0.8249 -1.9256
  825MPD2    H312141   0.721   3.621  15.116 -2.1741  0.0178 -1.1699
  825MPD2     N12142   0.527   3.951  15.343  0.0005 -0.0058 -0.4834
  825MPD2    H512143   0.550   4.019  15.271  0.8073  1.7161  1.4142
  825MPD2    N112144   0.542   3.474  15.497 -0.1223 -0.2687 -0.1667
  825MPD2    H712145   0.608   3.398  15.485  0.5962  0.1547  1.0886
  826MPD2     C12146   0.762   4.085  13.428  0.1604  0.0752  0.1831
  826MPD2    C112147   0.668   3.992  13.460  0.5770 -0.0992 -0.2937
  826MPD2    C212148   0.561   4.024  13.542  0.0677 -0.8126  0.7681
  826MPD2    C312149   0.549   4.151  13.599 -0.5910  0.0978  0.2642
  826MPD2    C412150   0.650   4.241  13.571  0.3772 -0.3130 -0.1360
  826MPD2    C512151   0.749   4.205  13.481  0.0819  0.3804 -0.5630
  826MPD2     H12152   0.487   3.949  13.568  0.3495 -0.6555  2.0122
  826MPD2    H112153   0.646   4.342  13.611 -0.2816 -0.4235  0.0810
  826MPD2    H212154   0.846   4.060  13.364 -1.8844 -0.5168 -2.2784
  826MPD2    H312155   0.827   4.273  13.451  0.8976 -0.3869 -0.1683
  826MPD2     N12156   0.431   4.194  13.673 -0.3476  0.9811  0.4563
  826MPD2    H512157   0.435   4.293  13.695 -1.1123  0.8629  1.1109
  826MPD2    N112158   0.685   3.865  13.408  0.3203  0.1233 -0.3284
  826MPD2    H712159   0.761   3.865  13.341  1.7474 -0.1420  1.3007
  827MPD2     C12160   1.131   0.305   9.859  0.2608 -0.1168  0.6078
  827MPD2    C112161   1.124   0.184   9.920  0.0313  0.2371 -0.2258
  827MPD2    C212162   1.069   0.074   9.848 -1.2290  0.6949  0.7126
  827MPD2    C312163   1.054   0.084   9.711 -1.0392 -0.3764 -1.0653
  827MPD2    C412164   1.068   0.209   9.654 -0.1971 -0.1420  0.6243
  827MPD2    C512165   1.093   0.323   9.729  0.1159  0.3032  0.1814
  827MPD2     H12166   1.064   4.698   9.891  0.3555  0.2971 -0.0281
  827MPD2    H112167   1.071   0.213   9.546 -1.3574 -3.1671  0.4729
  827MPD2    H212168   1.162   0.395   9.911 -3.5902  1.9853 -0.7472
  827MPD2    H312169   1.097   0.418   9.676 -0.8758  0.1084 -0.2510
  827MPD2     N12170   1.038   4.685   9.639  0.2057 -1.0609  0.5430
  827MPD2    H512171   1.015   4.599   9.689  0.3102 -0.8171  1.0133
  827MPD2    N112172   1.159   0.171  10.058 -0.0933 -0.1307 -0.7253
  827MPD2    H712173   1.208   0.248  10.104  0.6686 -1.4356  0.6508
  828MPD2     C12174   4.036   0.199  12.962  0.2569  0.0552  0.2462
  828MPD2    C112175   4.040   0.225  12.827  0.1874  0.1493 -0.3226
  828MPD2    C212176   4.164   0.258  12.778  0.0005  0.0222 -0.3431
  828MPD2    C312177   4.277   0.252  12.853 -0.1154  0.0725  0.7968
  828MPD2    C412178   4.272   0.227  12.985 -0.0180  0.2889 -0.3618
  828MPD2    C512179   4.149   0.201  13.041 -0.4295 -0.3001  0.1277
  828MPD2     H12180   4.165   0.278  12.672  0.6990 -1.3255 -0.6003
  828MPD2    H112181   4.356   0.234  13.053 -0.0196  1.6448 -0.4862
  828MPD2    H212182   3.942   0.167  13.006  0.2505  0.4205  0.4988
  828MPD2    H312183   4.140   0.187  13.148 -0.2989 -0.6678  0.0904
  828MPD2     N12184   4.401   0.274  12.795 -0.7473  0.1124  0.1394
  828MPD2    H512185   4.480   0.249  12.854 -0.4030 -1.4375 -0.9665
  828MPD2    N112186   3.925   0.223  12.738  0.3852  0.2800  0.0052
  828MPD2    H712187   3.952   0.244  12.642 -1.7787  0.2289 -0.6054
  829MPD2     C12188   4.041   0.640  12.017  0.1197  0.0328  0.2698
  829MPD2    C112189   3.903   0.636  12.009  0.5011 -0.8934 -0.3216
  829MPD2    C212190   3.834   0.577  12.112 -0.4127 -0.6102  0.4297
  829MPD2    C312191   3.897   0.507  12.216 -0.1657  0.4942  0.0514
  829MPD2    C412192   4.033   0.512  12.215 -1.0126  0.1749  0.2156
  829MPD2    C512193   4.100   0.572  12.116  0.0550  0.2086  0.1898
  829MPD2     H12194   3.726   0.586  12.115 -0.3812  0.3523 -1.3291
  829MPD2    H112195   4.093   0.448  12.279 -1.5319  0.9493  1.4881
  829MPD2    H212196   4.101   0.692  11.943 -0.8050  0.8128  0.0709
  829MPD2    H312197   4.207   0.552  12.114  0.7930  4.0636  0.9598
  829MPD2     N12198   3.836   0.420  12.307  0.3068 -0.2049  0.5328
  829MPD2    H512199   3.894   0.391  12.386 -0.6320 -1.1982  0.8634
  829MPD2    N112200   3.846   0.678  11.889 -0.7309 -0.3697 -0.0795
  829MPD2    H712201   3.918   0.710  11.824 -1.9991  1.2096 -0.6918
  830MPD2     C12202   4.574   2.602  16.026  0.1840 -0.0873 -0.1872
  830MPD2    C112203   4.499   2.677  15.944 -0.1187 -0.3854 -0.1706
  830MPD2    C212204   4.559   2.719  15.830  0.0810 -0.2537 -0.0603
  830MPD2    C312205   4.690   2.688  15.800 -0.4043  0.2739  0.5661
  830MPD2    C412206   0.040   2.616  15.893 -0.3428  0.1577  0.4845
  830MPD2    C512207   4.700   2.567  16.002  0.0318  0.0478 -0.4446
  830MPD2     H12208   4.498   2.763  15.752  0.4489 -0.2676 -0.3540
  830MPD2    H112209   0.147   2.599  15.889 -0.4039 -0.6074  1.8779
  830MPD2    H212210   4.544   2.582  16.129 -1.6760  0.4110 -0.6266
  830MPD2    H312211   0.029   2.500  16.070  0.0549 -0.3664 -0.8670
  830MPD2     N12212   0.044   2.726  15.683 -0.1551 -0.7953  0.4748
  830MPD2    H512213   0.143   2.700  15.680 -0.0970 -0.2761 -1.5470
  830MPD2    N112214   4.375   2.719  15.996  0.1015 -0.0475 -0.1689
  830MPD2    H712215   4.340   2.676  16.081 -0.1305  0.3888 -0.0415
  831MPD2     C12216   4.421   0.001  16.502  0.7169  0.7317 -0.1432
  831MPD2    C112217   4.448   4.601  16.451 -0.8080 -0.0080 -0.1255
  831MPD2    C212218   4.374   4.485  16.485 -0.2360  0.4553  0.2876
  831MPD2    C312219   4.275   4.494  16.589 -0.4522  0.1489 -0.0303
  831MPD2    C412220   4.245   4.622  16.632  0.0932 -0.2360  0.3792
  831MPD2    C512221   4.311   0.015  16.587 -0.1220  0.0645  0.3548
  831MPD2     H12222   4.398   4.391  16.437 -1.5923  1.0948 -1.6443
  831MPD2    H112223   4.164   4.624  16.704  0.9855 -2.3536  1.4649
  831MPD2    H212224   4.473   0.089  16.467  0.1464  0.4053 -1.7838
  831MPD2    H312225   4.294   0.112  16.632 -3.5228 -0.1750 -0.4884
  831MPD2     N12226   4.192   4.381  16.635 -0.3268 -0.6671 -0.0146
  831MPD2    H512227   4.117   4.403  16.700 -0.6345 -2.2554  0.1688
  831MPD2    N112228   4.552   4.585  16.354 -0.3600 -0.5923  0.2305
  831MPD2    H712229   4.576   4.665  16.298  2.1316 -0.9887  0.6847
  832MPD2     C12230   2.921   0.912  17.306  0.5688  0.8646 -0.0133
  832MPD2    C112231   2.856   1.034  17.314  0.5096 -0.6517 -0.2069
  832MPD2    C212232   2.753   1.068  17.229  0.2723 -0.1599 -0.1983
  832MPD2    C312233   2.699   0.971  17.137 -0.5538  0.2547 -0.4600
  832MPD2    C412234   2.765   0.850  17.133  0.3468  0.1090  0.2714
  832MPD2    C512235   2.878   0.822  17.208  0.1487  0.1567  0.0135
  832MPD2     H12236   2.695   1.156  17.253 -0.5391 -0.7911  0.1727
  832MPD2    H112237   2.730   0.774  17.065 -0.3571  0.9144 -0.2595
  832MPD2    H212238   3.014   0.898  17.359  0.4112  2.6726  0.7376
  832MPD2    H312239   2.920   0.723  17.195 -1.6536 -0.2858 -2.3625
  832MPD2     N12240   2.580   0.989  17.057 -0.3016 -0.3576  0.4239
  832MPD2    H512241   2.534   0.913  17.008  2.0421 -0.5655 -1.4069
  832MPD2    N112242   2.901   1.120  17.419 -0.2441  0.3954  0.6218
  832MPD2    H712243   2.985   1.100  17.472 -0.7618 -1.9719  0.5463
  833MPD2     C12244   0.085   2.415  12.491 -0.0981  0.3959 -0.7036
  833MPD2    C112245   0.158   2.522  12.439 -0.6237 -0.3817 -0.2356
  833MPD2    C212246   0.258   2.502  12.351 -0.4203  0.1502 -0.2555
  833MPD2    C312247   0.290   2.373  12.303 -0.4669 -0.8164  0.0366
  833MPD2    C412248   0.209   2.270  12.350 -0.2307 -0.5634  0.1715
  833MPD2    C512249   0.108   2.292  12.441  0.3235  0.4807  0.3886
  833MPD2     H12250   0.318   2.577  12.300 -2.5296  1.1046 -1.3099
  833MPD2    H112251   0.225   2.166  12.327  1.6881 -0.3308  0.4587
  833MPD2    H212252   0.008   2.428  12.566 -1.2740 -0.2688 -1.7911
  833MPD2    H312253   0.051   2.206  12.473 -1.2673  1.5781  0.5039
  833MPD2     N12254   0.382   2.362  12.202  0.0631  0.3010  0.5974
  833MPD2    H512255   0.424   2.448  12.168 -0.7190  1.0369  1.5061
  833MPD2    N112256   0.113   2.649  12.480  0.4134  0.0607  0.3008
  833MPD2    H712257   0.029   2.654  12.536 -0.5763 -0.9770 -1.1002
  834MPD2     C12258   0.209   1.802  11.562 -0.0188 -0.4108 -0.0076
  834MPD2    C112259   0.283   1.879  11.479 -0.9812  0.0171 -0.3558
  834MPD2    C212260   0.326   2.005  11.527 -0.0258  0.2254  0.2140
  834MPD2    C312261   0.280   2.057  11.646  0.4040  0.4469  0.3514
  834MPD2    C412262   0.181   1.984  11.709 -0.0398  0.6035 -1.1011
  834MPD2    C512263   0.152   1.853  11.670 -0.0750  0.4835  0.1245
  834MPD2     H12264   0.389   2.060  11.458  0.5994  0.0945  0.6804
  834MPD2    H112265   0.148   2.011  11.809 -2.0118 -0.5616 -1.4374
  834MPD2    H212266   0.179   1.701  11.537  1.4124 -0.9219  0.3601
  834MPD2    H312267   0.098   1.790  11.739  0.7452  1.6852  1.8475
  834MPD2     N12268   0.314   2.177  11.703  0.3442 -0.3294  0.5823
  834MPD2    H512269   0.260   2.196  11.788 -2.4785  0.4112 -1.3720
  834MPD2    N112270   0.315   1.840  11.347 -0.4225  0.4442 -0.3080
  834MPD2    H712271   0.286   1.747  11.318  1.6174 -0.2913  0.0276
  835MPD2     C12272   0.396   0.338  11.299  0.8104 -0.2479 -0.0969
  835MPD2    C112273   0.268   0.381  11.338 -0.5906  0.0845  0.3966
  835MPD2    C212274   0.246   0.434  11.463  0.1320 -0.6774  0.4988
  835MPD2    C312275   0.351   0.443  11.550 -0.1654 -0.2805 -0.2458
  835MPD2    C412276   0.481   0.402  11.516 -0.1073 -0.1183  0.0401
  835MPD2    C512277   0.502   0.362  11.384  0.1576 -0.5738  0.6777
  835MPD2     H12278   0.142   0.458  11.482  0.8636  1.4810  1.7529
  835MPD2    H112279   0.561   0.427  11.585 -0.0065  1.6138 -0.7056
  835MPD2    H212280   0.416   0.307  11.197 -0.4107  1.2706 -0.8041
  835MPD2    H312281   0.606   0.343  11.361  0.1950  0.1885  0.2131
  835MPD2     N12282   0.327   0.511  11.667 -0.5916 -0.4171  0.0347
  835MPD2    H512283   0.396   0.501  11.741  0.2219 -0.8809 -0.7876
  835MPD2    N112284   0.156   0.382  11.259  0.0532  0.1633 -0.5360
  835MPD2    H712285   0.075   0.428  11.299  1.3166  1.2200  0.8168
  836MPD2     C12286   4.498   0.989  11.728  0.2762  0.7891 -0.1288
  836MPD2    C112287   4.520   0.947  11.853 -0.2941  0.0316 -0.0351
  836MPD2    C212288   4.410   0.929  11.940  0.2281  0.3753 -0.2412
  836MPD2    C312289   4.282   0.956  11.895  0.1452 -0.0976  0.5347
  836MPD2    C412290   4.262   0.991  11.766  0.5479  0.2188  0.3535
  836MPD2    C512291   4.368   1.009  11.682 -0.4231  0.4544 -0.1924
  836MPD2     H12292   4.434   0.913  12.045  1.2352  1.7588 -0.2671
  836MPD2    H112293   4.163   1.013  11.729  0.1932  0.0111  1.1841
  836MPD2    H212294   4.583   0.998  11.660 -1.6284  0.0352 -2.6128
  836MPD2    H312295   4.349   1.045  11.582  0.6527 -2.4120 -1.4489
  836MPD2     N12296   4.172   0.976  11.981  0.4940  0.0567 -0.7415
  836MPD2    H512297   4.086   1.009  11.938 -0.5231  1.1403  2.1461
  836MPD2    N112298   4.650   0.902  11.880  0.4368 -0.3628  0.0044
  836MPD2    H712299   0.003   0.947  11.831 -0.0721  1.3806  0.8151
  837MPD2     C12300   2.709   4.631  10.188 -0.1923  0.7610  0.5174
  837MPD2    C112301   2.657   4.622  10.058  0.0099 -0.1205 -0.2262
  837MPD2    C212302   2.669   0.013   9.978  0.1097  0.0491  0.3030
  837MPD2    C312303   2.718   0.135  10.023 -0.1470 -0.6960  0.2597
  837MPD2    C412304   2.743   0.146  10.163  0.3698 -0.4926  0.4979
  837MPD2    C512305   2.755   0.025  10.236 -0.4329  0.0614  0.1536
  837MPD2     H12306   2.632   4.722   9.877  2.4055  1.2185 -0.6991
  837MPD2    H112307   2.785   0.238  10.202  2.5374 -0.8285 -1.0484
  837MPD2    H212308   2.705   4.540  10.246 -1.1821 -0.2835 -1.1743
  837MPD2    H312309   2.782   0.035  10.341 -0.2532  2.5812 -0.1267
  837MPD2     N12310   2.727   0.242   9.932  0.3181 -0.8425  0.0337
  837MPD2    H512311   2.688   0.229   9.839 -0.3324 -1.2824  0.3702
  837MPD2    N112312   2.580   4.509  10.018 -0.2968  0.6320  0.5154
  837MPD2    H712313   2.559   4.508   9.918 -0.6506 -0.2571  0.6002
  838MPD2     C12314   0.956   2.948  11.776 -0.0090 -0.0687 -0.3736
  838MPD2    C112315   1.017   2.837  11.834 -0.2771  0.3225 -0.0077
  838MPD2    C212316   0.964   2.782  11.950 -0.1879 -0.4362 -0.2281
  838MPD2    C312317   0.849   2.827  12.010 -0.0375  0.2957 -0.1340
  838MPD2    C412318   0.780   2.931  11.947 -0.8874 -0.3070  0.0899
  838MPD2    C512319   0.838   2.987  11.835 -0.9721  0.0466  0.3732
  838MPD2     H12320   1.023   2.706  11.999 -0.2682 -0.1562  0.3047
  838MPD2    H112321   0.679   2.951  11.981 -0.8217 -1.5235  0.9939
  838MPD2    H212322   0.992   2.981  11.679 -2.3221 -2.0397 -1.8884
  838MPD2    H312323   0.786   3.055  11.768  2.6068  2.8096  0.4172
  838MPD2     N12324   0.809   2.762  12.130 -0.2646 -0.3279 -0.3042
  838MPD2    H512325   0.861   2.677  12.152 -1.8358 -2.2337 -4.0334
  838MPD2    N112326   1.138   2.787  11.795  0.3731  0.2261  0.0391
  838MPD2    H712327   1.160   2.692  11.824 -2.7592 -0.6474 -0.5084
  839MPD2     C12328   1.205   2.143  12.023 -0.8073 -0.1124  0.1065
  839MPD2    C112329   1.222   2.113  11.889  0.3824 -0.0987 -0.0432
  839MPD2    C212330   1.293   2.197  11.809  0.2305  0.8427  0.6791
  839MPD2    C312331   1.350   2.312  11.862 -0.3945 -0.7370 -0.0061
  839MPD2    C412332   1.355   2.325  11.995 -0.6958  0.0505  0.3258
  839MPD2    C512333   1.272   2.245  12.072  0.7735  0.2355  0.1041
  839MPD2     H12334   1.285   2.187  11.701  0.6952 -0.2433  0.7434
  839MPD2    H112335   1.410   2.406  12.042  1.0178 -1.0315  0.1655
  839MPD2    H212336   1.183   2.072  12.102 -0.4733  0.2278  0.5061
  839MPD2    H312337   1.272   2.256  12.179 -1.0708  0.6095  0.0575
  839MPD2     N12338   1.403   2.418  11.789 -0.1872 -0.0370 -0.5257
  839MPD2    H512339   1.428   2.501  11.842  1.3528 -0.5240 -0.4729
  839MPD2    N112340   1.179   1.983  11.845  0.3365  0.2130  0.7870
  839MPD2    H712341   1.213   1.969  11.750 -0.3812  0.3902  0.5022
  840MPD2     C12342   1.524   0.573  10.311 -0.0731  1.1856 -0.4364
  840MPD2    C112343   1.513   0.494  10.417  0.0777  0.2258  0.3356
  840MPD2    C212344   1.586   0.523  10.532  0.5897 -0.7704  0.2186
  840MPD2    C312345   1.648   0.647  10.546 -0.0499  0.0729 -0.1669
  840MPD2    C412346   1.652   0.732  10.439 -0.2111  0.5053 -0.2344
  840MPD2    C512347   1.589   0.694  10.324 -0.2955 -0.3150  0.3331
  840MPD2     H12348   1.582   0.453  10.615 -0.1616 -1.5437 -0.4644
  840MPD2    H112349   1.717   0.818  10.437 -0.9074  1.0886  1.6349
  840MPD2    H212350   1.503   0.536  10.211  1.6990  0.9120 -0.7105
  840MPD2    H312351   1.606   0.750  10.233  0.9457 -1.6190 -0.2344
  840MPD2     N12352   1.716   0.695  10.663 -0.0765 -0.0765 -0.2542
  840MPD2    H512353   1.745   0.792  10.662  0.7184 -0.3117  0.5366
  840MPD2    N112354   1.436   0.374  10.399  0.3239  0.2719  0.3725
  840MPD2    H712355   1.391   0.366  10.308 -1.0178 -0.2238  1.0804
  841MPD2     C12356   1.028   0.415  14.649  0.2178 -0.2769 -0.7530
  841MPD2    C112357   1.142   0.352  14.614 -0.1681  0.2383 -0.0262
  841MPD2    C212358   1.248   0.413  14.555 -0.0014 -0.0347 -0.3133
  841MPD2    C312359   1.252   0.554  14.547 -0.9355  0.3317  0.1734
  841MPD2    C412360   1.141   0.618  14.592  0.7221 -0.4271  0.5806
  841MPD2    C512361   1.031   0.549  14.637 -0.0655 -0.4247  0.5721
  841MPD2     H12362   1.331   0.356  14.514  1.4900  1.9589 -0.0829
  841MPD2    H112363   1.140   0.725  14.606 -1.2273 -0.7281  2.8629
  841MPD2    H212364   0.932   0.375  14.682 -0.3654  0.9467 -0.9731
  841MPD2    H312365   0.941   0.602  14.667  0.2753  0.5572 -0.1412
  841MPD2     N12366   1.357   0.622  14.492  0.5003 -0.3264  0.7037
  841MPD2    H512367   1.423   0.565  14.440 -0.7860 -0.6607 -0.5632
  841MPD2    N112368   1.161   0.208  14.631  0.4491  0.6958  0.3593
  841MPD2    H712369   1.254   0.177  14.607  0.3075 -0.2913  1.0671
  842MPD2     C12370   2.073   1.545  16.442 -0.3264 -0.0183 -1.6782
  842MPD2    C112371   1.970   1.457  16.451 -0.0202 -0.3979  0.5229
  842MPD2    C212372   1.938   1.382  16.568 -0.3719 -0.7053 -0.4260
  842MPD2    C312373   2.010   1.416  16.680  0.6891 -0.5323 -0.4525
  842MPD2    C412374   2.109   1.508  16.673  0.0364  0.0900 -0.6263
  842MPD2    C512375   2.142   1.568  16.556  0.4571  0.2994 -0.0356
  842MPD2     H12376   1.858   1.309  16.566 -1.0942  0.1758 -3.7092
  842MPD2    H112377   2.167   1.531  16.762 -1.5062  0.7592  0.2059
  842MPD2    H212378   2.107   1.585  16.347 -0.5958  0.8741 -1.3908
  842MPD2    H312379   2.233   1.624  16.542  0.0751  0.3903 -2.1970
  842MPD2     N12380   1.993   1.356  16.810 -0.7105  0.0114 -0.9058
  842MPD2    H512381   2.030   1.401  16.893 -1.6324 -1.0142  0.0682
  842MPD2    N112382   1.907   1.434  16.330 -0.0013  0.4355  0.1631
  842MPD2    H712383   1.942   1.489  16.253  1.3597  0.9644  1.1570
  843MPD2     C12384   3.619   1.638  17.584  0.2833 -0.5221 -0.1924
  843MPD2    C112385   3.664   1.544  17.676  0.2302  0.2352  0.2976
  843MPD2    C212386   3.781   1.568   0.054 -1.0005  0.1307 -0.8046
  843MPD2    C312387   3.845   1.694   0.043 -0.0792  0.1766  0.3437
  843MPD2    C412388   3.802   1.782  17.647  0.1494 -0.0394  0.1348
  843MPD2    C512389   3.689   1.754  17.573  0.0495  0.2808 -0.6216
  843MPD2     H12390   3.814   1.498   0.130  1.5713  1.0242 -1.0981
  843MPD2    H112391   3.852   1.877  17.630  0.7885 -0.4822 -0.4235
  843MPD2    H212392   3.530   1.620  17.525  1.3320 -1.5304 -1.4643
  843MPD2    H312393   3.666   1.831  17.501 -1.6944  0.1662 -0.1880
  843MPD2     N12394   3.953   1.725   0.128 -0.0607  0.0742 -0.2822
  843MPD2    H512395   4.008   1.807   0.101  1.0887  0.2068  2.4469
  843MPD2    N112396   3.584   1.424  17.689  0.0883  0.2539 -0.2777
  843MPD2    H712397   3.499   1.431  17.632  0.1147 -0.8649 -0.4511
  844MPD2     C12398   2.397   0.826  16.436  0.3961  0.9686  0.4627
  844MPD2    C112399   2.467   0.708  16.442  0.2654 -0.1312  0.5838
  844MPD2    C212400   2.566   0.691  16.540 -0.3850  0.6737 -0.1018
  844MPD2    C312401   2.601   0.802  16.619  0.2146 -0.5464  0.3808
  844MPD2    C412402   2.519   0.912  16.629  0.4214  0.1409  0.2117
  844MPD2    C512403   2.423   0.919  16.534 -0.0051  0.4914  0.3505
  844MPD2     H12404   2.624   0.599  16.543 -1.0314  0.2320 -1.2824
  844MPD2    H112405   2.511   0.977  16.716  0.7077 -0.1525  0.4563
  844MPD2    H212406   2.326   0.841  16.355  1.4738 -1.3879 -0.9115
  844MPD2    H312407   2.356   1.004  16.543 -0.9443 -0.0744 -1.2092
  844MPD2     N12408   2.715   0.796  16.704 -0.2192  0.4702 -0.7892
  844MPD2    H512409   2.756   0.704  16.713 -0.5601  0.3775 -0.2158
  844MPD2    N112410   2.431   0.622  16.342 -0.2286  0.4703 -0.0077
  844MPD2    H712411   2.388   0.663  16.260  0.0479 -0.2393 -0.5147
  845MPD2     C12412   3.363   1.501  16.805 -0.5688  0.2537  0.3020
  845MPD2    C112413   3.260   1.497  16.892 -0.5819 -0.4735  0.5934
  845MPD2    C212414   3.203   1.370  16.917 -0.3267  0.7058 -0.3192
  845MPD2    C312415   3.260   1.255  16.860  0.5389 -0.5893  0.7431
  845MPD2    C412416   3.362   1.267  16.772 -0.4998  0.0341 -0.2927
  845MPD2    C512417   3.418   1.387  16.744  0.5316 -0.2243  0.7497
  845MPD2     H12418   3.122   1.364  16.989  0.2279  2.0760  0.4241
  845MPD2    H112419   3.414   1.181  16.731  3.1244  2.8517 -1.6376
  845MPD2    H212420   3.396   1.600  16.773  0.9316 -0.2349  0.3502
  845MPD2    H312421   3.502   1.394  16.676  1.1807  0.1069  1.5858
  845MPD2     N12422   3.196   1.137  16.898  0.1919  0.1531 -1.2161
  845MPD2    H512423   3.113   1.142  16.956  0.9265 -0.7428 -0.0554
  845MPD2    N112424   3.214   1.620  16.950  0.6496  0.1449  0.1834
  845MPD2    H712425   3.242   1.707  16.906  0.2922  0.9229  1.5304
  846MPD2     C12426   4.258   1.983  13.618 -0.0693  0.2919 -0.4324
  846MPD2    C112427   4.200   2.104  13.654 -0.2271 -0.0965  0.5165
  846MPD2    C212428   4.166   2.140  13.780  0.2337  0.2007  0.4459
  846MPD2    C312429   4.168   2.044  13.879 -0.0638 -0.7393 -0.4936
  846MPD2    C412430   4.219   1.919  13.845  0.2047  0.0755 -0.1961
  846MPD2    C512431   4.264   1.892  13.721  0.6862  1.0351  0.5906
  846MPD2     H12432   4.117   2.234  13.805 -2.9487 -1.8666  1.8843
  846MPD2    H112433   4.224   1.837  13.916 -0.4363  0.4601  0.2972
  846MPD2    H212434   4.301   1.957  13.522 -0.4135  0.8083 -0.7248
  846MPD2    H312435   4.303   1.793  13.701 -2.5138 -0.0675 -0.2028
  846MPD2     N12436   4.106   2.074  14.004 -0.1344  0.9045  0.2077
  846MPD2    H512437   4.050   2.159  14.005  0.5328  1.3495 -0.7747
  846MPD2    N112438   4.188   2.205  13.555 -0.1219 -0.3749 -0.8934
  846MPD2    H712439   4.158   2.294  13.594  1.3369  0.0987 -0.8623
  847MPD2     C12440   4.131   2.991  14.707 -0.5076  0.4420 -0.0890
  847MPD2    C112441   4.269   2.981  14.673  0.3638  0.4239 -0.7558
  847MPD2    C212442   4.325   2.860  14.689 -0.2883  0.0986 -0.4376
  847MPD2    C312443   4.263   2.752  14.738 -0.1165  0.0162  0.4356
  847MPD2    C412444   4.128   2.769  14.764 -0.2567  0.5221  0.6064
  847MPD2    C512445   4.060   2.883  14.757 -0.2620 -0.2814 -0.5451
  847MPD2     H12446   4.427   2.842  14.657  0.2410 -1.5620  2.2208
  847MPD2    H112447   4.075   2.683  14.803  0.8022  0.7748  2.6215
  847MPD2    H212448   4.079   3.085  14.694  2.2507  1.9548 -0.1424
  847MPD2    H312449   3.956   2.887  14.789 -0.6902  1.3296 -2.1370
  847MPD2     N12450   4.328   2.627  14.752  0.1633  0.3364  0.1258
  847MPD2    H512451   4.428   2.629  14.735  0.3163  0.6226  1.0657
  847MPD2    N112452   4.350   3.074  14.612  0.0774  0.2268 -0.2091
  847MPD2    H712453   4.445   3.050  14.586  0.2362  0.9280 -0.2712
  848MPD2     C12454   2.382   1.320  16.379  0.3506  0.2396 -0.2500
  848MPD2    C112455   2.403   1.392  16.491 -0.0144  0.1344 -0.4085
  848MPD2    C212456   2.444   1.527  16.480  0.5752  0.0827 -0.4004
  848MPD2    C312457   2.457   1.585  16.352  0.1590  0.8099  0.7444
  848MPD2    C412458   2.441   1.506  16.242  0.4557 -0.0150 -0.1572
  848MPD2    C512459   2.405   1.371  16.255  0.1111  0.6076 -0.1283
  848MPD2     H12460   2.466   1.575  16.574  0.4067  2.0889 -1.3864
  848MPD2    H112461   2.463   1.544  16.143  1.0595  0.8288  0.2945
  848MPD2    H212462   2.362   1.214  16.388  0.0996  0.1477 -1.9614
  848MPD2    H312463   2.377   1.309  16.170  0.3757  1.9252 -1.1768
  848MPD2     N12464   2.476   1.724  16.335 -0.5489 -0.1357  0.0130
  848MPD2    H512465   2.462   1.762  16.242 -2.5276 -0.2019  0.2835
  848MPD2    N112466   2.378   1.343  16.616  0.5055 -1.1585  0.2150
  848MPD2    H712467   2.414   1.399  16.692  0.8989 -0.8402 -0.2073
  849MPD2     C12468   1.428   1.301  13.318 -0.0254 -0.3497 -0.3053
  849MPD2    C112469   1.548   1.229  13.306 -0.2417  0.4018  0.0691
  849MPD2    C212470   1.598   1.166  13.417 -0.2759 -0.9456 -0.1513
  849MPD2    C312471   1.541   1.184  13.539  0.6966  0.1706  0.0240
  849MPD2    C412472   1.431   1.260  13.560  0.3009  0.3250 -0.5640
  849MPD2    C512473   1.373   1.309  13.443 -0.8701 -0.1463 -0.0137
  849MPD2     H12474   1.692   1.116  13.401  0.0628  0.2867 -1.9807
  849MPD2    H112475   1.378   1.272  13.654  1.3874  1.9537 -0.1708
  849MPD2    H212476   1.377   1.363  13.245 -0.0345  0.6898  0.5729
  849MPD2    H312477   1.283   1.367  13.457 -0.1559  0.3628  2.4853
  849MPD2     N12478   1.597   1.108  13.649 -0.0560  0.3683  0.1646
  849MPD2    H512479   1.685   1.063  13.626 -0.4962  0.0432 -0.8826
  849MPD2    N112480   1.615   1.213  13.174 -0.3398 -0.0355  0.3161
  849MPD2    H712481   1.707   1.169  13.173 -0.9805 -1.3099 -3.0210
  850MPD2     C12482   4.149   3.266  14.979 -0.2666  0.1447 -0.1668
  850MPD2    C112483   4.145   3.381  15.054  0.2310  0.0007  0.0536
  850MPD2    C212484   4.261   3.436  15.102 -0.5585  0.0986 -0.0338
  850MPD2    C312485   4.381   3.372  15.087 -0.3921  0.6908  0.1227
  850MPD2    C412486   4.382   3.256  15.014 -0.3003 -0.9136 -0.9775
  850MPD2    C512487   4.270   3.209  14.959 -0.0538  0.1851  0.0060
  850MPD2     H12488   4.264   3.530  15.155  0.5892  1.0045 -1.7134
  850MPD2    H112489   4.476   3.202  15.022  0.2551  0.2285  0.3101
  850MPD2    H212490   4.064   3.205  14.949 -1.1530  0.9253  0.7565
  850MPD2    H312491   4.267   3.108  14.920 -0.6715 -0.6376  2.1951
  850MPD2     N12492   4.501   3.422  15.149 -0.2705  0.4781  0.1548
  850MPD2    H512493   4.576   3.354  15.147 -1.9372 -1.3694  0.1143
  850MPD2    N112494   4.017   3.436  15.078 -0.0730 -0.6002 -0.0555
  850MPD2    H712495   3.943   3.393  15.023 -1.3023  0.9271  0.3991
  851MPD2     C12496   4.558   3.530  15.752  0.2692 -0.8641  0.0640
  851MPD2    C112497   4.505   3.479  15.637 -0.1172 -0.2192  0.8223
  851MPD2    C212498   4.585   3.387  15.561  0.1166 -0.3637  0.6500
  851MPD2    C312499   4.697   3.339  15.613 -0.3875 -0.6792 -0.0554
  851MPD2    C412500   0.029   3.389  15.732 -0.2395  0.1235  0.0360
  851MPD2    C512501   4.676   3.482  15.802 -0.2164 -0.0027  0.2343
  851MPD2     H12502   4.543   3.352  15.468  1.3334 -1.9805  0.7105
  851MPD2    H112503   0.124   3.358  15.773  0.0812  1.4100  0.2733
  851MPD2    H212504   4.499   3.599  15.811 -0.0210 -0.4788 -0.6809
  851MPD2    H312505   4.701   3.530  15.896 -1.3092  1.7225 -0.3507
  851MPD2     N12506   0.039   3.239  15.536 -0.0087 -0.3020 -0.4449
  851MPD2    H512507   4.717   3.211  15.450  0.9879 -1.2426 -0.6516
  851MPD2    N112508   4.378   3.522  15.594  0.1972  0.3682 -0.0497
  851MPD2    H712509   4.333   3.597  15.646 -0.6131  0.2782 -0.6119
  852MPD2     C12510   4.166   2.565  10.634 -0.9435 -0.2909  0.8041
  852MPD2    C112511   4.112   2.596  10.510  0.5974  0.4366  0.0787
  852MPD2    C212512   4.171   2.703  10.435  0.0310  0.5495  0.0534
  852MPD2    C312513   4.270   2.787  10.482  0.0225  0.2082  0.4773
  852MPD2    C412514   4.322   2.758  10.612 -0.6234  0.7467 -0.4364
  852MPD2    C512515   4.264   2.656  10.683  0.3091 -0.1161 -0.3819
  852MPD2     H12516   4.146   2.720  10.331 -0.9300  2.4371  0.6044
  852MPD2    H112517   4.389   2.828  10.660  0.0907  0.1766 -0.6007
  852MPD2    H212518   4.139   2.487  10.704 -1.1800 -0.7916  0.1623
  852MPD2    H312519   4.305   2.644  10.783 -1.9336 -0.6726  0.4691
  852MPD2     N12520   4.317   2.885  10.397  0.2443 -0.0626  0.2637
  852MPD2    H512521   4.266   2.891  10.310 -1.5412 -2.3092  1.1469
  852MPD2    N112522   4.025   2.505  10.439 -0.6176  0.3855 -0.1594
  852MPD2    H712523   3.995   2.534  10.347  0.0682  1.5877 -0.0152
  853MPD2     C12524   0.885   0.890  12.525 -0.0338 -0.4750 -0.1173
  853MPD2    C112525   0.861   1.020  12.486 -0.4224 -0.2214  0.5816
  853MPD2    C212526   0.862   1.045  12.349 -0.5188  0.0802 -0.7362
  853MPD2    C312527   0.871   0.942  12.254 -0.6344  0.6470 -0.1983
  853MPD2    C412528   0.887   0.815  12.302  0.0505 -0.5490  0.1266
  853MPD2    C512529   0.894   0.786  12.435 -0.0987 -1.2182 -0.4758
  853MPD2     H12530   0.864   1.147  12.312 -0.4097 -0.2054 -1.5140
  853MPD2    H112531   0.879   0.732  12.234  0.1890 -0.6059  0.1807
  853MPD2    H212532   0.888   0.861  12.629  1.3392  0.3522  0.0817
  853MPD2    H312533   0.894   0.681  12.462 -0.0936 -1.0856  0.0466
  853MPD2     N12534   0.862   0.971  12.110 -0.2627  0.2119  0.2001
  853MPD2    H512535   0.876   0.896  12.042 -0.6880  0.8685 -0.6047
  853MPD2    N112536   0.862   1.119  12.584 -0.6044 -0.5388  0.8190
  853MPD2    H712537   0.872   1.088  12.680 -2.6689 -2.9143  0.2516
  854MPD2     C12538   2.651   1.541  12.507  0.4476 -0.4284  0.2099
  854MPD2    C112539   2.648   1.407  12.479  0.3336  0.0156 -0.1287
  854MPD2    C212540   2.741   1.315  12.534  0.1857 -0.3350 -0.3825
  854MPD2    C312541   2.844   1.369  12.615  0.7929  0.2241 -0.0842
  854MPD2    C412542   2.839   1.503  12.651 -0.5915 -0.2918 -0.0967
  854MPD2    C512543   2.746   1.589  12.603 -0.4823  0.6403 -0.1446
  854MPD2     H12544   2.743   1.211  12.506  1.4500 -0.3675 -0.1804
  854MPD2    H112545   2.916   1.541  12.717 -0.7519  1.4679 -0.9357
  854MPD2    H212546   2.582   1.602  12.451  0.0100 -0.3377  0.8552
  854MPD2    H312547   2.747   1.696  12.622 -0.1794  0.9554 -1.9211
  854MPD2     N12548   2.924   1.288  12.683 -0.2959  0.0007 -0.5335
  854MPD2    H512549   2.978   1.331  12.758 -4.1872  3.0125  0.5616
  854MPD2    N112550   2.543   1.375  12.394 -0.2483 -0.3286 -0.3529
  854MPD2    H712551   2.483   1.450  12.361 -0.2689 -0.1032  0.2054
  855MPD2     C12552   3.581   1.360  13.398  0.2624  0.3064  0.3049
  855MPD2    C112553   3.447   1.319  13.404  0.0360  0.6390  0.0367
  855MPD2    C212554   3.377   1.277  13.292  0.4414 -0.2081  0.3129
  855MPD2    C312555   3.435   1.278  13.166  0.7213  0.0466  0.0637
  855MPD2    C412556   3.560   1.339  13.157 -0.4198 -0.5186 -0.0098
  855MPD2    C512557   3.631   1.379  13.274 -0.5950 -0.3457  0.5245
  855MPD2     H12558   3.283   1.228  13.313 -0.0566 -0.5119 -2.6832
  855MPD2    H112559   3.600   1.366  13.060 -0.5707 -2.6198 -0.6606
  855MPD2    H212560   3.631   1.387  13.490  0.2507 -1.5872  0.8746
  855MPD2    H312561   3.727   1.428  13.265  0.3498 -2.3359 -0.1501
  855MPD2     N12562   3.372   1.224  13.045 -0.2219  0.1907 -0.7684
  855MPD2    H512563   3.426   1.233  12.960  0.4896  2.0719 -0.1334
  855MPD2    N112564   3.385   1.296  13.530 -0.1071 -0.5486 -0.4176
  855MPD2    H712565   3.309   1.228  13.528 -1.1054  0.5411  1.4341
  856MPD2     C12566   4.508   2.622  14.330 -0.0325  0.4780  0.2409
  856MPD2    C112567   4.558   2.642  14.203 -0.4398 -1.0332 -0.2191
  856MPD2    C212568   4.524   2.764  14.140  0.1612 -0.1437  0.2655
  856MPD2    C312569   4.454   2.861  14.202  0.2993  0.2389 -0.0758
  856MPD2    C412570   4.398   2.838  14.331  0.4475 -0.0933 -0.0779
  856MPD2    C512571   4.418   2.715  14.383  0.3712  0.5370 -0.3457
  856MPD2     H12572   4.575   2.772  14.044  0.6819 -0.5858  0.5031
  856MPD2    H112573   4.338   2.912  14.382 -0.7084 -0.8271 -0.3636
  856MPD2    H212574   4.529   2.530  14.385 -0.3196  0.4994  0.3866
  856MPD2    H312575   4.357   2.674  14.463  2.5771  0.3282  1.2533
  856MPD2     N12576   4.446   2.978  14.135  0.3526 -0.7876 -0.3656
  856MPD2    H512577   4.476   2.968  14.039  0.5169 -0.5974 -0.3336
  856MPD2    N112578   4.655   2.565  14.138  0.0590  0.0694  0.0760
  856MPD2    H712579   4.692   2.590  14.047 -2.4858 -0.6814 -1.1700
  857MPD2     C12580   1.840   4.438  12.504 -0.1555 -0.4427  0.6024
  857MPD2    C112581   1.970   4.431  12.542  0.0557 -0.6355  0.1044
  857MPD2    C212582   2.042   4.546  12.570 -0.1469 -0.2098  1.1360
  857MPD2    C312583   1.977   4.667  12.573  0.0110  0.3953 -0.0685
  857MPD2    C412584   1.843   4.670  12.536  0.4504  0.1198  0.1353
  857MPD2    C512585   1.771   4.557  12.512  0.3417  0.0719 -0.2968
  857MPD2     H12586   2.145   4.544  12.606  0.6298  1.3498 -1.0028
  857MPD2    H112587   1.785   0.037  12.547 -0.4483 -0.3567 -0.6662
  857MPD2    H212588   1.782   4.354  12.467  0.7226 -1.2497  1.0453
  857MPD2    H312589   1.664   4.568  12.493 -0.0127 -1.8237  0.5559
  857MPD2     N12590   2.051   0.054  12.634 -0.3961 -0.0106 -0.2866
  857MPD2    H512591   2.144   0.032  12.669 -0.4477 -0.4841 -0.4402
  857MPD2    N112592   2.025   4.302  12.531 -0.3550  0.5168  0.2053
  857MPD2    H712593   1.958   4.226  12.530  0.9384 -0.6367  0.6937
  858MPD2     C12594   2.506   3.294  16.866 -0.0668  0.2484 -0.3337
  858MPD2    C112595   2.632   3.348  16.883 -0.2093 -0.2093 -0.2816
  858MPD2    C212596   2.655   3.432  16.993 -0.0358  0.3309  0.0584
  858MPD2    C312597   2.551   3.438  17.088  0.8712 -0.2148 -0.0769
  858MPD2    C412598   2.425   3.398  17.058  0.0224  0.6957 -0.6010
  858MPD2    C512599   2.401   3.334  16.941 -0.3026  0.0628 -0.6250
  858MPD2     H12600   2.755   3.466  17.014 -0.3056  1.4549 -0.4542
  858MPD2    H112601   2.347   3.412  17.132  0.9351  2.5353  0.0014
  858MPD2    H212602   2.492   3.214  16.794  0.8467  0.1590 -0.4104
  858MPD2    H312603   2.298   3.300  16.938 -1.6558  3.9278  1.0857
  858MPD2     N12604   2.573   3.494  17.217  0.6649  0.2006  0.4194
  858MPD2    H512605   2.492   3.496  17.279 -0.0708 -1.3167 -0.4780
  858MPD2    N112606   2.736   3.318  16.791  0.4482  0.5447 -0.5189
  858MPD2    H712607   2.724   3.229  16.742 -1.8488  2.0070 -2.6065
  859MPD2     C12608   1.268   0.225  15.150  0.1756  0.2817 -0.0287
  859MPD2    C112609   1.287   0.283  15.029  0.1401 -0.2562 -0.5865
  859MPD2    C212610   1.363   0.217  14.935 -0.0837 -0.3041 -0.2326
  859MPD2    C312611   1.416   0.094  14.965  0.3802 -0.4631  0.8112
  859MPD2    C412612   1.394   0.032  15.087 -0.0967  0.5929  0.6081
  859MPD2    C512613   1.325   0.101  15.178 -0.1348  0.0909  0.1048
  859MPD2     H12614   1.378   0.257  14.835  1.9949  0.7945  0.5246
  859MPD2    H112615   1.424   4.658  15.125 -1.4847  0.3124  0.9961
  859MPD2    H212616   1.206   0.272  15.226  1.3031  0.2386  0.9310
  859MPD2    H312617   1.299   0.062  15.276  0.6548  1.6156  0.9226
  859MPD2     N12618   1.500   0.024  14.881  0.2118 -0.3989 -0.2990
  859MPD2    H512619   1.548   4.669  14.924 -0.0144 -0.1631  0.3841
  859MPD2    N112620   1.233   0.419  15.012 -0.8877  0.2307  0.1595
  859MPD2    H712621   1.166   0.457  15.078 -0.5473 -0.8604  1.1264
  860MPD2     C12622   4.168   1.401  11.438  0.1455 -0.3322 -0.7233
  860MPD2    C112623   4.157   1.358  11.564  0.5813  0.0560 -0.4457
  860MPD2    C212624   4.040   1.325  11.613  0.3145  0.4794  0.0578
  860MPD2    C312625   3.924   1.349  11.547 -0.7115  0.4468 -0.2620
  860MPD2    C412626   3.929   1.394  11.417  0.1054 -0.1213  0.1386
  860MPD2    C512627   4.053   1.426  11.372  0.5579 -0.0367  0.3526
  860MPD2     H12628   4.033   1.288  11.715  0.4226 -1.0894 -0.5054
  860MPD2    H112629   3.843   1.419  11.356  1.9297  2.8622 -1.2107
  860MPD2    H212630   4.260   1.423  11.384  2.0836  1.0280  3.1238
  860MPD2    H312631   4.058   1.469  11.272  0.3022  0.1143  0.4055
  860MPD2     N12632   3.809   1.337  11.625 -0.2735  0.5429 -0.4820
  860MPD2    H512633   3.818   1.302  11.719  1.3231 -1.8751 -1.5320
  860MPD2    N112634   4.269   1.338  11.660  0.1161  0.4117 -0.0799
  860MPD2    H712635   4.239   1.325  11.756  1.8939  1.4421  0.6171
  861MPD2     C12636   2.851   4.606  11.095 -0.8246  0.1649  0.6518
  861MPD2    C112637   2.762   4.660  11.188  0.1844  0.7537 -0.5384
  861MPD2    C212638   2.633   4.669  11.151 -0.4299  0.3198 -0.3303
  861MPD2    C312639   2.591   4.628  11.026 -0.2905  0.7198 -0.1067
  861MPD2    C412640   2.680   4.573  10.938  0.1132  0.1968  0.1178
  861MPD2    C512641   2.808   4.559  10.975  0.5546 -1.2863  1.4999
  861MPD2     H12642   2.562   4.710  11.222 -0.1043  1.7968 -0.8463
  861MPD2    H112643   2.656   4.545  10.836 -0.9602 -0.2062  0.4717
  861MPD2    H212644   2.956   4.591  11.118 -0.8602  1.4202  1.5905
  861MPD2    H312645   2.878   4.535  10.897  1.1781  0.1683  1.6056
  861MPD2     N12646   2.468   4.653  10.961  0.4145 -0.1528 -0.4267
  861MPD2    H512647   2.456   4.620  10.866 -0.1286  1.9993 -1.0998
  861MPD2    N112648   2.798   4.712  11.314 -0.4418 -0.3192  0.0255
  861MPD2    H712649   2.732   4.715  11.391  0.6990 -4.5785  1.1847
  862MPD2     C12650   1.957   4.295  10.568 -1.0210 -0.0490  1.1150
  862MPD2    C112651   2.047   4.296  10.678  0.4290  0.3176  0.3571
  862MPD2    C212652   2.122   4.185  10.707  0.3229 -0.2959  0.3396
  862MPD2    C312653   2.115   4.073  10.627  0.8995  0.1823  0.3426
  862MPD2    C412654   2.036   4.077  10.517  0.3081  0.2222 -0.3381
  862MPD2    C512655   1.952   4.186  10.490 -0.4993 -0.7499  0.1655
  862MPD2     H12656   2.191   4.182  10.791  0.1703 -1.8099  0.4167
  862MPD2    H112657   2.020   3.987  10.459  0.0684  0.9900 -1.4541
  862MPD2    H212658   1.907   4.390  10.554 -0.9453 -0.3065 -0.8798
  862MPD2    H312659   1.883   4.188  10.407  0.0539 -1.9364 -0.3296
  862MPD2     N12660   2.175   3.944  10.650  0.1301  0.1804 -0.0195
  862MPD2    H512661   2.146   3.874  10.582  0.6043 -0.7320  0.7078
  862MPD2    N112662   2.066   4.406  10.765  0.4753  0.1120  0.0500
  862MPD2    H712663   2.127   4.388  10.843  1.1349  0.4092 -0.3960
  863MPD2     C12664   1.318   2.094  16.405  0.6084  0.3959  0.0639
  863MPD2    C112665   1.343   2.218  16.455  0.4788 -0.0293 -0.1510
  863MPD2    C212666   1.428   2.226  16.564  0.1642  0.1231  0.2380
  863MPD2    C312667   1.497   2.119  16.616 -0.5901  0.6072 -0.0272
  863MPD2    C412668   1.466   1.994  16.568 -0.5944  0.0171  0.4105
  863MPD2    C512669   1.376   1.984  16.466  0.4296  0.1525 -0.4561
  863MPD2     H12670   1.444   2.326  16.603 -1.4033 -0.4377  2.3412
  863MPD2    H112671   1.507   1.905  16.614 -2.5237 -0.0916  1.8859
  863MPD2    H212672   1.250   2.082  16.322 -1.7815  0.5597  2.0265
  863MPD2    H312673   1.348   1.884  16.433 -0.4621  1.3662 -3.3576
  863MPD2     N12674   1.582   2.128  16.723 -0.5095  0.3854  0.2232
  863MPD2    H512675   1.625   2.039  16.747 -1.7621 -0.8151 -1.9788
  863MPD2    N112676   1.282   2.334  16.403  0.1288 -0.0989 -0.0489
  863MPD2    H712677   1.301   2.426  16.442 -1.2539  1.7329 -3.6764
  864MPD2     C12678   1.228   3.775  16.890 -0.2356  0.2464  0.1890
  864MPD2    C112679   1.334   3.770  16.980 -0.1585  0.1939 -0.0637
  864MPD2    C212680   1.401   3.889  17.014  0.4137 -0.0046 -0.1090
  864MPD2    C312681   1.372   4.009  16.947  0.1157 -0.2390 -0.4669
  864MPD2    C412682   1.265   4.016  16.856 -0.8909  1.0550  0.1415
  864MPD2    C512683   1.192   3.900  16.846 -0.0601  0.1988  1.0006
  864MPD2     H12684   1.480   3.873  17.086  0.8679  0.0719 -0.5861
  864MPD2    H112685   1.245   4.097  16.787 -1.7755  0.1102 -0.7086
  864MPD2    H212686   1.169   3.685  16.874  1.7711 -0.7798 -1.4054
  864MPD2    H312687   1.107   3.893  16.779  0.8024 -0.5738 -0.0112
  864MPD2     N12688   1.457   4.123  16.954 -0.0471  0.2874 -0.4106
  864MPD2    H512689   1.443   4.197  16.886 -0.5133  1.1056  0.5712
  864MPD2    N112690   1.380   3.642  17.018  0.0194  0.2589  0.0244
  864MPD2    H712691   1.348   3.556  16.974 -0.0215  0.9361 -1.2865
  865MPD2     C12692   1.701   4.157  16.156 -0.4302  0.0952 -0.3021
  865MPD2    C112693   1.728   4.056  16.244  0.2178 -0.5551 -0.2493
  865MPD2    C212694   1.739   4.085  16.380 -0.0940  0.2679  0.1782
  865MPD2    C312695   1.704   4.212  16.424  0.0137 -0.5488 -0.2713
  865MPD2    C412696   1.665   4.311  16.335  0.0847  0.3798 -0.2944
  865MPD2    C512697   1.674   4.280  16.201 -0.2778 -0.7210 -0.1749
  865MPD2     H12698   1.780   4.016  16.454  0.0234 -1.7456 -1.7770
  865MPD2    H112699   1.643   4.415  16.355  2.1599  0.8317 -0.3528
  865MPD2    H212700   1.693   4.140  16.050 -0.9310 -2.2351  0.1042
  865MPD2    H312701   1.663   4.361  16.129  1.0063 -0.6331 -0.2777
  865MPD2     N12702   1.723   4.251  16.563 -0.5653  0.2790 -0.3674
  865MPD2    H512703   1.685   4.339  16.596  1.0514  0.1037  1.9572
  865MPD2    N112704   1.754   3.932  16.184 -0.2536 -0.1161 -0.4859
  865MPD2    H712705   1.739   3.936  16.083  1.3996  0.8639 -0.6839
  866MPD2     C12706   3.166   0.238  11.712 -0.5853 -0.8600 -0.1066
  866MPD2    C112707   3.181   0.262  11.575 -0.9366  0.2110  0.2132
  866MPD2    C212708   3.077   0.297  11.495  0.0812  0.2551 -0.0283
  866MPD2    C312709   2.957   0.336  11.551  0.6969  0.6005  0.2288
  866MPD2    C412710   2.946   0.336  11.687 -0.2193  0.0076  0.4257
  866MPD2    C512711   3.056   0.294  11.763 -0.2861  0.3459  0.2117
  866MPD2     H12712   3.087   0.288  11.388 -1.3241 -1.0532 -0.0523
  866MPD2    H112713   2.850   0.363  11.729  0.3213  1.2972  0.8203
  866MPD2    H212714   3.244   0.196  11.774  2.2280  1.7539 -1.8760
  866MPD2    H312715   3.036   0.294  11.869 -0.3502  0.7391  0.1997
  866MPD2     N12716   2.846   0.377  11.475 -0.3347  0.5327 -0.4256
  866MPD2    H512717   2.774   0.427  11.525 -0.2791 -0.1839  0.3629
  866MPD2    N112718   3.302   0.215  11.520  0.1077  0.3293  0.1407
  866MPD2    H712719   3.368   0.177  11.587 -2.3852 -2.3198  1.0990
  867MPD2     C12720   0.393   3.635  16.530  0.0385 -0.0415 -0.3663
  867MPD2    C112721   0.469   3.595  16.638 -0.0789 -0.5593  0.3859
  867MPD2    C212722   0.470   3.670  16.752  0.3011  0.8902  0.2940
  867MPD2    C312723   0.394   3.789  16.760 -0.6675 -0.0864 -0.0186
  867MPD2    C412724   0.312   3.828  16.655 -0.4908 -0.0939 -0.8010
  867MPD2    C512725   0.319   3.749  16.539 -0.4631 -0.3914 -0.5210
  867MPD2     H12726   0.543   3.643  16.827  0.0836 -0.5782 -0.0205
  867MPD2    H112727   0.262   3.924  16.659  0.5139  0.3905  0.0350
  867MPD2    H212728   0.377   3.572  16.443  0.0871  1.9916 -1.8335
  867MPD2    H312729   0.259   3.771  16.451 -1.2297 -1.0108 -0.1542
  867MPD2     N12730   0.396   3.868  16.876  0.5813  0.1999  0.1165
  867MPD2    H512731   0.329   3.945  16.873  0.2331 -0.0790  0.9234
  867MPD2    N112732   0.546   3.470  16.625  0.2746  0.0883 -0.8104
  867MPD2    H712733   0.530   3.418  16.540  0.8075 -1.2126 -0.1203
  868MPD2     C12734   2.469   3.066  12.982 -0.6903 -0.1707 -0.1685
  868MPD2    C112735   2.499   3.113  13.101  0.4922 -0.1767  0.4439
  868MPD2    C212736   2.391   3.157  13.182  0.9806  0.0278  0.2632
  868MPD2    C312737   2.260   3.132  13.150 -0.1118  0.5360  0.0875
  868MPD2    C412738   2.235   3.071  13.032 -0.1309  0.8327  0.2528
  868MPD2    C512739   2.342   3.041  12.946 -0.3024  0.2381 -0.4234
  868MPD2     H12740   2.416   3.216  13.270 -1.4398  0.0438  0.9353
  868MPD2    H112741   2.138   3.048  12.990  0.2948 -3.0161  1.4185
  868MPD2    H212742   2.544   3.035  12.910  0.0485 -3.9788  2.2535
  868MPD2    H312743   2.324   2.993  12.851 -1.4436 -0.0178 -0.0792
  868MPD2     N12744   2.165   3.174  13.241 -0.1189 -0.2605 -0.1135
  868MPD2    H512745   2.191   3.211  13.332 -2.8069  0.8460  0.1919
  868MPD2    N112746   2.631   3.123  13.138  0.0122 -0.3949 -0.0289
  868MPD2    H712747   2.704   3.098  13.072  1.1160  2.1677  0.2237
  869MPD2     C12748   3.480   0.026   1.328  0.3252 -1.1459 -0.3026
  869MPD2    C112749   3.385   0.098   1.394  0.0267  0.3736  0.0120
  869MPD2    C212750   3.349   0.224   1.342  0.1544  0.6102  0.0697
  869MPD2    C312751   3.417   0.268   1.229  0.5732  0.0028 -0.7626
  869MPD2    C412752   3.515   0.202   1.162  0.7991 -0.2556 -0.2240
  869MPD2    C512753   3.544   0.079   1.214 -0.0239  0.4705  0.0310
  869MPD2     H12754   3.277   0.285   1.395 -0.5307 -0.9352  0.9147
  869MPD2    H112755   3.557   0.233   1.068 -1.4796  1.4580 -0.6856
  869MPD2    H212756   3.517   4.652   1.358 -2.7111 -2.3028 -0.2595
  869MPD2    H312757   3.625   0.031   1.161 -1.5565  0.7483 -2.5854
  869MPD2     N12758   3.384   0.397   1.179  0.4692  0.5248  0.0571
  869MPD2    H512759   3.437   0.426   1.097  0.5754  0.1203 -0.0163
  869MPD2    N112760   3.329   0.049   1.517  0.3682 -0.0726  0.1339
  869MPD2    H712761   3.364   4.683   1.551 -0.9568 -0.0288  1.6318
  870MPD2     C12762   2.059   0.189   1.511  0.1197  0.0103  0.1341
  870MPD2    C112763   2.188   0.164   1.475  0.6411  0.0350  0.1937
  870MPD2    C212764   2.243   0.250   1.378  0.5625  0.4172  0.2489
  870MPD2    C312765   2.187   0.365   1.344 -0.1159  0.6561  0.0997
  870MPD2    C412766   2.063   0.394   1.398 -0.4435  0.3818 -0.6750
  870MPD2    C512767   2.001   0.306   1.480  0.4464 -0.0679  0.2091
  870MPD2     H12768   2.344   0.225   1.347  0.4358 -0.9167  0.8918
  870MPD2    H112769   1.997   0.477   1.376 -0.9821  0.4928  1.3850
  870MPD2    H212770   2.000   0.125   1.575 -2.0254  0.9483 -0.8790
  870MPD2    H312771   1.905   0.331   1.523  1.6936  0.8103  2.4888
  870MPD2     N12772   2.251   0.460   1.258 -0.2110 -0.2632 -0.2421
  870MPD2    H512773   2.343   0.431   1.224 -1.4654 -0.1371 -3.8284
  870MPD2    N112774   2.259   0.059   1.536 -0.1291  0.2864 -0.2669
  870MPD2    H712775   2.203   4.721   1.594 -1.0174  0.7417 -0.6397
  871MPD2     C12776   4.343   3.931  16.882 -0.3545 -0.2953  0.0162
  871MPD2    C112777   4.307   3.933  17.019 -0.1245 -0.1254  0.3733
  871MPD2    C212778   4.353   3.825  17.098  0.8619 -0.2284  0.5911
  871MPD2    C312779   4.426   3.720  17.046 -0.2548 -0.3757 -0.0437
  871MPD2    C412780   4.445   3.714  16.906 -1.1506  0.6291 -0.4753
  871MPD2    C512781   4.398   3.816  16.831 -0.2067 -0.4230 -1.1734
  871MPD2     H12782   4.354   3.840  17.206  2.7823  1.1721  0.3786
  871MPD2    H112783   4.489   3.629  16.856 -0.7081 -0.2716  1.4380
  871MPD2    H212784   4.319   4.009  16.810  2.8127  0.7205  0.0555
  871MPD2    H312785   4.408   3.802  16.724 -0.0301  1.0778 -1.3557
  871MPD2     N12786   4.471   3.620  17.133  0.4169 -1.0042  0.3280
  871MPD2    H512787   4.451   3.629  17.233 -1.6922 -1.5640 -0.0385
  871MPD2    N112788   4.275   4.057  17.073  0.1079  0.1131  0.3893
  871MPD2    H712789   4.292   4.136  17.012  0.7575  0.0171  0.4542
  872MPD2     C12790   0.097   1.705  14.692 -0.1305 -0.0461 -0.1789
  872MPD2    C112791   0.059   1.718  14.554 -0.4134  0.1642  0.5196
  872MPD2    C212792   4.648   1.713  14.520  0.4462 -0.1725  0.1550
  872MPD2    C312793   4.552   1.683  14.615  0.0926 -0.0830  0.5924
  872MPD2    C412794   4.591   1.652  14.743  0.2633 -0.2487  0.1451
  872MPD2    C512795   4.720   1.668  14.781 -0.5401 -0.0650  0.1504
  872MPD2     H12796   4.615   1.715  14.417 -0.3892 -1.4473  0.3988
  872MPD2    H112797   4.513   1.615  14.809 -1.1256 -0.0776 -1.4005
  872MPD2    H212798   0.199   1.709  14.730 -0.3568  1.6190  0.2783
  872MPD2    H312799   0.022   1.653  14.885  4.0951  1.5888 -0.7622
  872MPD2     N12800   4.413   1.674  14.582 -0.0822 -0.3686  0.0927
  872MPD2    H512801   4.344   1.634  14.646 -0.7835 -2.5074 -1.9836
  872MPD2    N112802   0.157   1.724  14.447  0.3793 -0.3335 -0.1043
  872MPD2    H712803   0.112   1.727  14.356  0.8801 -0.2014 -0.3524
  873MPD2     C12804   2.273   1.450   0.791 -1.0826  0.2577 -0.7518
  873MPD2    C112805   2.159   1.474   0.867  0.2449 -0.5306 -0.5874
  873MPD2    C212806   2.061   1.379   0.892  0.4571  0.6944 -0.1876
  873MPD2    C312807   2.077   1.254   0.837  0.5588  0.0644  0.2350
  873MPD2    C412808   2.185   1.228   0.755  0.0671  0.2402  0.6997
  873MPD2    C512809   2.270   1.330   0.721 -0.5556 -0.2066 -0.2511
  873MPD2     H12810   1.979   1.403   0.958  1.0175 -0.3139  0.8779
  873MPD2    H112811   2.195   1.139   0.694  1.0576  1.3682 -0.7529
  873MPD2    H212812   2.349   1.524   0.769  0.5246 -1.1004  0.1535
  873MPD2    H312813   2.346   1.311   0.645 -0.1357  1.8506 -0.3470
  873MPD2     N12814   1.987   1.145   0.864  0.1155  0.6541  0.1081
  873MPD2    H512815   2.010   1.056   0.820  0.6407  2.1019 -2.5385
  873MPD2    N112816   2.143   1.598   0.931 -0.2327  0.9411  0.1838
  873MPD2    H712817   2.223   1.659   0.947  0.2163 -0.2534  2.5417
  874MPD2     C12818   1.884   2.018  15.916  0.1495  0.5506  0.0735
  874MPD2    C112819   1.930   1.909  15.985 -0.4949 -0.0403 -0.4925
  874MPD2    C212820   2.038   1.930  16.063  0.3232 -0.5608 -0.1431
  874MPD2    C312821   2.122   2.042  16.062  0.5165  0.2344 -0.1846
  874MPD2    C412822   2.079   2.151  15.986 -0.9387 -0.5400 -0.2851
  874MPD2    C512823   1.956   2.136  15.914  0.0684  0.2565  0.2636
  874MPD2     H12824   2.076   1.850  16.126 -1.3138 -1.3014 -0.1023
  874MPD2    H112825   2.141   2.237  15.965 -1.9356  0.0479 -0.7732
  874MPD2    H212826   1.788   2.020  15.866  0.1815 -0.9479 -0.0375
  874MPD2    H312827   1.927   2.217  15.849  0.0591  0.3893  0.4306
  874MPD2     N12828   2.236   2.049  16.152 -0.3154 -0.7871 -0.1397
  874MPD2    H512829   2.260   1.963  16.201 -2.1464 -0.7184  0.8495
  874MPD2    N112830   1.862   1.784  15.983  0.0255 -0.2734  0.6362
  874MPD2    H712831   1.765   1.784  15.956 -0.2848  1.2031  1.7504
  875MPD2     C12832   2.675   0.022  14.523  0.2385 -0.0909  0.2216
  875MPD2    C112833   2.592   0.131  14.522 -0.5951 -0.0603 -0.2783
  875MPD2    C212834   2.566   0.192  14.637 -0.1858  0.5459  0.3174
  875MPD2    C312835   2.602   0.138  14.762 -0.1749 -0.8849  0.1955
  875MPD2    C412836   2.668   0.010  14.756  0.0114  0.3606 -0.6125
  875MPD2    C512837   2.722   4.695  14.639 -0.3390 -0.3724  0.1686
  875MPD2     H12838   2.499   0.277  14.630  0.5219  1.1520  0.8144
  875MPD2    H112839   2.689   4.684  14.851  1.3352  0.1714 -1.0022
  875MPD2    H212840   2.708   4.694  14.433 -0.7151  0.0669 -0.2169
  875MPD2    H312841   2.779   4.603  14.627  1.7506  1.3230 -2.9286
  875MPD2     N12842   2.582   0.206  14.884  0.4166 -0.4267  0.2910
  875MPD2    H512843   2.610   0.161  14.970  3.0301  0.3687 -0.1406
  875MPD2    N112844   2.535   0.177  14.399  0.3200 -0.1254  0.8631
  875MPD2    H712845   2.463   0.248  14.406 -1.6030 -2.2302  2.3717
  876MPD2     C12846   2.101   1.398  15.826 -0.0595 -0.3226 -0.5471
  876MPD2    C112847   2.023   1.315  15.751  0.3052  1.0607 -0.4376
  876MPD2    C212848   2.017   1.176  15.795 -0.1611 -0.1467  0.3341
  876MPD2    C312849   2.069   1.140  15.917  0.0506  0.3198  0.2986
  876MPD2    C412850   2.152   1.225  15.986 -0.1707  0.7933 -0.4276
  876MPD2    C512851   2.160   1.357  15.939  0.4906  0.1613 -0.7901
  876MPD2     H12852   1.958   1.103  15.742 -1.4394  2.2005 -1.4950
  876MPD2    H112853   2.204   1.200  16.078 -1.6576  2.3446  0.8324
  876MPD2    H212854   2.111   1.504  15.806  1.2985  0.0241  1.9378
  876MPD2    H312855   2.205   1.437  15.996  2.0922  1.5237 -3.9245
  876MPD2     N12856   2.019   1.020  15.955  0.2684  0.1513  0.0151
  876MPD2    H512857   1.949   0.978  15.894 -0.3511  0.2880  0.6370
  876MPD2    N112858   1.951   1.368  15.642 -0.2250  0.1224  0.1682
  876MPD2    H712859   1.942   1.468  15.631  0.1642 -0.0003 -1.3379
  877MPD2     C12860   1.951   1.954  15.145  0.0213 -0.3237  0.0961
  877MPD2    C112861   1.922   1.846  15.067  0.2316 -1.0479 -0.5387
  877MPD2    C212862   1.926   1.859  14.930 -0.0142 -0.5060 -0.2013
  877MPD2    C312863   1.967   1.980  14.878  0.8392 -0.4937  0.0915
  877MPD2    C412864   2.003   2.085  14.955  0.3386 -0.9583 -0.3056
  877MPD2    C512865   1.994   2.072  15.089 -0.0510 -0.1407 -0.0156
  877MPD2     H12866   1.915   1.774  14.864 -0.1856  0.0520 -0.9008
  877MPD2    H112867   2.044   2.178  14.917 -2.6037  0.4412 -0.0504
  877MPD2    H212868   1.959   1.950  15.253  3.9016  4.4184  0.0062
  877MPD2    H312869   2.010   2.152  15.160  0.8482  0.1698 -0.5747
  877MPD2     N12870   1.997   1.995  14.738  0.7521 -0.7778 -0.5139
  877MPD2    H512871   2.026   2.089  14.713  0.4486 -0.5848 -0.1464
  877MPD2    N112872   1.888   1.718  15.127  0.0309  0.1851  0.6394
  877MPD2    H712873   1.871   1.646  15.058  2.5613  1.2271 -1.1000
  878MPD2     C12874   1.436   0.803  12.316 -0.3600  0.4727 -0.2550
  878MPD2    C112875   1.411   0.935  12.330 -0.2251  0.0712  0.0813
  878MPD2    C212876   1.487   1.000  12.423 -0.6936  0.5610  0.5609
  878MPD2    C312877   1.570   0.930  12.506 -0.6187  0.0408 -0.0488
  878MPD2    C412878   1.594   0.796  12.483  0.3540  0.1742  0.5632
  878MPD2    C512879   1.519   0.732  12.393 -0.8747 -0.0283 -0.1506
  878MPD2     H12880   1.477   1.107  12.430 -1.0622  0.3932  2.5727
  878MPD2    H112881   1.639   0.732  12.558  0.8453 -0.9233 -0.6557
  878MPD2    H212882   1.378   0.742  12.247  0.0806  0.3906 -0.5514
  878MPD2    H312883   1.524   0.624  12.382  0.6543  0.0896 -0.6242
  878MPD2     N12884   1.620   1.003  12.620  0.2495  0.2796 -0.2250
  878MPD2    H512885   1.599   1.103  12.619  0.6381  0.3621 -0.0435
  878MPD2    N112886   1.300   0.991  12.253  0.3958  0.6967 -0.4717
  878MPD2    H712887   1.265   0.932  12.178  0.5584 -0.0977  0.0775
  879MPD2     C12888   2.204   2.594  16.773  0.2944 -0.2755  0.8991
  879MPD2    C112889   2.181   2.467  16.820 -0.2081 -0.0503 -0.0073
  879MPD2    C212890   2.090   2.383  16.755  0.1794  0.2523  0.8288
  879MPD2    C312891   2.043   2.433  16.636  0.2528 -0.2493 -1.0563
  879MPD2    C412892   2.071   2.560  16.585  0.2566 -0.1622  0.1503
  879MPD2    C512893   2.153   2.644  16.653  0.1792  0.0671  0.1297
  879MPD2     H12894   2.053   2.292  16.801 -2.4898  1.5184  1.1987
  879MPD2    H112895   2.020   2.591  16.495 -1.6394  1.2712  1.7275
  879MPD2    H212896   2.272   2.660  16.826  0.6561  0.6803 -0.7840
  879MPD2    H312897   2.162   2.748  16.625  0.2116  0.6467  2.2893
  879MPD2     N12898   1.945   2.370  16.561  0.6904 -0.4862  0.6696
  879MPD2    H512899   1.912   2.419  16.479  0.8626  0.6989  1.3227
  879MPD2    N112900   2.243   2.438  16.938  0.6091  0.3839  0.6015
  879MPD2    H712901   2.295   2.518  16.972 -3.0028  1.8324  2.7973
  880MPD2     C12902   2.500   0.054   0.619 -0.9511 -0.6900 -0.5546
  880MPD2    C112903   2.570   4.722   0.512  0.1739  0.1026  0.1800
  880MPD2    C212904   2.641   4.599   0.526  0.2154  0.7904  0.5887
  880MPD2    C312905   2.637   4.536   0.648  0.2466 -0.0519  0.3192
  880MPD2    C412906   2.564   4.592   0.760 -0.2560 -0.2054 -0.1916
  880MPD2    C512907   2.495   4.706   0.741  0.4576 -0.2306  0.1167
  880MPD2     H12908   2.699   4.552   0.448 -1.4871 -0.4051  0.0300
  880MPD2    H112909   2.564   4.555   0.862  1.2175 -1.0827 -0.5187
  880MPD2    H212910   2.452   0.152   0.617  0.4025  0.0028  0.8515
  880MPD2    H312911   2.446   0.028   0.827  1.2732  0.3181  0.2860
  880MPD2     N12912   2.691   4.411   0.662  0.4772 -0.3358  0.0410
  880MPD2    H512913   2.729   4.373   0.576  0.6118 -0.8695  0.3316
  880MPD2    N112914   2.579   0.084   0.405  0.1171 -0.1406  0.4767
  880MPD2    H712915   2.556   0.183   0.416  2.5071  0.5300 -0.5257
  881MPD2     C12916   3.165   0.624  17.405 -0.3491 -0.2760  0.6407
  881MPD2    C112917   3.139   0.496  17.384 -0.2501  0.1211 -0.1985
  881MPD2    C212918   3.038   0.436  17.462  0.2653  0.4641 -1.1210
  881MPD2    C312919   2.965   0.509  17.549  0.3427 -0.0577  0.5239
  881MPD2    C412920   2.990   0.640  17.564  0.1365  0.1415  0.6843
  881MPD2    C512921   3.099   0.693  17.500 -0.6924 -0.3592 -0.2653
  881MPD2     H12922   3.014   0.332  17.442  3.4047  0.0409 -2.7018
  881MPD2    H112923   2.927   0.694  17.634  0.5033  0.3631  0.8428
  881MPD2    H212924   3.250   0.673  17.358 -3.5505  4.6529  0.0090
  881MPD2    H312925   3.123   0.797  17.520 -0.9947  0.1657 -2.5725
  881MPD2     N12926   2.865   0.460  17.635  0.0480  0.6846  0.3577
  881MPD2    H512927   2.821   0.538  17.683  2.4854  1.1463  1.8478
  881MPD2    N112928   3.226   0.418  17.305  0.6984  0.0206  0.0992
  881MPD2    H712929   3.306   0.475  17.279  0.8685 -0.7833 -1.1381
  882MPD2     C12930   1.443   2.094  14.379 -0.4883  0.1257  0.0934
  882MPD2    C112931   1.509   1.976  14.387 -0.0171 -0.9202 -0.4470
  882MPD2    C212932   1.429   1.860  14.405  0.4507  0.0984  0.4708
  882MPD2    C312933   1.290   1.870  14.418  0.6139 -0.5745  0.0433
  882MPD2    C412934   1.222   1.989  14.391  0.1327  0.2902  0.6176
  882MPD2    C512935   1.303   2.097  14.368  0.0440  0.2213 -0.2170
  882MPD2     H12936   1.478   1.770  14.442 -2.5378 -0.7461  2.3558
  882MPD2    H112937   1.115   2.004  14.386 -0.1444 -2.3287 -1.1298
  882MPD2    H212938   1.493   2.190  14.373 -1.2396  0.6557  2.2246
  882MPD2    H312939   1.252   2.186  14.334 -1.3094  0.3005  1.9287
  882MPD2     N12940   1.211   1.763  14.458 -0.4822  0.9527  0.1491
  882MPD2    H512941   1.111   1.779  14.473  0.1156  2.7125  2.2321
  882MPD2    N112942   1.653   1.962  14.366 -0.3947  0.4624  0.2648
  882MPD2    H712943   1.682   1.865  14.370  1.0860  0.8750 -0.3502
  883MPD2     C12944   3.684   1.657  16.584  0.9267  0.5400  0.6412
  883MPD2    C112945   3.755   1.702  16.471  0.0945  0.2768 -0.1254
  883MPD2    C212946   3.872   1.768  16.495 -0.2867  0.6242 -0.2079
  883MPD2    C312947   3.912   1.809  16.622  0.2415  0.5598 -0.5867
  883MPD2    C412948   3.843   1.761  16.730 -0.6052 -0.3629 -0.4851
  883MPD2    C512949   3.735   1.679  16.711 -0.4384 -0.6199 -0.4908
  883MPD2     H12950   3.933   1.803  16.412  0.0107  1.3733  0.3356
  883MPD2    H112951   3.877   1.775  16.832 -1.0643 -1.2991 -0.2029
  883MPD2    H212952   3.595   1.596  16.577  0.0586  1.7682  0.9879
  883MPD2    H312953   3.688   1.644  16.802  1.3668  1.5880  1.3016
  883MPD2     N12954   4.030   1.886  16.643 -0.2131  0.1770  0.0442
  883MPD2    H512955   4.093   1.888  16.563 -0.2732 -1.9301 -0.0572
  883MPD2    N112956   3.716   1.679  16.333  0.4631  0.0257 -0.1862
  883MPD2    H712957   3.786   1.709  16.266  0.6892 -2.6415 -1.1361
  884MPD2     C12958   0.650   2.175  14.970  0.6612  0.6797  0.6381
  884MPD2    C112959   0.730   2.104  15.060  0.6339 -0.1543 -0.3286
  884MPD2    C212960   0.694   2.092  15.198  0.3412  0.4687  0.4032
  884MPD2    C312961   0.585   2.161  15.248  0.4057  0.0189 -0.8191
  884MPD2    C412962   0.505   2.234  15.157 -0.1756  0.2329 -0.1828
  884MPD2    C512963   0.541   2.240  15.026  0.0539  0.2060  0.0548
  884MPD2     H12964   0.757   2.036  15.266  3.2719  0.2520 -2.4614
  884MPD2    H112965   0.430   2.307  15.183 -0.0931 -0.8685  3.0834
  884MPD2    H212966   0.662   2.187  14.863 -2.0141 -0.4722  0.2163
  884MPD2    H312967   0.482   2.299  14.956 -1.6768 -1.5647  0.0092
  884MPD2     N12968   0.558   2.149  15.386  0.0678  0.0512 -0.7842
  884MPD2    H512969   0.638   2.116  15.440 -0.3905 -0.2428 -0.2842
  884MPD2    N112970   0.848   2.038  15.025  0.1658 -0.3647 -0.9997
  884MPD2    H712971   0.913   2.002  15.094 -0.8942 -1.2977 -0.4885
  885MPD2     C12972   3.703   2.823   0.291  0.1506 -0.1571 -0.1248
  885MPD2    C112973   3.797   2.729   0.250 -0.5529 -0.5627  0.8117
  885MPD2    C212974   3.837   2.728   0.110 -0.7626  0.4638  0.6008
  885MPD2    C312975   3.776   2.813   0.020  0.1048  0.4192 -0.3870
  885MPD2    C412976   3.705   2.922   0.072  0.0248 -0.7505 -0.0470
  885MPD2    C512977   3.660   2.919   0.199  0.3665 -0.3301 -0.5654
  885MPD2     H12978   3.885   2.642   0.065  1.1672  1.7744  0.1591
  885MPD2    H112979   3.664   3.005   0.015  0.0031  0.2449  1.4119
  885MPD2    H212980   3.675   2.827   0.396  1.8215  0.2402  0.3168
  885MPD2    H312981   3.593   3.002   0.220 -1.2957 -2.3703  2.1226
  885MPD2     N12982   3.815   2.815  17.581 -0.3243 -0.4139  0.6946
  885MPD2    H512983   3.892   2.754  17.554  1.2042  1.8625  0.0004
  885MPD2    N112984   3.828   2.630   0.348  0.3121  0.0047 -0.2280
  885MPD2    H712985   3.785   2.631   0.440  1.1613 -0.3088  0.1809
  886MPD2     C12986   0.464   0.906  15.879 -0.0418 -0.0296 -0.1754
  886MPD2    C112987   0.541   0.953  15.778  0.3148 -0.4176 -0.4371
  886MPD2    C212988   0.523   1.084  15.736  0.2859 -0.4033 -0.2874
  886MPD2    C312989   0.423   1.168  15.794 -0.0553  0.0133  0.0455
  886MPD2    C412990   0.340   1.117  15.888 -0.8247  0.2716  0.4414
  886MPD2    C512991   0.362   0.987  15.921 -0.5866 -1.1812 -0.6564
  886MPD2     H12992   0.575   1.112  15.645 -1.7300  0.4570 -1.1612
  886MPD2    H112993   0.266   1.175  15.941 -1.4612  0.7020 -0.9248
  886MPD2    H212994   0.447   0.803  15.909  0.0601  0.1703  0.5711
  886MPD2    H312995   0.292   0.942  15.989  0.8902 -1.3266  0.7676
  886MPD2     N12996   0.397   1.297  15.739  0.0488  0.4141  0.2902
  886MPD2    H512997   0.300   1.324  15.748  0.0401  0.7454 -0.7893
  886MPD2    N112998   0.631   0.861  15.706 -0.1986 -0.0045  0.7466
  886MPD2    H712999   0.680   0.892  15.623  0.3282  4.0860  2.6027
  887MPD2     C13000   1.198   0.941  15.309 -0.2113  0.1742 -0.8431
  887MPD2    C113001   1.126   0.950  15.428 -0.2121 -0.0583  0.2526
  887MPD2    C213002   1.169   1.039  15.519 -0.4060  0.1577  0.1669
  887MPD2    C313003   1.288   1.102  15.507 -0.5174 -0.3608  0.3655
  887MPD2    C413004   1.367   1.083  15.396 -0.0796  0.0420  0.8093
  887MPD2    C513005   1.312   1.010  15.294  0.1532  0.2796 -0.2829
  887MPD2     H13006   1.109   1.065  15.605  0.1416 -0.7976  0.8491
  887MPD2    H113007   1.464   1.130  15.386  0.5181 -1.2160  0.6880
  887MPD2    H213008   1.183   0.877  15.223  0.6847 -1.0759 -0.0633
  887MPD2    H313009   1.368   1.001  15.201  1.0919 -1.3861  0.4394
  887MPD2     N13010   1.310   1.190  15.609  0.0332  0.5000  0.2661
  887MPD2    H513011   1.242   1.187  15.684  0.5571 -1.1785  0.6718
  887MPD2    N113012   1.020   0.866  15.461  0.2790 -0.1527 -0.0273
  887MPD2    H713013   0.979   0.875  15.553  0.5421  1.2526 -0.0392
  888MPD2     C13014   2.841   1.140  14.990 -0.3002  0.5322 -0.0615
  888MPD2    C113015   2.772   1.222  15.075  0.3948  0.2273  0.2652
  888MPD2    C213016   2.817   1.356  15.092 -0.8842 -0.5882  0.0459
  888MPD2    C313017   2.910   1.407  15.001  0.1512 -0.5938  0.3800
  888MPD2    C413018   2.980   1.326  14.916 -0.5409  0.0491  0.8199
  888MPD2    C513019   2.944   1.192  14.914 -0.3271  0.8092  0.1860
  888MPD2     H13020   2.775   1.423  15.166  1.0703  1.8482 -1.0573
  888MPD2    H113021   3.064   1.349  14.853 -2.5069 -0.1365 -1.8643
  888MPD2    H213022   2.833   1.033  15.010  1.6842  0.2615 -0.7526
  888MPD2    H313023   2.998   1.130  14.843 -1.8351  0.1357 -0.3698
  888MPD2     N13024   2.942   1.547  14.996 -0.0342  0.2443 -0.0882
  888MPD2    H513025   2.910   1.602  15.074  1.1934 -0.0039  0.5878
  888MPD2    N113026   2.673   1.174  15.164  0.1019  0.1766 -0.5363
  888MPD2    H713027   2.661   1.227  15.250 -3.2232 -0.6996 -0.4947
  889MPD2     C13028   2.216   0.871  12.865 -0.1288 -0.4641 -0.3136
  889MPD2    C113029   2.155   0.812  12.972 -0.2940  0.6625  0.3117
  889MPD2    C213030   2.185   0.878  13.087 -0.3520 -0.4130 -0.0967
  889MPD2    C313031   2.258   0.989  13.106 -0.2138 -0.7854 -0.2683
  889MPD2    C413032   2.321   1.042  12.998  0.1019  0.2435 -0.0827
  889MPD2    C513033   2.296   0.980  12.875 -0.1302 -0.7003  0.4000
  889MPD2     H13034   2.141   0.833  13.175  0.9888 -2.3711 -0.4281
  889MPD2    H113035   2.390   1.126  12.996  0.6181 -0.1508  1.9286
  889MPD2    H213036   2.219   0.829  12.765  1.7785 -0.6840 -0.1671
  889MPD2    H313037   2.338   1.021  12.783  0.0288  0.5433  1.0212
  889MPD2     N13038   2.254   1.047  13.226 -0.5187 -1.0553 -0.0299
  889MPD2    H513039   2.223   0.988  13.302 -0.2247 -1.1765 -0.0049
  889MPD2    N113040   2.111   0.677  12.965  0.4877  0.4033 -0.4278
  889MPD2    H713041   2.115   0.629  13.054 -0.5021  1.3433  0.1251
  890MPD2     C13042   2.365   2.979  15.281 -0.4723  0.0011 -0.2776
  890MPD2    C113043   2.254   2.908  15.233 -0.2123 -0.2434 -0.1942
  890MPD2    C213044   2.220   2.788  15.294 -0.1944 -0.4461  0.0061
  890MPD2    C313045   2.294   2.733  15.396  0.0398  0.4748  0.0585
  890MPD2    C413046   2.409   2.799  15.434  0.0612 -0.5656 -0.3142
  890MPD2    C513047   2.444   2.921  15.379 -0.5646  0.0348  0.6126
  890MPD2     H13048   2.145   2.722  15.252  0.2740 -0.9410 -0.0585
  890MPD2    H113049   2.468   2.766  15.518 -0.2972  1.8542  0.8856
  890MPD2    H213050   2.403   3.070  15.236  1.8329 -0.6762  0.3125
  890MPD2    H313051   2.534   2.969  15.416 -0.4226  0.0356  0.2640
  890MPD2     N13052   2.255   2.611  15.450  0.0583  0.2370 -0.3813
  890MPD2    H513053   2.167   2.573  15.418 -0.1357  0.6182 -0.2964
  890MPD2    N113054   2.178   2.970  15.128 -0.5465 -0.6615 -0.1380
  890MPD2    H713055   2.214   3.056  15.088 -0.8712 -0.1791  0.6019
  891MPD2     C13056   0.041   1.013  16.606 -0.1123  0.1829 -0.1025
  891MPD2    C113057   4.718   1.039  16.735  0.0460  0.3527 -0.6609
  891MPD2    C213058   0.047   0.957  16.839  0.2311 -0.9337  0.2826
  891MPD2    C313059   0.151   0.874  16.811  0.2095  0.4690  0.0375
  891MPD2    C413060   0.196   0.844  16.684 -0.3814 -0.0945 -0.4551
  891MPD2    C513061   0.138   0.916  16.582 -0.5704  0.1945  0.7886
  891MPD2     H13062   0.029   0.977  16.944  0.0271 -2.1265  0.4670
  891MPD2    H113063   0.277   0.775  16.664 -0.0220  0.7280 -1.7941
  891MPD2    H213064   0.019   1.078  16.522  0.9672  2.5929  1.4978
  891MPD2    H313065   0.177   0.894  16.483  0.7851 -2.5922  1.9546
  891MPD2     N13066   0.221   0.820  16.928  0.4678  1.1067 -0.5145
  891MPD2    H513067   0.193   0.857  17.018  0.9141  0.2736 -0.0284
  891MPD2    N113068   4.608   1.126  16.754  0.4827 -0.4326 -0.3818
  891MPD2    H713069   4.569   1.164  16.668 -1.5865 -0.3982  0.5786
  892MPD2     C13070   0.838   1.715  15.330  0.6492 -0.0695 -0.4151
  892MPD2    C113071   0.747   1.706  15.223  0.1542 -0.0004  0.3926
  892MPD2    C213072   0.795   1.659  15.101 -0.2158  0.1595 -0.1025
  892MPD2    C313073   0.925   1.613  15.087  0.0117 -0.2231  0.0456
  892MPD2    C413074   1.008   1.617  15.197  0.0168  0.2771 -0.7442
  892MPD2    C513075   0.965   1.671  15.314  0.0052 -0.2419 -0.4012
  892MPD2     H13076   0.722   1.662  15.021  0.4958  0.3772 -0.7430
  892MPD2    H113077   1.108   1.574  15.191 -0.4808 -1.0813  0.8136
  892MPD2    H213078   0.809   1.765  15.422 -2.2785  0.6765 -1.7561
  892MPD2    H313079   1.038   1.680  15.394 -1.7573 -1.2487  1.3273
  892MPD2     N13080   0.988   1.574  14.966  0.1729  0.8928 -0.1901
  892MPD2    H513081   1.083   1.539  14.966 -1.2742 -3.0246 -0.9497
  892MPD2    N113082   0.613   1.744  15.233 -0.4106  0.1034  0.3845
  892MPD2    H713083   0.552   1.695  15.168  1.0135  2.2143 -2.5419
  893MPD2     C13084   1.824   0.855   1.646 -0.2549  0.2835  0.1778
  893MPD2    C113085   1.859   0.728   1.666  0.9497  0.4471  0.0671
  893MPD2    C213086   1.752   0.641   1.669  0.0751  0.2330 -1.0051
  893MPD2    C313087   1.617   0.675   1.681  0.7966  1.1707  0.3407
  893MPD2    C413088   1.590   0.810   1.679 -0.6308  0.0165  0.1954
  893MPD2    C513089   1.693   0.899   1.644 -0.3958 -0.5594 -0.2447
  893MPD2     H13090   1.775   0.535   1.674 -0.6340  0.0574 -1.3862
  893MPD2    H113091   1.488   0.847   1.673 -0.5062  0.5412  1.2820
  893MPD2    H213092   1.900   0.931   1.631  0.1157 -0.0771  0.2055
  893MPD2    H313093   1.664   1.000   1.619 -0.4595 -0.6363 -0.4824
  893MPD2     N13094   1.506   0.589   1.688  0.3771 -0.1468  0.7264
  893MPD2    H513095   1.415   0.631   1.703  1.8652  3.2283  0.1348
  893MPD2    N113096   1.995   0.702   1.657 -0.2959  0.0278 -0.4670
  893MPD2    H713097   2.053   0.783   1.634  0.2958  0.4918  2.7037
  894MPD2     C13098   4.687   2.728   0.628  0.4347  0.0015 -0.2594
  894MPD2    C113099   4.689   2.767   0.759 -0.1700  0.0944  0.0366
  894MPD2    C213100   0.087   2.816   0.818  0.6043 -0.1467  0.1208
  894MPD2    C313101   0.204   2.818   0.741 -0.4213 -0.1098  0.7730
  894MPD2    C413102   0.192   2.791   0.605 -0.0343 -0.3223 -0.1511
  894MPD2    C513103   0.073   2.743   0.553 -0.0782  0.3618  0.8630
  894MPD2     H13104   0.086   2.856   0.919 -0.4995 -1.0182  0.4477
  894MPD2    H113105   0.274   2.796   0.534 -0.5593  0.4504 -0.7073
  894MPD2    H213106   4.599   2.692   0.575 -0.4623  0.6688  0.7608
  894MPD2    H313107   0.065   2.723   0.447  0.0017 -0.9598  1.1004
  894MPD2     N13108   0.324   2.854   0.807 -0.4271  0.1574  0.6474
  894MPD2    H513109   0.321   2.870   0.908 -1.1822 -0.4515  0.7181
  894MPD2    N113110   4.571   2.752   0.845  0.2789 -0.1884 -0.7982
  894MPD2    H713111   4.592   2.773   0.942  1.3163 -2.6941 -0.4709
  895MPD2     C13112   0.066   1.154  14.221 -0.1491  0.4591  0.4438
  895MPD2    C113113   0.109   1.148  14.094  0.0386 -0.0334  0.3493
  895MPD2    C213114   0.226   1.082  14.070  0.3620 -0.5590 -0.0152
  895MPD2    C313115   0.307   1.030  14.171 -0.3972 -0.0715 -0.5318
  895MPD2    C413116   0.262   1.030  14.303  0.3234 -0.4164 -0.0205
  895MPD2    C513117   0.141   1.088  14.321  0.8277 -0.1812  0.0380
  895MPD2     H13118   0.268   1.093  13.970  2.2820 -2.2268  0.6159
  895MPD2    H113119   0.318   0.987  14.386  2.2604 -1.7270 -2.0097
  895MPD2    H213120   4.693   1.191  14.253 -1.1408 -0.2757 -1.7486
  895MPD2    H313121   0.095   1.077  14.418  1.7432  1.4145  0.6545
  895MPD2     N13122   0.434   0.978  14.137  0.0968  0.8763 -0.0743
  895MPD2    H513123   0.515   0.986  14.198  0.0108  0.6018  0.0771
  895MPD2    N113124   0.033   1.187  13.981 -0.1753  0.1469 -0.2675
  895MPD2    H713125   0.065   1.161  13.888  0.6072 -0.3627  0.1419
  896MPD2     C13126   1.905   3.217   2.050  0.3188  0.7988 -0.3086
  896MPD2    C113127   1.951   3.206   1.920 -0.4098 -0.4296 -0.6900
  896MPD2    C213128   1.870   3.138   1.828 -0.0974  0.3889 -0.1279
  896MPD2    C313129   1.758   3.069   1.860  0.7688 -0.6847  0.0140
  896MPD2    C413130   1.720   3.080   1.992  0.3300  0.0326  0.0364
  896MPD2    C513131   1.784   3.153   2.083 -0.4939  0.8402 -0.0899
  896MPD2     H13132   1.910   3.132   1.727  3.6893 -0.3356  1.4169
  896MPD2    H113133   1.625   3.043   2.029  0.6339 -0.8156 -0.0203
  896MPD2    H213134   1.960   3.268   2.128 -0.3826 -1.2606  1.5179
  896MPD2    H313135   1.742   3.164   2.182  3.1004  1.4760  1.3704
  896MPD2     N13136   1.695   2.994   1.757 -0.0229  0.0897 -0.2493
  896MPD2    H513137   1.738   3.005   1.666 -2.6086  2.4606 -1.1933
  896MPD2    N113138   2.073   3.270   1.891 -0.8658  0.0154  0.2236
  896MPD2    H713139   2.113   3.326   1.965  1.0262 -1.1711  0.0925
  897MPD2     C13140   2.946   0.367  10.374 -0.4450 -0.4948 -0.0413
  897MPD2    C113141   2.971   0.505  10.368 -0.4382  0.5090  0.9278
  897MPD2    C213142   2.928   0.572  10.473  0.3199  0.4545 -0.2119
  897MPD2    C313143   2.866   0.516  10.585 -0.0849 -1.0108 -0.4221
  897MPD2    C413144   2.841   0.384  10.582  0.6544  0.2634 -0.3861
  897MPD2    C513145   2.882   0.310  10.479  0.5614  0.1163 -0.7062
  897MPD2     H13146   2.932   0.680  10.470  1.5654  0.2855 -4.0808
  897MPD2    H113147   2.785   0.335  10.661  0.3463 -0.0024 -0.7663
  897MPD2    H213148   2.979   0.309  10.289  2.1810  1.8659 -0.6200
  897MPD2    H313149   2.852   0.206  10.477  1.1023 -0.0316 -1.0195
  897MPD2     N13150   2.818   0.595  10.688 -0.9658 -0.1472  0.1350
  897MPD2    H513151   2.821   0.695  10.672 -0.4257  0.0781  1.6236
  897MPD2    N113152   3.046   0.563  10.266 -0.0165 -0.5855 -0.4007
  897MPD2    H713153   3.067   0.498  10.191  0.3910 -1.5180  0.5136
  898MPD2     C13154   0.798   0.844  17.477 -0.8071  0.4741  0.3895
  898MPD2    C113155   0.815   0.965  17.542  0.7483 -0.3596  0.2523
  898MPD2    C213156   0.720   1.063  17.551 -0.4469  0.2427  0.6870
  898MPD2    C313157   0.594   1.044  17.486 -0.3197 -0.2621 -1.2668
  898MPD2    C413158   0.569   0.922  17.424  0.0267 -1.0117  0.2823
  898MPD2    C513159   0.672   0.822  17.425  0.4746  0.3480  0.3352
  898MPD2     H13160   0.744   1.146  17.616 -0.3269 -0.7091  1.8673
  898MPD2    H113161   0.476   0.893  17.375 -0.3510  1.1278 -0.2887
  898MPD2    H213162   0.872   0.765  17.474 -2.7442 -1.3246  0.0068
  898MPD2    H313163   0.662   0.726  17.376  1.8124  0.7701 -0.7578
  898MPD2     N13164   0.503   1.148  17.481 -0.1387 -0.3966 -0.2032
  898MPD2    H513165   0.546   1.231  17.518 -1.0023 -1.2620  2.6866
  898MPD2    N113166   0.938   0.996  17.610  0.2659 -0.3361  0.4988
  898MPD2    H713167   0.939   1.074  17.675  0.6116  0.4781 -0.4880
  899MPD2     C13168   1.488   1.698  17.060 -0.0506  0.2731 -0.1340
  899MPD2    C113169   1.528   1.782  17.162  0.2472 -0.4901  0.3847
  899MPD2    C213170   1.499   1.743  17.295  0.2531 -0.4528 -0.1490
  899MPD2    C313171   1.416   1.630  17.315  0.1804  0.3135 -0.4641
  899MPD2    C413172   1.372   1.561  17.205  0.0179 -0.4277  0.1901
  899MPD2    C513173   1.406   1.586  17.080  0.2001  0.7039 -0.3502
  899MPD2     H13174   1.530   1.798  17.383  0.6478  1.1678 -1.3065
  899MPD2    H113175   1.302   1.480  17.223  2.4262 -2.5787 -0.1193
  899MPD2    H213176   1.504   1.721  16.956 -1.6416  0.7123 -0.2827
  899MPD2    H313177   1.366   1.523  17.002 -2.0334  0.5739  0.8969
  899MPD2     N13178   1.366   1.596  17.442 -0.1847  0.0455 -0.4295
  899MPD2    H513179   1.282   1.539  17.440  0.0021 -0.2272 -0.5816
  899MPD2    N113180   1.595   1.899  17.120  0.0972 -0.4986 -0.0184
  899MPD2    H713181   1.605   1.916  17.021  1.9885 -2.7615 -0.2219
  900MPD2     C13182   1.317   3.808  12.764 -0.3247 -0.0867 -0.2723
  900MPD2    C113183   1.211   3.714  12.753 -0.5438 -0.6178  0.3250
  900MPD2    C213184   1.085   3.762  12.730  0.2846  0.0888 -0.4338
  900MPD2    C313185   1.061   3.895  12.714 -0.1039  0.0453 -0.2480
  900MPD2    C413186   1.164   3.991  12.720 -0.3005 -0.2240  0.3484
  900MPD2    C513187   1.289   3.946  12.752  0.2264  0.5728 -0.0333
  900MPD2     H13188   1.006   3.688  12.720  0.6507 -0.2331 -0.9916
  900MPD2    H113189   1.153   4.096  12.697  0.5426 -0.2645 -0.2517
  900MPD2    H213190   1.421   3.784  12.783  0.0322  2.9315  1.6099
  900MPD2    H313191   1.379   4.006  12.741  2.0364 -1.6198  2.8924
  900MPD2     N13192   0.922   3.922  12.666 -0.5153 -0.3421  0.1226
  900MPD2    H513193   0.860   3.842  12.660  0.6637 -1.2069 -0.7276
  900MPD2    N113194   1.242   3.578  12.758 -0.2630  0.2201  0.9643
  900MPD2    H713195   1.340   3.554  12.750  0.0385  2.0007 -0.7023
  901MPD2     C13196   1.205   2.526  12.975 -0.5184  0.1708  0.3532
  901MPD2    C113197   1.318   2.535  12.894  0.3561  0.6569 -0.2775
  901MPD2    C213198   1.334   2.658  12.831 -0.3572 -0.5293  0.6097
  901MPD2    C313199   1.232   2.759  12.840 -0.0523  0.5785  0.2847
  901MPD2    C413200   1.118   2.740  12.915  0.8918  0.1169  0.7700
  901MPD2    C513201   1.113   2.626  12.983 -1.3941 -0.1905  0.5849
  901MPD2     H13202   1.431   2.677  12.787 -0.9283  0.9442 -0.0189
  901MPD2    H113203   1.033   2.806  12.930 -0.3448 -0.7491 -2.5834
  901MPD2    H213204   1.174   2.434  13.023  0.1614 -1.7919 -2.9442
  901MPD2    H313205   1.032   2.618  13.054 -1.2251 -0.4644  0.7441
  901MPD2     N13206   1.255   2.886  12.783  0.8067  0.1975  0.2347
  901MPD2    H513207   1.353   2.890  12.756  0.5372  1.0169 -0.6465
  901MPD2    N113208   1.406   2.425  12.892  1.3327  0.1154  0.8728
  901MPD2    H713209   1.382   2.361  12.967 -2.5185 -0.4861 -0.8948
  902MPD2     C13210   4.671   1.632  13.144  0.3080 -0.4220 -0.5565
  902MPD2    C113211   4.683   1.712  13.027 -1.0943 -0.6627 -0.0216
  902MPD2    C213212   0.060   1.677  12.938 -0.1413 -0.2294  0.1434
  902MPD2    C313213   0.144   1.568  12.950  0.0141  0.0749  0.1960
  902MPD2    C413214   0.121   1.488  13.063  0.2473  0.4437  0.4892
  902MPD2    C513215   0.035   1.528  13.159 -0.0553 -0.5839 -0.4256
  902MPD2     H13216   0.070   1.751  12.858 -0.0233 -1.6266 -1.1275
  902MPD2    H113217   0.177   1.397  13.082  0.7838  0.9722  1.4197
  902MPD2    H213218   4.595   1.643  13.220 -0.2921 -0.8703 -1.0883
  902MPD2    H313219   0.028   1.466  13.248 -2.5984 -1.5103 -1.2965
  902MPD2     N13220   0.241   1.527  12.862  0.0120  0.2546 -0.5019
  902MPD2    H513221   0.289   1.446  12.899 -3.0029 -1.4573 -0.3453
  902MPD2    N113222   4.596   1.823  13.001  0.1406  0.7681  0.3792
  902MPD2    H713223   4.600   1.852  12.903 -0.3197  2.2645  0.8094
  903MPD2     C13224   0.377   1.789  12.188 -0.4306 -0.4980  0.4306
  903MPD2    C113225   0.398   1.655  12.205  0.4025 -0.1918 -0.5573
  903MPD2    C213226   0.322   1.569  12.129  0.0608 -0.2078  0.1631
  903MPD2    C313227   0.230   1.606  12.036 -0.0129  0.2459  0.2140
  903MPD2    C413228   0.222   1.745  12.010 -0.0013  0.0539 -0.3099
  903MPD2    C513229   0.299   1.829  12.083  0.4861 -0.0307 -0.6902
  903MPD2     H13230   0.327   1.461  12.139  1.0237  0.0820  2.6982
  903MPD2    H113231   0.146   1.786  11.944 -0.3931 -0.5080 -0.2088
  903MPD2    H213232   0.435   1.866  12.238  2.1969 -1.5426 -1.0001
  903MPD2    H313233   0.304   1.937  12.074 -0.8951 -0.0147 -1.2623
  903MPD2     N13234   0.152   1.506  11.978 -0.8966  0.2416 -0.3211
  903MPD2    H513235   0.179   1.410  11.994  1.8371  0.9514 -0.5785
  903MPD2    N113236   0.484   1.606  12.312 -0.2162  0.5839  0.1206
  903MPD2    H713237   0.522   1.680  12.369  1.6280  0.3557 -0.8061
  904MPD2     C13238   4.686   0.828  14.542  0.0916 -0.1895 -0.1249
  904MPD2    C113239   4.662   0.761  14.423  0.0628  0.6787 -0.6766
  904MPD2    C213240   0.039   0.688  14.364  0.1543 -0.1573 -0.3700
  904MPD2    C313241   0.163   0.698  14.415 -0.2007 -0.0837 -0.6654
  904MPD2    C413242   0.190   0.769  14.531  0.5478 -0.7904 -0.5014
  904MPD2    C513243   0.090   0.838  14.591  0.6317 -0.1661  0.3470
  904MPD2     H13244   0.018   0.637  14.270  2.2229  0.4345 -1.1518
  904MPD2    H113245   0.290   0.777  14.572 -0.0377 -3.1177  1.3984
  904MPD2    H213246   4.613   0.894  14.587  0.1385  0.8607 -1.5918
  904MPD2    H313247   0.108   0.903  14.676  0.2899  0.0155  0.2793
  904MPD2     N13248   0.261   0.621  14.343 -0.5168  0.0770 -0.4041
  904MPD2    H513249   0.237   0.571  14.258 -0.4144 -1.4809  0.4942
  904MPD2    N113250   4.541   0.753  14.363  0.2423 -0.0173  0.2318
  904MPD2    H713251   4.533   0.699  14.277  1.0571  0.9638 -0.4601
  905MPD2     C13252   4.377   0.945  13.639  0.2604 -0.3221  0.0828
  905MPD2    C113253   4.462   0.952  13.750 -0.0110 -0.2089  0.3636
  905MPD2    C213254   4.599   0.940  13.730  0.2324 -0.6055  0.0337
  905MPD2    C313255   4.654   0.909  13.606 -0.1661 -0.5204  0.3359
  905MPD2    C413256   4.561   0.882  13.505 -0.1406 -0.0830 -0.0632
  905MPD2    C513257   4.424   0.899  13.522 -0.2275 -0.7159 -0.3251
  905MPD2     H13258   4.650   0.929  13.825 -0.4210  0.3857  0.4879
  905MPD2    H113259   4.590   0.845  13.407 -2.0877 -0.5493 -0.4611
  905MPD2    H213260   4.270   0.961  13.652  0.1324 -0.7616 -0.4464
  905MPD2    H313261   4.357   0.880  13.438 -0.9896 -2.9332  0.7890
  905MPD2     N13262   0.068   0.882  13.593 -0.0227  0.1492  0.1245
  905MPD2    H513263   0.098   0.807  13.531 -1.2855  0.2822 -0.6363
  905MPD2    N113264   4.399   0.975  13.877 -0.1749  0.5348 -0.1306
  905MPD2    H713265   4.303   1.006  13.880  0.4805  2.3661  1.7062
  906MPD2     C13266   1.529   0.673  11.481  0.0359 -0.1523  0.0692
  906MPD2    C113267   1.590   0.590  11.392 -0.0460  0.2197  0.4124
  906MPD2    C213268   1.578   0.455  11.421  0.3271  0.1794  0.1378
  906MPD2    C313269   1.497   0.405  11.517 -0.8157  0.1108  0.7253
  906MPD2    C413270   1.418   0.494  11.591  0.1721 -0.0428 -0.3009
  906MPD2    C513271   1.448   0.627  11.577 -0.3169  0.5230 -0.4220
  906MPD2     H13272   1.631   0.394  11.348 -1.6231 -2.7687  1.2099
  906MPD2    H113273   1.351   0.468  11.672  1.0125 -0.6988  0.1784
  906MPD2    H213274   1.536   0.780  11.465 -1.2853 -0.0373  0.2682
  906MPD2    H313275   1.399   0.693  11.647  2.6848  1.2069  1.0272
  906MPD2     N13276   1.476   0.265  11.542 -0.3842  0.1021 -0.2984
  906MPD2    H513277   1.395   0.241  11.599  0.2049 -1.1742 -0.0167
  906MPD2    N113278   1.648   0.635  11.270 -0.6025  0.3344 -0.0003
  906MPD2    H713279   1.684   0.561  11.210 -1.3074 -0.7820  0.9681
  907MPD2     C13280   0.684   4.598  15.839  0.3184  0.0576 -0.4167
  907MPD2    C113281   0.707   4.460  15.841  0.3163 -0.4504 -0.2419
  907MPD2    C213282   0.747   4.402  15.958  0.1378 -0.1081  0.8784
  907MPD2    C313283   0.782   4.478  16.076  0.8867  0.2743 -0.4689
  907MPD2    C413284   0.756   4.614  16.059 -0.6159  0.1469  0.2677
  907MPD2    C513285   0.703   4.669  15.949  0.0334  0.6024  0.6983
  907MPD2     H13286   0.761   4.295  15.956 -1.0512 -0.2549 -0.0306
  907MPD2    H113287   0.775   4.678  16.144  1.7924 -0.1926 -0.0050
  907MPD2    H213288   0.637   4.642  15.752 -0.5585 -0.0734 -0.0110
  907MPD2    H313289   0.690   0.054  15.950 -0.1795  0.5758  0.8575
  907MPD2     N13290   0.816   4.412  16.194 -0.5981 -0.1281 -0.3054
  907MPD2    H513291   0.841   4.314  16.188 -0.8344 -0.1883 -0.3029
  907MPD2    N113292   0.668   4.383  15.728  0.1402 -0.6442  0.1928
  907MPD2    H713293   0.691   4.285  15.741  0.3610 -0.4565  1.2182
  908MPD2     C13294   2.965   0.188   9.564  0.9406 -0.6747 -0.2601
  908MPD2    C113295   2.978   0.172   9.701 -0.4162  0.5180  0.2704
  908MPD2    C213296   3.028   0.283   9.763  0.7487  0.4643 -0.0686
  908MPD2    C313297   3.027   0.408   9.711  0.6693 -0.1505  0.9630
  908MPD2    C413298   2.992   0.427   9.580  0.3351 -0.8650  0.4779
  908MPD2    C513299   2.963   0.311   9.507  0.8717  0.7662 -0.5942
  908MPD2     H13300   3.073   0.270   9.861  0.7906 -0.0813 -0.1620
  908MPD2    H113301   2.996   0.516   9.519  1.3426 -0.8739  0.5341
  908MPD2    H213302   2.943   0.102   9.501 -0.0818 -2.2542  2.2281
  908MPD2    H313303   2.929   0.319   9.405 -0.0526  0.8413 -0.2844
  908MPD2     N13304   3.071   0.507   9.794 -0.0258  0.0916  0.2068
  908MPD2    H513305   3.087   0.476   9.890  0.2154  0.1330  0.1814
  908MPD2    N113306   2.976   0.048   9.766  0.3818  0.0871  0.3288
  908MPD2    H713307   3.017   0.042   9.859 -0.9828  0.2957  0.9415
  909MPD2     C13308   3.688   3.298  12.085 -0.3956  0.2918 -0.5663
  909MPD2    C113309   3.629   3.341  11.969  0.5619 -0.1028  0.5018
  909MPD2    C213310   3.512   3.416  11.975  0.3705  0.0701 -0.5351
  909MPD2    C313311   3.471   3.458  12.100 -0.3087  0.4044  0.7066
  909MPD2    C413312   3.529   3.406  12.220  0.3677  0.4832 -0.0290
  909MPD2    C513313   3.635   3.326  12.210  0.0613 -0.2727  0.0784
  909MPD2     H13314   3.462   3.455  11.887 -1.5071 -1.3027 -0.0580
  909MPD2    H113315   3.484   3.436  12.314 -2.0502  0.0906 -1.0449
  909MPD2    H213316   3.784   3.248  12.086 -0.3845  0.3345  0.5095
  909MPD2    H313317   3.687   3.283  12.295  0.1974  0.0200  0.1438
  909MPD2     N13318   3.372   3.563  12.095 -0.0177  0.0393  0.7662
  909MPD2    H513319   3.370   3.610  12.005 -0.0392 -1.5986 -0.0832
  909MPD2    N113320   3.686   3.300  11.842 -0.7963  0.3576 -0.2987
  909MPD2    H713321   3.625   3.310  11.762 -0.3276  4.5197 -0.1530
  910MPD2     C13322   4.567   0.182  16.214 -0.0700 -0.5814  0.2149
  910MPD2    C113323   4.668   0.147  16.132  0.3270  0.0524  0.0885
  910MPD2    C213324   4.646   0.147  15.994  0.3206  0.4564 -0.4207
  910MPD2    C313325   4.520   0.183  15.949 -0.3997  0.1547 -0.1643
  910MPD2    C413326   4.412   0.212  16.035  0.4331 -0.2523 -0.7686
  910MPD2    C513327   4.448   0.212  16.164 -0.0641  0.0819  0.0980
  910MPD2     H13328   0.012   0.130  15.934  1.6429 -4.9759  3.0672
  910MPD2    H113329   4.316   0.255  16.009  1.0791  0.7619 -1.4755
  910MPD2    H213330   4.579   0.182  16.322 -1.8673 -1.2216  0.4306
  910MPD2    H313331   4.368   0.227  16.236  1.9635  1.6303  2.0779
  910MPD2     N13332   4.497   0.213  15.814  0.1058 -0.2964 -0.3021
  910MPD2    H513333   4.402   0.239  15.793  0.5028  1.2190 -0.2127
  910MPD2    N113334   0.065   0.082  16.176 -0.1051  0.3129 -0.0765
  910MPD2    H713335   0.126   0.068  16.096  1.1503 -3.4693  1.5503
  911MPD2     C13336   2.900   0.895  16.355  0.6620  0.0978  0.2606
  911MPD2    C113337   2.982   0.985  16.284 -0.1851  0.3931  0.0787
  911MPD2    C213338   2.928   1.075  16.194  0.3156 -1.0331  0.1903
  911MPD2    C313339   2.792   1.083  16.178 -1.0546  0.1362  0.4007
  911MPD2    C413340   2.712   0.984  16.234  0.6012  0.1154  0.2266
  911MPD2    C513341   2.773   0.889  16.306  0.1813  0.0523  0.6287
  911MPD2     H13342   2.991   1.143  16.139  0.9202 -0.1446  1.9768
  911MPD2    H113343   2.605   0.982  16.217  0.9930 -0.2640 -2.1866
  911MPD2    H213344   2.952   0.816  16.407 -2.0855 -0.3156  2.3932
  911MPD2    H313345   2.700   0.820  16.348  0.8855 -0.7372  0.5570
  911MPD2     N13346   2.724   1.179  16.091  0.0770 -0.4956  0.6452
  911MPD2    H513347   2.626   1.163  16.074  0.1092  0.5457 -0.5126
  911MPD2    N113348   3.127   0.971  16.296  0.5604  0.3925 -0.2341
  911MPD2    H713349   3.178   1.021  16.223  1.0975 -1.4337 -1.1118
  912MPD2     C13350   2.206   0.960  15.621 -0.3053  0.5632  0.1672
  912MPD2    C113351   2.290   0.981  15.728 -0.3819 -0.4607 -0.0669
  912MPD2    C213352   2.303   0.880  15.823 -0.0448  0.6966 -0.6318
  912MPD2    C313353   2.239   0.757  15.805  0.1543 -0.0313  0.5845
  912MPD2    C413354   2.171   0.732  15.688  0.2634 -0.6350  0.2317
  912MPD2    C513355   2.154   0.838  15.599  0.6429 -1.1566  0.1301
  912MPD2     H13356   2.372   0.879  15.907 -2.2436  1.2022  1.1914
  912MPD2    H113357   2.124   0.636  15.669 -0.7785 -0.5545  2.4340
  912MPD2    H213358   2.186   1.044  15.555 -2.8163 -0.0118  0.2154
  912MPD2    H313359   2.098   0.819  15.508 -2.8629 -0.8561  2.2593
  912MPD2     N13360   2.244   0.666  15.919 -0.5173  0.4451 -0.2775
  912MPD2    H513361   2.297   0.703  15.997 -0.4859 -1.1508  0.4591
  912MPD2    N113362   2.368   1.099  15.722  0.2839 -0.1196 -0.0859
  912MPD2    H713363   2.363   1.166  15.646 -0.2949  2.0001  1.8024
  913MPD2     C13364   3.246   2.319  10.725  0.1966  0.1030 -0.3245
  913MPD2    C113365   3.333   2.385  10.810  0.2238 -0.0826  0.1526
  913MPD2    C213366   3.367   2.512  10.783  0.1047 -0.6603 -0.5356
  913MPD2    C313367   3.307   2.575  10.674  0.2476 -0.1429 -0.5256
  913MPD2    C413368   3.228   2.510  10.580 -0.1215 -0.7412 -0.5216
  913MPD2    C513369   3.205   2.382  10.606 -0.6941 -0.5873  0.6467
  913MPD2     H13370   3.431   2.569  10.850 -0.1721 -1.1783  0.1645
  913MPD2    H113371   3.186   2.562  10.495  1.6373  0.8638 -0.4340
  913MPD2    H213372   3.205   2.221  10.747 -2.3111  0.3935 -3.6830
  913MPD2    H313373   3.171   2.319  10.524 -1.6367  1.1064 -0.2735
  913MPD2     N13374   3.322   2.716  10.651  0.5910 -0.2051  0.8795
  913MPD2    H513375   3.276   2.763  10.575 -1.3778 -3.1878  0.2103
  913MPD2    N113376   3.374   2.312  10.921 -0.2663 -0.0723  0.1890
  913MPD2    H713377   3.332   2.221  10.935 -2.2928  1.4673  4.0923
  914MPD2     C13378   0.997   2.203  12.337  1.1076  0.2348  0.1259
  914MPD2    C113379   1.054   2.304  12.397 -0.4566  0.0681  0.6656
  914MPD2    C213380   1.183   2.295  12.439 -1.0815  0.0616  0.0282
  914MPD2    C313381   1.249   2.175  12.447 -0.5605  0.0576  0.4781
  914MPD2    C413382   1.177   2.066  12.398  0.4071  0.6978  0.0044
  914MPD2    C513383   1.058   2.083  12.342 -0.4826  0.6363 -0.0660
  914MPD2     H13384   1.231   2.388  12.465 -1.3808 -0.0283  0.8843
  914MPD2    H113385   1.223   1.967  12.396 -0.0162  0.5075 -0.3120
  914MPD2    H213386   0.894   2.200  12.304  1.1013  0.0196  0.1594
  914MPD2    H313387   1.019   1.997  12.290 -1.1091  0.8995 -0.0258
  914MPD2     N13388   1.378   2.178  12.514 -0.3489 -0.1095  0.0392
  914MPD2    H513389   1.405   2.269  12.547 -0.3404 -1.1601  2.8906
  914MPD2    N113390   0.978   2.421  12.420 -0.8891  0.1888  0.9602
  914MPD2    H713391   0.880   2.418  12.394 -0.9358 -3.8177  1.6018
  915MPD2     C13392   4.263   2.263  15.957  0.4798 -0.0232  0.2787
  915MPD2    C113393   4.124   2.279  15.954 -0.7759  0.6616  0.5430
  915MPD2    C213394   4.067   2.376  16.035  0.2246  0.3921  0.5522
  915MPD2    C313395   4.140   2.451  16.126 -0.7986  0.7619 -0.2350
  915MPD2    C413396   4.276   2.415  16.150  0.0025  0.1174  0.3069
  915MPD2    C513397   4.334   2.328  16.058 -0.0743 -0.6489  0.0916
  915MPD2     H13398   3.960   2.392  16.037  0.1117 -0.4784  2.0149
  915MPD2    H113399   4.342   2.460  16.223 -0.5829  1.4498 -0.0018
  915MPD2    H213400   4.321   2.200  15.890  2.5671  1.4666  0.6862
  915MPD2    H313401   4.442   2.319  16.058 -0.1212 -1.2065  2.0034
  915MPD2     N13402   4.070   2.540  16.210 -0.3869 -0.4951 -0.0906
  915MPD2    H513403   3.970   2.555  16.201 -0.4845 -1.0534  0.0766
  915MPD2    N113404   4.053   2.184  15.879 -0.3331 -0.4210 -0.2541
  915MPD2    H713405   4.102   2.125  15.812 -2.2356 -0.2610 -1.7967
  916MPD2     C13406   1.839   0.649  15.535  0.5965  0.3925  0.1627
  916MPD2    C113407   1.852   0.568  15.649 -0.2195  0.1984  0.2941
  916MPD2    C213408   1.910   0.443  15.639  0.1365 -0.5895 -0.3424
  916MPD2    C313409   1.946   0.391  15.519  0.0741  0.3448 -0.4968
  916MPD2    C413410   1.921   0.466  15.405  0.5381 -0.0683 -0.0010
  916MPD2    C513411   1.870   0.592  15.413  0.4463 -0.4443  0.0420
  916MPD2     H13412   1.926   0.381  15.726  0.2458 -2.2257 -1.5389
  916MPD2    H113413   1.929   0.437  15.301  1.4812 -3.0764  0.9215
  916MPD2    H213414   1.813   0.754  15.541  2.0549  0.6287  2.2240
  916MPD2    H313415   1.861   0.656  15.326  0.6876 -1.2457 -0.5757
  916MPD2     N13416   1.999   0.254  15.515  0.1581  0.7324  0.1334
  916MPD2    H513417   1.995   0.202  15.602  1.8503 -0.7917 -0.6855
  916MPD2    N113418   1.834   0.617  15.779  0.1499 -0.1514  0.3121
  916MPD2    H713419   1.806   0.713  15.796  0.4028  0.0880 -0.6247
  917MPD2     C13420   2.527   2.631  11.169  0.9903 -0.2538  0.0039
  917MPD2    C113421   2.592   2.645  11.289  0.2864 -0.1833  0.9588
  917MPD2    C213422   2.719   2.708  11.283 -0.8713 -0.1308  0.1947
  917MPD2    C313423   2.772   2.749  11.161 -0.1526  0.2393  0.4879
  917MPD2    C413424   2.710   2.723  11.042 -0.1736 -0.3903  0.2949
  917MPD2    C513425   2.588   2.666  11.047  0.5166  0.3933 -0.7055
  917MPD2     H13426   2.782   2.726  11.370  0.9602 -1.0236 -0.9512
  917MPD2    H113427   2.753   2.753  10.947 -0.6186  0.9255  0.5007
  917MPD2    H213428   2.426   2.591  11.158  3.1056 -5.1878 -1.5406
  917MPD2    H313429   2.531   2.652  10.956 -0.8928 -0.0043  0.2382
  917MPD2     N13430   2.895   2.821  11.150  0.1286 -0.1696 -0.5665
  917MPD2    H513431   2.919   2.870  11.064 -0.8613  0.3336 -0.5590
  917MPD2    N113432   2.527   2.621  11.406  0.4324 -0.6707  0.0935
  917MPD2    H713433   2.430   2.594  11.394 -0.1053  0.1883  2.6674
  918MPD2     C13434   2.814   3.236  12.089  0.0213 -0.2406  0.0984
  918MPD2    C113435   2.851   3.107  12.118  0.3203  0.2114  0.0883
  918MPD2    C213436   2.768   3.010  12.066 -0.4629 -0.9252 -0.2095
  918MPD2    C313437   2.654   3.045  12.004  0.0250  0.6271 -0.0494
  918MPD2    C413438   2.620   3.173  11.983 -0.4377  0.1478 -0.1440
  918MPD2    C513439   2.690   3.273  12.043 -0.1353  0.4788 -0.4919
  918MPD2     H13440   2.802   2.908  12.080 -0.6016 -0.7330  1.6126
  918MPD2    H113441   2.537   3.200  11.919  0.9021  1.3384 -1.3888
  918MPD2    H213442   2.867   3.315  12.142  0.9872 -1.3567  0.7865
  918MPD2    H313443   2.647   3.372  12.042 -1.1791  0.0301  0.3728
  918MPD2     N13444   2.585   2.936  11.946 -0.2038 -0.4695  0.3907
  918MPD2    H513445   2.630   2.846  11.954 -0.9014 -0.7969  0.6085
  918MPD2    N113446   2.971   3.071  12.185  0.0783 -0.2342  0.3868
  918MPD2    H713447   2.982   2.975  12.215  0.3012 -0.1210  0.6622
  919MPD2     C13448   2.590   1.877  11.204  0.4545  0.2745 -0.4319
  919MPD2    C113449   2.715   1.819  11.186 -0.0719 -0.2419  0.0946
  919MPD2    C213450   2.791   1.875  11.079 -0.3568  0.4157  0.2194
  919MPD2    C313451   2.744   1.978  10.994 -0.1030 -0.0076 -0.4125
  919MPD2    C413452   2.616   2.020  11.016  0.3170 -0.2877  0.6177
  919MPD2    C513453   2.538   1.964  11.111 -0.0155  0.0778 -0.7912
  919MPD2     H13454   2.889   1.831  11.064 -1.0259 -1.0838  0.2559
  919MPD2    H113455   2.560   2.089  10.954  2.6602  0.9696 -0.0813
  919MPD2    H213456   2.519   1.843  11.279  0.5076 -1.1553 -1.0273
  919MPD2    H313457   2.443   2.007  11.140  0.1302  0.3829 -0.7551
  919MPD2     N13458   2.813   2.038  10.882 -0.6740  0.1652  0.2432
  919MPD2    H513459   2.775   2.122  10.840  2.1014  1.3896  0.1958
  919MPD2    N113460   2.771   1.737  11.278 -0.6924 -0.4088  0.1457
  919MPD2    H713461   2.850   1.676  11.258 -0.1913  0.3386 -0.1604
  920MPD2     C13462   2.615   2.494  10.048 -0.6663  0.2413  0.4600
  920MPD2    C113463   2.548   2.435  10.149  0.3168  0.2366  0.3214
  920MPD2    C213464   2.617   2.359  10.244 -0.2854 -0.1041  0.3388
  920MPD2    C313465   2.756   2.342  10.230  0.0906 -0.0429  0.1699
  920MPD2    C413466   2.828   2.406  10.130 -0.4887  0.7538 -0.3689
  920MPD2    C513467   2.756   2.473  10.036 -0.0374 -0.3483  0.1161
  920MPD2     H13468   2.562   2.302  10.318  0.9882 -1.4635  0.2345
  920MPD2    H113469   2.936   2.399  10.129 -0.6051 -1.2645  0.7472
  920MPD2    H213470   2.571   2.543   9.962  2.3748  1.6367 -0.3278
  920MPD2    H313471   2.808   2.538   9.967  1.8770 -0.5642  1.3479
  920MPD2     N13472   2.834   2.265  10.322 -0.1222  0.6684  0.0811
  920MPD2    H513473   2.929   2.244  10.293  0.7239  2.4775  1.5874
  920MPD2    N113474   2.404   2.438  10.151 -0.0086  0.5735 -0.1794
  920MPD2    H713475   2.361   2.384  10.225  2.6394  0.5774  1.3652
  921MPD2     C13476   3.802   1.109  17.033 -0.0342  0.2827 -0.7294
  921MPD2    C113477   3.858   1.126  16.905  0.0457  0.2167  0.0307
  921MPD2    C213478   3.785   1.095  16.790  0.7113 -0.2305  0.2852
  921MPD2    C313479   3.658   1.043  16.813 -0.6819  0.2573  0.3383
  921MPD2    C413480   3.604   1.027  16.942  0.6511 -0.2841  0.1610
  921MPD2    C513481   3.682   1.046  17.050  0.1278 -0.2422  0.1076
  921MPD2     H13482   3.817   1.132  16.693  1.3255 -1.3320  0.0619
  921MPD2    H113483   3.504   0.988  16.957  1.0229 -1.4764 -0.5325
  921MPD2    H213484   3.850   1.133  17.127 -0.0797 -0.1746 -0.5891
  921MPD2    H313485   3.641   1.032  17.149 -0.0293  0.1444  0.0980
  921MPD2     N13486   3.580   1.006  16.701  0.0996  0.1540 -0.6861
  921MPD2    H513487   3.481   0.989  16.719  0.1898  0.7421  0.3688
  921MPD2    N113488   3.988   1.178  16.880 -0.2690  0.0568  0.0185
  921MPD2    H713489   4.009   1.177  16.781  2.2681  0.9279  0.5583
  922MPD2     C13490   4.093   3.791   1.073  0.3719 -0.4083  0.7975
  922MPD2    C113491   4.163   3.699   0.999 -0.0707 -0.2072  0.7975
  922MPD2    C213492   4.129   3.674   0.863  0.3407 -0.2139 -0.3974
  922MPD2    C313493   4.027   3.737   0.798  0.4766  0.7789  0.2050
  922MPD2    C413494   3.956   3.828   0.882 -0.1852  0.3047 -0.8103
  922MPD2    C513495   3.991   3.855   1.008  0.3211  0.7160  0.7330
  922MPD2     H13496   4.191   3.602   0.811  0.5489 -0.2719 -0.0685
  922MPD2    H113497   3.874   3.886   0.841 -0.5300 -0.2376 -0.8954
  922MPD2    H213498   4.113   3.795   1.180  0.6687  1.7201  0.6668
  922MPD2    H313499   3.928   3.921   1.066  0.2743  1.8422 -0.5758
  922MPD2     N13500   4.000   3.723   0.658  0.5442 -0.4787  0.3926
  922MPD2    H513501   3.924   3.781   0.626 -0.0286 -0.5524  1.5953
  922MPD2    N113502   4.275   3.632   1.044  0.1355 -0.1893 -0.4581
  922MPD2    H713503   4.323   3.586   0.967  0.1771  1.0737 -1.1948
  923MPD2     C13504   2.118   1.310   8.904 -0.8933  0.0456  0.1487
  923MPD2    C113505   2.002   1.361   8.945 -0.2257 -0.4174 -0.4994
  923MPD2    C213506   1.937   1.315   9.059 -0.5522 -0.6937  0.3725
  923MPD2    C313507   1.993   1.197   9.118  0.2649  0.0048 -0.0559
  923MPD2    C413508   2.110   1.145   9.080 -0.1799  0.7364  0.0385
  923MPD2    C513509   2.173   1.194   8.965  0.7153  0.3193 -0.6959
  923MPD2     H13510   1.846   1.359   9.099  0.3260  0.0296  1.5441
  923MPD2    H113511   2.153   1.059   9.130 -1.3739 -0.7346 -1.4773
  923MPD2    H213512   2.176   1.352   8.823 -0.9866 -0.2127 -0.0526
  923MPD2    H313513   2.260   1.147   8.922 -1.9626 -3.6172 -1.7711
  923MPD2     N13514   1.932   1.129   9.225 -0.0004 -0.4744 -0.0429
  923MPD2    H513515   1.988   1.057   9.271  1.3120  0.2966 -0.4188
  923MPD2    N113516   1.951   1.462   8.860 -0.0090 -0.5831 -0.0680
  923MPD2    H713517   1.999   1.477   8.772 -0.2278 -1.5316 -0.3508
  924MPD2     C13518   1.077   3.617  16.304 -0.3412  0.2238 -0.1631
  924MPD2    C113519   1.045   3.662  16.428 -0.3601 -0.0469 -0.3404
  924MPD2    C213520   1.030   3.793  16.450  0.1887 -0.3551 -0.8360
  924MPD2    C313521   1.033   3.882  16.345  0.6704  0.5220 -0.2855
  924MPD2    C413522   1.050   3.838  16.213 -0.6448 -0.4368 -0.0601
  924MPD2    C513523   1.080   3.699  16.199 -0.3747 -0.4945  0.4317
  924MPD2     H13524   1.015   3.826  16.552  0.2055  1.7057 -1.5011
  924MPD2    H113525   1.050   3.907  16.130 -0.8242 -0.3343  0.0262
  924MPD2    H213526   1.092   3.515  16.271 -1.2917 -0.5125  1.6993
  924MPD2    H313527   1.088   3.666  16.096  1.4728  0.0088  0.4152
  924MPD2     N13528   1.020   4.025  16.362  0.0957 -0.7256  0.0450
  924MPD2    H513529   1.012   4.081  16.277  0.4436  0.5424  0.8411
  924MPD2    N113530   1.031   3.567  16.536 -0.3847  0.2717 -0.6364
  924MPD2    H713531   1.073   3.476  16.519 -1.1444 -0.4870  1.5192
  925MPD2     C13532   4.204   1.051  14.742  0.0655  0.7301 -0.0380
  925MPD2    C113533   4.198   1.177  14.792 -0.0943 -0.2535  0.4712
  925MPD2    C213534   4.250   1.199  14.924 -0.2750  0.1627  0.0242
  925MPD2    C313535   4.303   1.103  15.000 -0.0922  0.2539  0.1730
  925MPD2    C413536   4.299   0.975  14.956 -0.7286  0.3444  0.0344
  925MPD2    C513537   4.257   0.954  14.823  0.6774 -0.5542 -0.2592
  925MPD2     H13538   4.253   1.300  14.963  0.8923  0.3765 -0.5990
  925MPD2    H113539   4.334   0.890  15.013 -0.0266  0.8101  0.2982
  925MPD2    H213540   4.178   1.039  14.637  0.5113 -1.1212  0.0657
  925MPD2    H313541   4.271   0.853  14.789 -1.2464 -0.4206 -1.4307
  925MPD2     N13542   4.364   1.120  15.126  0.2800 -1.1705  0.4212
  925MPD2    H513543   4.415   1.044  15.170  2.3447 -0.1177 -0.1882
  925MPD2    N113544   4.171   1.287  14.709 -0.4358  0.1136 -0.4402
  925MPD2    H713545   4.183   1.378  14.752  1.0120 -0.3892  0.2159
  926MPD2     C13546   3.011   0.046  13.605 -0.4784 -0.1229 -0.4844
  926MPD2    C113547   2.989   0.179  13.593  0.1674  0.1260 -0.9157
  926MPD2    C213548   3.058   0.245  13.491 -0.2666  0.6344  0.1779
  926MPD2    C313549   3.154   0.189  13.408 -0.0885  0.5478 -0.3899
  926MPD2    C413550   3.168   0.056  13.423 -0.5130  0.8314 -0.1449
  926MPD2    C513551   3.108   4.707  13.524 -0.7119  0.1667  0.2965
  926MPD2     H13552   3.023   0.347  13.486 -0.9357  0.4083  0.2102
  926MPD2    H113553   3.228   4.721  13.353 -0.0613  1.3361 -0.1758
  926MPD2    H213554   2.948   4.711  13.671  0.9262  0.8007  1.6945
  926MPD2    H313555   3.114   4.599  13.525  0.1832  0.2296  1.5442
  926MPD2     N13556   3.219   0.255  13.304 -0.5906  0.5834  0.4540
  926MPD2    H513557   3.272   0.193  13.244 -0.9898  2.3751 -1.7280
  926MPD2    N113558   2.889   0.249  13.658  0.0860  0.0220  0.8210
  926MPD2    H713559   2.873   0.346  13.634 -0.7330 -0.3957 -0.2958
  927MPD2     C13560   3.078   2.347  17.374 -0.4351  1.1515  0.1945
  927MPD2    C113561   3.188   2.296  17.447  0.9076 -0.5244  0.2358
  927MPD2    C213562   3.293   2.240  17.370  0.3836 -0.7413  0.0162
  927MPD2    C313563   3.301   2.244  17.231  0.1659  0.0299  0.3718
  927MPD2    C413564   3.207   2.325  17.165  0.0856 -0.4819 -0.1317
  927MPD2    C513565   3.101   2.372  17.241  0.0372  0.2470 -0.2620
  927MPD2     H13566   3.378   2.188  17.411 -0.8972 -0.9254  2.4534
  927MPD2    H113567   3.204   2.352  17.060 -1.4208 -3.2970 -0.8001
  927MPD2    H213568   3.003   2.403  17.429 -0.1322  2.0724 -0.3333
  927MPD2    H313569   3.029   2.431  17.186 -1.2322 -0.8901  0.2083
  927MPD2     N13570   3.400   2.168  17.159 -1.0348  0.1071  0.2421
  927MPD2    H513571   3.456   2.101  17.212  0.5846  1.5006  0.2897
  927MPD2    N113572   3.183   2.297  17.594  0.5018 -0.2683 -0.3883
  927MPD2    H713573   3.098   2.333  17.636 -0.2277 -1.1459 -1.0983
  928MPD2     C13574   0.898   0.618   0.307 -0.4483  0.4785  0.1985
  928MPD2    C113575   0.967   0.634   0.433 -0.0563  0.1077  0.2136
  928MPD2    C213576   1.104   0.670   0.430 -0.0716  0.4327 -0.4315
  928MPD2    C313577   1.159   0.680   0.304 -0.7849 -0.3420 -0.1427
  928MPD2    C413578   1.089   0.666   0.183  0.7044 -0.2305 -0.1156
  928MPD2    C513579   0.963   0.617   0.187 -0.9039  0.5241 -0.6244
  928MPD2     H13580   1.164   0.673   0.521 -3.5070 -0.4384  1.8628
  928MPD2    H113581   1.135   0.679   0.086 -0.8864  2.2012 -0.5406
  928MPD2    H213582   0.794   0.591   0.293 -0.5900 -0.2473  2.4991
  928MPD2    H313583   0.912   0.596   0.093 -0.9019  2.2175 -0.9995
  928MPD2     N13584   1.298   0.700   0.291 -0.1621  0.0302 -0.0193
  928MPD2    H513585   1.331   0.710   0.196 -0.8077  2.0418 -0.0412
  928MPD2    N113586   0.892   0.605   0.549 -0.3113  0.3921  0.6621
  928MPD2    H713587   0.790   0.599   0.549 -0.2789 -0.0810 -1.5878
  929MPD2     C13588   0.652   1.082   9.954  0.1497  0.2843 -0.0238
  929MPD2    C113589   0.768   1.013   9.933 -0.5248  0.1577 -0.4256
  929MPD2    C213590   0.866   1.071   9.856 -0.0584  0.1140 -0.0156
  929MPD2    C313591   0.832   1.179   9.778  0.0996 -0.4739 -0.1444
  929MPD2    C413592   0.719   1.259   9.795 -0.3310 -0.2630 -0.0361
  929MPD2    C513593   0.628   1.203   9.887  0.0043  0.2623 -0.0062
  929MPD2     H13594   0.961   1.027   9.826  0.5418 -0.4429  2.7733
  929MPD2    H113595   0.690   1.341   9.730 -0.7772  1.4899  2.3986
  929MPD2    H213596   0.580   1.043  10.025  0.3738 -2.4924 -1.2883
  929MPD2    H313597   0.533   1.255   9.895 -1.2821 -2.2498  0.8445
  929MPD2     N13598   0.924   1.236   9.684 -0.1426 -0.0333 -0.0726
  929MPD2    H513599   0.899   1.327   9.647  1.6403 -0.2768 -1.9189
  929MPD2    N113600   0.792   0.899  10.008 -0.2624  0.1857  0.2051
  929MPD2    H713601   0.713   0.852  10.052  1.1550 -2.6036 -0.2481
  930MPD2     C13602   2.958   2.790  14.660 -0.2803 -0.3068 -0.1233
  930MPD2    C113603   2.874   2.851  14.566 -0.1702  0.1170 -1.1949
  930MPD2    C213604   2.742   2.865  14.601  0.4540 -0.4410  0.9628
  930MPD2    C313605   2.694   2.826  14.725  0.3334  0.6711 -0.3042
  930MPD2    C413606   2.775   2.768  14.813  0.2104 -0.6973 -0.4522
  930MPD2    C513607   2.906   2.752  14.785  0.2942 -0.0883  0.4153
  930MPD2     H13608   2.665   2.898  14.533 -0.7031  0.2347  2.5949
  930MPD2    H113609   2.739   2.713  14.898  0.2754  0.6400  0.4400
  930MPD2    H213610   3.062   2.772  14.635 -0.3965  0.7776 -1.4568
  930MPD2    H313611   2.965   2.697  14.858 -0.0831  0.2888  1.0007
  930MPD2     N13612   2.551   2.815  14.758 -0.2597  0.2083  0.3955
  930MPD2    H513613   2.521   2.750  14.829  2.5161 -0.4499  0.9375
  930MPD2    N113614   2.923   2.894  14.437  0.0672 -0.3565 -0.2767
  930MPD2    H713615   3.024   2.892  14.425  0.0051 -0.2360 -0.8148
  931MPD2     C13616   3.521   1.828   0.457 -0.1023 -1.2808 -0.2663
  931MPD2    C113617   3.422   1.912   0.493 -0.8667 -0.1399  0.9492
  931MPD2    C213618   3.369   1.892   0.617 -0.0800 -0.6764 -0.8813
  931MPD2    C313619   3.396   1.777   0.696 -0.0471 -0.4068  0.5026
  931MPD2    C413620   3.495   1.691   0.654 -0.2878  0.8142  0.1924
  931MPD2    C513621   3.564   1.734   0.539 -0.4507 -0.1423  0.9066
  931MPD2     H13622   3.305   1.967   0.663  0.6753  0.2721 -1.3640
  931MPD2    H113623   3.537   1.614   0.718 -1.6922 -0.4235 -0.3880
  931MPD2    H213624   3.586   1.849   0.373 -0.4232  2.5700  0.4364
  931MPD2    H313625   3.650   1.675   0.508  1.2341  3.7799 -1.8448
  931MPD2     N13626   3.346   1.754   0.823 -0.0058 -0.1849 -0.3740
  931MPD2    H513627   3.373   1.666   0.866 -0.8316  0.2834  1.0908
  931MPD2    N113628   3.386   2.026   0.418 -0.1890  0.6909  0.0994
  931MPD2    H713629   3.419   2.020   0.322 -0.0679  1.9590  0.0586
  932MPD2     C13630   0.361   1.241  11.035  0.6281  0.9654  1.2885
  932MPD2    C113631   0.437   1.312  11.125 -0.4026 -0.7425  0.0782
  932MPD2    C213632   0.478   1.255  11.247 -0.1223  0.3398  0.0304
  932MPD2    C313633   0.429   1.128  11.281  0.7014  0.4230 -0.0714
  932MPD2    C413634   0.365   1.053  11.186  0.0468 -0.1567 -0.2319
  932MPD2    C513635   0.323   1.110  11.066 -0.0545  0.6420  0.6941
  932MPD2     H13636   0.545   1.303  11.318 -0.9789  1.0425  0.3717
  932MPD2    H113637   0.331   0.952  11.206  0.2588 -0.9351 -3.8071
  932MPD2    H213638   0.323   1.289  10.946 -0.4243 -0.5991  0.9053
  932MPD2    H313639   0.264   1.044  11.004  2.0188 -1.7889  1.3559
  932MPD2     N13640   0.469   1.059  11.397 -0.0906 -0.0289 -0.1036
  932MPD2    H513641   0.447   0.960  11.400 -0.4477  0.0828  1.0635
  932MPD2    N113642   0.466   1.446  11.106  0.2976  0.5050  0.1082
  932MPD2    H713643   0.524   1.489  11.177  2.4449 -0.5671 -0.9745
  933MPD2     C13644   0.203   0.527   1.014  0.6348 -0.1650 -0.0945
  933MPD2    C113645   0.308   0.616   1.005  0.1797  0.1715  0.1914
  933MPD2    C213646   0.294   0.746   1.047  0.3995 -0.4287 -0.6785
  933MPD2    C313647   0.175   0.799   1.098  0.2633  0.3585  0.3511
  933MPD2    C413648   0.072   0.704   1.110  0.6072 -0.1817  0.4973
  933MPD2    C513649   0.089   0.579   1.065 -0.1338 -0.0331  0.2951
  933MPD2     H13650   0.367   0.824   1.030  0.7272 -0.6602 -0.3217
  933MPD2    H113651   4.701   0.728   1.157  0.6560 -0.2810  0.6432
  933MPD2    H213652   0.211   0.425   0.979 -0.4854 -0.4094  0.3547
  933MPD2    H313653   0.010   0.512   1.097  0.8529 -1.4025 -0.1864
  933MPD2     N13654   0.179   0.932   1.146 -0.6310 -0.7874 -0.5232
  933MPD2    H513655   0.271   0.971   1.163 -0.1473 -1.3997 -1.6955
  933MPD2    N113656   0.427   0.565   0.948  0.1243  1.1917  0.0362
  933MPD2    H713657   0.445   0.468   0.926 -1.1441  0.8922  0.3439
  934MPD2     C13658   1.654   2.710   2.063  0.2080 -0.3356  0.7326
  934MPD2    C113659   1.752   2.706   1.966  0.2713  0.1469 -0.9098
  934MPD2    C213660   1.727   2.645   1.844  0.2983  0.9470  0.1799
  934MPD2    C313661   1.605   2.600   1.806  0.6796 -0.6949  0.3083
  934MPD2    C413662   1.501   2.612   1.903  0.7894 -0.2389  0.3426
  934MPD2    C513663   1.528   2.666   2.028  0.1780  0.2042  0.3209
  934MPD2     H13664   1.810   2.657   1.775  0.3300 -1.0933 -0.1319
  934MPD2    H113665   1.403   2.577   1.871  1.7102 -1.0745 -1.5789
  934MPD2    H213666   1.670   2.755   2.160  1.7402 -0.7851  0.7007
  934MPD2    H313667   1.448   2.666   2.102 -2.5655  1.2276 -2.6205
  934MPD2     N13668   1.574   2.548   1.682 -0.6745  1.1032 -0.4499
  934MPD2    H513669   1.484   2.501   1.670  0.0775 -0.1650 -1.1490
  934MPD2    N113670   1.884   2.754   1.994  0.1914 -0.5026  0.1180
  934MPD2    H713671   1.945   2.761   1.913  1.5911  0.8987  1.2908
  935MPD2     C13672   2.205   2.193   1.012  0.7217  0.9658  0.6128
  935MPD2    C113673   2.093   2.173   0.938 -0.0980 -0.6017  0.4357
  935MPD2    C213674   1.974   2.229   0.984 -0.0566 -0.8219  0.0763
  935MPD2    C313675   1.976   2.304   1.103 -0.9558 -0.2290  0.0544
  935MPD2    C413676   2.092   2.328   1.166 -0.0036  0.0969 -0.2762
  935MPD2    C513677   2.209   2.277   1.117  0.7879 -0.1428 -0.1807
  935MPD2     H13678   1.878   2.212   0.936  0.6235  1.1687 -2.0347
  935MPD2    H113679   2.090   2.399   1.248  0.8019 -2.9839  2.4486
  935MPD2    H213680   2.303   2.160   0.981 -0.3450 -0.0270 -1.7151
  935MPD2    H313681   2.304   2.299   1.164  1.1888 -1.3953 -0.4145
  935MPD2     N13682   1.868   2.373   1.167  0.0586 -0.3941  0.1531
  935MPD2    H513683   1.887   2.421   1.254  1.7412 -2.9382  1.2008
  935MPD2    N113684   2.093   2.092   0.822  0.2269 -0.4299 -0.1954
  935MPD2    H713685   2.001   2.075   0.784  1.1863 -1.8387 -1.9068
  936MPD2     C13686   0.318   0.696  13.343 -0.1094 -0.7608  0.8806
  936MPD2    C113687   0.367   0.584  13.404 -0.6384  0.0164  0.4105
  936MPD2    C213688   0.479   0.521  13.353 -0.5317  0.2236  0.7142
  936MPD2    C313689   0.543   0.570  13.242  0.2404 -0.2729  0.4827
  936MPD2    C413690   0.492   0.684  13.184 -0.0551 -0.0774 -0.1091
  936MPD2    C513691   0.385   0.750  13.238  0.5664  0.1890  0.4316
  936MPD2     H13692   0.503   0.426  13.399  0.8100 -0.5613 -1.6064
  936MPD2    H113693   0.544   0.728  13.100 -0.1010  2.1021  1.0078
  936MPD2    H213694   0.230   0.751  13.377  0.0031  0.3087 -0.5760
  936MPD2    H313695   0.364   0.845  13.190 -1.9180  0.6599  2.4802
  936MPD2     N13696   0.657   0.512  13.183 -0.1399 -0.5084  0.3832
  936MPD2    H513697   0.703   0.564  13.110 -0.0805 -1.5956 -0.3677
  936MPD2    N113698   0.289   0.508  13.487  0.2499 -1.2627 -0.0221
  936MPD2    H713699   0.328   0.424  13.529  0.7532 -1.3895 -0.7461
  937MPD2     C13700   3.169   1.115  11.304  0.1013 -0.7115  0.3619
  937MPD2    C113701   3.154   1.250  11.279 -0.5836 -0.3730 -0.0500
  937MPD2    C213702   3.214   1.294  11.160  0.3643 -0.0754  0.4138
  937MPD2    C313703   3.311   1.219  11.087  0.1812 -0.7302 -1.3547
  937MPD2    C413704   3.336   1.091  11.141 -0.1702  1.0313 -0.7665
  937MPD2    C513705   3.273   1.044  11.250 -0.2729 -0.3942  0.2613
  937MPD2     H13706   3.202   1.396  11.125 -2.6490 -1.5932 -2.9760
  937MPD2    H113707   3.415   1.031  11.099  1.8096  2.0492  1.5593
  937MPD2    H213708   3.110   1.068  11.381  1.2551  1.5944  2.6608
  937MPD2    H313709   3.295   0.947  11.291 -0.4006 -0.2183  0.7407
  937MPD2     N13710   3.377   1.271  10.970 -0.7484  0.4329  0.7907
  937MPD2    H513711   3.357   1.368  10.951 -0.3355  0.8087  2.2596
  937MPD2    N113712   3.046   1.321  11.336  0.7714 -0.7541 -0.1470
  937MPD2    H713713   3.038   1.414  11.295 -0.1194 -1.9695 -2.7524
  938MPD2     C13714   0.691   2.686   0.578  0.2282  0.2103  0.0988
  938MPD2    C113715   0.801   2.674   0.666 -0.4114 -0.1175 -0.6780
  938MPD2    C213716   0.798   2.587   0.774 -0.6340  0.2505  0.2326
  938MPD2    C313717   0.681   2.516   0.791  0.3055 -1.1053  0.0484
  938MPD2    C413718   0.573   2.529   0.711  0.5340  1.3204 -0.0818
  938MPD2    C513719   0.573   2.615   0.603 -0.3435 -0.3267 -0.3309
  938MPD2     H13720   0.878   2.581   0.846 -2.2271  1.0233  2.0756
  938MPD2    H113721   0.476   2.485   0.728  0.3326  2.5232  1.9349
  938MPD2    H213722   0.697   2.754   0.495  1.8400  1.0416  0.9077
  938MPD2    H313723   0.489   2.627   0.536  0.2646  0.1242 -1.0085
  938MPD2     N13724   0.668   2.432   0.904  0.3397  0.5729  0.4052
  938MPD2    H513725   0.574   2.398   0.922  1.5311 -2.1349  1.5975
  938MPD2    N113726   0.924   2.745   0.642 -0.2910 -0.0059  0.0539
  938MPD2    H713727   1.004   2.729   0.702  1.4161 -0.2833 -2.2733
  939MPD2     C13728   2.066   3.651   1.543  0.1571  0.4889 -0.1828
  939MPD2    C113729   2.074   3.771   1.484 -0.2997 -0.2124 -1.0757
  939MPD2    C213730   2.149   3.789   1.373 -0.3362 -0.5814 -0.3770
  939MPD2    C313731   2.211   3.680   1.313  0.3166  0.4299 -0.6295
  939MPD2    C413732   2.201   3.554   1.377 -0.2063  0.2512 -0.6475
  939MPD2    C513733   2.131   3.540   1.497 -0.0862  0.2086 -0.2129
  939MPD2     H13734   2.165   3.890   1.336 -0.2347 -0.1768  0.7527
  939MPD2    H113735   2.245   3.466   1.332  1.1508  0.7041 -0.2146
  939MPD2    H213736   2.010   3.649   1.636 -0.7064 -0.9803 -0.7388
  939MPD2    H313737   2.121   3.450   1.556 -2.3657  0.3003 -0.4484
  939MPD2     N13738   2.279   3.701   1.193 -0.1349 -1.2346 -0.2384
  939MPD2    H513739   2.300   3.799   1.174  0.5237 -1.3622 -0.1726
  939MPD2    N113740   1.986   3.868   1.536 -0.1799  0.0216  0.2471
  939MPD2    H713741   1.927   3.841   1.614 -0.0479  2.2161  1.0863
  940MPD2     C13742   1.213   0.080  13.222  0.2235  0.5378  0.4486
  940MPD2    C113743   1.277   4.686  13.260 -0.6697 -0.0832 -0.4488
  940MPD2    C213744   1.294   4.591  13.159  0.3879  0.7709 -0.7104
  940MPD2    C313745   1.270   4.619  13.023  0.1398  0.4511 -0.5148
  940MPD2    C413746   1.202   0.017  12.993  0.8151  0.1009 -0.1680
  940MPD2    C513747   1.179   0.103  13.095 -0.6892 -0.1275  0.3615
  940MPD2     H13748   1.331   4.493  13.188 -1.2653  0.1675 -0.6580
  940MPD2    H113749   1.170   0.035  12.891  1.3362  0.1010 -0.3325
  940MPD2    H213750   1.192   0.158  13.295 -0.3794 -0.0674  0.9267
  940MPD2    H313751   1.129   0.197  13.070  2.7434  1.5507 -0.1667
  940MPD2     N13752   1.311   4.539  12.920 -0.3330  0.0167 -1.0215
  940MPD2    H513753   1.283   4.576  12.830 -0.8895  2.8178  0.2928
  940MPD2    N113754   1.329   4.658  13.389 -0.2760  0.6410 -0.8351
  940MPD2    H713755   1.377   4.568  13.396 -2.2741 -0.5267 -1.9341
  941MPD2     C13756   0.494   4.063  10.341 -0.1866 -0.2543 -0.2597
  941MPD2    C113757   0.579   3.953  10.327  0.1353 -0.3191 -0.3143
  941MPD2    C213758   0.537   3.824  10.356  0.2457  0.3198  0.1071
  941MPD2    C313759   0.403   3.804  10.395 -0.0825  1.5423  0.3890
  941MPD2    C413760   0.320   3.915  10.399 -0.1040  0.2877  0.9477
  941MPD2    C513761   0.368   4.044  10.376 -0.1069  0.2106 -0.0158
  941MPD2     H13762   0.603   3.740  10.372 -1.0930 -0.9283 -0.8775
  941MPD2    H113763   0.215   3.894  10.420  0.4171 -3.0904  0.2836
  941MPD2    H213764   0.520   4.168  10.329  0.1787 -0.3084  0.0488
  941MPD2    H313765   0.292   4.119  10.391 -1.1769 -0.8299 -0.2523
  941MPD2     N13766   0.342   3.674  10.405  0.9242  0.4286 -0.4785
  941MPD2    H513767   0.244   3.667  10.431  0.7256 -0.4732 -1.4892
  941MPD2    N113768   0.714   3.969  10.287 -0.5905  0.1886 -0.3625
  941MPD2    H713769   0.779   3.891  10.292 -0.9154  0.0153  1.3896
  942MPD2     C13770   1.453   1.604   8.587 -0.6058 -0.4181  0.2773
  942MPD2    C113771   1.546   1.521   8.527 -0.2752  0.1505  0.1314
  942MPD2    C213772   1.598   1.414   8.601  0.1862  0.1096 -0.1643
  942MPD2    C313773   1.556   1.396   8.731  0.5466 -0.6390 -0.0764
  942MPD2    C413774   1.465   1.486   8.792 -0.6890  0.3592 -0.2663
  942MPD2    C513775   1.408   1.586   8.712 -0.0191 -0.0723  0.5561
  942MPD2     H13776   1.684   1.357   8.568 -0.5543 -0.3593 -1.3119
  942MPD2    H113777   1.427   1.474   8.892  3.4391 -0.2894  1.2076
  942MPD2    H213778   1.406   1.688   8.537  2.4077  0.9946 -0.1587
  942MPD2    H313779   1.333   1.649   8.759  0.6822  1.5232 -0.4292
  942MPD2     N13780   1.601   1.279   8.802  0.2578 -0.0453 -0.0199
  942MPD2    H513781   1.546   1.269   8.886 -3.6800 -0.8744 -2.7180
  942MPD2    N113782   1.583   1.535   8.392  0.4152  0.1971  0.6685
  942MPD2    H713783   1.645   1.466   8.350  0.7467  1.0655 -0.2912
  943MPD2     C13784   0.013   3.966  10.712 -0.1886  0.3082  0.2023
  943MPD2    C113785   4.601   3.958  10.706  0.5157  0.3436 -0.0926
  943MPD2    C213786   4.523   4.050  10.634 -0.0574  0.6775  0.0825
  943MPD2    C313787   4.590   4.152  10.570 -0.5939  0.2299  0.4312
  943MPD2    C413788   0.003   4.165  10.579  0.0427 -0.3684  1.0550
  943MPD2    C513789   0.069   4.079  10.660 -0.6928 -0.9013  0.3509
  943MPD2     H13790   4.420   4.025  10.609  0.6108 -1.5788 -0.3362
  943MPD2    H113791   0.058   4.248  10.536 -0.5645 -1.9655 -2.8238
  943MPD2    H213792   0.070   3.884  10.754  1.2623  1.2060  0.0126
  943MPD2    H313793   0.176   4.097  10.665 -0.4874 -1.1171 -3.3975
  943MPD2     N13794   4.524   4.248  10.494 -0.1640  0.6430  0.0511
  943MPD2    H513795   4.590   4.317  10.459 -0.5238  0.0522 -1.8226
  943MPD2    N113796   4.552   3.829  10.767  0.1576 -0.9415  0.1319
  943MPD2    H713797   4.622   3.775  10.817  0.5996 -0.9781 -0.5199
  944MPD2     C13798   4.584   2.722  11.361  0.3517 -0.6290  0.6416
  944MPD2    C113799   4.453   2.766  11.367 -0.4367 -1.0161  0.5928
  944MPD2    C213800   4.377   2.723  11.471 -0.3715  0.4861  0.4191
  944MPD2    C313801   4.418   2.642  11.574  0.4040  0.2810 -0.3694
  944MPD2    C413802   4.544   2.591  11.569 -0.8477 -0.2045 -0.1282
  944MPD2    C513803   4.625   2.634  11.463 -0.5744  0.3374 -1.1995
  944MPD2     H13804   4.274   2.756  11.472 -0.5234 -0.0748  3.2021
  944MPD2    H113805   4.600   2.527  11.636  0.9080  1.8042  0.3630
  944MPD2    H213806   4.651   2.744  11.278 -2.3896  1.7328 -0.9166
  944MPD2    H313807   4.722   2.587  11.454 -0.6367 -0.0518  0.2772
  944MPD2     N13808   4.323   2.602  11.672 -0.9184 -0.3467 -0.8757
  944MPD2    H513809   4.228   2.635  11.666 -0.4051  1.6001  1.5607
  944MPD2    N113810   4.396   2.829  11.255  0.2490  0.5009 -0.6561
  944MPD2    H713811   4.460   2.866  11.185 -2.4251 -0.0448 -3.3776
    1TCq1    O113812   2.661   4.261  13.912 -0.5767  0.4311 -0.1664
    1TCq1    C113813   2.563   4.179  13.860  0.4914 -0.4058 -0.3456
    1TCq1    O213814   2.578   4.089  13.781 -0.0333  0.1830  0.6193
    1TCq1    C213815   2.436   4.245  13.885 -0.3091  0.3369  0.7897
    1TCq1    C313816   2.415   4.289  14.011 -0.0205  0.1324 -0.2116
    1TCq1    C413817   2.302   4.359  14.039  0.2130 -1.2245  0.3157
    1TCq1    C513818   2.201   4.369  13.947 -0.9040 -0.4105 -0.1677
    1TCq1    C613819   2.218   4.306  13.824 -0.1760 -0.3801  0.3210
    1TCq1    C713820   2.332   4.242  13.794 -0.4862  0.1583  0.6790
    1TCq1    C813821   2.114   4.313  13.727 -0.4097  0.7035 -0.5143
    1TCq1    O413822   2.107   4.216  13.646  0.0043  0.3055 -0.3780
    1TCq1    C913823   2.283   4.415  14.168 -0.1582 -0.3637  0.0244
    1TCq1    O513824   2.381   4.400  14.246  0.2550  0.3177 -0.0736
    1TCq1    O613825   2.176   4.482  14.183  0.0254  0.1791  0.0433
    1TCq1    H113826   2.618   4.319  13.978  0.0985  0.5808  0.1349
    1TCq1    H213827   2.494   4.279  14.084 -1.0790 -2.1103  0.6367
    1TCq1    H313828   2.109   4.418  13.973 -2.1828 -2.4195 -0.8957
    1TCq1    H413829   2.357   4.218  13.691 -2.9825 -0.3102  0.1910
    2MPD2     C13830   1.721   4.513  13.472 -0.5522 -0.4486 -0.7830
    2MPD2    C113831   1.785   4.620  13.531 -0.0587 -0.1090  0.0467
    2MPD2    C213832   1.882   4.589  13.628  0.3847 -0.0133 -0.6370
    2MPD2    C313833   1.926   4.456  13.649 -0.2204 -0.4473  0.2088
    2MPD2    C413834   1.861   4.351  13.588 -0.2365 -0.0871  0.1622
    2MPD2    C513835   1.763   4.388  13.497 -1.1114 -0.5727  0.0345
    2MPD2     H13836   1.926   4.667  13.689  1.9067 -0.9565 -0.5351
    2MPD2    H113837   1.882   4.247  13.609  2.7490  0.2281 -1.3248
    2MPD2    H213838   1.651   4.544  13.395  2.1842  0.3052 -2.9717
    2MPD2    H313839   1.706   4.311  13.447 -1.9460  0.1582 -0.1263
    2MPD2     N13840   2.036   4.433  13.740 -0.3733  0.4408  0.3897
    2MPD2    H513841   2.071   4.505  13.802  0.5412  1.9295 -1.8418
    2MPD2    N113842   1.740   0.032  13.499  0.0119 -0.0084  0.5674
    2MPD2    H713843   1.667   0.033  13.429  1.5675 -0.1440 -1.0689
    3TMC2    C113844   1.705   0.261  13.523  0.2794 -0.2844  1.4562
    3TMC2    C213845   1.690   0.344  13.632  0.1522 -0.6227 -0.2856
    3TMC2    C313846   1.576   0.420  13.644  0.1951  0.4154 -0.3446
    3TMC2    C413847   1.609   0.256  13.432  0.5172  0.5171  0.6072
    3TMC2    C513848   1.499   0.342  13.441  0.0864 -0.1452  0.5799
    3TMC2    C613849   1.477   0.421  13.551  0.5536 -0.9355  0.5814
    3TMC2     C13850   1.786   0.146  13.563  0.6424 -0.1168 -0.9003
    3TMC2     O13851   1.879   0.163  13.642 -0.4316 -0.0309 -0.5107
    3TMC2     H13852   1.763   0.354  13.711 -1.4934 -0.0624  1.1469
    3TMC2    H113853   1.640   0.199  13.345 -0.7489 -1.6720  1.6068
    3TMC2    H213854   1.388   0.483  13.551  1.0385 -0.2476  0.5253
    3TMC2    C713855   1.416   0.349  13.320 -0.8883 -0.5187  0.0013
    3TMC2    C813856   1.591   0.527  13.730 -0.4538 -0.0282  0.1231
    3TMC2    O113857   1.473   0.317  13.216  0.3918 -0.3929  0.0061
    3TMC2    O213858   1.664   0.528  13.830  0.1271  0.4531  0.2204
    3TMC2    O513859   1.601   0.640  13.654  0.1129  0.0364  0.0196
    3TMC2    H513860   1.537   0.639  13.580  0.5626 -0.4340 -0.3641
    4MPD2     C13861   0.243   1.464  13.621  0.6155 -0.6364 -0.9025
    4MPD2    C113862   0.299   1.485  13.501 -0.4563  0.3079  0.2792
    4MPD2    C213863   0.392   1.401  13.446 -1.1449 -0.7382 -0.1682
    4MPD2    C313864   0.438   1.291  13.513 -0.0191  0.4285 -0.0474
    4MPD2    C413865   0.389   1.272  13.642  0.3669  0.0579 -0.4430
    4MPD2    C513866   0.290   1.361  13.689  0.4609 -0.7191 -0.0583
    4MPD2     H13867   0.434   1.417  13.347 -1.3068  1.9385  0.1973
    4MPD2    H113868   0.431   1.198  13.710  1.1675  0.8757 -0.0475
    4MPD2    H213869   0.168   1.532  13.660  1.6492  0.6150 -1.1354
    4MPD2    H313870   0.249   1.348  13.789  1.0841  0.3655  0.3400
    4MPD2     N13871   0.526   1.208  13.444  0.0569  0.2322 -0.0141
    4MPD2    H513872   0.547   1.233  13.347 -0.5198  1.7695  0.2598
    4MPD2    N113873   0.257   1.605  13.445  0.0971 -0.3587  0.8326
    4MPD2    H713874   0.188   1.656  13.499  0.8497  0.3034  1.1685
    5TCq2    C113875   0.580   1.087  13.497  0.6344 -0.4189  0.7733
    5TCq2    O213876   0.556   1.033  13.602 -0.4750  0.9296  0.1892
    5TCq2    C213877   0.638   1.011  13.395 -0.5721 -0.1852  0.0077
    5TCq2    C313878   0.608   1.044  13.263 -0.5957 -0.6248 -0.3942
    5TCq2    C413879   0.688   1.009  13.159 -0.4114 -0.3790 -0.3144
    5TCq2    C513880   0.795   0.940  13.190 -0.6412 -0.1735 -0.0573
    5TCq2    C613881   0.841   0.914  13.321 -0.8658  0.3319 -0.1870
    5TCq2    C713882   0.755   0.945  13.423  0.1227 -0.0773  0.4733
    5TCq2    C813883   0.938   0.795  13.335 -0.1264  0.6562 -0.2196
    5TCq2    O413884   0.985   0.786  13.448 -0.0082  0.5637 -0.6080
    5TCq2    C913885   0.655   1.050  13.023  0.4723  0.5325  0.5237
    5TCq2    O513886   0.712   0.981  12.935  0.0848  0.2917  0.1331
    5TCq2    O613887   0.551   1.111  13.014 -0.1167  0.5169  0.5006
    5TCq2    H213888   0.512   1.082  13.229 -1.3606 -2.1846 -0.0079
    5TCq2    H313889   0.860   0.916  13.107  0.1544 -2.3392  1.1897
    5TCq2    H413890   0.794   0.951  13.524  0.0447  0.7536  0.4520
    6MPD1     C13891   0.203   3.292  14.118 -0.4229  0.4681 -0.1749
    6MPD1    C113892   0.113   3.193  14.147  0.0014  0.5466  0.0834
    6MPD1    C213893   0.077   3.108  14.047  0.4241 -0.1381 -0.6539
    6MPD1    C313894   0.114   3.125  13.915  0.5863 -0.5705 -0.9061
    6MPD1    C413895   0.201   3.227  13.889  1.2797 -0.3031 -0.6758
    6MPD1    C513896   0.237   3.305  13.992  0.1350 -0.0656 -0.3337
    6MPD1     H13897   0.020   3.020  14.073  0.7037  0.4788  2.1024
    6MPD1    H113898   0.228   3.245  13.786  1.4035 -2.8616 -1.0988
    6MPD1    H213899   0.247   3.357  14.192 -0.1288 -0.2597  0.2866
    6MPD1    H313900   0.309   3.385  13.976  0.0441 -0.0658 -0.7525
    6MPD1     N13901   0.088   3.033  13.817  0.9946 -0.3172 -0.1535
    6MPD1    H513902   0.121   3.059  13.724  3.2897 -0.2574  0.6899
    6MPD1    N113903   0.075   3.167  14.279  0.0699  0.0673  0.6534
    6MPD1    H613904   4.699   3.142  14.280 -0.4446  1.9212 -1.8141
    6MPD1    H713905   0.066   3.248  14.340  1.6062  0.1745  0.7213
    7MPD2     C13906   4.503   2.239  13.722 -0.2018  0.9147 -0.7173
    7MPD2    C113907   4.554   2.296  13.609 -0.1489 -0.0272 -0.2978
    7MPD2    C213908   4.602   2.224  13.505  0.7689  0.2615  0.8328
    7MPD2    C313909   4.620   2.084  13.528 -0.0036  0.0004 -0.2752
    7MPD2    C413910   4.582   2.032  13.644  0.3438 -0.0075  0.1401
    7MPD2    C513911   4.517   2.105  13.736  0.2842  0.5715 -0.2467
    7MPD2     H13912   4.632   2.273  13.413  0.2451 -0.0719  0.4829
    7MPD2    H113913   4.593   1.927  13.667  0.9625 -0.1978 -1.0281
    7MPD2    H213914   4.449   2.294  13.798 -1.1181 -0.8935 -0.0703
    7MPD2    H313915   4.488   2.069  13.834  1.6285  2.9027  1.0069
    7MPD2     N13916   4.688   1.992  13.439 -0.1782 -0.3845 -0.5648
    7MPD2    H513917   4.701   1.895  13.468  0.6404  0.0929  0.6747
    7MPD2    N113918   4.552   2.429  13.577 -0.0391  0.3657  0.8794
    7MPD2    H713919   4.585   2.450  13.484 -0.5276 -2.5765  0.0260
    8TMC3    C113920   0.098   1.930  13.249  0.5475 -0.5978  0.5935
    8TMC3    C213921   0.146   1.826  13.325  0.0386  1.0540  0.0520
    8TMC3    C313922   0.272   1.788  13.298  0.4566  0.3738 -0.2411
    8TMC3    C413923   0.169   1.990  13.150 -0.4061  0.8095  0.2872
    8TMC3    C513924   0.297   1.960  13.143 -0.8763  0.1344  0.7566
    8TMC3    C613925   0.351   1.862  13.217 -0.8421  0.1625 -0.3779
    8TMC3     C13926   0.014   2.034  13.320  0.1854  0.7332 -0.4893
    8TMC3     O13927   0.015   2.146  13.272  0.7988  0.3363  0.7187
    8TMC3     H13928   0.078   1.775  13.393  1.0390  0.0491  0.3079
    8TMC3    H113929   0.126   2.068  13.089 -0.0706  0.6118 -0.1937
    8TMC3    H213930   0.458   1.846  13.230 -0.6337  2.1774  0.2570
    8TMC3    C713931   0.383   2.077  13.158  0.7923  0.1963  0.5766
    8TMC3    C813932   0.327   1.665  13.338  0.5269  0.0849  0.2029
    8TMC3    O113933   0.502   2.061  13.151 -0.5192  0.2023 -0.1057
    8TMC3    O213934   0.413   1.615  13.267  0.2170 -0.3764 -0.5409
    9TMC3    C113935   4.699   2.853  13.708  0.0951 -0.3882 -0.8783
    9TMC3    C213936   0.082   2.840  13.624  0.6590 -0.5040 -0.6174
    9TMC3    C313937   0.087   2.732  13.542 -0.7726  0.4682 -0.2876
    9TMC3    C413938   4.601   2.766  13.699 -0.2223  0.4163  1.3157
    9TMC3    C513939   4.609   2.650  13.627 -0.3337 -0.1165  0.2725
    9TMC3    C613940   4.713   2.634  13.545  1.0278 -0.2630  0.0447
    9TMC3     C13941   4.707   2.948  13.817  0.0790  0.7425  0.0095
    9TMC3     O13942   4.612   2.948  13.894 -0.5325  0.1499 -0.0528
    9TMC3     H13943   0.171   2.900  13.634 -0.9686  1.6847  0.7880
    9TMC3    H113944   4.514   2.775  13.763  0.4173 -1.5498  2.4611
    9TMC3    H213945   0.022   2.531  13.529  0.5792 -0.5963  1.2653
    9TMC3    C713946   4.548   2.532  13.670 -0.5748  0.4204  0.2381
    9TMC3    C813947   0.213   2.699  13.475  0.1248  0.5464  0.3107
    9TMC3    O113948   4.512   2.529  13.787  0.0681 -0.4612  0.1719
    9TMC3    O213949   0.312   2.761  13.505 -0.3703  0.0095  0.7932
   10MPD2     C13950   0.478   2.346  13.241  0.1153 -0.2455  0.5414
   10MPD2    C113951   0.348   2.311  13.242  0.5480  0.1332 -0.0795
   10MPD2    C213952   0.254   2.405  13.279  0.3322 -0.5422 -0.2384
   10MPD2    C313953   0.299   2.520  13.342 -1.0341  0.4483  0.8440
   10MPD2    C413954   0.429   2.548  13.361  0.1726  0.3468 -0.1615
   10MPD2    C513955   0.519   2.457  13.310  0.0996  0.3526 -0.9169
   10MPD2     H13956   0.148   2.384  13.271  0.1540 -0.0391  0.8164
   10MPD2    H113957   0.466   2.640  13.404  0.7664  0.4485 -0.9102
   10MPD2    H213958   0.560   2.283  13.209  0.6081 -0.0615  1.4487
   10MPD2    H313959   0.626   2.475  13.317  0.1666 -1.3094  2.6677
   10MPD2     N13960   0.198   2.600  13.381  0.2045 -0.2479 -0.3794
   10MPD2    H513961   0.105   2.574  13.351  0.3219  1.2025 -1.9858
   10MPD2    N113962   0.309   2.182  13.205 -0.1240  0.1014  1.0227
   10MPD2    H713963   0.211   2.161  13.219 -0.2402 -0.9365 -1.4599
   11MPD2     C13964   1.232   0.444  13.106  0.1576  0.1145 -0.4872
   11MPD2    C113965   1.212   0.473  13.241  0.0923  0.3028 -0.3995
   11MPD2    C213966   1.122   0.570  13.277 -0.1687 -0.5030  0.5075
   11MPD2    C313967   1.054   0.630  13.175 -0.1759 -0.0135  0.6771
   11MPD2    C413968   1.060   0.596  13.043  0.3359 -0.1543  0.2055
   11MPD2    C513969   1.149   0.498  13.006  1.2229  0.3036 -0.4896
   11MPD2     H13970   1.112   0.603  13.379  2.2560 -0.7385  0.8224
   11MPD2    H113971   1.000   0.648  12.969 -0.6397  0.8022  1.6699
   11MPD2    H213972   1.304   0.373  13.066 -1.6794 -1.4468 -1.0474
   11MPD2    H313973   1.148   0.463  12.904  1.5582  1.4282 -0.8723
   11MPD2     N13974   0.967   0.731  13.214 -0.1330  0.4911  0.3060
   11MPD2    H513975   0.920   0.769  13.132 -0.8269 -0.8924  0.0592
   11MPD2    N113976   1.294   0.414  13.340  0.3270  0.0958 -0.2046
   11MPD2    H713977   1.264   0.426  13.436 -1.1530  0.3008 -0.6873
    1MPD1     C13978   4.199   1.653  16.857 -0.3437  0.7256  0.4317
    1MPD1    C113979   4.307   1.653  16.950  0.6197  0.2235  0.5961
    1MPD1    C213980   4.438   1.662  16.902 -0.1826  0.2652 -0.3977
    1MPD1    C313981   4.463   1.661  16.768 -0.1035 -0.2478  0.4665
    1MPD1    C413982   4.358   1.654  16.682  0.2761 -0.5245  0.0548
    1MPD1    C513983   4.227   1.649  16.722  0.3621 -0.3637  0.1424
    1MPD1     H13984   4.522   1.667  16.970  0.4763  1.1724 -1.2745
    1MPD1    H113985   4.378   1.658  16.576  0.7430 -1.0936  0.1212
    1MPD1    H213986   4.103   1.670  16.905 -1.9602 -1.0474 -2.2122
    1MPD1    H313987   4.145   1.663  16.653  0.0104  1.3026  0.8923
    1MPD1     N13988   4.593   1.671  16.719 -0.5817  0.1972  0.0154
    1MPD1    H513989   4.608   1.640  16.623  1.1271  1.8200 -0.2340
    1MPD1    N113990   4.279   1.675  17.085 -0.2900  0.2975  0.2145
    1MPD1    H613991   4.191   1.641  17.122 -1.8006  0.3031 -3.3863
    1MPD1    H713992   4.342   1.625  17.147 -0.1430 -3.1642 -2.7162
    2MPD1     C13993   0.928   1.893  16.981  0.3997  0.0784 -0.4170
    2MPD1    C113994   0.916   1.769  16.923  0.0584 -0.3562  0.6812
    2MPD1    C213995   0.800   1.735  16.862  0.0419 -0.2514 -0.1505
    2MPD1    C313996   0.697   1.823  16.849  0.1797  0.0362 -0.0615
    2MPD1    C413997   0.712   1.953  16.891 -0.0518  0.0283  0.8142
    2MPD1    C513998   0.827   1.985  16.962  0.2848 -0.1288  0.4327
    2MPD1     H13999   0.780   1.633  16.829 -0.3416  0.0378 -0.8230
    2MPD1    H114000   0.632   2.022  16.868 -1.2977 -1.1959  1.4561
    2MPD1    H214001   1.018   1.924  17.034 -0.4275  1.1710  0.3263
    2MPD1    H314002   0.828   2.081  17.012  2.0208  0.1851 -0.2181
    2MPD1     N14003   0.575   1.766  16.803 -0.7312  0.3077 -0.2337
    2MPD1    H514004   0.586   1.680  16.749 -0.2209  0.9201 -1.1085
    2MPD1    N114005   1.011   1.674  16.949  0.1967  0.3699 -1.1534
    2MPD1    H614006   1.106   1.713  16.952  0.8727 -1.3862  0.3153
    2MPD1    H714007   1.008   1.594  16.887  2.4621 -0.8148  0.2846
    3TMC3    C114008   0.351   1.756  16.741  0.4736 -0.0571  0.1993
    3TMC3    C214009   0.373   1.691  16.623 -0.3317 -0.7890 -0.8264
    3TMC3    C314010   0.264   1.640  16.556 -0.5491  0.3380  0.3039
    3TMC3    C414011   0.220   1.774  16.781  0.1849 -0.4503  0.6356
    3TMC3    C514012   0.114   1.712  16.714  0.7442 -0.2896  0.2314
    3TMC3    C614013   0.137   1.646  16.602  0.4290 -0.0539 -0.7964
    3TMC3     C14014   0.454   1.824  16.820  0.0854  0.1168  0.2893
    3TMC3     O14015   0.427   1.933  16.868  0.0564  0.1605  0.9833
    3TMC3     H14016   0.475   1.676  16.590  0.4274 -0.0557  1.2043
    3TMC3    H114017   0.206   1.823  16.877  1.2511 -1.3633  1.2511
    3TMC3    H214018   0.057   1.595  16.552 -0.6585  0.3379  0.5330
    3TMC3    C714019   4.708   1.724  16.785 -0.6542 -0.0013 -0.4111
    3TMC3    C814020   0.287   1.545  16.453 -0.2598  0.1859  0.3708
    3TMC3    O114021   4.708   1.789  16.885 -0.3908 -0.3822  0.3961
    3TMC3    O214022   0.201   1.459  16.428 -0.0087  0.0752  0.3602
    4MPD1     C14023   0.548   1.318  16.070 -0.4008 -0.7852  0.5074
    4MPD1    C114024   0.588   1.450  16.080  0.0743  0.0879 -0.1347
    4MPD1    C214025   0.541   1.528  16.183 -0.2153 -0.2768  0.0660
    4MPD1    C314026   0.447   1.483  16.275  0.5614 -0.3140  0.1889
    4MPD1    C414027   0.415   1.347  16.272 -0.5585  0.6055 -0.3180
    4MPD1    C514028   0.466   1.267  16.171 -0.6580 -0.2734  0.1214
    4MPD1     H14029   0.582   1.628  16.190  2.3335 -1.2594 -0.6034
    4MPD1    H114030   0.355   1.300  16.349  2.3193 -0.1315  1.4785
    4MPD1    H214031   0.587   1.242  16.003 -0.0516 -1.1348  1.1083
    4MPD1    H314032   0.421   1.170  16.153  0.0375 -0.2245 -1.7887
    4MPD1     N14033   0.401   1.566  16.381 -0.0957  0.1279  0.5570
    4MPD1    H514034   0.450   1.655  16.388 -1.2053  0.8176 -0.3756
    4MPD1    N114035   0.691   1.494  15.997 -0.0806  0.5482  0.1748
    4MPD1    H614036   0.682   1.461  15.901 -2.7495 -0.0020  0.6036
    4MPD1    H714037   0.710   1.594  15.996  0.1428  0.5399  2.9457
    1TCq1    O114038   1.028   0.794   9.660  0.4356 -0.6406  0.2136
    1TCq1    C114039   0.916   0.725   9.634 -0.1441 -0.1197 -0.3916
    1TCq1    O214040   0.901   0.604   9.634  0.2715  0.0841 -0.1837
    1TCq1    C214041   0.796   0.806   9.645  0.4248 -0.6780  0.1927
    1TCq1    C314042   0.688   0.746   9.708  0.0425  0.0327  0.4577
    1TCq1    C414043   0.568   0.809   9.708  0.5294 -0.0570 -0.1421
    1TCq1    C514044   0.556   0.925   9.635  0.3527  0.3655 -0.1051
    1TCq1    C614045   0.659   0.981   9.571  0.3770  0.2721 -0.5056
    1TCq1    C714046   0.780   0.923   9.576 -0.1682 -0.5639 -0.7760
    1TCq1    C814047   0.643   1.089   9.481 -0.0504  0.3457  0.4608
    1TCq1    O414048   0.744   1.157   9.463  0.1666  0.0576 -0.0967
    1TCq1    C914049   0.447   0.732   9.738 -0.5293 -0.2548  0.2503
    1TCq1    O514050   0.345   0.776   9.681 -0.0771 -0.1976 -0.2999
    1TCq1    O614051   0.447   0.639   9.823 -0.1499  0.3519  0.0001
    1TCq1    H114052   1.014   0.890   9.646  0.5188 -0.7691 -0.7538
    1TCq1    H214053   0.697   0.640   9.729  1.9265  0.0354 -0.3886
    1TCq1    H314054   0.454   0.959   9.618 -0.2785 -1.8067 -0.7124
    1TCq1    H414055   0.862   0.965   9.520 -1.2025  1.6609 -0.5994
    2MPD1     C14056   0.404   1.369   9.116 -0.1169 -0.3036  0.0793
    2MPD1    C114057   0.325   1.259   9.138 -0.7448  0.0175  0.0011
    2MPD1    C214058   0.366   1.175   9.247  0.0605  0.1173  1.1458
    2MPD1    C314059   0.486   1.197   9.321  0.5549 -0.7633 -0.5876
    2MPD1    C414060   0.558   1.309   9.291 -0.1947 -0.4810 -0.5257
    2MPD1    C514061   0.522   1.386   9.192  0.2734  0.1117 -0.3417
    2MPD1     H14062   0.315   1.080   9.263 -1.5954  0.6434 -1.0196
    2MPD1    H114063   0.645   1.337   9.349  0.2262  0.6913 -1.7331
    2MPD1    H214064   0.378   1.425   9.027 -2.4187 -1.0201  0.2867
    2MPD1    H314065   0.596   1.462   9.167 -0.2317  0.9620  0.7798
    2MPD1     N14066   0.521   1.103   9.421 -0.5935 -0.0939 -0.2555
    2MPD1    H514067   0.448   1.036   9.446  0.4306 -1.6968 -1.5815
    2MPD1    N114068   0.198   1.242   9.078  0.3109  0.0273 -0.5210
    2MPD1    H614069   0.206   1.263   8.979 -0.2262 -1.9854 -0.9900
    2MPD1    H714070   0.162   1.147   9.086  1.8682 -0.7303 -2.4867
    1TCq1    O114071   1.363   1.196   8.036 -0.2834 -0.2656  0.6071
    1TCq1    C114072   1.270   1.107   8.067 -0.0878 -0.1751 -0.5323
    1TCq1    O214073   1.284   0.997   8.121  0.3319 -0.3634 -0.4067
    1TCq1    C214074   1.137   1.164   8.052  0.0322  0.4229  0.3640
    1TCq1    C314075   1.116   1.295   8.058  0.4874  0.2165  0.0494
    1TCq1    C414076   0.986   1.342   8.024  0.7934 -0.3926 -0.2073
    1TCq1    C514077   0.883   1.251   8.028  0.4849 -0.3301 -0.2582
    1TCq1    C614078   0.910   1.118   8.036 -0.1173 -0.7305 -0.0584
    1TCq1    C714079   1.038   1.077   8.050 -0.2722  0.2663 -0.1766
    1TCq1    C814080   0.797   1.037   8.025 -0.2867 -0.1716  0.2841
    1TCq1    O414081   0.683   1.080   8.006  0.3125  0.0989  0.3895
    1TCq1    C914082   0.951   1.479   8.051 -0.9164  0.1375  0.5060
    1TCq1    O514083   1.054   1.555   8.060  0.6496  0.6788 -0.4935
    1TCq1    O614084   0.836   1.521   8.023 -0.1795  0.3328  0.3465
    1TCq1    H114085   1.331   1.249   7.960  0.4176  0.9848  1.1958
    1TCq1    H214086   1.194   1.370   8.054  0.9846 -0.3585 -0.9969
    1TCq1    H314087   0.786   1.298   8.040  0.3019 -1.4828  2.8727
    1TCq1    H414088   1.066   0.972   8.061 -1.3156 -0.0745 -0.8253
    2MPD1     C14089   0.582   0.571   7.986 -0.7279  0.7390 -0.1036
    2MPD1    C114090   0.716   0.556   8.019 -0.4899  0.1852  0.0223
    2MPD1    C214091   0.801   0.669   8.018  0.2315 -0.1539  0.1448
    2MPD1    C314092   0.750   0.798   8.016  0.8225  0.4112  0.8139
    2MPD1    C414093   0.616   0.812   7.983 -0.0637 -0.1706  0.3941
    2MPD1    C514094   0.534   0.694   7.964  0.2786 -0.1115  1.0544
    2MPD1     H14095   0.907   0.651   8.035  0.0927 -1.1445 -0.0189
    2MPD1    H114096   0.560   0.904   7.978  0.6593  0.2803  0.5657
    2MPD1    H214097   0.508   0.496   7.963  0.8122 -0.8065  0.0205
    2MPD1    H314098   0.430   0.698   7.935  0.7050  2.7726 -0.0762
    2MPD1     N14099   0.839   0.908   8.029  0.1749  0.0726 -0.1155
    2MPD1    H514100   0.937   0.882   8.025 -0.4161 -2.3654  1.7145
    2MPD1    N114101   0.777   0.429   8.011 -0.0390 -0.2641  0.4967
    2MPD1    H614102   0.709   0.355   8.025  1.1202 -1.5097 -0.5481
    2MPD1    H714103   0.851   0.427   8.080 -3.1106 -2.1729  3.7217
    1MPD1     C14104   1.787   0.920  11.526 -0.4510 -0.2138  0.4284
    1MPD1    C114105   1.767   1.054  11.528 -0.2687 -0.3231 -0.5937
    1MPD1    C214106   1.872   1.130  11.483  0.3242 -0.1470 -0.3036
    1MPD1    C314107   1.992   1.078  11.434 -0.5243 -0.1072 -0.4230
    1MPD1    C414108   2.002   0.941  11.420 -0.4393  0.5305  0.0600
    1MPD1    C514109   1.900   0.865  11.475 -0.0391 -0.1163  0.2841
    1MPD1     H14110   1.868   1.238  11.492  0.4828 -0.0612 -1.2784
    1MPD1    H114111   2.092   0.888  11.391 -0.0738  0.7703  0.7499
    1MPD1    H214112   1.706   0.859  11.564  0.2129 -0.1521  1.9281
    1MPD1    H314113   1.904   0.757  11.479 -0.6495 -0.2538 -2.6119
    1MPD1     N14114   2.088   1.171  11.395 -0.2251 -0.1244 -0.2135
    1MPD1    H514115   2.069   1.269  11.411 -2.4782 -0.3796 -1.3232
    1MPD1    N114116   1.663   1.118  11.602 -0.2851 -0.1476  0.1274
    1MPD1    H614117   1.648   1.211  11.564  0.9012 -0.1716 -0.3835
    1MPD1    H714118   1.575   1.073  11.576 -0.7599  1.4934 -1.1538
    2MPD1     C14119   1.868   1.354  10.478  0.3376 -0.8508  0.7840
    2MPD1    C114120   1.842   1.361  10.339 -0.1567  0.4025  0.1712
    2MPD1    C214121   1.936   1.309  10.246 -0.3985  0.0404  0.4428
    2MPD1    C314122   2.049   1.245  10.301  0.2948  0.4818 -0.0509
    2MPD1    C414123   2.069   1.236  10.438 -1.0919  0.2825 -0.2216
    2MPD1    C514124   1.980   1.288  10.527 -0.2157  0.1885  1.0899
    2MPD1     H14125   1.933   1.310  10.137 -3.0817  3.5427  0.5688
    2MPD1    H114126   2.154   1.185  10.483 -0.0809  1.4085 -0.8440
    2MPD1    H214127   1.793   1.392  10.545 -0.0143 -0.4325  0.1520
    2MPD1    H314128   1.996   1.270  10.632 -0.4695 -0.6723  0.9771
    2MPD1     N14129   2.140   1.175  10.215 -0.0898 -0.0576 -0.4353
    2MPD1    H514130   2.209   1.116  10.261 -1.1251 -0.6618  0.3366
    2MPD1    N114131   1.729   1.437  10.295  0.1684  0.8810  0.2782
    2MPD1    H614132   1.700   1.420  10.199 -3.1931 -0.1640  1.4687
    2MPD1    H714133   1.653   1.409  10.357 -0.0442  2.5580  0.7851
    3MPD1     C14134   2.545   0.436  10.443 -0.3724 -0.5898  0.0622
    3MPD1    C114135   2.457   0.534  10.499 -0.3959 -0.2827  0.0091
    3MPD1    C214136   2.433   0.646  10.421 -0.1991 -1.2193  0.4855
    3MPD1    C314137   2.467   0.651  10.292  0.1413 -0.2319 -0.4763
    3MPD1    C414138   2.543   0.549  10.237 -0.2775 -0.2576 -0.5523
    3MPD1    C514139   2.575   0.437  10.310 -0.6872 -0.1469  0.0139
    3MPD1     H14140   2.380   0.729  10.466 -1.5443 -0.6908 -2.0701
    3MPD1    H114141   2.564   0.552  10.130  0.1774  1.0481 -0.4318
    3MPD1    H214142   2.581   0.348  10.496  0.5060 -0.8839 -1.0291
    3MPD1    H314143   2.650   0.370  10.271 -0.8946  0.9428 -2.2764
    3MPD1     N14144   2.433   0.769  10.216  0.2512  0.5098 -0.5759
    3MPD1    H514145   2.376   0.840  10.261  0.1323 -0.7652  1.2723
    3MPD1    N114146   2.446   0.549  10.636  0.3282  0.2748 -0.0176
    3MPD1    H614147   2.436   0.466  10.694 -0.2562  1.5885  1.7792
    3MPD1    H714148   2.374   0.618  10.658 -0.3446 -0.1751 -0.8028
    4MPD2     C14149   2.254   1.743  10.970  0.4006 -0.1729  0.1222
    4MPD2    C114150   2.361   1.673  11.013 -0.1134 -0.0192  0.1721
    4MPD2    C214151   2.473   1.680  10.933  0.1369  0.2706  0.4465
    4MPD2    C314152   2.476   1.745  10.815  0.7579 -0.2171  0.3520
    4MPD2    C414153   2.365   1.822  10.780 -0.9658 -0.4671  0.3602
    4MPD2    C514154   2.254   1.815  10.859  0.6652 -0.4924  0.6545
    4MPD2     H14155   2.568   1.637  10.963 -0.6460 -1.5103  0.3739
    4MPD2    H114156   2.360   1.871  10.683 -1.0145 -2.6985 -0.7658
    4MPD2    H214157   2.163   1.746  11.029  2.3528 -0.2749  3.1179
    4MPD2    H314158   2.159   1.858  10.831  1.2361 -0.5678 -1.3780
    4MPD2     N14159   2.600   1.735  10.750  0.4272  0.2532 -0.2734
    4MPD2    H514160   2.660   1.678  10.808  1.1597 -0.4342 -1.7150
    4MPD2    N114161   2.369   1.608  11.133  0.1245  0.3546 -0.0679
    4MPD2    H714162   2.457   1.561  11.154 -0.0127 -0.2306 -0.8020
    5TMC3    C114163   2.302   1.495  11.320  0.3648  0.1917  0.0000
    5TMC3    C214164   2.225   1.377  11.313  0.4214 -0.0573 -0.5933
    5TMC3    C314165   2.290   1.254  11.331  0.0774  0.3688 -0.5117
    5TMC3    C414166   2.440   1.484  11.327  0.4994 -0.1674 -0.0708
    5TMC3    C514167   2.506   1.362  11.323 -0.2516 -0.5788 -0.4526
    5TMC3    C614168   2.428   1.243  11.330 -0.3412 -0.3173  0.2766
    5TMC3     C14169   2.266   1.588  11.218  0.6191 -0.2916 -0.4605
    5TMC3     O14170   2.145   1.616  11.206 -0.2323  0.0136 -0.3603
    5TMC3     H14171   2.118   1.391  11.301  0.4246 -0.3407 -0.9804
    5TMC3    H114172   2.496   1.576  11.337  1.1763 -0.5179 -0.6547
    5TMC3    H214173   2.473   1.147  11.307  3.2690  0.7504  2.9243
    5TMC3    C714174   2.617   1.375  11.224 -0.1088 -0.2718  0.0646
    5TMC3    C814175   2.208   1.137  11.350  0.0575  0.3119 -0.1748
    5TMC3    O114176   2.619   1.475  11.157 -0.0245  0.7041 -0.2721
    5TMC3    O214177   2.265   1.033  11.324 -0.3260 -0.2203  0.6451
    6TMC3    C114178   2.239   1.082  10.028 -0.7691 -0.0522 -0.1400
    6TMC3    C214179   2.284   0.967  10.082  0.0662 -0.1584  0.5303
    6TMC3    C314180   2.402   0.921  10.040 -0.4635  0.1179  0.2653
    6TMC3    C414181   2.299   1.137   9.919  0.4987  0.2356 -0.4926
    6TMC3    C514182   2.421   1.090   9.877  0.3512  0.9230 -0.3871
    6TMC3    C614183   2.472   0.988   9.945  0.0350  1.0525 -0.8078
    6TMC3     C14184   2.141   1.174  10.078  0.3309  0.7665  0.1266
    6TMC3     O14185   2.084   1.243   9.995  0.3505  0.5567 -0.0411
    6TMC3     H14186   2.224   0.918  10.158  0.6511  0.2983  1.2903
    6TMC3    H114187   2.265   1.230   9.874 -1.4392 -0.0930  0.2698
    6TMC3    H214188   2.574   0.961   9.921 -0.8937 -2.3186 -0.9506
    6TMC3    C714189   2.510   1.191   9.835  0.1598  0.0929 -0.3439
    6TMC3    C814190   2.479   0.805  10.088  0.0586  0.9530  0.5890
    6TMC3    O114191   2.488   1.231   9.724 -0.4035  0.5347 -0.9042
    6TMC3    O214192   2.564   0.755  10.012 -0.0043 -0.1006  0.5257
    7MPD2     C14193   2.986   1.167  10.925  0.0608  0.4604  0.0442
    7MPD2    C114194   2.915   1.284  10.919 -0.1127 -0.4025 -0.3040
    7MPD2    C214195   2.813   1.318  11.015  0.0742  0.3956 -0.7686
    7MPD2    C314196   2.796   1.233  11.126 -0.7265 -0.3628  0.3456
    7MPD2    C414197   2.878   1.122  11.138 -0.2285  0.3639  0.5137
    7MPD2    C514198   2.967   1.086  11.036 -0.2493 -0.5102  0.0472
    7MPD2     H14199   2.739   1.395  10.999 -3.0321 -2.5171 -0.3122
    7MPD2    H114200   2.863   1.047  11.215  2.3728 -1.3353 -0.6156
    7MPD2    H214201   3.066   1.137  10.857  1.6176 -0.6734  2.3912
    7MPD2    H314202   3.023   0.995  11.053  1.2531  0.5269  0.6937
    7MPD2     N14203   2.682   1.247  11.209 -0.0225 -0.0619 -0.1416
    7MPD2    H514204   2.661   1.177  11.280 -2.4302 -1.3470 -2.1260
    7MPD2    N114205   2.933   1.374  10.807  0.4405  0.8353 -0.4562
    7MPD2    H714206   3.005   1.354  10.739  1.8960 -1.1901  1.6921
    8TMC3    C114207   2.884   1.576  10.680  0.5688  0.4708 -0.4741
    8TMC3    C214208   2.871   1.516  10.557 -0.8693  0.4009  0.2010
    8TMC3    C314209   2.821   1.589  10.451  0.1773  0.0396 -0.4381
    8TMC3    C414210   2.831   1.700  10.695  0.5531  0.1648  0.4399
    8TMC3    C514211   2.763   1.770  10.602 -0.1083 -0.7276  0.2013
    8TMC3    C614212   2.753   1.712  10.476  0.5175 -0.3773  0.3051
    8TMC3     C14213   2.866   1.497  10.798 -0.1168 -0.1763  0.7529
    8TMC3     O14214   2.821   1.561  10.893 -0.4096 -0.5010  0.0283
    8TMC3     H14215   2.898   1.412  10.540 -0.9750  0.4468 -0.2502
    8TMC3    H114216   2.836   1.756  10.787 -1.5699  1.8245 -0.4406
    8TMC3    H214217   2.691   1.753  10.397  1.1136 -0.2039 -0.0732
    8TMC3    C714218   2.638   1.813  10.641 -0.0746 -1.1860 -0.1147
    8TMC3    C814219   2.787   1.513  10.335 -0.1122  0.4788  0.0012
    8TMC3    O114220   2.579   1.902  10.579 -0.2504  0.7375  0.1478
    8TMC3    O214221   2.799   1.393  10.341  0.0825  0.3625 -0.0351
    9MPD2     C14222   2.757   1.607   9.976 -0.2144 -0.2802 -0.3139
    9MPD2    C114223   2.754   1.524  10.088  0.5748  0.2288  0.3321
    9MPD2    C214224   2.705   1.396  10.067 -0.6044  0.0351 -0.1716
    9MPD2    C314225   2.660   1.360   9.947  0.2624  0.5323 -0.0496
    9MPD2    C414226   2.689   1.431   9.834  1.2630  0.2651  0.2377
    9MPD2    C514227   2.743   1.558   9.850 -0.3076  0.1257  0.1314
    9MPD2     H14228   2.682   1.339  10.156  0.8964 -1.1751 -0.5596
    9MPD2    H114229   2.650   1.401   9.738 -0.6096  1.4010  0.6423
    9MPD2    H214230   2.789   1.710   9.985 -0.3107 -0.2318 -0.5227
    9MPD2    H314231   2.746   1.637   9.775 -1.3998  1.0349  1.0361
    9MPD2     N14232   2.583   1.242   9.945  0.2368  0.4795  0.1521
    9MPD2    H514233   2.578   1.186  10.030  0.1847  0.2008 -0.0330
    9MPD2    N114234   2.774   1.583  10.214  0.6698  0.3695  0.2975
    9MPD2    H714235   2.782   1.684  10.220  1.5918  0.3561 -0.7172
    1MPD1     C14236   2.396   0.275  16.924 -0.6118 -0.2249  0.2533
    1MPD1    C114237   2.380   0.290  16.790  0.3890 -0.0477  0.0111
    1MPD1    C214238   2.258   0.256  16.726 -0.5888  0.3406 -0.1376
    1MPD1    C314239   2.152   0.203  16.805 -0.2911 -0.1092 -0.4091
    1MPD1    C414240   2.175   0.195  16.944  0.2396 -0.2975  0.6107
    1MPD1    C514241   2.292   0.229  17.008 -0.2639 -0.0695 -0.3396
    1MPD1     H14242   2.256   0.257  16.617  0.8205 -2.2308 -0.1669
    1MPD1    H114243   2.090   0.150  16.993 -0.6405  1.8866  1.0959
    1MPD1    H214244   2.491   0.310  16.963  0.3575 -0.9730 -1.4241
    1MPD1    H314245   2.300   0.220  17.116 -1.2782  0.8601 -0.1858
    1MPD1     N14246   2.019   0.176  16.758  0.3156 -1.2400 -0.0730
    1MPD1    H514247   1.947   0.157  16.826 -0.7307  0.7080 -0.6137
    1MPD1    N114248   2.494   0.312  16.717  0.6717  0.2525 -0.0051
    1MPD1    H614249   2.487   0.341  16.620  0.7932 -0.3279 -0.1875
    1MPD1    H714250   2.565   0.368  16.764  0.9278  0.0956 -0.2042
    2MPD1     C14251   1.408   4.630  15.875 -0.5604  0.2565  0.9061
    2MPD1    C114252   1.407   4.530  15.975  0.5351  0.2637  0.5355
    2MPD1    C214253   1.461   4.556  16.096  0.6446  0.3976 -0.5902
    2MPD1    C314254   1.519   4.672  16.133  0.1959 -0.4984  0.2165
    2MPD1    C414255   1.526   0.046  16.033 -0.0550 -0.4328  0.1205
    2MPD1    C514256   1.467   0.026  15.910  0.1825  0.3369 -0.4443
    2MPD1     H14257   1.450   4.471  16.162 -2.8761  1.1707 -0.1819
    2MPD1    H114258   1.570   0.143  16.057  1.4355 -0.9920 -0.3102
    2MPD1    H214259   1.369   4.608  15.776  1.3776 -0.0258  0.1869
    2MPD1    H314260   1.473   0.101  15.832  0.1525  0.8602  0.0520
    2MPD1     N14261   1.566   4.691  16.264 -0.4068 -0.2313  0.5454
    2MPD1    H514262   1.541   4.623  16.335 -0.9023 -0.2897  0.3096
    2MPD1    N114263   1.379   4.402  15.925 -0.1378 -0.2512  0.3076
    2MPD1    H614264   1.353   4.335  15.997 -1.4952 -2.2253 -2.0591
    2MPD1    H714265   1.306   4.423  15.857  1.1565  0.7678 -0.7598
    3TCq2    C114266   1.662   0.058  16.294  0.6764  0.5861 -0.4623
    3TCq2    O214267   1.701   0.152  16.227  0.6157  0.3588 -0.2693
    3TCq2    C214268   1.712   0.038  16.431 -0.0796 -0.2189 -0.0188
    3TCq2    C314269   1.673   4.654  16.507 -0.3050 -0.4886 -0.7008
    3TCq2    C414270   1.725   4.647  16.635  0.1033 -0.3156  0.5632
    3TCq2    C514271   1.820   0.007  16.689  0.6731 -0.0558  0.4895
    3TCq2    C614272   1.858   0.110  16.599  0.1017 -0.1239 -0.2043
    3TCq2    C714273   1.806   0.124  16.479 -0.2336  0.6349  0.6932
    3TCq2    C814274   1.986   0.168  16.625 -0.3950 -0.0883 -0.2244
    3TCq2    O414275   2.054   0.209  16.529 -0.2185  0.1227  0.0857
    3TCq2    C914276   1.667   4.552  16.721  0.2832  0.4588 -0.1234
    3TCq2    O514277   1.686   4.575  16.843 -0.2972  0.1225 -0.6949
    3TCq2    O614278   1.601   4.457  16.671  0.0386  0.0550 -0.1334
    3TCq2    H214279   1.605   4.576  16.478 -1.3076 -0.1419  0.6957
    3TCq2    H314280   1.864   4.718  16.787  3.2863 -0.7198 -0.7657
    3TCq2    H414281   1.848   0.201  16.416 -0.0378 -0.6902 -0.7924
    1TCq1    O114282   3.541   3.271  12.564 -0.3581 -0.4750  0.5087
    1TCq1    C114283   3.655   3.208  12.587  0.1490  0.6386  0.3430
    1TCq1    O214284   3.671   3.091  12.562 -0.0233  0.3730  0.0548
    1TCq1    C214285   3.760   3.304  12.605  0.4146 -0.6801  0.4333
    1TCq1    C314286   3.748   3.441  12.595  0.3115  0.1096 -0.5208
    1TCq1    C414287   3.858   3.513  12.614 -0.3110  0.4145 -0.3497
    1TCq1    C514288   3.982   3.461  12.630  0.0526  0.1954  0.9150
    1TCq1    C614289   3.985   3.322  12.639 -0.1937  0.5767  0.1754
    1TCq1    C714290   3.877   3.239  12.634  0.5409 -0.2904  0.6323
    1TCq1    C814291   4.115   3.260  12.656  0.0846  0.1077  0.4861
    1TCq1    O414292   4.108   3.142  12.683 -0.2855 -0.8397 -1.2368
    1TCq1    C914293   3.851   3.661  12.619  0.1934  0.0123 -0.7539
    1TCq1    O514294   3.742   3.708  12.576  0.1014 -0.7468  0.1588
    1TCq1    O614295   3.928   3.710  12.706 -0.2457 -0.3456  0.2826
    1TCq1    H114296   3.531   3.355  12.613  1.3758  0.4193 -0.6572
    1TCq1    H214297   3.653   3.489  12.575  0.5237  1.2556  1.1496
    1TCq1    H314298   4.065   3.531  12.627  1.2410 -1.2112  0.9551
    1TCq1    H414299   3.885   3.131  12.642 -1.8153 -0.5462 -0.5998
    2MPD2     C14300   4.394   3.163  12.670  0.0456 -0.2691  0.4038
    2MPD2    C114301   4.353   3.292  12.702 -0.3178  0.4137 -0.1463
    2MPD2    C214302   4.450   3.385  12.747  0.4765 -0.5284 -0.6083
    2MPD2    C314303   4.577   3.341  12.760  0.2074  0.6580  0.5132
    2MPD2    C414304   4.610   3.209  12.741  0.1561 -0.3224  0.3575
    2MPD2    C514305   4.518   3.120  12.696 -0.1511  0.1292 -0.2903
    2MPD2     H14306   4.418   3.488  12.760  0.4520 -0.6277  0.0862
    2MPD2    H114307   4.707   3.164  12.755  0.3717  0.3385  1.0298
    2MPD2    H214308   4.324   3.088  12.634  0.6919 -0.8993  0.4515
    2MPD2    H314309   4.537   3.014  12.680 -1.1960 -0.1288  0.1675
    2MPD2     N14310   4.659   3.449  12.794  0.6480 -0.3911 -0.0721
    2MPD2    H514311   4.619   3.540  12.814  1.0460 -0.4589  1.0656
    2MPD2    N114312   4.220   3.344  12.683  0.3149  0.2404 -0.5165
    2MPD2    H714313   4.202   3.443  12.693 -0.1286 -0.0321  1.3065
    3TCq1    O114314   0.398   3.748  13.180  0.1320 -0.0401 -0.1801
    3TCq1    C114315   0.353   3.626  13.139  0.1267 -0.4952  0.0013
    3TCq1    O214316   0.422   3.526  13.131  0.0828  0.0731 -0.3007
    3TCq1    C214317   0.225   3.638  13.070 -0.0745 -0.2736 -0.5584
    3TCq1    C314318   0.147   3.756  13.065 -0.1560  0.3824  0.0558
    3TCq1    C414319   0.052   3.771  12.962  0.0003 -0.3079 -0.3282
    3TCq1    C514320   0.038   3.672  12.865 -0.6200  0.4347 -1.2557
    3TCq1    C614321   0.112   3.557  12.876  0.4806 -0.3910  0.2094
    3TCq1    C714322   0.203   3.539  12.982  0.2303 -0.0598 -0.4766
    3TCq1    C814323   0.070   3.436  12.818  0.3792  0.4961 -0.0448
    3TCq1    O414324   0.141   3.337  12.803 -0.5743 -0.1076 -0.1477
    3TCq1    C914325   4.689   3.890  12.951 -0.2420  0.0379  0.0911
    3TCq1    O514326   4.618   3.891  12.851 -0.1006 -0.3669 -0.3738
    3TCq1    O614327   0.013   3.990  13.013  0.1308 -0.1642  0.4658
    3TCq1    H114328   0.324   3.810  13.196  0.4695 -0.1992  1.9908
    3TCq1    H214329   0.162   3.839  13.133  1.2550 -0.8097  1.2106
    3TCq1    H314330   4.684   3.692  12.792 -0.6496 -1.2506 -1.6771
    3TCq1    H414331   0.260   3.448  12.978  0.0368 -0.1549 -1.1094
    1MPD2     C14332   4.618   0.015  15.178  0.1312  0.3670  0.2740
    1MPD2    C114333   4.500   4.663  15.189  0.5585  0.4057 -0.1293
    1MPD2    C214334   4.509   4.540  15.241  0.5775 -0.2915 -0.9775
    1MPD2    C314335   4.633   4.476  15.263  0.1695 -0.1201 -0.5665
    1MPD2    C414336   0.025   4.552  15.255  0.4514  0.9768 -0.1212
    1MPD2    C514337   0.015   4.684  15.210  0.6889 -0.0403 -0.1093
    1MPD2     H14338   4.421   4.479  15.260  1.6196 -1.3199  0.5723
    1MPD2    H114339   0.125   4.512  15.266 -0.0301 -0.9523 -2.5939
    1MPD2    H214340   4.615   0.119  15.145 -1.5783  0.1282 -0.3292
    1MPD2    H314341   0.108   0.016  15.202  1.1563 -0.8430 -0.2252
    1MPD2     N14342   4.637   4.337  15.283  0.5463  0.1449 -0.0097
    1MPD2    H514343   4.546   4.292  15.276  0.8445 -0.4148 -0.2962
    1MPD2    N114344   4.383   0.002  15.152  0.1770 -0.7248  0.1327
    1MPD2    H714345   4.391   0.093  15.106 -0.4145 -0.7013  0.0855
    2TMC3    C114346   4.145   0.025  15.118  0.1716 -0.1951 -0.1942
    2TMC3    C214347   4.038   4.664  15.123 -0.2276  0.3263 -0.3366
    2TMC3    C314348   3.949   4.650  15.019  0.5701 -0.5038  0.8521
    2TMC3    C414349   4.153   0.113  15.011  0.5822 -0.4344  0.1148
    2TMC3    C514350   4.051   0.111  14.912 -0.1493  0.4732  0.8535
    2TMC3    C614351   3.951   0.017  14.916 -0.6108  0.5347 -0.5496
    2TMC3     C14352   4.261   4.671  15.171  0.3224  0.7208 -0.4551
    2TMC3     O14353   4.233   4.562  15.217  0.1250  0.1605 -0.7080
    2TMC3     H14354   4.013   4.616  15.216 -0.7272 -1.8664 -1.6016
    2TMC3    H114355   4.238   0.181  15.013  1.0444 -0.9174 -3.2757
    2TMC3    H214356   3.897   0.015  14.821 -0.4341  1.5904 -0.6725
    2TMC3    C714357   4.042   0.226  14.829  0.0841  0.4443  0.3757
    2TMC3    C814358   3.919   4.515  14.982  0.0995 -0.2774  0.4064
    2TMC3    O114359   3.982   0.218  14.725  0.2781 -0.1117  0.4809
    2TMC3    O214360   3.827   4.500  14.901 -0.3687  0.3376 -0.1350
    3TCq1    O114361   3.810   1.313  15.249  0.9250 -0.1867  0.1333
    3TCq1    C114362   3.925   1.322  15.314  0.0725  0.2202  0.3585
    3TCq1    O214363   3.985   1.424  15.341 -0.7404 -0.0388  0.3446
    3TCq1    C214364   3.981   1.187  15.298 -0.2073 -0.1908 -0.3983
    3TCq1    C314365   3.980   1.108  15.407 -0.3288 -1.4587  0.6440
    3TCq1    C414366   3.992   0.973  15.389  0.3869  0.2139  0.0130
    3TCq1    C514367   3.990   0.917  15.262 -0.3263  0.1578 -0.3750
    3TCq1    C614368   3.993   1.002  15.154  0.2231  0.5667 -0.5943
    3TCq1    C714369   3.994   1.140  15.168 -0.2169  0.2589  0.0813
    3TCq1    C814370   3.980   0.937  15.029  0.5545  0.3121 -0.1335
    3TCq1    O414371   3.917   1.000  14.943 -0.2840  0.6416  0.0656
    3TCq1    C914372   4.009   0.896  15.508 -0.1185  0.1676 -0.2642
    3TCq1    O514373   4.012   0.960  15.619  0.2413  0.3563  0.4948
    3TCq1    O614374   3.979   0.772  15.504 -0.0397  0.1229 -0.1751
    3TCq1    H114375   3.796   1.219  15.229  2.3388 -0.0461 -1.4916
    3TCq1    H214376   3.966   1.144  15.509  0.0783 -2.0607  0.9095
    3TCq1    H314377   3.993   0.809  15.268 -2.6433  0.0330 -1.7091
    3TCq1    H414378   3.996   1.199  15.077  0.7636  0.1539  0.0357
    4MPD2     C14379   3.977   0.739  14.807 -0.1341 -0.4316 -0.1009
    4MPD2    C114380   4.029   0.710  14.929  0.1217  0.7564 -0.3017
    4MPD2    C214381   4.072   0.582  14.944 -0.3498 -0.4178  0.1451
    4MPD2    C314382   4.055   0.478  14.850  0.0246  0.5852  0.0382
    4MPD2    C414383   4.003   0.509  14.728  0.1218 -0.0116 -0.8364
    4MPD2    C514384   3.957   0.639  14.713 -0.4227 -0.3693  0.2259
    4MPD2     H14385   4.130   0.558  15.033  1.6716  1.9973 -0.5088
    4MPD2    H114386   3.986   0.438  14.647 -3.5384 -0.5195  0.4129
    4MPD2    H214387   3.934   0.835  14.782 -0.4187 -0.9093 -1.4537
    4MPD2    H314388   3.916   0.671  14.618 -0.8673 -0.6197  0.3323
    4MPD2     N14389   4.078   0.340  14.896 -0.3818  0.2911  0.3111
    4MPD2    H514390   4.122   0.330  14.987  1.1079 -2.5430 -0.7099
    4MPD2    N114391   4.041   0.814  15.024 -0.0541 -0.3966 -0.3727
    4MPD2    H714392   4.096   0.794  15.107  0.0971  0.7875 -0.1972
    5TMC2    C114393   4.494   4.015  15.250 -0.0842  0.7678 -0.7803
    5TMC2    C214394   4.553   3.938  15.159  0.5461  0.4989 -0.4453
    5TMC2    C314395   4.692   3.949  15.148 -0.2670 -0.0382 -0.1421
    5TMC2    C414396   4.565   4.099  15.330 -0.0959  0.0275  0.1246
    5TMC2    C514397   4.702   4.113  15.315 -0.5069  0.3243  0.0410
    5TMC2    C614398   0.046   4.036  15.223 -0.4579  0.3906  0.4072
    5TMC2     C14399   4.380   4.098  15.197  0.0619 -0.5369 -0.0851
    5TMC2     O14400   4.390   4.213  15.236 -0.3356 -0.3466  0.3489
    5TMC2     H14401   4.503   3.877  15.084  0.0860  0.5826 -0.2067
    5TMC2    H114402   4.511   4.139  15.415 -0.4894 -2.3119  1.0017
    5TMC2    H214403   0.149   4.046  15.192 -0.7840  1.8337 -0.2119
    5TMC2    C714404   0.019   4.253  15.310  0.4057 -1.1866  0.0733
    5TMC2    C814405   0.047   3.865  15.059  0.0150  0.5434 -0.2661
    5TMC2    O114406   0.141   4.276  15.297 -0.3502 -0.6129 -0.4446
    5TMC2    O214407   0.158   3.831  15.094 -0.0219  0.6023  0.5740
    5TMC2    O514408   4.697   3.788  14.981 -0.1600  0.1524 -0.2226
    5TMC2    H514409   4.615   3.830  14.947 -0.5186 -1.4371 -1.3458
    6MPD2     C14410   3.938   4.216  14.959  0.6668 -0.8222  0.2604
    6MPD2    C114411   4.039   4.298  15.009 -0.0738 -0.2784  0.4183
    6MPD2    C214412   4.157   4.237  15.051 -0.0956 -1.3520  0.1120
    6MPD2    C314413   4.181   4.102  15.043 -0.1034  0.3046 -0.0615
    6MPD2    C414414   4.088   4.027  14.974  0.6370 -0.4279 -0.8946
    6MPD2    C514415   3.970   4.083  14.936  0.3832  0.1753  0.0463
    6MPD2     H14416   4.232   4.302  15.093 -1.7880 -0.0504  1.1299
    6MPD2    H114417   4.106   3.921  14.968  1.1112 -0.3735 -0.4759
    6MPD2    H214418   3.844   4.261  14.931  1.4347 -0.3428 -1.5219
    6MPD2    H314419   3.902   4.024  14.875  1.8119 -0.4645 -0.9499
    6MPD2     N14420   4.289   4.038  15.113 -0.1229 -0.7483 -0.4150
    6MPD2    H514421   4.287   3.938  15.093  0.5961 -1.0380  1.0174
    6MPD2    N114422   4.019   4.435  15.024 -0.1359  0.3424 -0.2680
    6MPD2    H714423   4.089   4.482  15.081  1.3658 -1.9005 -0.2806
  945NH3     N114424   2.432   3.029   9.545 -0.0743  0.1643 -0.0681
  945NH3     H214425   2.340   3.004   9.578  0.3556  0.1638  1.1151
  945NH3     H314426   2.436   3.129   9.531 -0.3128  0.3787  1.4053
  945NH3     H414427   2.490   3.011   9.626 -0.0214  1.1843  0.1202
  946SOD     NA14428   0.781   4.467  14.978 -0.0020 -0.6909 -0.5805
  947SOD     NA14429   1.191   3.101  12.092 -0.0590  0.2509  0.0491
  948SOD     NA14430   4.484   1.158  16.340 -0.1030 -0.4474  0.1034
  949SOD     NA14431   3.570   3.814  12.706 -0.4698  0.1466 -0.2413
  950SOD     NA14432   1.034   4.232   2.244  0.8091  0.1350 -0.1338
  951SOD     NA14433   3.163   3.350  17.159  0.3206  0.2787  0.1052
  952SOD     NA14434   4.495   4.568  13.296  0.0104  0.2222  0.4233
  953SOD     NA14435   0.771   3.142   0.157 -0.0734 -0.0391 -0.2696
  954SOD     NA14436   4.012   0.559  15.472 -0.2873 -0.0634  0.2403
  955SOD     NA14437   1.824   4.133  14.632  0.0058 -0.2067 -0.0663
  956SOD     NA14438   2.429   3.193   0.777 -0.0402 -0.0951  0.0426
  957SOD     NA14439   4.061   0.163   9.710  0.2141 -0.0072  0.1869
  958SOD     NA14440   4.009   0.188  11.050 -0.1319  0.2639 -0.3043
  959SOD     NA14441   2.091   4.329  14.872  0.0632  0.2599  0.1712
  960SOD     NA14442   2.912   2.685  11.543 -0.0789 -0.3226  0.3247
  961SOD     NA14443   3.285   1.908  10.106 -0.2798 -0.1790 -0.0203
  962SOD     NA14444   4.611   3.038  10.690 -0.2220 -0.0445 -0.2972
  963SOD     NA14445   0.829   3.145  10.806  0.3870  0.3225  0.3073
  964SOD     NA14446   2.565   3.663  13.013  0.1491  0.2661 -0.1530
  965SOD     NA14447   3.251   0.198  10.856 -0.0850  0.3450  0.0919
  966SOD     NA14448   1.977   4.645  14.957  0.2341  0.4832  0.0728
  967SOD     NA14449   0.635   0.275   9.617 -0.1309 -0.5842  0.4101
  968SOD     NA14450   2.094   4.313  14.582 -0.3543  0.0018 -0.0858
  969SOD     NA14451   0.006   3.498  11.378 -0.1629 -0.1536  0.4133
  970SOD     NA14452   3.508   3.482   4.532 -0.2284  0.2145 -0.0497
  971SOD     NA14453   0.245   1.692   8.196  0.2481 -0.0113 -0.4703
  972SOD     NA14454   2.648   3.281   8.926  0.0976  0.2254  0.0325
  973SOD     NA14455   0.073   3.545  11.027 -0.3286 -0.2908  0.0914
  974SOD     NA14456   0.224   1.097  12.035  0.0811  0.0131  0.1126
  975SOD     NA14457   4.243   0.983  11.227 -0.3419  0.0587  0.3995
  976SOD     NA14458   0.398   3.984  11.740 -0.0308 -0.0232  0.3081
  977SOD     NA14459   0.835   3.407  12.806  0.0079 -0.0116 -0.3955
  978SOD     NA14460   3.665   1.298   1.114 -0.0541 -0.0983 -0.4403
  979SOD     NA14461   3.745   3.793  12.371 -0.0082  0.3539  0.7522
  980SOD     NA14462   1.961   0.042  15.893 -0.2606  0.0224  0.2547
  981SOD     NA14463   0.678   3.557  11.128  0.4869  0.2033  0.0053
  982SOD     NA14464   2.241   4.251   3.056 -0.2823 -0.0191  0.1452
  983SOD     NA14465   2.686   2.645  13.431 -0.2284 -0.3574 -0.1643
  984SOD     NA14466   2.840   1.843  13.054 -0.0289 -0.2821  0.0833
  985SOD     NA14467   2.758   4.708   6.389  0.4403 -0.0116 -0.0200
  986SOD     NA14468   2.626   4.566  16.842 -0.6583 -0.3591  0.1613
  987SOD     NA14469   0.879   2.714   2.164 -0.1621 -0.3297 -0.4400
  988SOD     NA14470   1.772   3.436   3.405 -0.0548  0.1624  0.6542
  989SOD     NA14471   1.417   1.364   5.105 -0.1119 -0.1502  0.4195
  990SOD     NA14472   1.067   1.721   7.917 -0.1766  0.5288 -0.2370
  991SOD     NA14473   1.082   3.381  14.318  0.5312  0.1563 -0.3633
  992SOD     NA14474   1.320   3.138  13.936  0.2375 -0.1942  0.0516
  993SOD     NA14475   2.297   3.260   1.118 -0.2054 -0.7987  0.0242
  994SOD     NA14476   0.285   4.466  12.625  0.2994  0.4029  0.3378
  995SOD     NA14477   1.119   4.576  12.490  0.0964 -0.1408  0.0986
  996SOD     NA14478   1.381   3.251   0.149 -0.5116  0.2092  0.1952
  997SOD     NA14479   1.280   4.140  10.818 -0.1743  0.0393  0.4901
  998SOD     NA14480   4.021   2.117   1.326  0.5194 -0.2702  0.6366
  999SOD     NA14481   2.042   3.886   0.431  0.5736 -0.1815 -0.3206
 1000SOD     NA14482   2.867   0.048   1.264  0.2707 -0.4403  0.0642
 1001SOD     NA14483   0.200   0.098   0.023  0.0399  0.1579 -0.2384
 1002SOD     NA14484   2.514   0.017  13.028 -0.2180  0.3566 -0.1351
 1003SOD     NA14485   4.639   4.088  12.747  0.4670 -0.4740  0.0603
 1004SOD     NA14486   0.817   2.347   9.398  0.1527 -0.2142 -0.1180
 1005SOD     NA14487   3.892   2.873  15.298 -0.2493 -0.3648  0.2745
 1006SOD     NA14488   1.298   1.246   6.956  0.1227  0.5472 -0.2369
 1007SOD     NA14489   4.718   2.836  16.381 -0.1513 -0.1618  0.4500
 1008SOD     NA14490   3.363   1.356  15.401  0.6106 -0.0018  0.1012
 1009SOD     NA14491   3.356   0.281   3.050  0.3903 -0.6003  0.0238
 1010SOD     NA14492   2.707   1.275   7.820  0.1381 -0.1538  0.1659
 1011SOD     NA14493   0.901   0.541  11.451 -0.1795 -0.4192 -0.2428
 1012SOL     OW14494   3.249   1.609  13.181  0.1520 -0.5801  0.5131
 1012SOL    HW114495   3.299   1.628  13.260 -0.3221  1.0151  0.4222
 1012SOL    HW214496   3.319   1.615  13.116 -1.3538  0.7221 -0.9726
 1013SOL     OW14497   0.305   1.663   2.435 -0.1142 -0.7936  0.1041
 1013SOL    HW114498   0.358   1.586   2.457  0.2985 -0.5721 -0.1117
 1013SOL    HW214499   0.363   1.736   2.454 -0.2071 -0.9192  0.8683
 1014SOL     OW14500   0.449   4.405  11.549  0.1113 -0.8519  0.2446
 1014SOL    HW114501   0.423   4.353  11.625 -3.6272 -0.5263 -0.7940
 1014SOL    HW214502   0.371   4.460  11.537  2.1416  1.8296 -0.6311
 1015SOL     OW14503   0.122   1.384   2.557 -0.4619  0.3466 -0.0658
 1015SOL    HW114504   0.126   1.461   2.614  1.0566  0.4338 -0.2957
 1015SOL    HW214505   0.161   1.419   2.478 -2.2318 -0.5081 -1.3111
 1016SOL     OW14506   4.105   0.501   6.992  0.1690 -0.0553  0.1319
 1016SOL    HW114507   4.093   0.438   6.921  2.5310 -0.4081  0.0556
 1016SOL    HW214508   4.063   0.453   7.064  0.3508 -0.0525  0.2387
 1017SOL     OW14509   2.159   4.329   2.604 -0.4369  0.1593  0.2509
 1017SOL    HW114510   2.078   4.336   2.553 -1.0308 -0.3678  1.1276
 1017SOL    HW214511   2.125   4.371   2.682  1.6680  1.5801  0.4039
 1018SOL     OW14512   3.983   0.407  10.042  0.1688 -0.2461 -0.0242
 1018SOL    HW114513   3.977   0.494  10.002 -0.6427  0.2240  1.1192
 1018SOL    HW214514   3.988   0.427  10.136 -0.3510  0.8838 -0.2361
 1019SOL     OW14515   1.472   0.494   5.816  0.1037  0.7931 -0.8068
 1019SOL    HW114516   1.465   0.553   5.891  0.9186 -0.2285  0.0640
 1019SOL    HW214517   1.392   0.508   5.765  0.9569 -2.0882 -2.9242
 1020SOL     OW14518   2.834   0.865  10.608  0.4421  0.3767 -0.0168
 1020SOL    HW114519   2.871   0.901  10.527 -2.0839  2.5519 -0.2055
 1020SOL    HW214520   2.803   0.947  10.647  1.8914  1.7683 -1.7619
 1021SOL     OW14521   3.279   1.077   0.913 -0.6510 -0.4088  0.3876
 1021SOL    HW114522   3.361   1.032   0.896  0.1535  0.8951  0.8271
 1021SOL    HW214523   3.293   1.095   1.006 -2.4222 -0.3280  0.6394
 1022SOL     OW14524   4.303   4.179  10.141  0.1076 -0.2465 -0.3400
 1022SOL    HW114525   4.280   4.117  10.211 -1.8869 -1.5299 -2.1096
 1022SOL    HW214526   4.245   4.150  10.071  0.8598 -0.3066 -0.9458
 1023SOL     OW14527   3.192   0.318   1.947 -0.1765  0.0638 -0.9164
 1023SOL    HW114528   3.176   0.398   1.996  2.4103 -0.3058  0.5392
 1023SOL    HW214529   3.234   0.354   1.869 -0.0042  1.5404 -0.1499
 1024SOL     OW14530   4.667   1.867  17.479 -0.0844 -0.2343 -0.1679
 1024SOL    HW114531   4.645   1.813  17.404 -1.7712  2.5000 -1.6289
 1024SOL    HW214532   0.015   1.925  17.454  0.8229 -2.0587 -1.7556
 1025SOL     OW14533   1.004   4.689   8.526  0.5355  0.1547  0.1313
 1025SOL    HW114534   0.993   4.692   8.621  0.7773 -1.6677  0.2165
 1025SOL    HW214535   1.050   4.606   8.516  0.0841 -0.1401  0.4779
 1026SOL     OW14536   4.379   4.631   7.839 -0.0705  0.3047 -0.1753
 1026SOL    HW114537   4.302   4.650   7.786 -1.9077  0.9417  2.7189
 1026SOL    HW214538   4.387   4.707   7.898 -0.0316  0.0426  0.1582
 1027SOL     OW14539   1.613   2.694   8.505  0.4222  0.0044  0.0557
 1027SOL    HW114540   1.658   2.728   8.427 -0.0572  2.3873  0.8085
 1027SOL    HW214541   1.671   2.725   8.575 -0.4499 -0.8279  1.1387
 1028SOL     OW14542   0.045   3.963   3.202 -0.3107  0.3224  0.4844
 1028SOL    HW114543   0.074   3.876   3.177  1.5229  1.2396 -0.5348
 1028SOL    HW214544   4.680   3.960   3.163  0.7615  0.8121 -1.9836
 1029SOL     OW14545   4.029   4.347   1.509  0.0321  0.0160 -0.8713
 1029SOL    HW114546   4.051   4.258   1.536 -0.2996 -0.4607 -2.1839
 1029SOL    HW214547   4.071   4.356   1.424 -0.8464  1.5037 -1.1420
 1030SOL     OW14548   1.624   1.036   6.209  0.2984  0.1492 -0.4805
 1030SOL    HW114549   1.697   1.096   6.195  2.1320 -1.8053  0.7168
 1030SOL    HW214550   1.675   0.964   6.245 -0.5353 -0.5228 -0.6267
 1031SOL     OW14551   0.279   4.368  15.746  0.2155 -0.1576  0.5339
 1031SOL    HW114552   0.334   4.393  15.821  1.5865 -0.6049 -0.3234
 1031SOL    HW214553   0.283   4.273  15.748 -0.4456 -0.2114 -0.8156
 1032SOL     OW14554   2.551   2.557   8.041  0.3133 -0.2314 -0.3937
 1032SOL    HW114555   2.604   2.529   7.966  0.0671  0.3508 -0.7927
 1032SOL    HW214556   2.623   2.553   8.103 -0.8324  0.1606  0.9614
 1033SOL     OW14557   1.578   2.491   0.706 -0.0155 -0.1948 -0.1552
 1033SOL    HW114558   1.496   2.514   0.749 -0.8647 -1.9059 -0.8393
 1033SOL    HW214559   1.627   2.572   0.699  0.6164 -0.3423  2.5181
 1034SOL     OW14560   3.770   2.385   9.232  0.3130 -0.1926  0.8940
 1034SOL    HW114561   3.815   2.412   9.312  2.3879 -0.8101 -0.0869
 1034SOL    HW214562   3.778   2.290   9.236 -0.1344 -0.3222 -1.3972
 1035SOL     OW14563   1.174   2.559  16.989  0.0510 -0.1764  0.3389
 1035SOL    HW114564   1.130   2.635  16.950  0.7222 -0.4423 -0.9386
 1035SOL    HW214565   1.159   2.586  17.079 -0.6712 -1.3518  0.5705
 1036SOL     OW14566   1.745   1.309   3.847  0.2909  0.7621  0.6986
 1036SOL    HW114567   1.703   1.314   3.933  0.8071  1.4055  0.9175
 1036SOL    HW214568   1.710   1.386   3.800 -1.6605  0.0217  0.9530
 1037SOL     OW14569   0.920   4.576   5.121 -0.5053 -0.0278 -0.3315
 1037SOL    HW114570   0.880   4.661   5.140 -0.5741 -0.2238  0.3914
 1037SOL    HW214571   0.933   4.592   5.028 -0.3728 -0.1705 -0.3365
 1038SOL     OW14572   3.542   2.710   2.498  0.0614 -0.3268  0.2025
 1038SOL    HW114573   3.489   2.779   2.459 -0.4253  0.2958  1.9742
 1038SOL    HW214574   3.482   2.638   2.478  0.4493 -0.2199 -1.3633
 1039SOL     OW14575   1.068   1.530   3.672 -0.2801  0.4228 -0.0696
 1039SOL    HW114576   1.004   1.577   3.618  0.2877  0.1704 -0.9669
 1039SOL    HW214577   1.144   1.533   3.614 -2.5567 -2.4901 -3.1951
 1040SOL     OW14578   2.816   2.037   4.697  0.1364 -0.2294 -0.5366
 1040SOL    HW114579   2.745   2.010   4.638 -0.1726  1.0244 -0.7248
 1040SOL    HW214580   2.879   1.969   4.670 -0.2747 -1.1338  0.7949
 1041SOL     OW14581   0.383   4.201  16.608  0.0144  0.2343 -0.4869
 1041SOL    HW114582   0.403   4.293  16.596  2.2348 -0.1185  0.4840
 1041SOL    HW214583   0.321   4.201  16.681  0.7950  2.0140  0.1675
 1042SOL     OW14584   2.694   2.575  12.759 -0.3307 -0.2212  0.2346
 1042SOL    HW114585   2.683   2.487  12.793 -0.6926  0.4944  1.9669
 1042SOL    HW214586   2.788   2.573  12.742  0.1564  0.7894  2.7958
 1043SOL     OW14587   0.680   3.075   4.641  0.0516 -0.3123 -0.1982
 1043SOL    HW114588   0.716   3.099   4.556  0.7558 -1.6639 -0.2774
 1043SOL    HW214589   0.745   3.011   4.669  1.8135  1.5502 -0.0693
 1044SOL     OW14590   4.449   1.865  14.155 -0.0777 -0.9596 -0.1050
 1044SOL    HW114591   4.411   1.837  14.239  1.8864  1.7371  1.6964
 1044SOL    HW214592   4.362   1.887  14.123 -0.1164 -2.4114 -0.9934
 1045SOL     OW14593   2.716   2.126   2.049  0.1550  0.7044  0.5669
 1045SOL    HW114594   2.782   2.195   2.050  0.6924  0.1648  1.6498
 1045SOL    HW214595   2.658   2.174   2.108  1.8404  2.5705  0.6951
 1046SOL     OW14596   1.009   2.458   7.245 -0.1065 -0.6053 -0.7999
 1046SOL    HW114597   0.936   2.438   7.304 -0.5729  1.0961 -0.7994
 1046SOL    HW214598   1.050   2.542   7.268 -0.3310 -0.2477 -1.7130
 1047SOL     OW14599   3.010   0.604   6.782 -0.2429  0.1703 -0.1575
 1047SOL    HW114600   2.930   0.579   6.827 -0.6272 -0.6710 -1.3014
 1047SOL    HW214601   3.061   0.558   6.849  0.9379  2.0139  0.2232
 1048SOL     OW14602   3.715   4.619  13.454  0.4414  0.3328  0.2960
 1048SOL    HW114603   3.748   4.692  13.401 -0.9199  1.1996  0.6507
 1048SOL    HW214604   3.784   4.555  13.436 -1.2282 -0.8839 -1.8768
 1049SOL     OW14605   4.042   4.597   6.513 -0.8479  0.3631  0.0053
 1049SOL    HW114606   3.975   4.549   6.464  0.1762 -2.1872  1.0696
 1049SOL    HW214607   3.994   4.676   6.537 -0.9065  0.6304 -1.0355
 1050SOL     OW14608   1.287   3.057   3.250 -0.6502  0.2407  0.4354
 1050SOL    HW114609   1.361   3.116   3.238 -0.3331 -0.2035  0.2129
 1050SOL    HW214610   1.294   2.995   3.177 -0.6580 -0.6460  1.1913
 1051SOL     OW14611   2.777   3.994   0.103 -0.1899  0.5104 -0.4636
 1051SOL    HW114612   2.825   3.960   0.179 -1.4880 -0.8366 -0.2417
 1051SOL    HW214613   2.824   4.076   0.087  0.5756  0.0671 -0.5229
 1052SOL     OW14614   4.363   4.638   8.664 -0.4196 -0.0151  0.0872
 1052SOL    HW114615   4.368   4.560   8.608 -2.1172  0.5477 -0.8586
 1052SOL    HW214616   4.347   4.699   8.592 -0.2112 -0.2859 -0.1843
 1053SOL     OW14617   2.530   2.801  16.782 -0.2094 -0.1084  0.1971
 1053SOL    HW114618   2.587   2.725  16.797 -1.8984 -1.7189 -1.5725
 1053SOL    HW214619   2.465   2.746  16.737 -1.3128  0.9891  0.4507
 1054SOL     OW14620   4.015   2.882   6.868  0.3712 -0.3964 -0.2742
 1054SOL    HW114621   3.965   2.955   6.904  0.6858  0.7014 -2.0440
 1054SOL    HW214622   3.957   2.806   6.876 -1.1427  0.9783  1.7114
 1055SOL     OW14623   4.434   0.942  11.346 -0.0896  0.1514  0.5695
 1055SOL    HW114624   4.452   0.854  11.314  0.6244  0.1017  1.1192
 1055SOL    HW214625   4.524   0.972  11.347 -0.7307  2.1406 -1.3102
 1056SOL     OW14626   1.047   4.628   2.994  0.2064  0.3711 -0.2415
 1056SOL    HW114627   1.076   4.537   2.989 -0.1175  0.3503 -1.7699
 1056SOL    HW214628   1.031   4.643   2.900 -1.2238  2.1796  0.2891
 1057SOL     OW14629   2.519   2.877   8.509 -0.5731 -0.2261  0.0715
 1057SOL    HW114630   2.505   2.909   8.599  4.0204 -0.8152  0.9662
 1057SOL    HW214631   2.535   2.785   8.531 -2.1516 -0.5274 -0.0102
 1058SOL     OW14632   0.717   4.565   7.749 -0.0718 -0.2698 -0.1955
 1058SOL    HW114633   0.683   4.510   7.819 -0.6362  0.2106 -0.0956
 1058SOL    HW214634   0.746   4.504   7.681  1.8452  0.4047  0.0282
 1059SOL     OW14635   0.081   2.201   8.563  0.6824  0.0424  0.1818
 1059SOL    HW114636   0.108   2.130   8.505  1.7000  2.2440 -2.0409
 1059SOL    HW214637   0.077   2.281   8.511  1.5820 -0.4090 -0.5857
 1060SOL     OW14638   4.566   4.287   0.953 -0.0667 -0.3480 -0.0177
 1060SOL    HW114639   4.608   4.285   1.039 -1.9183 -0.1693  0.9016
 1060SOL    HW214640   4.522   4.371   0.967 -0.2257 -0.2598 -1.0342
 1061SOL     OW14641   1.792   4.568   2.834  0.0990  0.0029 -0.0333
 1061SOL    HW114642   1.746   4.521   2.904 -0.6949  1.5332  0.4831
 1061SOL    HW214643   1.869   4.513   2.822 -0.9800 -1.5557  0.1561
 1062SOL     OW14644   1.429   1.718   3.709  0.5712  0.2339  0.4733
 1062SOL    HW114645   1.396   1.763   3.632  0.6106  1.0144  0.9087
 1062SOL    HW214646   1.520   1.748   3.707  0.4655  0.5626  0.5675
 1063SOL     OW14647   4.074   3.530   7.158  0.2405  0.2531 -0.5980
 1063SOL    HW114648   4.058   3.436   7.152 -0.9791  0.4712 -0.6871
 1063SOL    HW214649   4.170   3.528   7.154  0.1266 -1.8883 -2.3427
 1064SOL     OW14650   4.504   4.150   7.937  0.3557  0.3170  0.0052
 1064SOL    HW114651   4.487   4.106   8.021  1.4447  1.4737  0.8236
 1064SOL    HW214652   4.437   4.218   7.944 -0.9302 -0.9678  0.3455
 1065SOL     OW14653   3.985   0.428  11.190 -0.2088 -0.8622 -0.0327
 1065SOL    HW114654   3.895   0.453  11.168 -0.1464  0.2844  1.0333
 1065SOL    HW214655   4.035   0.509  11.200 -1.4495 -0.0347 -0.6387
 1066SOL     OW14656   4.282   2.909   9.514  0.7862  0.0167 -0.1035
 1066SOL    HW114657   4.282   2.870   9.601 -2.8526 -1.6077 -0.8090
 1066SOL    HW214658   4.188   2.918   9.499  0.6504  1.6111  1.8005
 1067SOL     OW14659   0.672   0.576  16.596  0.1030 -0.9002  0.4217
 1067SOL    HW114660   0.711   0.593  16.682 -2.3873  0.8803  1.2041
 1067SOL    HW214661   0.726   0.635  16.543 -1.0227  1.5617  1.9994
 1068SOL     OW14662   1.703   0.511   8.107 -0.0641  0.2998  0.0631
 1068SOL    HW114663   1.732   0.513   8.198 -0.6595  1.0482  0.2390
 1068SOL    HW214664   1.644   0.435   8.110 -1.0903  1.0462 -0.9918
 1069SOL     OW14665   0.736   0.645  16.866  0.9524  0.2808 -0.8783
 1069SOL    HW114666   0.790   0.640  16.944 -0.6309  2.1472  0.3186
 1069SOL    HW214667   0.756   0.736  16.841 -1.2110  0.9472 -0.1380
 1070SOL     OW14668   1.336   1.912   0.648 -0.1112  0.6543 -0.7794
 1070SOL    HW114669   1.346   1.958   0.731  1.7557 -0.1437 -0.5475
 1070SOL    HW214670   1.422   1.868   0.645  0.2367  1.2568  0.5990
 1071SOL     OW14671   2.012   3.367   8.786 -0.6865 -0.4995  0.2002
 1071SOL    HW114672   2.004   3.461   8.775 -0.2151 -0.6418 -1.3469
 1071SOL    HW214673   1.921   3.337   8.782 -1.5547  2.1801  0.0581
 1072SOL     OW14674   3.086   4.326   9.414  0.7046  0.0292 -0.1324
 1072SOL    HW114675   3.064   4.419   9.416  0.1477 -0.1409  2.0340
 1072SOL    HW214676   3.016   4.297   9.356  0.3934  0.7147 -0.0853
 1073SOL     OW14677   0.135   4.148   8.792  0.4195  0.1963  0.0135
 1073SOL    HW114678   0.131   4.240   8.818  0.6568  0.2219 -0.0430
 1073SOL    HW214679   0.169   4.156   8.703  3.3628 -0.5035  1.0868
 1074SOL     OW14680   4.290   2.205   8.767  1.0105 -0.0682  0.1942
 1074SOL    HW114681   4.274   2.153   8.846 -0.5931 -1.2321 -0.9113
 1074SOL    HW214682   4.364   2.159   8.727  0.3937 -1.6718  0.8895
 1075SOL     OW14683   4.238   0.766  15.241 -0.0494 -0.3371  0.6481
 1075SOL    HW114684   4.294   0.743  15.167  1.1557  1.0818  1.1161
 1075SOL    HW214685   4.261   0.697  15.302  2.0520  0.6573  0.9664
 1076SOL     OW14686   2.010   4.630   6.583  0.0865  0.4702  0.4101
 1076SOL    HW114687   2.080   4.649   6.645  0.9839 -3.4087  0.5461
 1076SOL    HW214688   1.966   4.569   6.641  3.5394 -1.4150  1.0568
 1077SOL     OW14689   3.825   2.906   9.119 -0.0608 -0.0690  0.2360
 1077SOL    HW114690   3.771   2.836   9.156  0.0120 -0.0556  0.3657
 1077SOL    HW214691   3.781   2.913   9.035 -1.8029 -1.4065  1.0410
 1078SOL     OW14692   1.114   0.925   4.973 -0.0623  0.0297  0.1220
 1078SOL    HW114693   1.024   0.915   4.942  0.9781  1.4629 -3.3321
 1078SOL    HW214694   1.111   0.872   5.052  0.0379 -0.5343 -0.2461
 1079SOL     OW14695   0.445   0.934   1.242 -0.4025  0.6462 -0.5578
 1079SOL    HW114696   0.522   0.986   1.267 -0.2670 -0.4805  1.3081
 1079SOL    HW214697   0.463   0.851   1.286 -1.4259  0.9396  0.4010
 1080SOL     OW14698   2.607   2.225   4.125 -0.5877 -0.0478 -0.1307
 1080SOL    HW114699   2.657   2.307   4.133  2.0573 -1.7528  0.5801
 1080SOL    HW214700   2.516   2.251   4.108 -0.9015 -1.7144 -0.9414
 1081SOL     OW14701   0.985   3.117  11.165  0.2451 -0.1402  0.6523
 1081SOL    HW114702   0.945   3.184  11.222 -1.0219 -1.9327  1.8752
 1081SOL    HW214703   0.949   3.135  11.078 -1.4230  0.1509  1.4042
 1082SOL     OW14704   2.203   4.457   6.730 -0.0840  0.7247  0.4274
 1082SOL    HW114705   2.241   4.373   6.753 -2.1071 -0.8487 -2.0092
 1082SOL    HW214706   2.159   4.481   6.812 -1.3411  1.6491 -0.5234
 1083SOL     OW14707   4.507   0.474  13.075 -0.6652 -0.4424 -0.3133
 1083SOL    HW114708   4.563   0.521  13.013  0.9487 -3.2518 -0.9881
 1083SOL    HW214709   4.458   0.549  13.109 -0.6914 -0.8231  0.5121
 1084SOL     OW14710   1.453   3.966   6.212  0.8068  0.1799 -0.0570
 1084SOL    HW114711   1.378   3.955   6.153 -0.1305 -1.0827  1.3424
 1084SOL    HW214712   1.481   4.057   6.215  2.6732 -0.3950 -0.1122
 1085SOL     OW14713   4.617   0.370  10.533  0.1232  0.0567 -0.1669
 1085SOL    HW114714   4.563   0.291  10.535 -0.4316  0.4154 -1.0575
 1085SOL    HW214715   4.685   0.335  10.475 -0.9722  0.8934 -1.9492
 1086SOL     OW14716   2.717   3.974   0.412  0.1011  0.1914  0.8712
 1086SOL    HW114717   2.670   4.025   0.478 -1.6992 -0.5823  0.2006
 1086SOL    HW214718   2.645   3.912   0.399 -0.7011  1.0173  1.4118
 1087SOL     OW14719   3.367   2.073   2.272 -0.0324 -0.8243 -0.2271
 1087SOL    HW114720   3.441   2.055   2.330  0.0026 -1.1210 -0.3672
 1087SOL    HW214721   3.400   2.050   2.186 -0.3695 -1.3831 -0.2047
 1088SOL     OW14722   2.928   3.147   3.933 -0.0753  0.5804 -0.3680
 1088SOL    HW114723   2.941   3.062   3.893 -1.3085  0.4105 -0.4048
 1088SOL    HW214724   2.908   3.126   4.024  0.7846  0.2713 -0.2525
 1089SOL     OW14725   4.143   0.155  10.545 -0.1908  0.5431  0.5154
 1089SOL    HW114726   4.097   0.121  10.468  0.9415 -2.2284  1.0568
 1089SOL    HW214727   4.227   0.178  10.506  1.5516 -0.4177  3.6382
 1090SOL     OW14728   2.875   0.200  11.034 -0.0692  0.2936  0.1147
 1090SOL    HW114729   2.887   0.239  11.121  2.9107 -1.0026  0.2770
 1090SOL    HW214730   2.864   0.108  11.056  0.2006  0.4407  0.8807
 1091SOL     OW14731   0.836   1.008   3.553  0.5499 -0.3824  0.1912
 1091SOL    HW114732   0.925   0.991   3.582  0.7037  0.2720  0.0821
 1091SOL    HW214733   0.848   1.066   3.478  1.2995 -0.0600  0.5610
 1092SOL     OW14734   4.119   1.829   9.626  0.4034 -0.7699  0.4371
 1092SOL    HW114735   4.080   1.857   9.709  0.6183 -1.6172  0.8229
 1092SOL    HW214736   4.089   1.893   9.562  0.1213 -0.9964  0.3420
 1093SOL     OW14737   1.823   4.426   7.626 -0.8532 -0.1421  0.3233
 1093SOL    HW114738   1.742   4.426   7.575 -0.1704  1.2428 -0.7432
 1093SOL    HW214739   1.879   4.466   7.560  0.0501 -0.2390  1.0203
 1094SOL     OW14740   3.902   1.535   5.223 -0.3280 -0.3088 -0.4936
 1094SOL    HW114741   3.938   1.545   5.135  2.8190 -1.7960  0.6338
 1094SOL    HW214742   3.913   1.441   5.238  1.8359  0.0268  0.0437
 1095SOL     OW14743   4.606   4.409   2.720  0.2008 -0.5291  0.2425
 1095SOL    HW114744   4.646   4.342   2.665 -1.9721 -0.0623 -1.9187
 1095SOL    HW214745   4.678   4.469   2.737  0.4322 -0.4265 -1.1186
 1096SOL     OW14746   2.815   1.580  17.167  0.0733  0.1155 -0.0920
 1096SOL    HW114747   2.793   1.653  17.108 -2.2821  2.2080  3.4359
 1096SOL    HW214748   2.900   1.547  17.136 -0.6636 -0.5373 -1.4265
 1097SOL     OW14749   2.708   1.986   5.312 -0.1836  0.0734  0.2067
 1097SOL    HW114750   2.613   1.998   5.308 -0.2283 -0.3842 -0.1166
 1097SOL    HW214751   2.740   2.047   5.245 -2.0080  0.9444  0.0994
 1098SOL     OW14752   1.920   1.956  13.295 -0.2497 -0.0214 -0.8491
 1098SOL    HW114753   1.849   1.896  13.315  0.1204 -0.7537 -1.7405
 1098SOL    HW214754   1.940   1.992  13.382 -1.5241  2.4397 -1.5831
 1099SOL     OW14755   1.617   2.153  10.221  0.3261 -0.4101 -0.2694
 1099SOL    HW114756   1.597   2.080  10.279 -0.7898  0.5297  0.5447
 1099SOL    HW214757   1.702   2.190  10.246 -0.5462  1.1330  0.4277
 1100SOL     OW14758   1.965   2.037   8.760 -0.0692 -0.3639  0.0685
 1100SOL    HW114759   2.035   2.021   8.696 -0.1917 -1.0360  0.1063
 1100SOL    HW214760   2.010   2.027   8.844 -0.1267  1.5419  0.3350
 1101SOL     OW14761   0.476   3.780   2.733  0.3455 -0.2650 -0.4044
 1101SOL    HW114762   0.525   3.862   2.734 -1.1584  0.6438 -0.9670
 1101SOL    HW214763   0.515   3.742   2.654  1.9758  0.5520  0.0139
 1102SOL     OW14764   3.000   3.723   3.509  0.0829  0.0040  0.1396
 1102SOL    HW114765   2.928   3.680   3.462  0.2867  0.2136 -0.3655
 1102SOL    HW214766   3.005   3.671   3.589 -1.0781 -1.2670 -0.6164
 1103SOL     OW14767   0.412   1.004   7.340 -0.0927  0.1449 -0.3982
 1103SOL    HW114768   0.422   0.918   7.299  0.3544 -0.6622  1.3977
 1103SOL    HW214769   0.322   1.029   7.318 -0.7107 -2.6045 -0.9258
 1104SOL     OW14770   1.821   0.101  15.711 -0.0065  0.1297  0.3751
 1104SOL    HW114771   1.773   0.175  15.747 -1.0290 -0.7657  0.8363
 1104SOL    HW214772   1.747   0.067  15.661  1.2681 -2.7067  0.4210
 1105SOL     OW14773   4.043   2.740   6.018  0.3498  0.3179 -0.6170
 1105SOL    HW114774   3.977   2.808   6.033  0.9750  1.0302 -1.0694
 1105SOL    HW214775   4.103   2.775   5.952 -0.6657  1.4403 -0.9512
 1106SOL     OW14776   3.406   3.600   4.951  0.0932  0.2924 -0.4788
 1106SOL    HW114777   3.361   3.515   4.951 -0.1734  0.4327 -0.1704
 1106SOL    HW214778   3.402   3.638   5.039 -0.1488 -0.6145 -0.1014
 1107SOL     OW14779   4.343   0.948   1.999  0.4586 -0.5169  0.2989
 1107SOL    HW114780   4.415   0.896   1.965 -1.7166 -4.3333  1.5084
 1107SOL    HW214781   4.288   0.873   2.021  1.1412 -1.0917  0.0207
 1108SOL     OW14782   0.850   3.675   9.099  0.5304  0.4953 -0.3479
 1108SOL    HW114783   0.812   3.705   9.181 -0.0163  2.5400 -1.3593
 1108SOL    HW214784   0.867   3.582   9.117 -0.3826 -0.0480 -2.2823
 1109SOL     OW14785   3.880   2.082   9.276  0.6913  0.0543  0.3928
 1109SOL    HW114786   3.959   2.050   9.233 -0.8598 -0.8153 -1.7978
 1109SOL    HW214787   3.817   2.011   9.260 -2.4569  2.0557  3.8830
 1110SOL     OW14788   0.158   2.898   9.247 -0.2832  0.2402 -0.1597
 1110SOL    HW114789   0.251   2.909   9.224 -0.0554  0.4209  0.8527
 1110SOL    HW214790   0.160   2.914   9.341 -1.4329  0.0688 -0.1072
 1111SOL     OW14791   2.694   1.620   6.046  0.4189 -0.3530  0.2278
 1111SOL    HW114792   2.626   1.670   6.001 -0.2544 -0.2858  1.3408
 1111SOL    HW214793   2.713   1.677   6.120 -2.6657 -1.5789  1.9469
 1112SOL     OW14794   2.360   2.772   5.344  0.1952 -0.1437  0.1335
 1112SOL    HW114795   2.310   2.693   5.327  1.0609 -1.1333  2.1707
 1112SOL    HW214796   2.297   2.827   5.391  1.4175  0.2551  1.3190
 1113SOL     OW14797   1.254   1.340  10.975 -0.1101 -0.1697 -0.2034
 1113SOL    HW114798   1.335   1.290  10.989 -0.1911 -0.0821  0.5799
 1113SOL    HW214799   1.240   1.371  11.065  1.1259  3.1517 -1.1365
 1114SOL     OW14800   4.285   0.643  13.639 -0.3068 -0.2328  0.8243
 1114SOL    HW114801   4.317   0.553  13.648 -0.1930 -0.3249 -0.5088
 1114SOL    HW214802   4.272   0.664  13.731  0.9351  1.6436  0.5707
 1115SOL     OW14803   0.039   3.064   6.508  0.4581 -0.0499  0.1300
 1115SOL    HW114804   0.018   3.145   6.555 -0.6426  1.1096 -2.3460
 1115SOL    HW214805   0.002   3.076   6.421  2.3137 -0.2063 -0.6816
 1116SOL     OW14806   2.989   1.479   4.017 -0.7399 -0.1995 -0.7535
 1116SOL    HW114807   3.044   1.452   3.944 -0.1332  0.1486 -0.4217
 1116SOL    HW214808   3.025   1.566   4.030 -0.0011 -0.8719  1.6285
 1117SOL     OW14809   4.464   1.894   0.819 -0.5118 -0.0801 -0.0364
 1117SOL    HW114810   4.473   1.968   0.879 -1.6562 -0.3561  0.4720
 1117SOL    HW214811   4.479   1.941   0.737  0.7034 -1.6737 -0.7299
 1118SOL     OW14812   2.739   0.616   4.657  0.0666 -0.0056 -0.2109
 1118SOL    HW114813   2.738   0.520   4.656 -1.1217 -0.0311  1.6281
 1118SOL    HW214814   2.795   0.638   4.731 -0.5267  2.0205 -0.3796
 1119SOL     OW14815   0.988   3.770   2.065  0.1949 -0.4787  0.0398
 1119SOL    HW114816   1.066   3.732   2.024 -0.1686  0.1394 -1.2271
 1119SOL    HW214817   0.961   3.704   2.128 -1.4136  0.0299 -0.1158
 1120SOL     OW14818   4.617   4.499   0.513  0.8401  0.3777  0.2831
 1120SOL    HW114819   4.583   4.544   0.590  0.9025  2.1035 -0.7027
 1120SOL    HW214820   4.670   4.433   0.557  1.3040 -1.7718 -3.5146
 1121SOL     OW14821   4.310   0.335   1.339  0.2725  0.0025 -0.7847
 1121SOL    HW114822   4.347   0.396   1.274  1.4971 -0.1075 -0.1862
 1121SOL    HW214823   4.382   0.319   1.399 -0.2299 -1.9430 -0.7178
 1122SOL     OW14824   3.369   2.870  13.306 -0.0905 -0.2771  0.3661
 1122SOL    HW114825   3.430   2.804  13.275 -0.8084 -0.6652 -0.2212
 1122SOL    HW214826   3.426   2.905  13.374 -1.3077  1.9616  0.2656
 1123SOL     OW14827   1.719   2.842  12.540 -0.3826 -0.2662  0.2595
 1123SOL    HW114828   1.768   2.797  12.609  1.1851 -1.4791 -1.6453
 1123SOL    HW214829   1.633   2.844  12.581 -0.7874  1.3636 -0.6613
 1124SOL     OW14830   3.080   4.664   0.556 -0.5840  0.0764 -0.4234
 1124SOL    HW114831   3.022   0.002   0.512 -0.4288 -0.1266 -0.9045
 1124SOL    HW214832   3.068   4.584   0.504  0.6353 -0.0353 -0.5230
 1125SOL     OW14833   3.543   0.483  13.804 -0.7850  0.5580  0.3909
 1125SOL    HW114834   3.557   0.410  13.864 -1.4496 -1.0099 -1.3485
 1125SOL    HW214835   3.460   0.521  13.832 -1.0206  0.8656 -0.6992
 1126SOL     OW14836   1.869   4.525  17.007  0.8315  0.2027  0.2072
 1126SOL    HW114837   1.804   4.556  16.944 -1.2087 -0.4754  1.9573
 1126SOL    HW214838   1.807   4.517  17.080 -0.6255  2.4111 -0.7833
 1127SOL     OW14839   0.356   1.681  10.342 -0.0403  0.2322 -0.0490
 1127SOL    HW114840   0.360   1.616  10.272 -0.9324 -0.2396  0.3323
 1127SOL    HW214841   0.291   1.644  10.402  0.2028 -0.6331 -0.3263
 1128SOL     OW14842   4.082   0.555   5.536 -0.5756 -0.2939  0.3976
 1128SOL    HW114843   4.144   0.498   5.490  0.4525  0.7567  0.4851
 1128SOL    HW214844   4.023   0.573   5.463  0.4322 -2.5678 -0.9857
 1129SOL     OW14845   4.094   0.674  11.204 -0.2249  0.3647  0.1149
 1129SOL    HW114846   4.071   0.751  11.152 -0.9147 -0.9302 -1.4871
 1129SOL    HW214847   4.075   0.712  11.290 -0.2154  0.0143  0.2715
 1130SOL     OW14848   2.143   1.011   9.394  0.2329  0.0900  0.5110
 1130SOL    HW114849   2.082   1.026   9.467  2.0917 -1.2740  2.3775
 1130SOL    HW214850   2.203   0.945   9.429 -0.1431 -1.0757 -1.0293
 1131SOL     OW14851   4.092   3.924   4.749  0.2224  0.1931 -0.3422
 1131SOL    HW114852   4.002   3.931   4.719  0.2652  0.5552 -0.3822
 1131SOL    HW214853   4.078   3.855   4.814 -0.5157 -0.4632 -1.1922
 1132SOL     OW14854   2.525   1.483   2.432  0.1830 -0.2813 -0.1976
 1132SOL    HW114855   2.465   1.451   2.499  1.9257 -0.2682  1.3697
 1132SOL    HW214856   2.586   1.410   2.421  0.9435  0.2514  0.4931
 1133SOL     OW14857   0.078   0.711   5.892 -0.7664  0.0211  0.1008
 1133SOL    HW114858   0.118   0.751   5.815 -0.8601 -1.0064 -0.4878
 1133SOL    HW214859   0.139   0.638   5.903  0.3818  0.9134 -0.4221
 1134SOL     OW14860   0.850   0.259   7.190  0.1562 -0.3432 -0.3755
 1134SOL    HW114861   0.919   0.196   7.212  0.5951  0.6444  1.0596
 1134SOL    HW214862   0.834   0.311   7.269  0.0035  0.8138 -1.1685
 1135SOL     OW14863   2.637   2.891   2.485  0.4574  0.6545 -0.0069
 1135SOL    HW114864   2.645   2.952   2.412 -1.8102  3.1243  1.7840
 1135SOL    HW214865   2.717   2.911   2.533 -0.3323 -0.0025  1.5796
 1136SOL     OW14866   1.630   1.568   6.769  0.0383 -0.2096 -0.4283
 1136SOL    HW114867   1.587   1.634   6.714 -1.0100 -0.8690 -0.3957
 1136SOL    HW214868   1.572   1.582   6.844 -0.1133  1.6999 -0.9003
 1137SOL     OW14869   2.772   0.989   6.702  0.6006 -0.1010  0.1508
 1137SOL    HW114870   2.843   0.925   6.693 -0.5385 -1.2372 -0.7791
 1137SOL    HW214871   2.736   0.969   6.789  0.5474  0.2766  0.2141
 1138SOL     OW14872   0.374   0.723   1.468 -0.6066  0.0786  0.5464
 1138SOL    HW114873   0.438   0.685   1.528 -0.3167 -0.3186 -0.0268
 1138SOL    HW214874   0.318   0.645   1.470  1.3887 -1.3595 -0.2710
 1139SOL     OW14875   3.553   2.691   5.354 -0.4522  0.0507  0.6690
 1139SOL    HW114876   3.604   2.631   5.408 -0.5221 -0.3178  0.3221
 1139SOL    HW214877   3.499   2.730   5.423  0.5420  3.3100 -0.4074
 1140SOL     OW14878   1.906   0.032  15.147  0.1231  0.3779  0.2851
 1140SOL    HW114879   1.818   0.064  15.166  0.1219  2.8232 -3.8043
 1140SOL    HW214880   1.966   0.087  15.196 -1.0818  1.3943  0.6170
 1141SOL     OW14881   1.408   4.131  10.634 -0.0366  0.0577  0.3996
 1141SOL    HW114882   1.398   4.123  10.539  0.6913  0.0396  0.3268
 1141SOL    HW214883   1.503   4.127  10.641  0.0359 -1.9429 -1.3237
 1142SOL     OW14884   1.252   3.865  14.854 -0.3105  0.4170 -0.0622
 1142SOL    HW114885   1.279   3.837  14.942 -0.4195  2.1579  0.5181
 1142SOL    HW214886   1.262   3.960  14.854 -2.5957  0.6571 -0.0693
 1143SOL     OW14887   1.605   0.418  12.117  0.1718  0.1162 -0.2857
 1143SOL    HW114888   1.701   0.419  12.114  0.1097 -0.7700 -2.8348
 1143SOL    HW214889   1.596   0.343  12.175 -0.8769  0.9949  0.6648
 1144SOL     OW14890   1.568   2.683   2.763  0.1880 -0.3356 -0.2273
 1144SOL    HW114891   1.485   2.665   2.807  0.3436 -1.1035 -0.2568
 1144SOL    HW214892   1.626   2.701   2.837 -0.5677 -1.1724  0.5685
 1145SOL     OW14893   2.984   4.005  10.241  0.1923  0.0335 -0.2118
 1145SOL    HW114894   2.932   3.943  10.189  0.7707 -0.4300 -0.2355
 1145SOL    HW214895   2.921   4.077  10.242  2.0370  1.6508 -0.5820
 1146SOL     OW14896   1.258   3.855  11.101 -0.1477  0.1585 -0.1305
 1146SOL    HW114897   1.208   3.933  11.077 -0.2343  0.4377  0.9402
 1146SOL    HW214898   1.309   3.840  11.022 -0.2061 -0.1854 -0.1063
 1147SOL     OW14899   1.012   2.044  10.184  0.5546  0.0841  0.1372
 1147SOL    HW114900   1.050   1.956  10.184  1.7535  0.6028 -0.7021
 1147SOL    HW214901   1.039   2.057  10.275  0.6833 -2.7359  0.4920
 1148SOL     OW14902   4.382   0.663   7.990 -0.1607 -0.0644 -0.0416
 1148SOL    HW114903   4.450   0.731   7.990  0.5835 -0.7967 -1.0948
 1148SOL    HW214904   4.313   0.713   7.946 -0.1241  0.5611  0.6220
 1149SOL     OW14905   1.375   1.174  11.972  0.0587 -0.1435 -0.3228
 1149SOL    HW114906   1.421   1.098  11.935  0.5699  0.6544 -1.3403
 1149SOL    HW214907   1.365   1.144  12.062 -0.7842  0.9748 -0.0551
 1150SOL     OW14908   4.716   2.779   5.716  0.3523 -0.9655  0.6407
 1150SOL    HW114909   4.698   2.711   5.651  1.6202 -0.8671  0.1845
 1150SOL    HW214910   4.639   2.773   5.773 -0.0471  1.9199  0.4219
 1151SOL     OW14911   2.631   4.720   5.010  0.4305 -0.5795  0.0004
 1151SOL    HW114912   2.579   0.060   5.061  0.1752  2.3638 -3.8788
 1151SOL    HW214913   2.659   0.056   4.940  0.2924  0.2208  0.6129
 1152SOL     OW14914   4.219   4.235   8.806  0.1436  0.4369  0.2755
 1152SOL    HW114915   4.260   4.275   8.729 -3.0515  0.2835 -1.5324
 1152SOL    HW214916   4.134   4.277   8.820 -0.1375  0.4458 -1.3582
 1153SOL     OW14917   1.410   1.529   3.131  0.0890  0.1112  0.2710
 1153SOL    HW114918   1.477   1.574   3.183 -0.5149  0.0597  1.1052
 1153SOL    HW214919   1.423   1.438   3.157  3.0775 -0.2616 -2.6490
 1154SOL     OW14920   4.515   2.836  16.872 -0.2436 -0.6000 -0.5983
 1154SOL    HW114921   4.504   2.834  16.777  0.9357 -1.0288 -0.7285
 1154SOL    HW214922   4.467   2.756  16.893 -1.5375 -0.4916 -3.1350
 1155SOL     OW14923   3.499   1.901  12.633 -0.6732 -0.1399  0.0929
 1155SOL    HW114924   3.566   1.915  12.567 -2.1505  0.5210 -1.2687
 1155SOL    HW214925   3.440   1.973  12.608  0.3200  0.4934 -0.4478
 1156SOL     OW14926   3.535   0.666  17.459  0.1519  0.4701  0.1315
 1156SOL    HW114927   3.514   0.743  17.511  1.7755  0.8453  0.2133
 1156SOL    HW214928   3.605   0.702  17.405 -1.0613  0.5799 -1.3718
 1157SOL     OW14929   0.895   1.635  17.217  0.0467 -0.0023  0.2673
 1157SOL    HW114930   0.920   1.653  17.127 -0.9646 -0.6031 -0.1355
 1157SOL    HW214931   0.931   1.712  17.261  0.1766 -1.2173  2.2949
 1158SOL     OW14932   2.083   4.077  11.019 -0.2702  0.1503  0.0174
 1158SOL    HW114933   2.075   4.009  11.086 -1.4439 -2.0367 -2.3313
 1158SOL    HW214934   2.023   4.045  10.952  0.5507  0.9508 -1.1121
 1159SOL     OW14935   3.116   3.664   8.240  0.8551  0.0098  0.5195
 1159SOL    HW114936   3.204   3.671   8.276  1.3572  1.9563 -1.0754
 1159SOL    HW214937   3.119   3.742   8.184 -2.6447 -1.0472 -1.1481
 1160SOL     OW14938   2.156   1.924  11.616 -0.6534  0.3350 -0.0637
 1160SOL    HW114939   2.249   1.911  11.636 -0.4242  2.8000  0.4064
 1160SOL    HW214940   2.146   1.831  11.593  1.0300  0.3469 -0.8211
 1161SOL     OW14941   3.746   0.495   6.371 -0.6221  0.0153  0.1740
 1161SOL    HW114942   3.747   0.587   6.396 -0.3926 -0.1078  0.6265
 1161SOL    HW214943   3.700   0.501   6.287 -1.9269 -1.5220  0.7800
 1162SOL     OW14944   4.406   1.880   3.611  0.3032 -0.1113  0.3588
 1162SOL    HW114945   4.455   1.962   3.608 -0.1196  0.1028 -0.8498
 1162SOL    HW214946   4.464   1.820   3.562  2.2230  1.1885  1.0509
 1163SOL     OW14947   1.602   0.435   4.026  0.1273  0.5223  0.2199
 1163SOL    HW114948   1.610   0.359   4.084  0.6622  0.1930 -0.2778
 1163SOL    HW214949   1.509   0.444   4.008  0.2007  1.1134  0.1328
 1164SOL     OW14950   1.335   2.197   2.430  0.4684 -0.1115  0.1378
 1164SOL    HW114951   1.291   2.217   2.348  0.3014 -1.4626 -0.0857
 1164SOL    HW214952   1.361   2.106   2.419 -1.4402 -0.4663 -1.2721
 1165SOL     OW14953   0.220   4.082   5.132  0.8382  0.1189  0.2846
 1165SOL    HW114954   0.149   4.144   5.118  1.8638  1.0516 -0.6799
 1165SOL    HW214955   0.288   4.149   5.141  2.1248 -1.4888  2.9345
 1166SOL     OW14956   3.170   2.043   6.245  0.1395  0.0214  0.2516
 1166SOL    HW114957   3.159   2.096   6.166  0.5044 -2.3396 -1.3741
 1166SOL    HW214958   3.169   2.108   6.316 -0.7369 -0.1966  0.4474
 1167SOL     OW14959   2.043   2.072   3.543  0.5116 -0.2374 -0.9471
 1167SOL    HW114960   1.988   2.150   3.547 -0.0504 -0.7277  1.0014
 1167SOL    HW214961   2.128   2.104   3.572  0.8509 -3.4798  1.5658
 1168SOL     OW14962   4.366   3.899  17.463 -0.3073 -0.3287  0.0870
 1168SOL    HW114963   4.302   3.910  17.393 -0.8198 -0.6156  0.5073
 1168SOL    HW214964   4.337   3.959  17.531 -0.7623  0.0979 -0.4905
 1169SOL     OW14965   3.063   4.646   2.298  0.0219 -0.3655  0.2591
 1169SOL    HW114966   3.060   0.005   2.250  1.0878 -2.7420 -3.8653
 1169SOL    HW214967   2.968   4.644   2.310 -0.1123 -0.0600 -0.7566
 1170SOL     OW14968   0.935   3.192   4.744 -0.3729 -0.0449 -0.5491
 1170SOL    HW114969   0.930   3.181   4.839  1.0477 -0.6098 -0.5515
 1170SOL    HW214970   0.844   3.205   4.717  0.4271  0.7978 -2.8285
 1171SOL     OW14971   3.059   1.185   3.565  0.3080  0.1414  0.1598
 1171SOL    HW114972   2.967   1.162   3.554  0.9808 -2.0685 -0.9851
 1171SOL    HW214973   3.087   1.230   3.486 -1.5251 -0.5309 -0.8767
 1172SOL     OW14974   0.724   4.547   2.035  0.0418 -0.5382  0.0272
 1172SOL    HW114975   0.732   4.634   1.994 -1.6415 -1.0214 -1.3114
 1172SOL    HW214976   0.654   4.512   1.980 -1.0329  0.4625  0.7625
 1173SOL     OW14977   1.531   0.506  15.349 -0.1590  0.1450  0.3464
 1173SOL    HW114978   1.451   0.557  15.335 -0.6633 -1.2312 -1.8813
 1173SOL    HW214979   1.590   0.567  15.392 -0.6270  1.4986 -0.9386
 1174SOL     OW14980   2.080   0.029   3.979  0.0075  0.3881  0.1421
 1174SOL    HW114981   2.066   0.113   4.023  0.7457 -0.2570  1.6074
 1174SOL    HW214982   2.165   0.039   3.936  0.4001  1.2196  1.1024
 1175SOL     OW14983   0.561   3.277   5.288 -0.0073  0.2041  0.2666
 1175SOL    HW114984   0.616   3.351   5.313 -1.7242  0.9633  1.8659
 1175SOL    HW214985   0.477   3.317   5.264  0.7395  2.4606  1.3675
 1176SOL     OW14986   3.478   1.951  17.339  0.2427 -0.1269  0.4335
 1176SOL    HW114987   3.550   1.987  17.391  0.7958  0.0562 -0.4664
 1176SOL    HW214988   3.433   1.905  17.411 -0.3939  0.0880  0.1710
 1177SOL     OW14989   0.808   2.485   5.220 -0.0154  0.1337 -1.2014
 1177SOL    HW114990   0.845   2.459   5.135  1.5405 -2.1025  0.1465
 1177SOL    HW214991   0.858   2.429   5.279 -0.8076  0.6966 -0.0059
 1178SOL     OW14992   0.650   1.718   3.862  0.7983 -0.0014 -0.4369
 1178SOL    HW114993   0.720   1.657   3.886 -1.3875 -2.0067  0.7294
 1178SOL    HW214994   0.686   1.740   3.775 -0.5129  3.3845 -0.1413
 1179SOL     OW14995   0.741   3.050  15.331  0.0995 -0.4540 -0.4898
 1179SOL    HW114996   0.652   3.079  15.309  0.2698 -0.3651 -1.0580
 1179SOL    HW214997   0.731   3.056  15.426  3.2848  1.1559 -0.2487
 1180SOL     OW14998   3.926   4.452  13.389  0.3136 -0.3445 -0.1321
 1180SOL    HW114999   4.001   4.504  13.362  0.2647 -0.0708  0.2597
 1180SOL    HW215000   3.893   4.428  13.302 -1.1407 -1.4001  0.7171
 1181SOL     OW15001   0.898   1.754   1.846  0.2249  0.1718 -0.0901
 1181SOL    HW115002   0.983   1.796   1.842  0.5740 -0.3391  2.0485
 1181SOL    HW215003   0.920   1.674   1.799  0.1915  0.1426 -0.0565
 1182SOL     OW15004   4.364   4.481   3.971 -0.0502  0.5670  0.3258
 1182SOL    HW115005   4.313   4.469   3.891  0.8179  2.1539 -0.4703
 1182SOL    HW215006   4.301   4.448   4.034 -1.2018  1.3291 -0.4182
 1183SOL     OW15007   2.031   3.932   1.097 -0.1432 -0.1332 -0.4922
 1183SOL    HW115008   1.973   3.870   1.140 -1.4536  0.5902 -1.2188
 1183SOL    HW215009   2.071   3.980   1.169  0.5650 -0.0457 -0.9419
 1184SOL     OW15010   3.796   0.402   0.795 -0.4616  0.7190 -0.3671
 1184SOL    HW115011   3.882   0.367   0.770 -0.3024  1.6450 -1.1211
 1184SOL    HW215012   3.751   0.324   0.761 -1.0040  0.2941  1.3189
 1185SOL     OW15013   3.954   0.276   0.605  0.1701  0.3347 -0.6835
 1185SOL    HW115014   3.913   0.307   0.524  0.0331 -0.5510 -0.9472
 1185SOL    HW215015   4.041   0.264   0.566  0.6548  3.8643 -0.7102
 1186SOL     OW15016   0.165   0.756  12.973 -0.7291  0.0869  0.2235
 1186SOL    HW115017   0.077   0.792  12.971 -1.8413 -2.7467 -2.3977
 1186SOL    HW215018   0.213   0.837  12.956 -2.5070  0.8859 -0.9404
 1187SOL     OW15019   3.186   0.192  14.529  0.2089  0.1450  0.8408
 1187SOL    HW115020   3.267   0.164  14.571  1.6953  1.3525 -1.2648
 1187SOL    HW215021   3.219   0.280  14.508  0.3647  0.3834  2.0791
 1188SOL     OW15022   3.034   0.092  10.166  0.1979 -0.3011 -0.1687
 1188SOL    HW115023   3.056   0.017  10.220  1.6860  0.4589  0.2658
 1188SOL    HW215024   2.938   0.089  10.175  0.0566 -0.7294 -1.8972
 1189SOL     OW15025   2.331   3.422   9.288  0.5885 -0.4686  0.1711
 1189SOL    HW115026   2.313   3.513   9.310  0.7002 -0.0872 -1.3455
 1189SOL    HW215027   2.351   3.413   9.195  0.4798  1.9327 -0.0611
 1190SOL     OW15028   3.015   0.730   3.815 -0.5442 -0.1530 -0.0034
 1190SOL    HW115029   2.963   0.716   3.895 -0.4488  0.6192  0.1906
 1190SOL    HW215030   2.944   0.774   3.768 -0.8719 -0.9554 -0.2551
 1191SOL     OW15031   3.826   4.013   0.615  0.9800  0.5099 -0.3265
 1191SOL    HW115032   3.761   4.073   0.650  0.6374  0.1898 -0.4041
 1191SOL    HW215033   3.904   4.038   0.665 -0.2131  1.1728  1.1979
 1192SOL     OW15034   4.042   3.087   5.210 -0.3611 -0.1234 -0.5525
 1192SOL    HW115035   3.966   3.144   5.196 -0.6423 -0.4962 -0.5515
 1192SOL    HW215036   4.109   3.149   5.183 -1.2346  0.3706 -1.5619
 1193SOL     OW15037   4.132   2.375   2.883 -0.1184 -0.0033 -0.8529
 1193SOL    HW115038   4.171   2.460   2.866  0.2235  0.1712  0.8228
 1193SOL    HW215039   4.197   2.318   2.840 -1.4879 -0.6772 -2.0532
 1194SOL     OW15040   1.092   3.530   5.753  0.6031 -0.0999 -0.0858
 1194SOL    HW115041   1.149   3.467   5.797  0.4465 -0.6855 -0.7082
 1194SOL    HW215042   1.014   3.475   5.748 -1.1535  2.2540  1.9914
 1195SOL     OW15043   3.794   1.831   7.646 -0.1401  0.0863 -0.0111
 1195SOL    HW115044   3.723   1.836   7.582  0.0595 -0.0953 -0.2469
 1195SOL    HW215045   3.743   1.819   7.726 -0.8671 -1.6297 -0.7164
 1196SOL     OW15046   1.662   0.164  10.712  0.0091  0.0173  0.4533
 1196SOL    HW115047   1.589   0.202  10.663  0.0030  0.6752  0.9741
 1196SOL    HW215048   1.616   0.104  10.771  1.8442 -1.0575  0.8106
 1197SOL     OW15049   1.916   4.628   0.595 -0.6900 -0.0251 -0.4124
 1197SOL    HW115050   1.861   4.555   0.625 -0.7459  0.3086  0.2980
 1197SOL    HW215051   1.877   4.707   0.633 -0.1114  0.0511  0.0354
 1198SOL     OW15052   0.936   4.675   4.092 -0.1116  0.1565  0.0280
 1198SOL    HW115053   0.901   4.683   4.003  2.3846  1.5216 -0.8113
 1198SOL    HW215054   0.882   4.603   4.125  1.1328 -0.7508  0.0879
 1199SOL     OW15055   3.667   3.101   2.908 -0.1956  0.3461  0.3032
 1199SOL    HW115056   3.660   3.006   2.898  0.1347  0.1276  2.0910
 1199SOL    HW215057   3.573   3.118   2.913 -0.6604 -1.8131 -1.2139
 1200SOL     OW15058   1.576   2.876  12.017  0.0670  0.6586  0.1606
 1200SOL    HW115059   1.517   2.950  12.030 -0.3573  0.8486 -2.9819
 1200SOL    HW215060   1.621   2.871  12.102  0.1035  1.6254  0.1949
 1201SOL     OW15061   0.908   3.426   6.980 -0.5361  0.3523 -0.2767
 1201SOL    HW115062   0.917   3.331   6.975 -0.7177  0.3617 -0.7479
 1201SOL    HW215063   0.982   3.464   6.932 -0.8074 -0.7708 -1.5861
 1202SOL     OW15064   4.508   3.508   3.086 -0.3914 -0.8469 -0.3562
 1202SOL    HW115065   4.532   3.463   3.005 -0.1091  1.5528 -1.6154
 1202SOL    HW215066   4.563   3.475   3.157 -0.7255 -1.0574 -0.1953
 1203SOL     OW15067   0.795   1.391   7.322 -0.0739 -0.8662 -0.4250
 1203SOL    HW115068   0.791   1.423   7.232 -0.0306 -0.6524 -0.3508
 1203SOL    HW215069   0.720   1.331   7.322  0.7046 -1.8269 -4.2163
 1204SOL     OW15070   1.133   1.713   2.590 -0.2306 -0.8498  0.0825
 1204SOL    HW115071   1.224   1.707   2.618  0.3797 -2.9497 -2.2768
 1204SOL    HW215072   1.127   1.644   2.523 -4.5999  0.1729 -0.6161
 1205SOL     OW15073   2.615   1.166  11.953 -0.0973  0.7669 -0.2990
 1205SOL    HW115074   2.581   1.217  12.027 -0.2812 -1.1666  0.9687
 1205SOL    HW215075   2.570   1.083  11.969  1.6964 -0.6011 -2.2767
 1206SOL     OW15076   1.776   0.985  16.422 -0.2642  0.2511  0.3479
 1206SOL    HW115077   1.872   0.987  16.427 -0.2157  1.7733 -1.2473
 1206SOL    HW215078   1.762   1.075  16.394 -0.6168  0.2712  0.5974
 1207SOL     OW15079   1.573   0.911  15.955  0.4186 -0.4731  0.0739
 1207SOL    HW115080   1.515   0.979  15.991 -0.7142  0.9828 -4.4748
 1207SOL    HW215081   1.526   0.830  15.975  1.1399 -0.6500  1.0531
 1208SOL     OW15082   2.114   3.807   3.635  0.2523 -0.0369 -0.4980
 1208SOL    HW115083   2.069   3.888   3.659 -0.6417 -0.6868  0.0125
 1208SOL    HW215084   2.089   3.797   3.543 -0.2519  1.6285 -0.5454
 1209SOL     OW15085   3.981   2.714   4.135 -0.6068 -0.1159 -0.6488
 1209SOL    HW115086   3.929   2.708   4.215  1.1880  0.5918  0.5747
 1209SOL    HW215087   4.016   2.803   4.138  1.8644 -1.1388  0.7584
 1210SOL     OW15088   3.727   4.087   4.032  0.1844  0.7541 -0.0735
 1210SOL    HW115089   3.686   4.065   4.115  1.9723 -0.9103  0.3769
 1210SOL    HW215090   3.660   4.055   3.972 -0.3679  0.5634  0.6517
 1211SOL     OW15091   1.456   2.656   0.304  0.1310  0.1662 -0.1740
 1211SOL    HW115092   1.469   2.602   0.226  2.2924 -3.1879  2.4618
 1211SOL    HW215093   1.370   2.696   0.296 -0.1383  0.3691  3.4432
 1212SOL     OW15094   4.423   0.583  14.721  0.1924  0.6478 -0.5130
 1212SOL    HW115095   4.401   0.520  14.789  2.2260  0.7293  0.2057
 1212SOL    HW215096   4.343   0.600  14.670  0.7444  2.6612 -0.7241
 1213SOL     OW15097   0.902   3.718   7.994  0.0908 -0.6940  0.7964
 1213SOL    HW115098   0.872   3.805   7.968  0.3930 -1.3064 -1.6545
 1213SOL    HW215099   0.816   3.683   8.018 -0.8534  1.4828  0.5379
 1214SOL     OW15100   1.231   1.000   1.824  0.1388 -0.1049 -0.0040
 1214SOL    HW115101   1.143   1.008   1.860 -0.5814 -0.8432 -1.6015
 1214SOL    HW215102   1.259   0.927   1.879 -0.9859  0.8270  1.8316
 1215SOL     OW15103   4.329   2.616   4.186 -0.8502  0.3751 -0.3277
 1215SOL    HW115104   4.407   2.629   4.239 -1.2985  0.2935  0.3515
 1215SOL    HW215105   4.263   2.593   4.251  0.8809  1.9228  1.9770
 1216SOL     OW15106   2.683   1.579   1.369 -0.0373  0.2775  0.1446
 1216SOL    HW115107   2.695   1.614   1.281  1.1170 -2.2326 -0.7017
 1216SOL    HW215108   2.731   1.626   1.436  2.7377 -1.4025 -0.6723
 1217SOL     OW15109   3.596   1.011  15.394 -0.8763 -0.5214  0.3857
 1217SOL    HW115110   3.642   0.944  15.444  0.1688 -0.1023 -0.0007
 1217SOL    HW215111   3.628   1.003  15.304 -2.5493 -3.0531  0.0109
 1218SOL     OW15112   0.597   0.723   1.644 -0.2048  0.0747  0.0248
 1218SOL    HW115113   0.674   0.769   1.676  0.1268 -0.0071 -0.6509
 1218SOL    HW215114   0.637   0.653   1.592 -1.7829 -0.0733 -1.0074
 1219SOL     OW15115   3.843   3.462   4.036 -0.0437 -0.3642 -0.2294
 1219SOL    HW115116   3.910   3.496   4.096  2.5291 -2.3166 -2.0424
 1219SOL    HW215117   3.843   3.367   4.045  2.0089 -0.3458 -0.0775
 1220SOL     OW15118   3.649   3.664   8.577  0.4057  0.0729  0.1160
 1220SOL    HW115119   3.678   3.704   8.658 -0.9245 -1.9978  1.6137
 1220SOL    HW215120   3.711   3.707   8.518 -0.9581  0.5398 -0.9845
 1221SOL     OW15121   0.230   3.619   1.363 -0.0833  0.2529  0.3784
 1221SOL    HW115122   0.295   3.597   1.297  1.7065  3.0867  1.1864
 1221SOL    HW215123   0.269   3.705   1.381 -1.6987  1.2773 -1.1371
 1222SOL     OW15124   0.656   1.361  17.607 -0.1024  0.3213 -0.3280
 1222SOL    HW115125   0.715   1.379  17.533 -0.6649 -0.4925 -0.9715
 1222SOL    HW215126   0.728   1.337  17.664 -0.9249 -1.2741  0.0292
 1223SOL     OW15127   1.026   2.529  10.449  0.2279  0.5636  0.8052
 1223SOL    HW115128   1.049   2.485  10.531  0.3512 -1.4723 -0.3052
 1223SOL    HW215129   1.067   2.614  10.465 -1.5909  1.7887 -1.0892
 1224SOL     OW15130   2.652   4.314   3.448  0.0063 -0.4314  0.1691
 1224SOL    HW115131   2.647   4.338   3.540 -1.6302 -1.3458  0.3300
 1224SOL    HW215132   2.740   4.345   3.431  0.1649 -1.4258 -0.8571
 1225SOL     OW15133   4.718   3.310   1.403 -0.0078 -0.2746  0.2933
 1225SOL    HW115134   4.623   3.321   1.395 -0.1419 -1.1536  0.6748
 1225SOL    HW215135   0.013   3.393   1.448 -0.8049  0.8570 -1.4660
 1226SOL     OW15136   0.732   1.737  13.735  0.1302  0.0945 -0.0634
 1226SOL    HW115137   0.777   1.680  13.797  1.0266 -0.6261 -1.3548
 1226SOL    HW215138   0.638   1.737  13.753 -0.1158  1.0348 -1.2902
 1227SOL     OW15139   4.507   3.930   1.110  0.1315 -0.0551  0.1829
 1227SOL    HW115140   4.483   3.996   1.046  2.5033 -0.5789 -1.2783
 1227SOL    HW215141   4.431   3.872   1.112 -0.3805  0.6194  0.3513
 1228SOL     OW15142   1.228   1.077  10.369 -0.5060  0.1832 -0.2578
 1228SOL    HW115143   1.309   1.040  10.333 -0.3855  0.5127 -0.3354
 1228SOL    HW215144   1.237   1.046  10.459  1.0307 -2.1488 -1.2242
 1229SOL     OW15145   3.395   1.909  15.015 -0.1292  0.2788 -0.1597
 1229SOL    HW115146   3.418   2.002  15.018  0.5726  0.1269 -0.8535
 1229SOL    HW215147   3.469   1.876  14.964 -1.9509 -2.5276 -0.9339
 1230SOL     OW15148   0.542   2.160   9.578  0.9483  0.2637  0.0380
 1230SOL    HW115149   0.487   2.232   9.610 -0.6902 -0.4629 -1.1394
 1230SOL    HW215150   0.518   2.096   9.645  0.3205 -0.7881 -1.2029
 1231SOL     OW15151   0.885   0.390   2.363  0.0126 -0.2357  0.1244
 1231SOL    HW115152   0.909   0.299   2.341 -0.5271 -0.2022 -0.6342
 1231SOL    HW215153   0.899   0.427   2.276 -0.1017  0.7017  0.5087
 1232SOL     OW15154   3.714   4.369   9.581 -0.0254 -0.4847  0.5954
 1232SOL    HW115155   3.791   4.355   9.637  0.6138 -2.8716 -0.8904
 1232SOL    HW215156   3.687   4.455   9.612 -1.2566 -0.1622 -1.3600
 1233SOL     OW15157   1.342   3.352  13.084  0.0769  0.4797 -0.2772
 1233SOL    HW115158   1.394   3.295  13.027  2.5102  0.6200  1.8013
 1233SOL    HW215159   1.380   3.435  13.056  0.4155 -0.1241 -1.5781
 1234SOL     OW15160   0.802   1.142   5.149 -0.4520 -0.6478  0.3279
 1234SOL    HW115161   0.891   1.116   5.127 -0.3399 -0.4099  0.4993
 1234SOL    HW215162   0.791   1.112   5.239  0.5726 -0.0103  0.6540
 1235SOL     OW15163   4.559   0.736   6.560  0.5286 -0.0176  0.3757
 1235SOL    HW115164   4.588   0.714   6.471 -0.1542  2.4604 -0.4606
 1235SOL    HW215165   4.635   0.793   6.576 -0.5217  0.8759  2.2176
 1236SOL     OW15166   2.702   3.138   8.757 -0.8017 -0.4074  0.1183
 1236SOL    HW115167   2.737   3.124   8.669  0.0698 -2.7017  0.8226
 1236SOL    HW215168   2.768   3.090   8.807  1.6816  0.9451 -1.8801
 1237SOL     OW15169   1.557   4.686   7.313  0.5187  0.4495  0.2326
 1237SOL    HW115170   1.570   4.599   7.350 -0.2475  1.1917  2.2788
 1237SOL    HW215171   1.465   4.704   7.331  0.1348 -0.6041 -0.6819
 1238SOL     OW15172   2.237   4.328  11.453 -0.1081 -0.1591  0.2125
 1238SOL    HW115173   2.295   4.334  11.378 -0.3152 -0.8463 -0.0087
 1238SOL    HW215174   2.153   4.337  11.410  0.2450 -0.6495 -0.5835
 1239SOL     OW15175   2.057   1.273   4.636  0.2238 -0.8099 -0.1756
 1239SOL    HW115176   2.128   1.284   4.699  0.9273 -1.2547 -0.8895
 1239SOL    HW215177   2.056   1.351   4.581 -2.4368 -0.5815  0.2047
 1240SOL     OW15178   4.609   0.822   0.711 -0.5764  0.2618  0.0320
 1240SOL    HW115179   4.607   0.891   0.778  1.0081  1.2243 -0.9152
 1240SOL    HW215180   4.605   0.736   0.753 -1.9050  0.3770  0.1438
 1241SOL     OW15181   0.388   0.311   0.822 -0.3353 -0.7433 -0.4455
 1241SOL    HW115182   0.311   0.259   0.799  0.4030 -0.6668 -3.1089
 1241SOL    HW215183   0.432   0.253   0.884  0.1404  0.2704  0.1626
 1242SOL     OW15184   1.053   3.019   2.391 -0.3450  0.5833 -0.5777
 1242SOL    HW115185   1.130   2.984   2.346  3.1254  0.9498  5.0067
 1242SOL    HW215186   1.077   3.112   2.395 -0.0559  0.5200 -0.8491
 1243SOL     OW15187   0.264   0.490  13.003 -0.3266  0.2085  0.2220
 1243SOL    HW115188   0.197   0.459  13.064  0.5753  0.0713  1.1518
 1243SOL    HW215189   0.251   0.585  13.007 -2.8755 -0.3023  3.6766
 1244SOL     OW15190   0.180   4.386   2.381 -0.7034  0.1496 -0.3133
 1244SOL    HW115191   0.088   4.397   2.359 -0.4174  2.9586 -0.0664
 1244SOL    HW215192   0.197   4.291   2.377 -0.7986  0.2035 -1.9066
 1245SOL     OW15193   4.677   2.843   7.839  0.3277  0.0936 -0.0977
 1245SOL    HW115194   4.664   2.898   7.762 -0.6728  1.8203  1.3104
 1245SOL    HW215195   4.611   2.865   7.905 -0.8212  0.0338 -1.2355
 1246SOL     OW15196   2.766   4.300   6.474 -0.1111 -0.1952  0.9060
 1246SOL    HW115197   2.801   4.315   6.562 -1.3586  3.0266  0.8586
 1246SOL    HW215198   2.817   4.354   6.413 -1.9520  2.9292  2.1684
 1247SOL     OW15199   4.160   3.083   4.021  0.1820  0.0494 -0.6238
 1247SOL    HW115200   4.177   3.175   4.038  0.3969 -0.1847  0.4209
 1247SOL    HW215201   4.248   3.049   4.038 -0.9041 -2.0704  0.7864
 1248SOL     OW15202   1.244   1.691   0.431 -0.3730 -0.3672  0.2938
 1248SOL    HW115203   1.272   1.768   0.482  0.0257 -1.2079  1.3308
 1248SOL    HW215204   1.294   1.622   0.475  0.4232  0.2727  0.3924
 1249SOL     OW15205   4.396   3.566   7.162  0.3980  0.0737 -0.5648
 1249SOL    HW115206   4.445   3.528   7.090  2.2238  1.9370 -0.3117
 1249SOL    HW215207   4.434   3.510   7.231 -0.4192  2.0772  1.5076
 1250SOL     OW15208   3.673   0.729   2.152  0.5525  0.1034 -0.0743
 1250SOL    HW115209   3.699   0.776   2.073 -1.0855  2.5985  0.8656
 1250SOL    HW215210   3.713   0.644   2.134  1.1465  0.4345 -0.3259
 1251SOL     OW15211   0.128   1.501   9.666  0.5222 -0.1450 -0.3322
 1251SOL    HW115212   0.040   1.538   9.664 -0.2669 -2.0269 -0.0719
 1251SOL    HW215213   0.149   1.494   9.573  1.9866 -0.2013 -0.0011
 1252SOL     OW15214   1.387   3.287   5.591  0.5456 -0.0816 -1.2159
 1252SOL    HW115215   1.324   3.345   5.550  0.7274 -0.2719 -1.7675
 1252SOL    HW215216   1.341   3.206   5.567 -0.8662  0.3322  0.1300
 1253SOL     OW15217   0.656   1.615   1.656 -0.3284  0.5211 -0.9234
 1253SOL    HW115218   0.655   1.706   1.623 -0.5956  0.7394 -0.3151
 1253SOL    HW215219   0.729   1.579   1.606 -1.1879 -1.7453 -0.5039
 1254SOL     OW15220   1.837   2.808  13.660  0.1946  0.1629  0.0033
 1254SOL    HW115221   1.743   2.794  13.666  0.5877 -1.6030  1.9813
 1254SOL    HW215222   1.849   2.826  13.566 -1.2163  0.9827 -0.0125
 1255SOL     OW15223   1.270   4.465   7.901  0.1529 -0.1460  0.0026
 1255SOL    HW115224   1.269   4.550   7.944 -2.2674  0.6500 -1.6514
 1255SOL    HW215225   1.363   4.443   7.908  0.1515  0.6083  2.6126
 1256SOL     OW15226   2.866   1.834   4.009  0.0731 -0.3556 -0.3466
 1256SOL    HW115227   2.916   1.769   3.959  0.9236  0.1418 -0.1329
 1256SOL    HW215228   2.806   1.882   3.952 -1.6222 -0.7727  1.0924
 1257SOL     OW15229   0.658   3.022  14.109 -0.1621 -0.4862  0.1301
 1257SOL    HW115230   0.657   3.031  14.205 -0.0943 -1.6256  0.2349
 1257SOL    HW215231   0.568   3.036  14.081 -0.0382  1.0846  0.5158
 1258SOL     OW15232   2.564   2.163   2.723  0.1184  0.1827 -0.6926
 1258SOL    HW115233   2.525   2.232   2.776 -1.7128 -1.4510  0.0945
 1258SOL    HW215234   2.517   2.160   2.640 -3.5589  1.3527  1.3909
 1259SOL     OW15235   1.134   4.173   5.040 -0.0787  0.6758  0.1055
 1259SOL    HW115236   1.217   4.131   5.060 -0.2323  0.2121 -0.2113
 1259SOL    HW215237   1.084   4.132   5.111 -1.3026 -3.3791 -3.0694
 1260SOL     OW15238   3.296   1.270   9.683 -0.4068 -0.1683 -0.1975
 1260SOL    HW115239   3.374   1.321   9.705  0.1004 -0.9291 -0.2077
 1260SOL    HW215240   3.311   1.200   9.747  1.2442  0.5584  0.2326
 1261SOL     OW15241   0.154   4.212  12.037  0.1396  0.2924  0.5521
 1261SOL    HW115242   0.139   4.276  11.968  1.3696  0.9218  0.8809
 1261SOL    HW215243   0.203   4.257  12.106 -0.1620  0.6225  0.5485
 1262SOL     OW15244   2.373   3.546   7.406 -0.1981 -0.1046 -0.0008
 1262SOL    HW115245   2.463   3.529   7.432 -0.1312  0.1555 -0.0605
 1262SOL    HW215246   2.331   3.559   7.491  0.0481 -1.3587  0.3075
 1263SOL     OW15247   3.413   4.632   7.176 -0.4295 -0.3164  0.0832
 1263SOL    HW115248   3.340   4.679   7.216 -0.2219  0.1357 -0.0702
 1263SOL    HW215249   3.481   4.642   7.242 -0.3308  0.9607 -0.2073
 1264SOL     OW15250   4.559   1.921   6.940  0.2223  0.1713  0.1207
 1264SOL    HW115251   4.645   1.955   6.964  1.2097 -2.1154 -0.1175
 1264SOL    HW215252   4.560   1.842   6.995 -0.5810  0.3481  0.3855
 1265SOL     OW15253   0.268   0.416   2.451 -0.2096  0.5339 -0.5928
 1265SOL    HW115254   0.258   0.510   2.460  1.5131  0.3882  2.9702
 1265SOL    HW215255   0.357   0.409   2.416 -0.3180  0.2830 -0.8178
 1266SOL     OW15256   1.034   0.410   5.026 -0.6081 -0.0390 -0.2275
 1266SOL    HW115257   1.017   0.503   5.040  1.6158  0.3288  0.0151
 1266SOL    HW215258   0.978   0.393   4.951 -1.6518 -0.9779  0.7672
 1267SOL     OW15259   3.165   3.240   8.196 -0.5833 -0.3688  0.0848
 1267SOL    HW115260   3.236   3.252   8.258 -0.3196  0.6136 -0.3986
 1267SOL    HW215261   3.090   3.291   8.228  0.1242  0.9913 -0.4178
 1268SOL     OW15262   0.504   3.581   6.245  0.6351 -0.0434 -0.2613
 1268SOL    HW115263   0.419   3.625   6.253  0.7864 -0.3939  3.2988
 1268SOL    HW215264   0.489   3.489   6.266  0.5663 -0.5106 -2.3493
 1269SOL     OW15265   1.126   3.673   1.153  0.0725  0.1835 -0.3393
 1269SOL    HW115266   1.221   3.663   1.143 -0.0958 -2.3515  0.7079
 1269SOL    HW215267   1.114   3.759   1.111  1.8223  0.7598  0.3277
 1270SOL     OW15268   0.932   3.273   6.621 -0.3920  0.3764 -0.3746
 1270SOL    HW115269   0.945   3.178   6.621  2.8587  0.8431 -1.0609
 1270SOL    HW215270   0.866   3.286   6.552  0.4040  0.7273 -1.0640
 1271SOL     OW15271   1.694   3.350   2.787  0.1468  0.3988 -0.1234
 1271SOL    HW115272   1.637   3.414   2.745 -1.2882 -1.0676 -0.4097
 1271SOL    HW215273   1.767   3.406   2.813 -0.5239  0.3139  1.9550
 1272SOL     OW15274   3.058   1.347   2.295 -0.3225 -0.0806 -0.2087
 1272SOL    HW115275   2.977   1.341   2.246 -0.3199 -1.9433  0.0048
 1272SOL    HW215276   3.033   1.332   2.386  1.0616  0.8581  0.3414
 1273SOL     OW15277   2.262   3.229   8.735 -0.6925 -0.1514 -0.0077
 1273SOL    HW115278   2.215   3.150   8.709  1.0775 -1.2082  0.0176
 1273SOL    HW215279   2.194   3.295   8.721 -0.9336 -0.7415 -1.5987
 1274SOL     OW15280   0.603   4.526   8.194  0.1882 -0.0803 -0.1447
 1274SOL    HW115281   0.534   4.592   8.191  0.9562  0.7306  0.0058
 1274SOL    HW215282   0.661   4.565   8.259 -0.2816 -1.4473  1.0931
 1275SOL     OW15283   2.648   3.527   7.482  0.1216  0.9196 -0.4005
 1275SOL    HW115284   2.687   3.611   7.458 -4.1378  2.2375 -2.6322
 1275SOL    HW215285   2.722   3.478   7.519  0.2597  1.8542  0.5767
 1276SOL     OW15286   4.642   2.020   4.151  0.1878 -0.5208  0.2751
 1276SOL    HW115287   4.651   1.956   4.080  1.3046  2.0312 -1.8755
 1276SOL    HW215288   4.656   2.097   4.096  0.2636 -1.8386 -1.5667
 1277SOL     OW15289   4.669   2.893   3.558 -0.0349 -0.4572  0.4238
 1277SOL    HW115290   4.670   2.987   3.573 -0.8300 -0.3800  0.0185
 1277SOL    HW215291   0.034   2.866   3.583  1.3279  2.2715 -1.4494
 1278SOL     OW15292   1.018   4.192  15.084 -0.6138 -0.3285 -0.3138
 1278SOL    HW115293   1.019   4.250  15.160 -1.2937 -0.7162 -0.0093
 1278SOL    HW215294   1.002   4.253  15.012 -0.2167  1.7574  1.3926
 1279SOL     OW15295   0.956   4.195   8.409 -0.3501 -0.3074  0.2367
 1279SOL    HW115296   0.898   4.140   8.356 -0.8583  1.5333 -1.1025
 1279SOL    HW215297   0.965   4.271   8.351 -0.8544 -1.5320 -1.4642
 1280SOL     OW15298   1.152   2.296   4.663 -0.5600  0.0081  0.2033
 1280SOL    HW115299   1.085   2.322   4.599 -0.7396  2.8090  1.5336
 1280SOL    HW215300   1.223   2.353   4.634  0.0722 -0.7850  0.2123
 1281SOL     OW15301   3.658   0.971   3.892  0.5194 -0.3631 -0.8731
 1281SOL    HW115302   3.642   0.961   3.798 -2.9729 -0.3137 -0.2559
 1281SOL    HW215303   3.659   0.877   3.912 -0.4542 -0.0055  0.7970
 1282SOL     OW15304   4.349   2.150   3.887 -0.3043 -0.3446 -0.3571
 1282SOL    HW115305   4.283   2.219   3.872 -1.2020 -1.0795  0.2388
 1282SOL    HW215306   4.413   2.183   3.950  1.7421 -3.1525 -0.9634
 1283SOL     OW15307   3.227   0.627  16.052  0.1092  0.3673 -1.0075
 1283SOL    HW115308   3.136   0.637  16.079  0.5291  0.4282  0.4071
 1283SOL    HW215309   3.215   0.620  15.958  0.3796  0.4949 -1.0505
 1284SOL     OW15310   0.181   1.125   2.674  0.1516 -0.2131 -0.1083
 1284SOL    HW115311   0.140   1.197   2.626  2.3899  0.5617 -0.8693
 1284SOL    HW215312   0.272   1.128   2.643  0.5834 -3.7764  0.7466
 1285SOL     OW15313   4.521   2.335   0.679  0.7123 -0.1170  0.7669
 1285SOL    HW115314   4.473   2.417   0.691 -1.7714 -1.6197  1.0573
 1285SOL    HW215315   4.590   2.341   0.746 -0.8406  1.9512  2.1867
 1286SOL     OW15316   1.163   3.801   8.867 -0.3747  0.1972  0.2363
 1286SOL    HW115317   1.138   3.752   8.945 -2.2582 -0.9318 -1.0810
 1286SOL    HW215318   1.115   3.883   8.879 -0.7246 -0.1122  0.9428
 1287SOL     OW15319   1.810   0.996   3.181  0.0127  0.3196 -0.3196
 1287SOL    HW115320   1.765   1.079   3.166 -0.3932  0.1362 -0.1285
 1287SOL    HW215321   1.769   0.979   3.266  2.7684 -0.2105  0.9115
 1288SOL     OW15322   0.415   0.004   7.528 -0.0780  0.7142 -0.1518
 1288SOL    HW115323   0.344   0.024   7.589 -0.7456  0.6350 -0.8961
 1288SOL    HW215324   0.429   4.634   7.543  1.9660  0.9421 -0.6393
 1289SOL     OW15325   1.516   4.148  10.261  0.0556  0.5072 -0.3673
 1289SOL    HW115326   1.427   4.128  10.291  0.7209  2.4115  2.9426
 1289SOL    HW215327   1.575   4.081  10.296 -0.8799  0.0690  0.3974
 1290SOL     OW15328   3.390   3.133   0.106 -0.3428 -0.2210  0.4315
 1290SOL    HW115329   3.369   3.076   0.180 -0.3597 -0.2332  0.4173
 1290SOL    HW215330   3.436   3.204   0.151 -0.6385 -0.3389  0.9222
 1291SOL     OW15331   4.590   4.247   6.475 -0.1126 -0.2650  0.6112
 1291SOL    HW115332   4.657   4.292   6.423 -1.6694  2.7006  1.2159
 1291SOL    HW215333   4.581   4.163   6.430  0.8634  0.1369 -0.3503
 1292SOL     OW15334   3.950   0.819  10.248 -0.0622 -0.5046  0.2803
 1292SOL    HW115335   3.880   0.799  10.310  0.6649  1.9942  1.8992
 1292SOL    HW215336   4.030   0.810  10.300 -1.0772  0.5014  1.9894
 1293SOL     OW15337   0.525   1.486   2.794 -0.0529  0.6373  0.6822
 1293SOL    HW115338   0.443   1.533   2.807 -1.2545 -1.3595  0.2100
 1293SOL    HW215339   0.513   1.447   2.708 -1.3140  0.2589  1.0263
 1294SOL     OW15340   2.956   1.458   4.400 -0.0675 -0.5607  0.5308
 1294SOL    HW115341   3.024   1.523   4.384 -2.2761  1.1587 -1.9880
 1294SOL    HW215342   3.011   1.389   4.437 -1.0994 -1.3508  0.5905
 1295SOL     OW15343   2.880   3.473   7.635 -0.2728 -0.1360  0.0674
 1295SOL    HW115344   2.880   3.420   7.715  1.3158 -1.4266 -0.7810
 1295SOL    HW215345   2.973   3.495   7.641 -0.2629 -0.2013  0.1523
 1296SOL     OW15346   2.836   0.657   8.042 -0.3869 -0.3279  0.2192
 1296SOL    HW115347   2.929   0.637   8.043  0.0161  1.5932 -1.4463
 1296SOL    HW215348   2.838   0.746   8.076  0.0303  0.4850 -1.9976
 1297SOL     OW15349   4.379   3.226   5.564 -0.5860 -0.0869 -0.6918
 1297SOL    HW115350   4.316   3.298   5.556 -0.9872 -0.4898 -1.1344
 1297SOL    HW215351   4.460   3.266   5.531 -1.3518  1.9914 -0.0631
 1298SOL     OW15352   4.667   4.393   4.529 -0.4891 -0.7998  0.1183
 1298SOL    HW115353   4.573   4.401   4.513 -0.3281  0.3964 -0.2546
 1298SOL    HW215354   4.675   4.380   4.623  0.2030 -0.5239  0.0982
 1299SOL     OW15355   1.026   1.281   7.085  0.4491 -0.0181  0.2009
 1299SOL    HW115356   0.999   1.372   7.076  0.5890 -0.0111 -0.1603
 1299SOL    HW215357   0.940   1.238   7.090 -0.2155  1.4755  1.8015
 1300SOL     OW15358   0.990   2.766   5.576  0.2448  0.0339  0.1362
 1300SOL    HW115359   0.954   2.679   5.561 -1.2391  1.0157 -2.0419
 1300SOL    HW215360   0.915   2.825   5.574 -0.9811 -1.5883 -1.5957
 1301SOL     OW15361   0.004   0.783   4.923  0.3341 -0.0298  0.2520
 1301SOL    HW115362   4.675   0.833   4.986  0.7363  0.1225  0.4629
 1301SOL    HW215363   4.677   0.701   4.915  0.4045 -0.2372  1.9000
 1302SOL     OW15364   0.203   3.278   7.591 -0.3436  0.2490  0.1831
 1302SOL    HW115365   0.240   3.366   7.597 -0.4198  0.3081 -0.2438
 1302SOL    HW215366   0.138   3.295   7.660 -1.8468 -1.9741 -0.6745
 1303SOL     OW15367   2.738   1.498   6.635  0.3595  0.2556  0.3046
 1303SOL    HW115368   2.778   1.567   6.687  1.1299 -1.0278  1.4271
 1303SOL    HW215369   2.696   1.553   6.569  0.5407 -1.0673 -0.9134
 1304SOL     OW15370   3.968   2.580   6.853  0.0562 -0.8719 -0.5368
 1304SOL    HW115371   3.948   2.606   6.763 -0.4410 -2.5129 -0.8928
 1304SOL    HW215372   3.894   2.597   6.911 -0.6973 -0.3809 -1.6390
 1305SOL     OW15373   0.244   3.115   3.796 -0.0118  0.3045 -0.1109
 1305SOL    HW115374   0.240   3.038   3.739 -0.8912  0.2308  0.0569
 1305SOL    HW215375   0.294   3.172   3.737  1.5806 -1.6949 -0.7013
 1306SOL     OW15376   0.446   4.534   4.450  0.1095  0.1604 -0.6714
 1306SOL    HW115377   0.353   4.512   4.454  0.7957 -2.7049 -0.7515
 1306SOL    HW215378   0.480   4.452   4.416  0.5387 -0.4215  1.1610
 1307SOL     OW15379   4.386   1.984  16.175  0.1254  0.0644  0.0504
 1307SOL    HW115380   4.403   1.893  16.149 -0.5284 -0.2911  0.8767
 1307SOL    HW215381   4.452   1.986  16.245 -1.4827  0.7280  1.5445
 1308SOL     OW15382   0.232   0.281   3.699  0.5629  0.5312  0.1138
 1308SOL    HW115383   0.209   0.191   3.721  2.7484  0.0949  0.6016
 1308SOL    HW215384   0.181   0.319   3.771  0.0557  1.0219 -0.4936
 1309SOL     OW15385   2.956   4.096   4.927 -0.8305  0.1115  0.4307
 1309SOL    HW115386   2.981   4.022   4.982 -2.5975  0.5744  1.8681
 1309SOL    HW215387   2.871   4.072   4.891 -0.3949 -2.4138  1.1418
 1310SOL     OW15388   0.035   3.308  16.889 -0.3255  0.0808  0.4692
 1310SOL    HW115389   0.100   3.357  16.838 -0.3060 -0.8515 -0.4079
 1310SOL    HW215390   4.711   3.381  16.928 -3.1273 -2.5272  1.9320
 1311SOL     OW15391   1.761   3.659   1.716 -0.1400  0.5531 -0.0492
 1311SOL    HW115392   1.752   3.741   1.764  1.9676  1.3512 -1.0110
 1311SOL    HW215393   1.677   3.621   1.741  0.3289 -0.4166  0.0292
 1312SOL     OW15394   3.369   1.150   1.605 -0.3223 -0.0557  0.3637
 1312SOL    HW115395   3.414   1.153   1.689 -1.1560  3.6230  0.6710
 1312SOL    HW215396   3.442   1.169   1.547 -0.0377 -0.4095  0.6116
 1313SOL     OW15397   3.239   4.133   7.869 -0.3680 -0.2605 -0.2617
 1313SOL    HW115398   3.285   4.054   7.840  0.2520  0.4566 -1.2276
 1313SOL    HW215399   3.265   4.198   7.804  0.9354  0.0090  0.5291
 1314SOL     OW15400   2.258   1.047   2.913 -0.3658 -0.6735  0.1933
 1314SOL    HW115401   2.228   1.026   2.825  0.5852 -0.9547 -0.0618
 1314SOL    HW215402   2.182   1.094   2.946  1.5887  2.9046 -0.3629
 1315SOL     OW15403   3.151   2.154   8.225 -0.3380  0.4472 -0.3583
 1315SOL    HW115404   3.060   2.182   8.220 -0.9710 -1.2288  2.0706
 1315SOL    HW215405   3.195   2.235   8.247  0.0102  0.2035 -0.1652
 1316SOL     OW15406   1.149   2.789   3.111  0.4186  0.3273 -0.0105
 1316SOL    HW115407   1.158   2.705   3.157  2.1874  0.4898 -0.0919
 1316SOL    HW215408   1.136   2.753   3.023  0.2452  1.2244 -0.3481
 1317SOL     OW15409   0.259   2.324   7.222  0.1147 -0.5953 -0.3361
 1317SOL    HW115410   0.200   2.327   7.147 -0.9432 -0.7169  0.4869
 1317SOL    HW215411   0.243   2.234   7.249 -0.4663 -0.2717  0.4225
 1318SOL     OW15412   1.564   3.602  12.610  0.4124 -0.2480  0.0476
 1318SOL    HW115413   1.651   3.611  12.573  0.3588 -3.5984 -0.8542
 1318SOL    HW215414   1.577   3.652  12.691  0.6894  0.0116 -0.1582
 1319SOL     OW15415   2.181   2.031   9.901  0.1263  0.0122 -0.2902
 1319SOL    HW115416   2.123   1.966   9.940  2.4741 -2.6250 -1.1566
 1319SOL    HW215417   2.218   1.981   9.829  0.6389 -0.2105  0.1287
 1320SOL     OW15418   3.376   0.310   6.644  0.2418  0.0271  0.2890
 1320SOL    HW115419   3.333   0.225   6.629 -1.0091  1.0217 -1.7566
 1320SOL    HW215420   3.408   0.333   6.557  1.3021  0.5235  0.8232
 1321SOL     OW15421   3.330   3.983   1.030  0.5012 -0.1813 -0.2236
 1321SOL    HW115422   3.389   3.912   1.056 -0.4512 -1.5628 -1.8809
 1321SOL    HW215423   3.396   4.050   1.013  0.8820 -0.5966 -0.3806
 1322SOL     OW15424   3.845   2.005   5.002 -0.1082  0.5919  0.3700
 1322SOL    HW115425   3.910   2.034   4.938 -1.1118  1.5333 -0.2361
 1322SOL    HW215426   3.839   2.086   5.053  2.3913  1.7081 -1.1095
 1323SOL     OW15427   3.809   2.252   5.231  0.1308  0.2374  0.1244
 1323SOL    HW115428   3.852   2.275   5.150 -0.1455  1.6247  0.3791
 1323SOL    HW215429   3.860   2.300   5.296  0.1388  0.9563 -0.4213
 1324SOL     OW15430   1.749   2.120   5.187 -0.1946 -0.0102  0.3371
 1324SOL    HW115431   1.691   2.158   5.121 -2.5443 -1.2238  1.7330
 1324SOL    HW215432   1.743   2.180   5.261  2.1062 -0.0185  0.5377
 1325SOL     OW15433   0.090   1.759  12.296  0.0518 -0.2240  0.1196
 1325SOL    HW115434   0.078   1.850  12.269  2.6530  0.3369  0.8989
 1325SOL    HW215435   0.160   1.741  12.234  1.2858  2.5276  0.7091
 1326SOL     OW15436   3.485   2.800  15.262 -0.4160  0.4580 -0.2832
 1326SOL    HW115437   3.534   2.881  15.278 -1.5534  0.5561  2.6152
 1326SOL    HW215438   3.399   2.835  15.240 -0.9978 -0.8836 -0.1677
 1327SOL     OW15439   1.482   1.658   4.053 -0.6176  0.6258  0.0765
 1327SOL    HW115440   1.527   1.614   4.125 -2.1378 -1.4112 -0.2388
 1327SOL    HW215441   1.413   1.599   4.024  1.6584 -0.8987 -2.2528
 1328SOL     OW15442   0.341   3.283   3.579  0.0139  0.2731  0.3359
 1328SOL    HW115443   0.302   3.354   3.527  0.9230  1.3505  1.1242
 1328SOL    HW215444   0.391   3.339   3.638 -1.0771  2.4831 -0.8531
 1329SOL     OW15445   1.762   3.856  10.527 -0.0764 -0.3735  0.1376
 1329SOL    HW115446   1.673   3.865  10.561  0.2764  0.7077  0.7750
 1329SOL    HW215447   1.798   3.784  10.578  2.9482  0.6602 -0.5292
 1330SOL     OW15448   0.804   3.172   7.070 -0.6207 -0.3160 -0.6213
 1330SOL    HW115449   0.709   3.172   7.075 -0.6011 -1.5673 -0.0672
 1330SOL    HW215450   0.823   3.104   7.135  0.5481  0.6117  0.0017
 1331SOL     OW15451   3.607   0.028   9.316 -0.1900 -0.1796  0.3610
 1331SOL    HW115452   3.603   0.050   9.222 -2.1231  1.1476  0.7444
 1331SOL    HW215453   3.541   4.682   9.321 -0.5928  0.2316  0.7566
 1332SOL     OW15454   0.790   2.642   6.364 -0.0637  0.7108  0.2542
 1332SOL    HW115455   0.785   2.626   6.459 -0.6438 -0.7490 -0.0191
 1332SOL    HW215456   0.860   2.706   6.367  1.0058 -0.4762  0.4119
 1333SOL     OW15457   4.423   0.484  13.389  0.5755  0.5291  0.4841
 1333SOL    HW115458   4.335   0.450  13.372  0.8185 -0.9649  2.1726
 1333SOL    HW215459   4.425   0.489  13.484 -0.2390 -0.7450  0.5753
 1334SOL     OW15460   3.906   4.241  16.292  0.1437  0.2864  0.0129
 1334SOL    HW115461   3.878   4.301  16.224  0.7068 -0.4652 -0.8873
 1334SOL    HW215462   3.932   4.166  16.239  1.0980  0.0315  0.8282
 1335SOL     OW15463   1.412   3.219   1.566  0.0124  0.8582  0.1157
 1335SOL    HW115464   1.326   3.251   1.536  0.3852  0.6961 -1.1321
 1335SOL    HW215465   1.395   3.220   1.660  1.0685 -3.0463  0.3580
 1336SOL     OW15466   4.695   4.443   7.141  0.1464  0.3325 -0.1085
 1336SOL    HW115467   4.643   4.478   7.069 -1.0357 -0.5834  0.3178
 1336SOL    HW215468   0.060   4.478   7.124  0.8233 -0.5670  1.5880
 1337SOL     OW15469   3.023   1.719   6.367  0.0503  0.6153 -0.4367
 1337SOL    HW115470   3.036   1.624   6.377  1.4290  0.8427 -0.1217
 1337SOL    HW215471   3.108   1.753   6.340  0.5533 -0.2321  0.0656
 1338SOL     OW15472   3.107   4.104   5.674  0.0799 -0.2630  0.1513
 1338SOL    HW115473   3.121   4.050   5.597  2.6308  0.5156  0.0661
 1338SOL    HW215474   3.031   4.067   5.718 -0.7635  1.7395  0.3882
 1339SOL     OW15475   0.657   1.879   1.600  0.0777 -0.1954 -0.4055
 1339SOL    HW115476   0.658   1.926   1.683 -1.0116 -0.9230  0.0290
 1339SOL    HW215477   0.739   1.913   1.565  0.6631 -0.4852  0.6849
 1340SOL     OW15478   3.494   2.938   1.729  0.3106 -0.3030 -0.4564
 1340SOL    HW115479   3.570   2.980   1.769 -0.0024  0.1129 -0.2885
 1340SOL    HW215480   3.454   3.005   1.673  1.0370  0.3880 -0.1457
 1341SOL     OW15481   0.024   2.181   6.600 -0.1808  0.0067  0.4864
 1341SOL    HW115482   0.057   2.101   6.560  0.6979  1.4260 -1.6395
 1341SOL    HW215483   0.069   2.238   6.537 -2.2235  0.0530 -0.9370
 1342SOL     OW15484   3.691   4.482   1.279  0.1123 -0.2315 -0.2446
 1342SOL    HW115485   3.678   4.418   1.349 -1.9870 -1.9957 -2.2696
 1342SOL    HW215486   3.636   4.443   1.210 -0.1920 -1.6774  0.8082
 1343SOL     OW15487   4.075   3.364  13.076 -0.3069 -0.3609 -0.7478
 1343SOL    HW115488   4.144   3.303  13.051 -1.3400 -1.9969  0.4185
 1343SOL    HW215489   4.054   3.323  13.160 -1.7281 -1.1092 -1.4585
 1344SOL     OW15490   2.778   0.349   4.641 -0.5802  0.3217  0.0312
 1344SOL    HW115491   2.781   0.257   4.666 -1.9454  0.1554 -0.4420
 1344SOL    HW215492   2.741   0.337   4.554  0.8433 -2.8210 -0.1376
 1345SOL     OW15493   2.532   3.042  15.829 -0.5686 -0.1354 -0.5479
 1345SOL    HW115494   2.483   3.064  15.749  0.1860  1.9324 -0.4341
 1345SOL    HW215495   2.609   2.998  15.794 -1.1210 -1.1345 -0.5024
 1346SOL     OW15496   3.736   0.525  16.330 -0.3529  0.2744 -0.5840
 1346SOL    HW115497   3.660   0.557  16.377 -0.3221 -1.6503  0.7711
 1346SOL    HW215498   3.715   0.580  16.254 -0.4172  2.4591  1.0334
 1347SOL     OW15499   4.536   3.347   1.932  0.2145  0.0431 -0.4364
 1347SOL    HW115500   4.629   3.363   1.915  0.2082 -0.2734 -0.7583
 1347SOL    HW215501   4.496   3.426   1.896  0.7527  1.0332  1.1441
 1348SOL     OW15502   4.444   1.552   3.257  0.0993 -0.1817  0.4320
 1348SOL    HW115503   4.442   1.551   3.353 -0.2251  0.4997  0.4272
 1348SOL    HW215504   4.537   1.541   3.237  0.1766 -0.6555  1.0587
 1349SOL     OW15505   0.457   1.094  17.003 -0.4626 -0.0599  0.0692
 1349SOL    HW115506   0.463   1.162  17.070 -1.7041  0.6868 -0.5793
 1349SOL    HW215507   0.364   1.072  17.005 -0.7319  1.0873  0.0416
 1350SOL     OW15508   2.051   1.846   9.164  0.1706 -0.2996  0.3875
 1350SOL    HW115509   2.096   1.837   9.080 -0.6247  1.6416 -0.2530
 1350SOL    HW215510   2.027   1.756   9.187 -0.1637 -0.5519 -0.9527
 1351SOL     OW15511   0.395   0.576  10.204  0.3106 -0.3971  0.0825
 1351SOL    HW115512   0.362   0.519  10.273  0.9667  2.0873  2.4445
 1351SOL    HW215513   0.466   0.519  10.172  0.8849 -0.4901  1.5208
 1352SOL     OW15514   0.536   0.676   3.351 -0.2266  0.3125 -0.5734
 1352SOL    HW115515   0.504   0.590   3.322  1.0522 -0.1985 -0.4696
 1352SOL    HW215516   0.537   0.673   3.446 -0.7281  3.4483 -0.4663
 1353SOL     OW15517   3.939   2.129   8.314  0.0974  0.3107 -0.3238
 1353SOL    HW115518   3.903   2.126   8.403  0.7151 -0.0105 -0.0841
 1353SOL    HW215519   4.015   2.072   8.329  0.0879  0.6271  0.8991
 1354SOL     OW15520   0.282   1.346   2.302 -0.7616  0.1397 -0.0353
 1354SOL    HW115521   0.207   1.383   2.256 -0.2675 -2.1487 -2.7503
 1354SOL    HW215522   0.259   1.254   2.297 -0.0462 -0.0769  0.5840
 1355SOL     OW15523   4.421   0.750   2.430 -0.0805 -0.2752  0.1574
 1355SOL    HW115524   4.515   0.758   2.441  0.2555 -0.7495 -2.3880
 1355SOL    HW215525   4.416   0.806   2.353  1.8497  1.0753  1.0185
 1356SOL     OW15526   4.613   0.340   3.720  0.1677  0.1405  0.0829
 1356SOL    HW115527   4.670   0.318   3.794  0.2195  0.2348  0.0717
 1356SOL    HW215528   4.528   0.358   3.760  0.0071  0.4236 -0.3979
 1357SOL     OW15529   0.841   0.160   8.193 -0.1696  0.1670 -0.3651
 1357SOL    HW115530   0.856   0.255   8.201  1.5709  0.0657 -2.3782
 1357SOL    HW215531   0.754   0.155   8.153 -1.3192  0.9810  2.0526
 1358SOL     OW15532   4.441   0.745  10.521  0.0645 -0.0523  0.1995
 1358SOL    HW115533   4.352   0.765  10.490  0.6914  1.7918 -0.4169
 1358SOL    HW215534   4.488   0.711  10.445  1.5322  1.1320  0.5704
 1359SOL     OW15535   0.934   3.383   1.496  0.7615 -0.5062  0.1067
 1359SOL    HW115536   0.895   3.468   1.517  1.5261 -0.5412  1.6759
 1359SOL    HW215537   0.861   3.327   1.470 -0.4958  0.3925  1.7206
 1360SOL     OW15538   1.297   2.505  15.651 -0.0779  0.0110 -0.3464
 1360SOL    HW115539   1.351   2.523  15.728 -0.7681 -2.6434  0.7632
 1360SOL    HW215540   1.220   2.462  15.687 -1.0442  0.0949 -2.2970
 1361SOL     OW15541   3.371   3.940   7.694  0.0698 -0.2699  0.4773
 1361SOL    HW115542   3.320   3.883   7.637 -2.4757 -0.4801  2.9426
 1361SOL    HW215543   3.465   3.929   7.677  0.1551 -0.2103  0.9061
 1362SOL     OW15544   1.065   1.883   3.613 -0.0403 -0.1766 -0.7447
 1362SOL    HW115545   1.144   1.884   3.558  0.2050  0.4929 -0.3913
 1362SOL    HW215546   1.016   1.818   3.564 -0.6713 -0.4976  0.3145
 1363SOL     OW15547   3.077   1.794   9.060  0.0635  0.0187 -0.2249
 1363SOL    HW115548   3.134   1.816   9.133  0.6291 -0.9231 -0.3876
 1363SOL    HW215549   3.095   1.701   9.046  0.8896  0.5546 -2.7320
 1364SOL     OW15550   4.109   3.895   7.329  0.3751  0.4355  1.0255
 1364SOL    HW115551   4.138   3.971   7.379  1.3722  1.3849 -0.9828
 1364SOL    HW215552   4.160   3.819   7.358  2.1076  1.3182  0.3214
 1365SOL     OW15553   3.662   2.993   9.411  0.4908 -0.1804 -0.3341
 1365SOL    HW115554   3.652   2.976   9.318 -1.6591  1.0455 -0.3293
 1365SOL    HW215555   3.659   3.089   9.406  0.3409 -0.3647 -3.4273
 1366SOL     OW15556   1.152   1.170  13.037 -0.1385  0.4393 -0.0825
 1366SOL    HW115557   1.078   1.183  13.097 -0.2509  3.1481 -0.7934
 1366SOL    HW215558   1.233   1.179  13.087  0.7161 -0.3782 -1.3448
 1367SOL     OW15559   2.155   2.219   0.412 -0.0633  0.4998 -0.1714
 1367SOL    HW115560   2.074   2.228   0.462 -0.3859  0.1442 -0.6248
 1367SOL    HW215561   2.123   2.233   0.323  0.6082  0.9293 -0.3450
 1368SOL     OW15562   2.726   1.701  15.133 -0.2030 -0.1063 -0.4189
 1368SOL    HW115563   2.665   1.665  15.069 -1.2859  1.8625 -0.5028
 1368SOL    HW215564   2.687   1.669  15.215  2.2863  0.1210  0.8542
 1369SOL     OW15565   2.117   1.456   3.941 -0.1394  0.3979  0.3564
 1369SOL    HW115566   2.195   1.510   3.940 -2.1993  3.3419 -1.3530
 1369SOL    HW215567   2.101   1.469   4.035 -1.7626  2.9857 -0.2934
 1370SOL     OW15568   2.930   4.308   1.977 -0.1785  0.0256  0.3094
 1370SOL    HW115569   2.937   4.403   1.972 -0.6146  0.0436  0.0634
 1370SOL    HW215570   2.863   4.292   1.911 -0.1992 -2.9191  1.0028
 1371SOL     OW15571   0.779   4.663   9.963  0.3013 -0.4730 -0.0240
 1371SOL    HW115572   0.843   4.664  10.034  0.0535 -0.2672  0.1960
 1371SOL    HW215573   0.820   4.584   9.927 -0.7973 -0.9059 -0.3286
 1372SOL     OW15574   0.573   2.207   8.484 -0.3091 -0.1419 -1.0625
 1372SOL    HW115575   0.588   2.162   8.401  0.7361 -0.0003 -0.9452
 1372SOL    HW215576   0.660   2.246   8.497 -0.0332 -1.0660 -0.0718
 1373SOL     OW15577   2.137   3.549   5.036  0.2042  0.7365 -0.2143
 1373SOL    HW115578   2.184   3.516   5.113 -1.8432 -0.4906  0.5232
 1373SOL    HW215579   2.148   3.484   4.967  1.2666  0.7864 -0.0911
 1374SOL     OW15580   1.553   1.801  14.682 -0.5884 -0.5402  0.3007
 1374SOL    HW115581   1.486   1.785  14.615 -0.4831 -0.2527  0.1245
 1374SOL    HW215582   1.635   1.800  14.633 -0.7293  0.7984  0.0368
 1375SOL     OW15583   4.342   3.923   5.989 -0.2652  0.0500 -1.0014
 1375SOL    HW115584   4.381   3.878   5.914 -1.3739 -0.4652 -1.2731
 1375SOL    HW215585   4.329   4.014   5.962 -0.8530  0.5315  0.8836
 1376SOL     OW15586   0.219   3.025   2.518  0.2564 -0.4875  0.0364
 1376SOL    HW115587   0.148   3.086   2.538  1.3511  0.4555  1.0652
 1376SOL    HW215588   0.296   3.064   2.559  1.2211 -2.3061 -0.0342
 1377SOL     OW15589   1.928   2.881   2.758 -0.1274 -0.0141 -0.4293
 1377SOL    HW115590   1.968   2.861   2.673  1.0665  1.7277 -0.2644
 1377SOL    HW215591   1.859   2.942   2.733  2.0550  1.4943 -2.6947
 1378SOL     OW15592   0.203   0.151   0.240  0.1052 -0.1528 -0.1909
 1378SOL    HW115593   0.201   0.079   0.304 -0.5930  0.7506  0.8089
 1378SOL    HW215594   0.259   0.217   0.281 -1.3111  1.5145 -0.9189
 1379SOL     OW15595   3.979   4.191  13.805  0.1703 -0.1473 -0.2749
 1379SOL    HW115596   3.888   4.207  13.831 -0.1902  2.9848 -3.4770
 1379SOL    HW215597   3.980   4.207  13.710 -1.8706 -2.0795 -0.6210
 1380SOL     OW15598   3.972   4.666   3.789  0.5563 -0.0439  0.3164
 1380SOL    HW115599   3.958   4.585   3.740  2.1027 -0.7681  1.0596
 1380SOL    HW215600   3.881   4.693   3.800  0.5526  0.5120 -1.0964
 1381SOL     OW15601   2.477   2.120   5.284  0.0055 -0.2226 -0.1707
 1381SOL    HW115602   2.453   2.193   5.341  2.4694  1.7532 -1.6383
 1381SOL    HW215603   2.395   2.099   5.240 -0.7754 -0.1811  1.2434
 1382SOL     OW15604   2.277   3.673  13.699 -0.2505  0.6699  0.4547
 1382SOL    HW115605   2.226   3.593  13.686 -0.2760  0.4661  1.7374
 1382SOL    HW215606   2.217   3.710  13.764 -1.4570  1.5828 -1.2077
 1383SOL     OW15607   1.644   4.123   7.378 -0.7053 -0.0551  0.0719
 1383SOL    HW115608   1.638   4.034   7.343 -1.7834 -0.4341  1.2277
 1383SOL    HW215609   1.690   4.113   7.461 -1.4215  0.2359  0.4992
 1384SOL     OW15610   1.010   1.353   5.524  0.1992 -0.3062 -0.2437
 1384SOL    HW115611   1.089   1.309   5.492  1.2497  2.0309 -0.8582
 1384SOL    HW215612   1.022   1.358   5.618 -1.3920 -1.8605  0.0444
 1385SOL     OW15613   1.815   0.662  13.978 -0.2422 -0.8801  0.3371
 1385SOL    HW115614   1.901   0.642  13.942  0.2096  1.0277  0.3878
 1385SOL    HW215615   1.760   0.623  13.910 -1.6162  2.3299 -0.3812
 1386SOL     OW15616   1.188   2.449   2.787 -0.4039 -0.3800  0.0863
 1386SOL    HW115617   1.190   2.376   2.848 -1.4163 -1.0192 -0.6444
 1386SOL    HW215618   1.141   2.406   2.715  1.2079 -0.5545 -0.8583
 1387SOL     OW15619   0.247   1.463   4.424 -0.2311 -0.6366 -0.5715
 1387SOL    HW115620   0.322   1.444   4.368  0.9745 -1.7516  1.3914
 1387SOL    HW215621   0.268   1.553   4.448  2.0719 -0.9971 -1.2134
 1388SOL     OW15622   1.722   3.086  12.753 -0.3924 -0.5633  0.2087
 1388SOL    HW115623   1.817   3.098  12.751 -0.4792  0.0575 -0.3221
 1388SOL    HW215624   1.695   3.115  12.665  3.2433 -1.1926 -1.1252
 1389SOL     OW15625   1.876   2.671   6.134  0.1819  0.4285 -0.2431
 1389SOL    HW115626   1.967   2.669   6.105 -0.2184 -0.4909 -1.4307
 1389SOL    HW215627   1.835   2.678   6.048 -1.7959  1.0742  0.7368
 1390SOL     OW15628   2.628   2.293  12.745 -0.0864 -0.2386 -0.6233
 1390SOL    HW115629   2.559   2.233  12.773  1.0566 -0.6085  1.4647
 1390SOL    HW215630   2.589   2.333  12.668  1.2208  0.5325 -0.8840
 1391SOL     OW15631   2.390   2.105   9.383 -0.9589 -0.1105  0.1368
 1391SOL    HW115632   2.407   2.011   9.375  0.9306  0.4343 -2.4122
 1391SOL    HW215633   2.296   2.105   9.404 -1.0981  1.8639 -0.5238
 1392SOL     OW15634   0.605   4.311  10.002  0.1588 -0.0378 -0.1154
 1392SOL    HW115635   0.583   4.404  10.011 -0.3595 -0.4250  2.7122
 1392SOL    HW215636   0.611   4.293  10.096  1.6729  0.8006 -0.0591
 1393SOL     OW15637   0.709   0.970  10.789  0.0315 -0.0754 -0.5824
 1393SOL    HW115638   0.704   1.063  10.811  2.1375 -0.1079 -0.0327
 1393SOL    HW215639   0.770   0.986  10.718 -1.3209 -1.3464 -2.0245
 1394SOL     OW15640   1.931   1.480   6.857  0.4609 -0.5113 -0.0795
 1394SOL    HW115641   1.893   1.453   6.774  0.0448 -2.4722  0.7283
 1394SOL    HW215642   1.985   1.552   6.825 -1.1755  0.7803  0.0588
 1395SOL     OW15643   4.125   3.409  13.628 -0.2975  0.4155  0.0716
 1395SOL    HW115644   4.053   3.407  13.564 -0.7787 -1.7691  0.6571
 1395SOL    HW215645   4.200   3.451  13.587 -0.4008  0.9783  0.4749
 1396SOL     OW15646   4.291   0.697  10.776 -0.6486 -0.5101 -0.0048
 1396SOL    HW115647   4.375   0.716  10.735 -0.1920 -0.0818  1.1295
 1396SOL    HW215648   4.279   0.603  10.761 -0.0169 -0.5809 -0.0467
 1397SOL     OW15649   2.184   4.106   2.863 -0.2715 -0.2429 -0.1713
 1397SOL    HW115650   2.239   4.076   2.791 -0.4800 -0.6533 -0.1572
 1397SOL    HW215651   2.120   4.035   2.868  1.4626 -1.7046  1.5141
 1398SOL     OW15652   2.115   0.362  10.605 -0.2647 -0.1326 -0.1788
 1398SOL    HW115653   2.155   0.404  10.681 -0.2102  0.0329 -0.2997
 1398SOL    HW215654   2.023   0.365  10.631 -0.0400 -0.4884  0.6632
 1399SOL     OW15655   2.296   1.024   3.782  0.8786 -0.0871 -0.1042
 1399SOL    HW115656   2.237   0.975   3.840 -1.5231  1.2703 -1.3761
 1399SOL    HW215657   2.238   1.059   3.715  3.7042 -0.3589 -2.6703
 1400SOL     OW15658   2.401   3.087   5.994 -0.3869 -0.0003  0.0558
 1400SOL    HW115659   2.417   3.008   6.046 -0.4764  1.4502  2.2967
 1400SOL    HW215660   2.340   3.052   5.930 -0.8440  1.9009 -0.5333
 1401SOL     OW15661   1.175   3.388   6.552  0.3490  0.1466  0.4442
 1401SOL    HW115662   1.122   3.323   6.600 -1.9323  0.8564 -1.1116
 1401SOL    HW215663   1.140   3.475   6.572  0.6481  0.2875  0.3563
 1402SOL     OW15664   0.689   2.350  12.397 -0.8043 -0.2114 -0.1332
 1402SOL    HW115665   0.669   2.263  12.364  0.1815 -0.2910 -0.5079
 1402SOL    HW215666   0.693   2.331  12.490  0.8982  0.8527  0.0195
 1403SOL     OW15667   2.420   1.380   4.070  0.8160 -0.1812  0.2342
 1403SOL    HW115668   2.445   1.326   3.995 -2.1622 -1.3572  0.0781
 1403SOL    HW215669   2.506   1.409   4.099  1.4014 -2.1951  0.4589
 1404SOL     OW15670   0.517   2.638   2.245  0.0980 -0.1036 -0.5057
 1404SOL    HW115671   0.520   2.654   2.340 -0.1888  0.9675 -0.6720
 1404SOL    HW215672   0.551   2.549   2.245  0.8765  0.2078 -1.7044
 1405SOL     OW15673   0.863   2.911   9.022 -0.9494 -0.3233  0.3650
 1405SOL    HW115674   0.779   2.902   8.976  0.1043  1.6252 -1.9422
 1405SOL    HW215675   0.923   2.868   8.962 -0.7965  0.1321  0.1920
 1406SOL     OW15676   4.222   2.413   5.978 -0.0549  0.1131 -0.3228
 1406SOL    HW115677   4.162   2.447   6.044  1.4281  0.0979  1.0275
 1406SOL    HW215678   4.191   2.324   5.959 -1.8868  1.1943 -2.4713
 1407SOL     OW15679   3.851   3.527   6.135  0.1798  0.4295  0.8610
 1407SOL    HW115680   3.801   3.572   6.202 -0.8752 -0.4696  0.6856
 1407SOL    HW215681   3.929   3.515   6.189  0.7571  0.2858  0.0093
 1408SOL     OW15682   4.056   2.046   6.522  0.1530  0.2598  0.4586
 1408SOL    HW115683   4.047   2.094   6.604 -1.0579 -1.7793  1.5153
 1408SOL    HW215684   4.001   2.098   6.463  0.3154  1.2436  1.1839
 1409SOL     OW15685   1.311   0.677   5.598 -0.0792 -0.0541  0.1596
 1409SOL    HW115686   1.288   0.757   5.552  0.7652  0.4626  0.6389
 1409SOL    HW215687   1.330   0.714   5.684 -2.0030  2.2990 -0.4493
 1410SOL     OW15688   1.657   1.464   9.627  0.4055 -0.4772  0.4547
 1410SOL    HW115689   1.663   1.557   9.647 -0.8856 -0.5703  1.2682
 1410SOL    HW215690   1.562   1.463   9.612  0.3928 -0.3581  0.5360
 1411SOL     OW15691   2.699   2.608   7.685  0.1659 -0.5064  0.2763
 1411SOL    HW115692   2.787   2.600   7.723  0.1832  0.1392  0.3626
 1411SOL    HW215693   2.679   2.701   7.689  0.5392 -0.3509 -1.5851
 1412SOL     OW15694   1.170   2.812   6.609 -0.8577  0.0898 -0.8479
 1412SOL    HW115695   1.235   2.877   6.637  0.9879 -2.1652  0.1691
 1412SOL    HW215696   1.219   2.738   6.646  0.4102  1.2498 -0.2007
 1413SOL     OW15697   1.019   1.121  10.193  0.5808  0.2803 -0.1038
 1413SOL    HW115698   1.085   1.086  10.252  0.7763  0.1034 -0.4293
 1413SOL    HW215699   1.020   1.061  10.119 -0.3879  0.6306 -0.4107
 1414SOL     OW15700   4.267   0.720  17.014  0.1196  0.4459 -0.4358
 1414SOL    HW115701   4.218   0.791  16.973 -1.5512 -1.4756 -1.7207
 1414SOL    HW215702   4.327   0.772  17.068 -0.1940  2.5616 -2.1258
 1415SOL     OW15703   4.594   2.963   1.385  0.4000 -0.6674  0.0320
 1415SOL    HW115704   4.628   3.009   1.462 -1.4439 -0.9500  1.0152
 1415SOL    HW215705   4.499   2.961   1.398  0.0416  0.0463 -2.5480
 1416SOL     OW15706   2.181   3.162   2.973 -0.6898  0.1787 -0.6030
 1416SOL    HW115707   2.113   3.174   2.907 -0.8785 -1.2135 -0.6585
 1416SOL    HW215708   2.194   3.067   2.962 -1.4417 -0.3654  3.1096
 1417SOL     OW15709   2.037   4.456   3.598 -0.0659  0.0603  0.0929
 1417SOL    HW115710   2.103   4.497   3.542  0.0853 -0.0864  0.1620
 1417SOL    HW215711   1.995   4.530   3.643  2.1103  0.9842  0.5951
 1418SOL     OW15712   4.240   3.781   0.078  0.2491 -0.1792  0.1391
 1418SOL    HW115713   4.191   3.809   0.001 -1.0576 -0.8165  0.7374
 1418SOL    HW215714   4.187   3.824   0.145  0.8285  1.4540 -0.4426
 1419SOL     OW15715   1.016   3.524   8.397  0.1731 -0.7122 -0.4850
 1419SOL    HW115716   0.938   3.487   8.356 -0.6218  1.5152 -1.0143
 1419SOL    HW215717   0.974   3.608   8.418 -1.0210 -1.2253 -0.8550
 1420SOL     OW15718   1.220   3.081   7.803  0.0108  0.4402 -0.3557
 1420SOL    HW115719   1.212   3.099   7.709  0.5134 -0.3215 -0.5404
 1420SOL    HW215720   1.272   3.157   7.829 -0.8205  0.6456  0.6757
 1421SOL     OW15721   3.540   0.129   7.552  0.4583  0.1526  0.0378
 1421SOL    HW115722   3.447   0.146   7.562  0.5511  1.6351 -1.7085
 1421SOL    HW215723   3.569   0.118   7.643 -0.5123  0.0796  0.3398
 1422SOL     OW15724   1.249   1.207   2.224  0.2741 -0.0616 -0.3937
 1422SOL    HW115725   1.249   1.292   2.179 -2.6649 -1.5408 -3.2462
 1422SOL    HW215726   1.330   1.213   2.274 -0.4773  0.0095  0.8044
 1423SOL     OW15727   0.666   2.638   6.133 -0.0611  0.0205  0.5794
 1423SOL    HW115728   0.710   2.645   6.219 -0.6302  1.4466  0.7502
 1423SOL    HW215729   0.739   2.631   6.071  0.1346  1.6352  0.6350
 1424SOL     OW15730   2.923   2.651  13.024 -0.1763  0.0282 -0.3979
 1424SOL    HW115731   2.927   2.630  12.930  2.1000 -0.2499 -0.2500
 1424SOL    HW215732   2.857   2.720  13.028 -2.7975 -2.5261  0.1717
 1425SOL     OW15733   2.075   0.271   0.743  0.3214 -0.5564  0.4193
 1425SOL    HW115734   2.104   0.270   0.652  1.3526  2.0794  0.7324
 1425SOL    HW215735   1.982   0.246   0.746  0.3498 -0.4910  1.6843
 1426SOL     OW15736   3.507   0.828   0.249 -0.8494  0.4253 -0.1798
 1426SOL    HW115737   3.479   0.896   0.310 -1.8314 -1.3216  1.3043
 1426SOL    HW215738   3.524   0.764   0.318  0.9380 -0.3528 -1.3406
 1427SOL     OW15739   1.831   2.123  10.543 -0.1940 -0.5069 -0.0796
 1427SOL    HW115740   1.778   2.200  10.564  2.5615  0.6030  2.9163
 1427SOL    HW215741   1.870   2.151  10.460 -2.1449 -0.7598 -1.0667
 1428SOL     OW15742   3.851   2.589   1.641  0.1781 -0.0877 -0.2097
 1428SOL    HW115743   3.914   2.558   1.575  0.3439  0.3577 -0.2630
 1428SOL    HW215744   3.794   2.512   1.643  1.7787 -1.3302 -1.7635
 1429SOL     OW15745   1.952   4.504   2.495  0.0503  0.7108 -0.0133
 1429SOL    HW115746   1.988   4.478   2.410  1.1205  0.6101  0.4666
 1429SOL    HW215747   1.983   4.594   2.501 -2.6161  1.6171 -0.1110
 1430SOL     OW15748   0.276   4.691   3.589  0.1453 -0.4079  0.3809
 1430SOL    HW115749   0.286   4.596   3.596  1.2691 -0.3559 -0.5098
 1430SOL    HW215750   0.205   4.697   3.652  0.3693 -0.8159  0.6746
 1431SOL     OW15751   3.564   1.903   1.111 -0.5655 -0.0701 -0.3392
 1431SOL    HW115752   3.589   1.812   1.100 -1.2341 -0.4928  1.7350
 1431SOL    HW215753   3.649   1.945   1.119 -0.9652  0.0212  3.2638
 1432SOL     OW15754   4.353   3.389   2.145  0.4032 -0.2646  0.0345
 1432SOL    HW115755   4.402   3.347   2.075 -1.9117 -2.7213 -0.0699
 1432SOL    HW215756   4.419   3.393   2.215 -0.7977 -0.4357  1.1888
 1433SOL     OW15757   2.986   3.013   7.099 -0.7499  0.1834 -0.6999
 1433SOL    HW115758   3.054   3.071   7.065 -0.3708 -1.2686 -2.3872
 1433SOL    HW215759   2.922   3.018   7.028 -1.0024 -0.4604 -0.5191
 1434SOL     OW15760   2.683   0.604   4.246 -0.5565 -0.2472  0.6636
 1434SOL    HW115761   2.617   0.673   4.242  0.1336  0.3755  0.1207
 1434SOL    HW215762   2.759   0.659   4.266  0.4015 -1.4146  0.2069
 1435SOL     OW15763   0.365   2.504   6.688  0.7614  0.3401  0.1709
 1435SOL    HW115764   0.393   2.512   6.597 -1.3521  1.8233 -0.3599
 1435SOL    HW215765   0.389   2.589   6.723  1.9674 -0.7400  1.9907
 1436SOL     OW15766   3.990   2.119   1.569 -0.3214 -0.4384  0.2295
 1436SOL    HW115767   3.990   2.195   1.627 -0.6881  1.0009 -1.7012
 1436SOL    HW215768   4.064   2.064   1.598  0.8002 -0.7450 -3.2488
 1437SOL     OW15769   0.387   2.706   1.270  0.9137  0.2594 -0.2820
 1437SOL    HW115770   0.473   2.729   1.236  1.0420  0.0761 -0.0857
 1437SOL    HW215771   0.400   2.614   1.293 -0.8465 -0.0076 -0.3665
 1438SOL     OW15772   1.243   0.324   7.343  0.4093 -1.0316  0.1255
 1438SOL    HW115773   1.210   0.324   7.253  0.6667  0.8392  0.0334
 1438SOL    HW215774   1.183   0.380   7.393 -0.4137 -0.1100 -1.8998
 1439SOL     OW15775   4.092   4.697   2.700  0.0884  0.2657 -0.1624
 1439SOL    HW115776   4.124   4.720   2.787  0.6502  1.7605 -0.7683
 1439SOL    HW215777   4.074   0.059   2.661 -1.1590 -0.9857 -2.2551
 1440SOL     OW15778   1.322   4.015   5.675 -0.2980 -0.4137 -0.0739
 1440SOL    HW115779   1.263   4.001   5.601  0.1619  1.7980 -0.8795
 1440SOL    HW215780   1.275   3.956   5.734  0.4453  0.2738  1.1902
 1441SOL     OW15781   2.455   2.751   9.518 -0.3769 -0.4841 -1.4292
 1441SOL    HW115782   2.520   2.742   9.588 -1.8505 -2.0307 -0.2549
 1441SOL    HW215783   2.452   2.845   9.499 -1.6867 -0.1793  0.3239
 1442SOL     OW15784   3.586   2.333  11.629 -0.3447  0.6038  0.4207
 1442SOL    HW115785   3.671   2.334  11.674 -1.2168  0.5475  2.0654
 1442SOL    HW215786   3.594   2.402  11.564 -1.9012 -1.3722 -1.8407
 1443SOL     OW15787   0.970   3.243   8.768  0.0004 -0.3380 -0.0839
 1443SOL    HW115788   1.035   3.186   8.809  1.8893  2.3675  0.6222
 1443SOL    HW215789   1.014   3.308   8.714 -1.4449 -0.8389 -1.8875
 1444SOL     OW15790   4.610   1.678  13.767  0.1089  0.3023  0.4043
 1444SOL    HW115791   4.669   1.614  13.806 -1.7985 -1.2486  0.7113
 1444SOL    HW215792   4.545   1.674  13.837  0.7835 -0.6142  0.9691
 1445SOL     OW15793   1.816   3.383  10.099  0.1334  0.1129 -0.3193
 1445SOL    HW115794   1.875   3.332  10.043  0.4741 -0.8889  0.9458
 1445SOL    HW215795   1.798   3.449  10.033  0.7445  0.4897 -0.1120
 1446SOL     OW15796   0.995   4.129  10.909 -0.2063 -0.8350  0.4184
 1446SOL    HW115797   1.075   4.152  10.955 -0.2253 -0.8811  0.4740
 1446SOL    HW215798   1.018   4.170  10.826  0.4934  0.7772  1.3858
 1447SOL     OW15799   3.532   3.979   7.308  0.3781  0.0097  0.7721
 1447SOL    HW115800   3.608   4.023   7.346 -1.2242  1.7218  2.0147
 1447SOL    HW215801   3.580   3.906   7.269 -0.8893  0.2221 -1.1816
 1448SOL     OW15802   2.990   2.732   5.554 -0.1501  1.1099  0.4910
 1448SOL    HW115803   2.961   2.641   5.549  0.5374  0.7979  2.3399
 1448SOL    HW215804   2.910   2.780   5.576 -0.5444  1.0064 -0.6850
 1449SOL     OW15805   3.646   4.057   4.288  0.4196  0.0656  0.0977
 1449SOL    HW115806   3.562   4.083   4.326  1.3510  1.0953  1.4400
 1449SOL    HW215807   3.680   3.999   4.356 -0.3900  0.2460  0.6555
 1450SOL     OW15808   2.182   2.803  12.603  0.5366  0.4078 -0.0219
 1450SOL    HW115809   2.137   2.887  12.603  0.0082  0.0969  3.6503
 1450SOL    HW215810   2.273   2.830  12.616  1.3248 -1.6558 -1.2654
 1451SOL     OW15811   4.298   3.896   6.596 -0.2662 -0.8668  0.3543
 1451SOL    HW115812   4.274   3.977   6.641  0.2806  0.4485 -1.7069
 1451SOL    HW215813   4.328   3.933   6.512 -0.2542  0.9052  1.1484
 1452SOL     OW15814   0.010   0.021   4.818 -0.1949 -0.3297 -0.1886
 1452SOL    HW115815   0.002   4.667   4.874  1.3410  0.6618  1.4156
 1452SOL    HW215816   0.099   0.010   4.785 -0.0037  0.4102  0.0664
 1453SOL     OW15817   4.401   3.184   9.480 -0.4730  0.4262  0.3349
 1453SOL    HW115818   4.492   3.162   9.499 -0.2586  0.8476 -0.2093
 1453SOL    HW215819   4.351   3.104   9.497  0.0092 -0.3067 -1.6450
 1454SOL     OW15820   3.235   2.662  12.652  0.5645 -0.9078 -0.2511
 1454SOL    HW115821   3.219   2.756  12.656 -0.9047 -1.1824  0.1756
 1454SOL    HW215822   3.282   2.655  12.569 -0.2977 -1.3312 -0.7015
 1455SOL     OW15823   1.781   2.310   5.421 -0.5682 -0.0424  0.1851
 1455SOL    HW115824   1.783   2.289   5.514 -1.7763  0.3951  0.3072
 1455SOL    HW215825   1.855   2.371   5.419 -0.8782  0.4106  2.4671
 1456SOL     OW15826   4.418   0.561   3.090 -0.1481  0.0098 -0.2314
 1456SOL    HW115827   4.462   0.484   3.126  0.7368 -0.2475 -1.8762
 1456SOL    HW215828   4.494   0.620   3.085  0.6690 -1.0290 -0.1109
 1457SOL     OW15829   1.010   2.788   8.812  0.2493  0.6323 -0.1382
 1457SOL    HW115830   1.071   2.714   8.816  0.6685  0.9111 -1.5186
 1457SOL    HW215831   0.930   2.745   8.782 -0.3863  2.6136 -1.2998
 1458SOL     OW15832   3.518   0.860   5.757 -0.9210 -0.3739  0.0475
 1458SOL    HW115833   3.476   0.786   5.799  0.5907 -1.8035 -0.9367
 1458SOL    HW215834   3.447   0.924   5.754 -0.2593  0.3776  0.2858
 1459SOL     OW15835   2.590   4.335   7.620  0.0496  0.4079 -0.2320
 1459SOL    HW115836   2.672   4.368   7.656  1.4636 -5.1478  1.5298
 1459SOL    HW215837   2.537   4.295   7.689 -2.4204 -0.0685 -2.4083
 1460SOL     OW15838   2.933   1.408   5.002 -0.3543  0.0740 -0.2054
 1460SOL    HW115839   2.994   1.338   5.027  0.0280  0.3564 -0.3532
 1460SOL    HW215840   2.987   1.485   4.986  0.5791 -0.6063 -0.3326
 1461SOL     OW15841   0.265   3.138   1.534 -0.3674  0.0092 -0.4218
 1461SOL    HW115842   0.298   3.221   1.569  1.9784 -1.9767  2.1237
 1461SOL    HW215843   0.287   3.091   1.615 -4.2681 -0.1101  0.5667
 1462SOL     OW15844   1.083   3.622  14.328 -0.4189  0.3600 -0.4895
 1462SOL    HW115845   1.119   3.699  14.284 -0.5422  0.8978  0.3534
 1462SOL    HW215846   0.994   3.656  14.329 -0.7248 -0.4484  0.1444
 1463SOL     OW15847   3.328   0.604   2.814  0.4783  0.2088 -0.5091
 1463SOL    HW115848   3.415   0.589   2.852  0.0466 -0.9018  0.0636
 1463SOL    HW215849   3.351   0.625   2.724 -2.9230  0.5103 -1.3083
 1464SOL     OW15850   2.212   2.451   8.564 -0.4235  0.1729  0.1792
 1464SOL    HW115851   2.231   2.543   8.580  0.2122 -0.1271  1.1972
 1464SOL    HW215852   2.124   2.465   8.531  0.4561  1.3277 -1.6650
 1465SOL     OW15853   0.254   1.946   4.310 -0.7902  0.1720 -0.1254
 1465SOL    HW115854   0.219   1.868   4.266 -0.5306  0.1689 -0.3259
 1465SOL    HW215855   0.304   1.987   4.239 -1.5727  0.2312 -0.6508
 1466SOL     OW15856   0.042   1.994   3.545 -0.1445 -0.6323 -0.6479
 1466SOL    HW115857   0.037   1.941   3.466 -3.0598 -1.2901 -0.0131
 1466SOL    HW215858   4.675   2.028   3.545  0.1475  0.1662  0.8713
 1467SOL     OW15859   1.556   3.679   5.284 -0.2196  0.0793 -0.0147
 1467SOL    HW115860   1.466   3.687   5.253  0.3939  3.7365 -0.9015
 1467SOL    HW215861   1.596   3.650   5.202 -1.1710  0.4205 -0.6045
 1468SOL     OW15862   4.121   1.085  11.385  0.1546  0.7176  0.0872
 1468SOL    HW115863   4.047   1.062  11.441  0.0152 -1.3070 -0.9252
 1468SOL    HW215864   4.136   1.177  11.409  0.7803  0.3878  0.9586
 1469SOL     OW15865   2.908   4.507  15.434  0.0369  0.3100 -0.2860
 1469SOL    HW115866   2.885   4.595  15.405  0.8973  0.3166 -0.9703
 1469SOL    HW215867   2.831   4.452  15.423  0.8819 -0.4579 -2.3375
 1470SOL     OW15868   0.672   2.276  12.681 -0.2535  0.3280  0.0469
 1470SOL    HW115869   0.678   2.218  12.757 -1.6335 -0.2484 -0.2926
 1470SOL    HW215870   0.720   2.353  12.711  1.1659  0.4950 -2.6171
 1471SOL     OW15871   3.723   1.928  10.526 -0.4553  0.6980 -0.6599
 1471SOL    HW115872   3.689   1.994  10.586 -3.5063  0.7246 -2.4705
 1471SOL    HW215873   3.816   1.951  10.527  0.3244 -2.4617 -0.5454
 1472SOL     OW15874   0.866   3.557   4.590 -0.8710 -0.0725  0.1050
 1472SOL    HW115875   0.815   3.487   4.549  0.1192  0.0383 -1.3062
 1472SOL    HW215876   0.837   3.532   4.678  0.7406  0.2717  0.7253
 1473SOL     OW15877   2.772   1.399   4.748  0.3134 -0.6803  1.0586
 1473SOL    HW115878   2.787   1.484   4.790  3.2302  0.1326 -1.6669
 1473SOL    HW215879   2.802   1.340   4.817  3.2940 -0.4297 -0.0358
 1474SOL     OW15880   0.238   4.040   2.979 -0.6376  0.0979  0.7170
 1474SOL    HW115881   0.266   4.084   2.898 -0.4094 -0.2801  0.5933
 1474SOL    HW215882   0.143   4.054   2.983 -1.1638 -2.7362 -2.4009
 1475SOL     OW15883   1.132   1.204  16.093 -0.0134 -0.2022 -0.5379
 1475SOL    HW115884   1.160   1.244  16.175 -0.3789  0.1339 -0.5761
 1475SOL    HW215885   1.040   1.232  16.097  0.2283  0.3306  1.1244
 1476SOL     OW15886   2.359   0.217   5.811  0.5525  0.1692  0.0564
 1476SOL    HW115887   2.453   0.216   5.793  0.1545  0.3862 -1.9868
 1476SOL    HW215888   2.363   0.251   5.901 -0.1996  0.4196 -0.0052
 1477SOL     OW15889   0.588   1.695   0.697  0.1719  0.1907  0.2348
 1477SOL    HW115890   0.574   1.730   0.608  0.8619  1.1545  0.4981
 1477SOL    HW215891   0.683   1.696   0.705  0.2739  0.2927 -0.8624
 1478SOL     OW15892   2.780   2.929   9.844 -0.2821  0.3836  0.2377
 1478SOL    HW115893   2.701   2.953   9.892 -1.4011 -0.1620 -1.3126
 1478SOL    HW215894   2.854   2.920   9.904 -0.3837 -1.0272  0.1433
 1479SOL     OW15895   4.503   2.114   5.740  0.1218  0.0865  0.8085
 1479SOL    HW115896   4.567   2.170   5.697 -2.8683  1.4283 -1.8960
 1479SOL    HW215897   4.545   2.096   5.824  2.6358  2.5533  0.0463
 1480SOL     OW15898   0.842   4.171   1.783 -0.2670 -0.2171  0.3473
 1480SOL    HW115899   0.828   4.089   1.735 -0.8510 -0.0884  0.2912
 1480SOL    HW215900   0.928   4.164   1.824  0.7466 -2.4964 -2.1252
 1481SOL     OW15901   3.451   4.556   6.713 -0.7877 -0.2217 -0.3219
 1481SOL    HW115902   3.464   4.465   6.685  1.2306  0.2203 -0.8584
 1481SOL    HW215903   3.394   4.542   6.788 -0.9071  1.5371 -0.0890
 1482SOL     OW15904   0.509   0.931  16.669  0.3428  0.3302 -0.5907
 1482SOL    HW115905   0.466   0.874  16.732  0.9763  0.0548 -0.4036
 1482SOL    HW215906   0.598   0.911  16.699 -0.8392 -2.3619  1.0621
 1483SOL     OW15907   2.571   2.351   3.443  0.3010 -0.4026 -0.1721
 1483SOL    HW115908   2.625   2.354   3.364 -1.7259  1.3679 -1.4823
 1483SOL    HW215909   2.497   2.400   3.406  1.8256  0.4678 -2.0490
 1484SOL     OW15910   2.238   0.286   3.385  0.4092 -0.1343 -0.4702
 1484SOL    HW115911   2.316   0.272   3.332  0.8840 -1.4969  0.6023
 1484SOL    HW215912   2.243   0.211   3.444  1.4806 -0.6048 -1.1497
 1485SOL     OW15913   4.375   2.782   6.444  0.0370 -0.9322 -0.0658
 1485SOL    HW115914   4.296   2.809   6.492 -1.8272 -3.4400 -1.6963
 1485SOL    HW215915   4.350   2.779   6.351 -1.5573 -0.5903  0.3469
 1486SOL     OW15916   1.630   2.506   5.698 -0.0239  0.2454 -0.4084
 1486SOL    HW115917   1.641   2.537   5.788  0.0974 -0.2538 -0.2534
 1486SOL    HW215918   1.586   2.584   5.663 -2.3806 -0.9326 -0.1110
 1487SOL     OW15919   1.505   0.438   1.015 -0.4039 -0.1938 -0.1067
 1487SOL    HW115920   1.439   0.482   0.961 -0.0858  0.9399  0.4288
 1487SOL    HW215921   1.454   0.360   1.035 -2.6059  1.3792  0.3585
 1488SOL     OW15922   1.350   3.434   9.738 -0.7425  0.0560  0.2364
 1488SOL    HW115923   1.416   3.386   9.689  0.1213  0.5094  0.9645
 1488SOL    HW215924   1.276   3.449   9.678 -1.0203  0.0880  0.5856
 1489SOL     OW15925   3.290   0.457  13.669 -0.3587  0.4285  0.4025
 1489SOL    HW115926   3.248   0.454  13.583  1.7546 -1.3703 -0.5523
 1489SOL    HW215927   3.381   0.430  13.661 -0.4439 -0.4930  2.5321
 1490SOL     OW15928   3.473   4.063   4.624  0.2044  0.2394  0.2153
 1490SOL    HW115929   3.469   4.157   4.606  0.0581  0.9512  4.0154
 1490SOL    HW215930   3.391   4.034   4.586  0.4766  1.7617 -1.5232
 1491SOL     OW15931   2.219   0.908   6.926 -0.2754  0.2746  0.0747
 1491SOL    HW115932   2.209   0.958   6.845  2.1641  2.3091  1.0140
 1491SOL    HW215933   2.172   0.970   6.981  2.6441  0.8933  1.8752
 1492SOL     OW15934   2.621   4.408  14.327 -0.4603  0.4649  0.0059
 1492SOL    HW115935   2.531   4.406  14.295 -0.8071 -0.8864  1.0502
 1492SOL    HW215936   2.612   4.373  14.416 -0.4653  1.6912  0.4932
 1493SOL     OW15937   1.461   2.145  15.930 -0.3943  0.3714 -0.3023
 1493SOL    HW115938   1.544   2.176  15.966  0.3336  0.8841 -2.4614
 1493SOL    HW215939   1.484   2.164  15.840  1.6343 -0.6385  0.0051
 1494SOL     OW15940   3.249   1.595  11.278 -0.0919 -0.3090  0.0325
 1494SOL    HW115941   3.344   1.586  11.287 -0.1096 -1.3383 -0.7828
 1494SOL    HW215942   3.248   1.633  11.190  0.8426  3.3533  1.6052
 1495SOL     OW15943   1.937   0.406   4.219 -0.5127  0.3017  0.4489
 1495SOL    HW115944   1.964   0.495   4.199  0.5712 -0.2075 -0.3150
 1495SOL    HW215945   1.862   0.427   4.275 -0.5446  2.1882 -0.3212
 1496SOL     OW15946   3.593   2.493   8.320  0.0073 -0.0168 -0.1729
 1496SOL    HW115947   3.662   2.518   8.381 -0.1211 -4.1290  1.6996
 1496SOL    HW215948   3.570   2.407   8.355  0.3041 -0.5820 -1.3538
 1497SOL     OW15949   0.656   0.220   2.194  0.0526 -0.2050 -0.1304
 1497SOL    HW115950   0.717   0.180   2.256  1.3321 -1.4732 -2.2415
 1497SOL    HW215951   0.713   0.252   2.124  1.0118 -3.1669 -0.6993
 1498SOL     OW15952   1.349   2.961   5.744  0.0536  0.1588 -0.2323
 1498SOL    HW115953   1.429   2.999   5.779 -0.3786  0.7654  0.1080
 1498SOL    HW215954   1.344   2.970   5.649  0.9916  0.5230 -0.2422
 1499SOL     OW15955   4.577   0.495  12.310  0.4694 -0.4964  0.3510
 1499SOL    HW115956   4.653   0.490  12.369 -0.6007 -2.0354  1.5952
 1499SOL    HW215957   4.562   0.589  12.300 -0.0597 -0.7812 -1.4038
 1500SOL     OW15958   1.129   4.308   0.245  0.1301  0.1024  0.3122
 1500SOL    HW115959   1.099   4.229   0.200  1.0131  0.3620 -0.7333
 1500SOL    HW215960   1.148   4.377   0.181  1.7344 -0.2436  0.4148
 1501SOL     OW15961   1.743   2.743   6.605  1.1802  0.0819  0.6953
 1501SOL    HW115962   1.715   2.820   6.555  0.6835 -1.2906 -1.1174
 1501SOL    HW215963   1.820   2.710   6.559 -0.1126  1.4942 -2.5203
 1502SOL     OW15964   0.035   2.478   4.205  0.0278  0.4689  0.1091
 1502SOL    HW115965   4.721   2.566   4.204 -0.0661  0.4454  1.1923
 1502SOL    HW215966   0.041   2.467   4.110  1.9905  0.7204  0.2108
 1503SOL     OW15967   3.011   2.145   8.853  0.4126 -0.1115 -0.4315
 1503SOL    HW115968   3.098   2.147   8.893  0.4953  0.1491 -0.6223
 1503SOL    HW215969   3.031   2.134   8.760  0.6566  1.5035 -0.5701
 1504SOL     OW15970   3.078   0.664  15.450  0.2590  0.2443  0.3156
 1504SOL    HW115971   3.018   0.620  15.510 -0.9566  2.4938  0.7656
 1504SOL    HW215972   3.077   0.605  15.376 -0.8516 -0.4512  0.8825
 1505SOL     OW15973   3.800   1.661  11.445 -0.4459 -0.0173  0.5190
 1505SOL    HW115974   3.742   1.587  11.460  3.0581 -2.6932  0.9279
 1505SOL    HW215975   3.750   1.728  11.492  0.8025  1.3415 -0.0896
 1506SOL     OW15976   2.953   1.989  13.209 -0.2285  0.3655  0.7343
 1506SOL    HW115977   3.027   1.936  13.238 -0.5940 -0.7519 -0.3791
 1506SOL    HW215978   2.982   2.079  13.225 -2.3704  1.0935  0.4785
 1507SOL     OW15979   0.677   1.026   1.390 -0.4816 -0.1122 -0.0222
 1507SOL    HW115980   0.760   1.002   1.432  0.0677  1.6113 -0.1101
 1507SOL    HW215981   0.689   1.118   1.367  0.4643 -0.0747  0.6225
 1508SOL     OW15982   1.503   2.390  13.664  0.2592  0.7150  0.1503
 1508SOL    HW115983   1.468   2.315  13.616  1.4839  1.7723 -2.3631
 1508SOL    HW215984   1.430   2.405  13.725 -0.9094 -1.4268 -0.7226
 1509SOL     OW15985   0.501   0.263   1.138 -0.0358  0.1075 -0.7764
 1509SOL    HW115986   0.450   0.193   1.097  0.1731 -0.2008 -0.5070
 1509SOL    HW215987   0.433   0.315   1.180 -0.6505 -2.9172  1.9748
 1510SOL     OW15988   3.721   0.602   7.967 -0.1459 -0.7046  0.0150
 1510SOL    HW115989   3.808   0.629   7.938 -0.0885 -1.6986 -0.7559
 1510SOL    HW215990   3.723   0.630   8.058 -0.0567 -0.3695 -0.0876
 1511SOL     OW15991   4.613   0.660   6.838 -0.2736  0.3709  0.4199
 1511SOL    HW115992   4.647   0.571   6.843  2.1619  1.1018 -3.3069
 1511SOL    HW215993   4.558   0.658   6.759 -1.3259  0.5777  1.1470
 1512SOL     OW15994   3.076   3.295   0.050 -0.1622  0.5634  0.0974
 1512SOL    HW115995   3.105   3.324   0.136  1.6323 -1.1917  0.0967
 1512SOL    HW215996   3.022   3.370   0.025 -0.0235  1.0546  1.2509
 1513SOL     OW15997   2.251   4.349   1.038 -0.6353  0.2762 -0.3126
 1513SOL    HW115998   2.286   4.346   0.948  0.2376  0.8119  0.0088
 1513SOL    HW215999   2.187   4.279   1.029 -0.7499  0.3902 -0.3777
 1514SOL     OW16000   3.336   1.939   7.707 -0.1576  0.2220  0.4224
 1514SOL    HW116001   3.423   1.918   7.673 -0.5232 -1.3552  0.4445
 1514SOL    HW216002   3.334   1.880   7.783 -3.0275 -0.0128  0.1718
 1515SOL     OW16003   1.577   2.898  13.048  0.1862  0.2849 -0.4289
 1515SOL    HW116004   1.494   2.851  13.049 -0.2151  0.9931 -1.1840
 1515SOL    HW216005   1.646   2.832  13.050  0.8911  0.9584 -2.5825
 1516SOL     OW16006   3.519   2.802   3.542  0.0109 -0.3116 -0.6451
 1516SOL    HW116007   3.444   2.761   3.500 -0.4559  0.6792 -0.7813
 1516SOL    HW216008   3.524   2.760   3.628  0.6761  1.2859  0.1063
 1517SOL     OW16009   0.978   1.556   1.682 -0.3983 -0.1744  0.4792
 1517SOL    HW116010   1.070   1.565   1.655 -0.5266 -0.8037 -0.1400
 1517SOL    HW216011   0.946   1.477   1.638 -2.4315  1.8390 -1.6580
 1518SOL     OW16012   0.113   1.774   3.724 -0.7932  0.0205  0.1786
 1518SOL    HW116013   0.093   1.833   3.652 -0.5597 -1.7156 -1.3189
 1518SOL    HW216014   0.134   1.834   3.796  0.1942 -0.8523  0.6333
 1519SOL     OW16015   3.165   0.766  10.989  0.6750  0.3768 -0.1423
 1519SOL    HW116016   3.207   0.850  10.969  0.9421  0.4722  0.8109
 1519SOL    HW216017   3.239   0.713  11.020  0.9149  1.6221  1.4289
 1520SOL     OW16018   1.435   0.930  14.116 -0.0335  0.4327 -0.1386
 1520SOL    HW116019   1.515   0.983  14.118  0.8965 -1.0799  2.8833
 1520SOL    HW216020   1.389   0.966  14.192 -1.0746 -1.6212  0.2063
 1521SOL     OW16021   0.022   2.247   4.363  0.0038 -0.3218  0.8904
 1521SOL    HW116022   0.049   2.170   4.312 -0.4963 -0.0697  0.2578
 1521SOL    HW216023   0.041   2.324   4.309  1.4232 -1.3225 -0.0534
 1522SOL     OW16024   3.670   2.770   1.559  0.0702 -0.6271 -0.9877
 1522SOL    HW116025   3.631   2.747   1.643 -0.3169 -4.3725 -2.2276
 1522SOL    HW216026   3.752   2.721   1.559  0.8501  0.6865  0.9898
 1523SOL     OW16027   1.670   4.084  14.488  0.0547 -0.0317  0.2166
 1523SOL    HW116028   1.681   4.088  14.393 -2.2677  1.7128  0.0053
 1523SOL    HW216029   1.638   3.995  14.501 -0.5313  0.0073 -0.9492
 1524SOL     OW16030   3.011   0.723   1.037  0.5315  0.2274 -0.0021
 1524SOL    HW116031   2.930   0.687   1.002  1.1287 -0.1761 -0.9617
 1524SOL    HW216032   2.990   0.729   1.130 -3.4190 -0.4586 -0.8751
 1525SOL     OW16033   0.067   1.200  16.135  0.0822  0.7609 -0.2572
 1525SOL    HW116034   4.707   1.247  16.145 -1.0450 -1.0135 -1.2336
 1525SOL    HW216035   0.122   1.274  16.111 -0.8896  0.4468 -3.4879
 1526SOL     OW16036   1.817   3.591   6.436  0.5283 -0.0397 -0.2161
 1526SOL    HW116037   1.825   3.685   6.420 -0.5261  0.0903  0.0050
 1526SOL    HW216038   1.905   3.558   6.420  1.2132  1.5248  0.3520
 1527SOL     OW16039   1.546   3.007   6.454 -0.2796 -0.3270 -0.2159
 1527SOL    HW116040   1.459   3.045   6.462 -0.6283 -1.0402 -0.6137
 1527SOL    HW216041   1.591   3.047   6.529 -1.0171 -0.9437  0.5572
 1528SOL     OW16042   1.838   0.424   7.794 -0.2902 -0.1215  0.2891
 1528SOL    HW116043   1.747   0.409   7.767 -0.1148  1.7730 -1.3875
 1528SOL    HW216044   1.885   0.376   7.726  0.3318  1.6883 -0.5656
 1529SOL     OW16045   3.030   1.805   4.728  0.0882  0.0358 -0.2567
 1529SOL    HW116046   3.069   1.829   4.644  1.2307 -0.0180  0.2488
 1529SOL    HW216047   3.069   1.718   4.739  1.5048  0.4610 -1.8733
 1530SOL     OW16048   1.034   2.336  16.594  0.4618  0.2049  0.5533
 1530SOL    HW116049   1.102   2.384  16.641 -0.8455  2.6116 -0.0074
 1530SOL    HW216050   1.078   2.252  16.588 -1.5179 -0.6990 -1.2352
 1531SOL     OW16051   0.852   0.714   2.411  0.8540 -0.7395 -0.0398
 1531SOL    HW116052   0.886   0.770   2.481  0.9559 -0.0736 -0.6216
 1531SOL    HW216053   0.890   0.633   2.443  0.7561 -0.4727  0.7463
 1532SOL     OW16054   1.380   2.479   4.595 -0.1300 -0.8468 -0.2668
 1532SOL    HW116055   1.363   2.528   4.676 -1.6893 -1.4384 -0.2409
 1532SOL    HW216056   1.345   2.536   4.527  1.4954  1.7754  1.0640
 1533SOL     OW16057   2.449   4.139   7.421 -0.5683  0.0339 -0.4842
 1533SOL    HW116058   2.522   4.114   7.478 -0.8824  0.0699 -0.0708
 1533SOL    HW216059   2.387   4.171   7.486  0.1067 -0.6766  0.5030
 1534SOL     OW16060   0.780   0.028   3.620 -0.2248 -0.1818  0.3932
 1534SOL    HW116061   0.778   4.700   3.539  1.6249  0.7242 -0.2201
 1534SOL    HW216062   0.845   0.094   3.596  0.6439 -0.2253  2.6215
 1535SOL     OW16063   2.176   0.221  12.363  0.5873 -0.2966  0.1762
 1535SOL    HW116064   2.216   0.306  12.345 -1.3896  0.4001 -0.8410
 1535SOL    HW216065   2.142   0.205  12.275  1.0169  0.2152 -0.0829
 1536SOL     OW16066   1.259   0.566  15.316 -0.1044  0.6709  0.0281
 1536SOL    HW116067   1.177   0.616  15.309  0.4194  1.7247  1.3612
 1536SOL    HW216068   1.239   0.524  15.400 -0.7544  0.3159 -0.3026
 1537SOL     OW16069   1.391   4.367  13.371  0.4508  0.1459  0.0674
 1537SOL    HW116070   1.403   4.318  13.290  0.8288  2.1879 -1.1037
 1537SOL    HW216071   1.397   4.303  13.442 -1.5215  0.6651  0.6854
 1538SOL     OW16072   4.342   4.299   1.195  0.4487  0.0281  0.5143
 1538SOL    HW116073   4.400   4.268   1.264  1.5718 -0.0462 -0.4617
 1538SOL    HW216074   4.332   4.390   1.222 -1.8679  0.3830 -1.5574
 1539SOL     OW16075   1.120   4.651  17.281  0.4487 -0.4813  0.2771
 1539SOL    HW116076   1.198   4.601  17.306 -0.6942 -2.2554  0.2893
 1539SOL    HW216077   1.049   4.593  17.254 -0.9316  0.9321  0.9125
 1540SOL     OW16078   2.842   3.198   9.021 -0.2277  0.1232 -0.1737
 1540SOL    HW116079   2.850   3.120   9.076 -0.7208 -0.5624 -1.0662
 1540SOL    HW216080   2.904   3.256   9.064  0.0674  1.3179 -2.2153
 1541SOL     OW16081   3.297   2.294   9.541  0.3603 -0.4560 -0.2420
 1541SOL    HW116082   3.323   2.273   9.451  0.0374  0.3785 -0.5272
 1541SOL    HW216083   3.330   2.221   9.593 -2.4773 -0.7296  1.1119
 1542SOL     OW16084   1.616   1.639   0.371  0.4300  0.3086  0.0671
 1542SOL    HW116085   1.697   1.681   0.340  1.5973 -0.2415  2.3890
 1542SOL    HW216086   1.607   1.663   0.463  1.2720  0.8775  0.0017
 1543SOL     OW16087   0.871   1.314  15.594 -0.7303  0.0291 -0.3220
 1543SOL    HW116088   0.933   1.382  15.621  0.9493 -1.3576 -0.6736
 1543SOL    HW216089   0.790   1.351  15.629 -1.0456 -1.7976  0.8913
 1544SOL     OW16090   1.245   2.923  12.246 -0.2709 -0.7668  0.7194
 1544SOL    HW116091   1.205   2.952  12.328 -0.5205  1.8573 -0.3350
 1544SOL    HW216092   1.336   2.920  12.276  0.4514  1.2474 -1.2607
 1545SOL     OW16093   3.791   0.697   8.516  0.2541  0.1008 -0.5655
 1545SOL    HW116094   3.720   0.758   8.536  0.8286  0.5802  0.0313
 1545SOL    HW216095   3.799   0.639   8.592  1.1030 -0.9477 -1.4426
 1546SOL     OW16096   4.230   3.041   6.348  0.2285  0.0352  0.4899
 1546SOL    HW116097   4.218   3.130   6.312 -1.0741  0.1783  1.2796
 1546SOL    HW216098   4.140   3.015   6.367  1.6682 -2.3151  3.9157
 1547SOL     OW16099   3.381   0.815  17.165 -0.2147  0.3556  0.2240
 1547SOL    HW116100   3.446   0.838  17.232 -0.2881  2.5841 -0.4686
 1547SOL    HW216101   3.322   0.886  17.191 -2.0723 -0.4290 -1.8525
 1548SOL     OW16102   2.973   0.159   4.396  0.6282  0.6573  0.3502
 1548SOL    HW116103   3.000   0.210   4.471  1.7799  1.7500 -0.8049
 1548SOL    HW216104   2.928   0.228   4.348  1.9276  0.4090 -1.2455
 1549SOL     OW16105   0.576   1.818  12.462  0.1411 -0.0341  0.3072
 1549SOL    HW116106   0.566   1.866  12.544 -2.1323  1.2919 -0.7385
 1549SOL    HW216107   0.668   1.817  12.436  0.6213 -3.6317  2.1034
 1550SOL     OW16108   1.775   0.463   4.419 -0.4258 -0.5821  0.1839
 1550SOL    HW116109   1.699   0.407   4.431 -2.4517  2.1048 -0.0101
 1550SOL    HW216110   1.760   0.526   4.490  1.5310  0.6469 -0.4956
 1551SOL     OW16111   4.398   0.852   7.237 -0.4526 -1.0543 -0.0801
 1551SOL    HW116112   4.454   0.857   7.159 -0.6890  2.9661  0.0535
 1551SOL    HW216113   4.450   0.890   7.308 -0.0907 -2.9824  0.6903
 1552SOL     OW16114   3.223   1.263  12.131 -0.0964  0.0768  0.0183
 1552SOL    HW116115   3.166   1.195  12.166 -2.0419  0.4964 -2.3122
 1552SOL    HW216116   3.161   1.321  12.086  0.2349 -0.8399 -1.5986
 1553SOL     OW16117   2.975   0.587   8.700 -0.0710  0.2192  0.3444
 1553SOL    HW116118   2.993   0.499   8.732  0.7598 -0.0256 -0.7797
 1553SOL    HW216119   3.004   0.633   8.778 -0.6888 -0.5299  1.0111
 1554SOL     OW16120   2.934   4.199   9.066 -0.2391 -0.0007  0.4176
 1554SOL    HW116121   2.906   4.220   9.155 -0.3848 -0.3406  0.4509
 1554SOL    HW216122   2.984   4.118   9.069 -0.0205  0.1392  0.5807
 1555SOL     OW16123   2.813   4.011  13.670  0.4811 -0.0788  0.4224
 1555SOL    HW116124   2.739   4.014  13.730 -1.3603 -2.2473 -1.7137
 1555SOL    HW216125   2.768   3.982  13.590  0.0153 -1.8450  1.3235
 1556SOL     OW16126   3.445   3.598   7.055  0.3593 -0.4184 -0.5305
 1556SOL    HW116127   3.523   3.622   7.006 -0.9653 -0.9818 -2.9001
 1556SOL    HW216128   3.402   3.535   6.997 -0.8012 -1.7290  1.7590
 1557SOL     OW16129   3.749   2.053   1.919  0.1764  0.0019 -0.1428
 1557SOL    HW116130   3.760   2.148   1.924 -0.4184  0.0403  0.5013
 1557SOL    HW216131   3.746   2.045   1.824 -2.5849 -0.7133  0.0044
 1558SOL     OW16132   0.007   3.851   8.754  0.0882 -0.3834  0.3576
 1558SOL    HW116133   0.068   3.923   8.773 -0.0946  0.2933 -1.6620
 1558SOL    HW216134   4.648   3.894   8.774  0.8599  1.8299 -1.1851
 1559SOL     OW16135   0.199   0.740   3.578 -0.1222 -0.0835 -0.2768
 1559SOL    HW116136   0.219   0.671   3.515  1.9128  1.1317 -0.9815
 1559SOL    HW216137   0.132   0.696   3.630  0.0236  0.8826  0.7373
 1560SOL     OW16138   4.695   1.394   8.927 -0.4756  0.4823 -0.9301
 1560SOL    HW116139   4.659   1.324   8.981  1.8464 -0.9233 -1.1769
 1560SOL    HW216140   4.615   1.436   8.898  0.0106  0.0924 -2.8765
 1561SOL     OW16141   3.188   2.828  11.910  0.5956  0.4791 -0.0998
 1561SOL    HW116142   3.215   2.790  11.827 -0.0445  0.0334 -0.1107
 1561SOL    HW216143   3.246   2.785  11.972  0.4294  0.1354 -0.1798
 1562SOL     OW16144   1.641   2.735   3.859 -0.0128 -0.0388 -0.0431
 1562SOL    HW116145   1.636   2.662   3.920  2.4431  1.0043  1.4023
 1562SOL    HW216146   1.627   2.799   3.928 -0.0699 -0.4866  0.3559
 1563SOL     OW16147   1.628   0.114   2.539 -0.5398  0.4325  0.6586
 1563SOL    HW116148   1.618   0.020   2.523  1.2567  0.5624 -1.3000
 1563SOL    HW216149   1.646   0.125   2.632 -1.1995 -0.0146  0.8399
 1564SOL     OW16150   4.588   0.237   8.713 -0.0869  0.8040 -0.9150
 1564SOL    HW116151   4.524   0.241   8.642 -2.7560  0.6952  1.4625
 1564SOL    HW216152   4.643   0.166   8.679 -2.3220 -0.8062 -1.2006
 1565SOL     OW16153   0.808   2.862   4.772 -0.5064  0.0621  0.9259
 1565SOL    HW116154   0.821   2.890   4.863 -1.3687  1.6377  0.5683
 1565SOL    HW216155   0.743   2.794   4.791 -0.7462  0.2410  0.7457
 1566SOL     OW16156   0.031   3.888   7.259 -0.3185 -0.1104 -0.0612
 1566SOL    HW116157   4.665   3.855   7.263 -0.0093 -1.2038 -1.9861
 1566SOL    HW216158   0.020   3.977   7.226 -1.6842  0.0965  0.9800
 1567SOL     OW16159   0.755   0.067   1.891 -0.7249  0.2662 -0.2776
 1567SOL    HW116160   0.677   0.054   1.836 -1.1402  1.9533 -0.0913
 1567SOL    HW216161   0.752   0.162   1.901  0.3217  0.3278 -0.6430
 1568SOL     OW16162   0.534   0.407  10.970 -0.4092 -0.4304 -0.0874
 1568SOL    HW116163   0.459   0.466  10.982 -0.0572  0.2549 -1.2846
 1568SOL    HW216164   0.582   0.461  10.907  2.5605 -0.4633  2.1374
 1569SOL     OW16165   1.158   0.306  17.278  0.4678 -0.6401  0.0576
 1569SOL    HW116166   1.127   0.373  17.217  2.7078  0.1316 -0.2327
 1569SOL    HW216167   1.201   0.240  17.224  0.2814 -0.6149 -0.1216
 1570SOL     OW16168   1.974   1.259   0.088  0.1627  0.0111 -0.5205
 1570SOL    HW116169   1.888   1.264   0.129  1.0753  1.4316  1.2293
 1570SOL    HW216170   2.024   1.318   0.145  1.6813 -0.0526 -1.7918
 1571SOL     OW16171   3.081   2.708   9.366 -0.2467  0.5457 -0.0591
 1571SOL    HW116172   2.988   2.705   9.344 -0.0887  0.2918 -0.7031
 1571SOL    HW216173   3.089   2.705   9.461  1.6070 -0.4657 -0.2320
 1572SOL     OW16174   0.710   2.400   8.682 -0.3711 -0.3279  0.5738
 1572SOL    HW116175   0.661   2.463   8.629  3.0088  1.0634 -0.8958
 1572SOL    HW216176   0.721   2.447   8.765  1.1123  0.0104  0.1662
 1573SOL     OW16177   2.604   1.392   8.222  0.1359  0.1502 -0.0816
 1573SOL    HW116178   2.625   1.321   8.162  1.4397  0.4208  0.0509
 1573SOL    HW216179   2.646   1.353   8.299  0.5597 -1.3453 -1.0755
 1574SOL     OW16180   3.142   0.153  12.842  0.0340 -0.0174  0.3081
 1574SOL    HW116181   3.196   0.150  12.763 -0.4019  0.4501 -0.0138
 1574SOL    HW216182   3.135   0.248  12.853  1.5936  0.1610 -0.3112
 1575SOL     OW16183   0.063   1.022  12.184  0.3419 -0.5711 -0.4012
 1575SOL    HW116184   4.698   1.059  12.181  1.3179  1.6757 -2.6385
 1575SOL    HW216185   0.065   1.006  12.278  0.6627  1.2091 -0.1047
 1576SOL     OW16186   2.286   2.592   4.559 -0.2129  0.1246 -0.4621
 1576SOL    HW116187   2.230   2.528   4.603 -2.5557  1.0353 -2.1042
 1576SOL    HW216188   2.348   2.536   4.513 -0.0272 -0.5866  0.6591
 1577SOL     OW16189   1.274   3.393   8.830  1.1192  0.2308  0.0632
 1577SOL    HW116190   1.221   3.358   8.759 -0.8595  1.8704  0.7418
 1577SOL    HW216191   1.352   3.337   8.824  2.3431  1.8474  0.9523
 1578SOL     OW16192   1.339   1.440   5.361  0.1167  0.2197  0.1319
 1578SOL    HW116193   1.314   1.393   5.440  0.3581 -0.6881 -0.3333
 1578SOL    HW216194   1.262   1.495   5.344  0.2227  0.5458  0.6926
 1579SOL     OW16195   0.338   2.638   5.693  0.9635 -0.4233  0.2271
 1579SOL    HW116196   0.310   2.656   5.782  1.4274  0.3746  0.2116
 1579SOL    HW216197   0.404   2.707   5.693 -1.6790  2.1053 -0.6477
 1580SOL     OW16198   3.059   1.785  13.390  0.0850 -0.9397 -0.1414
 1580SOL    HW116199   3.111   1.706  13.403 -0.4230 -1.0476  1.2458
 1580SOL    HW216200   2.975   1.755  13.426 -0.3231  1.9925  1.3427
 1581SOL     OW16201   0.900   3.320  11.334 -0.4726 -0.6761  0.6431
 1581SOL    HW116202   0.948   3.348  11.412 -0.5233  1.6025 -0.1489
 1581SOL    HW216203   0.892   3.403  11.288 -1.5463 -1.8161 -1.2223
 1582SOL     OW16204   0.079   4.030  10.179  0.4462 -0.2705 -0.0491
 1582SOL    HW116205   0.076   4.011  10.086 -0.8462  2.4479 -0.5589
 1582SOL    HW216206   0.163   4.075  10.173  0.0631  0.8067  2.3233
 1583SOL     OW16207   3.640   0.862   9.760  0.4650  0.7886  0.6525
 1583SOL    HW116208   3.586   0.939   9.740 -0.0957  0.2704  0.1749
 1583SOL    HW216209   3.612   0.841   9.849  2.2856 -1.5530  0.6597
 1584SOL     OW16210   4.456   2.437   1.952  0.2481 -0.4122 -0.0917
 1584SOL    HW116211   4.361   2.443   1.948  0.1644 -1.2333  0.8506
 1584SOL    HW216212   4.468   2.351   1.993 -1.4394 -0.4407  0.3033
 1585SOL     OW16213   3.631   1.819  11.626 -0.4420  0.3308  0.5809
 1585SOL    HW116214   3.612   1.912  11.623 -0.5557  0.2980  0.3399
 1585SOL    HW216215   3.643   1.800  11.719 -1.7051  0.2711  0.7295
 1586SOL     OW16216   3.648   4.163   8.909 -0.0705 -0.2415  0.2842
 1586SOL    HW116217   3.640   4.256   8.927  1.1374  0.0160 -0.5268
 1586SOL    HW216218   3.630   4.129   8.996  0.5494 -0.4708  0.3240
 1587SOL     OW16219   2.279   0.061   5.596  0.3856  0.1093  0.3115
 1587SOL    HW116220   2.325   0.109   5.665  1.0215 -1.1302  0.7512
 1587SOL    HW216221   2.301   4.692   5.611 -2.9566 -0.9129 -1.0700
 1588SOL     OW16222   2.900   2.213   5.525  0.2167  0.2854  0.2952
 1588SOL    HW116223   2.928   2.124   5.504 -0.2338  0.1819  0.1067
 1588SOL    HW216224   2.815   2.197   5.565 -0.8705  0.5774 -1.8567
 1589SOL     OW16225   0.919   2.418   4.954  0.1316  0.2973  0.4214
 1589SOL    HW116226   1.000   2.465   4.936  0.6961 -0.1400  1.7984
 1589SOL    HW216227   0.881   2.410   4.867 -1.1426  1.4725  0.8555
 1590SOL     OW16228   1.946   0.827  12.484  0.4951  0.1394  0.2272
 1590SOL    HW116229   1.882   0.837  12.555  0.2362 -1.2857  0.2034
 1590SOL    HW216230   2.030   0.832  12.529  0.7556  2.2579 -0.5251
 1591SOL     OW16231   1.320   0.922   6.705  0.4390  0.1646 -0.4529
 1591SOL    HW116232   1.262   0.846   6.696  1.5488 -0.6307 -0.9056
 1591SOL    HW216233   1.301   0.944   6.796  0.0367  2.1504 -1.0187
 1592SOL     OW16234   1.251   3.762   6.303 -0.0593 -0.2456  0.3894
 1592SOL    HW116235   1.282   3.719   6.223  1.0011  0.7023  0.2917
 1592SOL    HW216236   1.251   3.854   6.275 -2.5546  0.5123  2.8658
 1593SOL     OW16237   0.737   1.449  14.560 -0.2528  0.5175  0.7318
 1593SOL    HW116238   0.762   1.540  14.579  2.1791  0.0592 -0.2043
 1593SOL    HW216239   0.742   1.452  14.464 -0.4734 -0.7234  0.6791
 1594SOL     OW16240   2.211   4.638   3.428 -0.0717 -0.4483 -0.4950
 1594SOL    HW116241   2.303   4.651   3.404  0.5135  0.5611  2.3051
 1594SOL    HW216242   2.208   4.699   3.502 -0.0493 -0.2455 -0.6619
 1595SOL     OW16243   1.841   4.579  15.935 -0.6042  0.7980  0.7253
 1595SOL    HW116244   1.831   4.542  15.847  1.6852  0.3521  0.6545
 1595SOL    HW216245   1.762   4.545  15.978  0.5713 -4.1132 -0.9264
 1596SOL     OW16246   1.243   1.169   5.440 -0.5320 -0.4004  0.1155
 1596SOL    HW116247   1.295   1.191   5.363 -1.2933  0.4762 -0.1472
 1596SOL    HW216248   1.263   1.077   5.453  2.2051  0.2401  0.4308
 1597SOL     OW16249   0.989   3.975   6.763 -1.0274 -0.1824 -0.1825
 1597SOL    HW116250   1.036   4.022   6.832 -2.9710 -1.6276  2.0924
 1597SOL    HW216251   1.049   3.906   6.735 -2.8003 -1.0466 -1.8521
 1598SOL     OW16252   3.460   4.382   6.130 -0.0427 -0.0836  0.0280
 1598SOL    HW116253   3.546   4.423   6.135  0.2916 -0.4924 -2.3182
 1598SOL    HW216254   3.457   4.305   6.186 -1.5356 -0.6517 -0.8217
 1599SOL     OW16255   2.515   0.760   7.910  0.2306  0.0306 -0.2079
 1599SOL    HW116256   2.502   0.768   8.004  0.8088 -1.2547 -0.0200
 1599SOL    HW216257   2.493   0.851   7.889 -1.4752  0.0595  1.7213
 1600SOL     OW16258   2.543   4.454   7.092 -0.0586  0.2372  0.0712
 1600SOL    HW116259   2.475   4.513   7.125 -0.4199  0.7439 -1.5785
 1600SOL    HW216260   2.573   4.416   7.175 -0.6795  1.1843  0.7442
 1601SOL     OW16261   0.595   3.118   8.645  0.0776 -0.3664 -0.1620
 1601SOL    HW116262   0.511   3.077   8.664  0.8483 -1.4382  0.9014
 1601SOL    HW216263   0.638   3.045   8.600 -0.8193 -1.2495  0.4171
 1602SOL     OW16264   3.254   4.244  11.081 -0.2819 -0.1484 -0.0585
 1602SOL    HW116265   3.329   4.206  11.128  0.9116  0.2004 -1.7019
 1602SOL    HW216266   3.299   4.314  11.034  0.1895 -0.8158 -0.5966
 1603SOL     OW16267   4.626   1.266   5.240  0.2699 -0.5845 -1.1455
 1603SOL    HW116268   4.647   1.174   5.256  0.0167 -0.5335 -0.5195
 1603SOL    HW216269   4.685   1.318   5.294 -0.9920 -1.4185  1.0213
 1604SOL     OW16270   4.078   3.821  17.555 -0.2108  0.2206 -0.4296
 1604SOL    HW116271   4.066   3.746  17.498 -1.0730  0.9879 -1.2615
 1604SOL    HW216272   4.023   3.887  17.512  0.3621 -0.1244 -1.6827
 1605SOL     OW16273   0.891   1.155   6.234  0.4453  0.3662 -0.5454
 1605SOL    HW116274   0.861   1.246   6.232 -0.1456  0.1748 -0.5361
 1605SOL    HW216275   0.868   1.122   6.321 -0.7839  0.3966 -0.8630
 1606SOL     OW16276   0.272   0.015   1.234  0.3497  0.2122  0.2296
 1606SOL    HW116277   0.218   0.059   1.301  2.1331  0.0715  1.7473
 1606SOL    HW216278   0.250   4.646   1.230  1.0655  0.1364 -2.1211
 1607SOL     OW16279   2.052   1.462  13.080  0.1103  0.1878 -0.4737
 1607SOL    HW116280   1.998   1.456  13.159  1.4009  0.3026  0.4202
 1607SOL    HW216281   2.087   1.550  13.074  0.1550  0.1892 -0.1925
 1608SOL     OW16282   3.357   0.619  11.110 -0.7559  0.2174 -0.1203
 1608SOL    HW116283   3.371   0.599  11.202 -0.1801  0.9002 -0.0548
 1608SOL    HW216284   3.298   0.550  11.080  0.9043 -0.3048 -2.2172
 1609SOL     OW16285   3.789   3.221   9.966  0.4499  0.1344 -0.0771
 1609SOL    HW116286   3.701   3.209  10.002 -0.7408 -0.3072 -3.1142
 1609SOL    HW216287   3.832   3.268  10.038 -1.0136  0.2283  0.7332
 1610SOL     OW16288   2.610   1.674   6.453  0.1171 -0.7140  0.6209
 1610SOL    HW116289   2.641   1.745   6.397  0.6583 -1.8216 -0.4733
 1610SOL    HW216290   2.553   1.721   6.514 -1.7759 -0.9043 -0.9947
 1611SOL     OW16291   4.268   4.394   6.996  0.0677 -0.0072  0.5423
 1611SOL    HW116292   4.227   4.445   6.926 -0.2533  1.0323  1.4785
 1611SOL    HW216293   4.287   4.468   7.053  0.0801 -1.2929  2.1879
 1612SOL     OW16294   2.995   1.078   5.416 -0.5346 -0.6203  0.6038
 1612SOL    HW116295   3.030   0.989   5.410  0.5248 -0.2095  0.7189
 1612SOL    HW216296   3.066   1.124   5.462 -1.0127  1.2004 -0.4893
 1613SOL     OW16297   4.384   3.187   6.021 -0.4091 -0.8320 -0.2137
 1613SOL    HW116298   4.453   3.173   5.956 -0.3054 -0.0661 -0.2691
 1613SOL    HW216299   4.435   3.238   6.085  0.1179 -0.5571 -0.8537
 1614SOL     OW16300   0.930   3.208   5.264 -0.2079 -0.2411  1.0618
 1614SOL    HW116301   0.881   3.277   5.219  0.3559 -1.6037 -1.6450
 1614SOL    HW216302   0.867   3.136   5.264  1.7030 -1.9099  0.2059
 1615SOL     OW16303   2.058   1.488   5.333 -0.1525  0.1869  0.3988
 1615SOL    HW116304   2.145   1.496   5.296 -0.0499  2.0671  1.0432
 1615SOL    HW216305   2.035   1.402   5.299 -0.5206 -0.0220  1.1617
 1616SOL     OW16306   1.490   1.414   6.083 -0.4885  0.3161 -0.3283
 1616SOL    HW116307   1.469   1.355   6.156 -1.3567  1.0774  0.0401
 1616SOL    HW216308   1.545   1.481   6.122 -0.9851  0.3745  0.2716
 1617SOL     OW16309   4.448   1.300   1.760 -0.3396  0.0450  0.1094
 1617SOL    HW116310   4.444   1.297   1.855  0.6025 -2.6091  0.0781
 1617SOL    HW216311   4.542   1.300   1.744 -0.0702 -1.8146  1.7096
 1618SOL     OW16312   4.665   3.098   9.484  0.3219  0.2736 -0.6274
 1618SOL    HW116313   4.722   3.101   9.561 -1.2509  1.5203  0.4774
 1618SOL    HW216314   4.683   3.009   9.452 -1.4235 -0.4633  0.4726
 1619SOL     OW16315   3.747   1.203   5.417  0.2653  0.3354 -0.4939
 1619SOL    HW116316   3.775   1.238   5.332 -0.9523 -1.4000 -1.6220
 1619SOL    HW216317   3.788   1.268   5.473  0.1189 -0.8857  1.0342
 1620SOL     OW16318   3.640   1.375   4.392  0.1809 -0.3459  0.1336
 1620SOL    HW116319   3.676   1.382   4.304  0.6780 -0.1472  0.3509
 1620SOL    HW216320   3.716   1.381   4.451  1.5510 -0.6591 -1.6042
 1621SOL     OW16321   4.061   2.933   9.220  0.0236  0.2924  0.1287
 1621SOL    HW116322   4.036   2.914   9.310  0.5432  3.4791  0.9155
 1621SOL    HW216323   3.976   2.941   9.176 -0.4522  0.6057  1.1104
 1622SOL     OW16324   3.170   2.119   7.581  0.1684 -0.4114  0.2287
 1622SOL    HW116325   3.229   2.058   7.626 -0.0085 -1.4464 -0.9513
 1622SOL    HW216326   3.235   2.178   7.543  1.3138 -1.8862 -0.0914
 1623SOL     OW16327   4.181   3.492   5.548  0.8070  0.0507  0.4406
 1623SOL    HW116328   4.140   3.442   5.619  0.0793  3.3999  2.3732
 1623SOL    HW216329   4.199   3.435   5.473  1.8785  1.6071 -0.4834
 1624SOL     OW16330   1.795   1.163  17.569  0.0499  0.1299 -0.0263
 1624SOL    HW116331   1.735   1.236  17.584  1.9020  1.7116 -0.2081
 1624SOL    HW216332   1.856   1.181  17.641 -0.9134  0.5682  0.6850
 1625SOL     OW16333   1.413   1.953   8.250 -0.1483 -0.3419 -0.0764
 1625SOL    HW116334   1.465   1.883   8.291 -0.4864 -0.5866 -0.0669
 1625SOL    HW216335   1.335   1.948   8.304 -0.0735  2.6049  0.2761
 1626SOL     OW16336   0.044   2.391   2.493 -0.0126  0.3011 -0.0686
 1626SOL    HW116337   0.039   2.441   2.412  1.0149 -0.3038 -0.4995
 1626SOL    HW216338   0.053   2.304   2.455  0.6921 -0.0279  0.8325
 1627SOL     OW16339   3.387   3.281   3.168 -0.3409 -0.5407  0.2327
 1627SOL    HW116340   3.306   3.283   3.219  0.0952  1.1215  0.8869
 1627SOL    HW216341   3.414   3.373   3.175 -1.6135 -0.1797  0.5665
 1628SOL     OW16342   1.920   3.007   0.659 -0.2173  0.1688 -0.3058
 1628SOL    HW116343   1.990   2.949   0.627 -1.4724 -1.4482 -0.1305
 1628SOL    HW216344   1.883   3.045   0.579  0.6012  0.8303 -0.3738
 1629SOL     OW16345   2.794   2.782   9.349  0.1966 -0.0641  0.9130
 1629SOL    HW116346   2.809   2.800   9.442  0.8674 -2.8189  1.3260
 1629SOL    HW216347   2.700   2.776   9.331  0.6357 -0.9585 -1.1329
 1630SOL     OW16348   3.912   3.482   4.957 -0.5257  0.4750  0.0023
 1630SOL    HW116349   3.831   3.521   4.925 -0.0219  2.7386  1.5106
 1630SOL    HW216350   3.960   3.563   4.970 -1.4119  1.2053 -1.3569
 1631SOL     OW16351   2.407   1.337  12.675 -0.2179  0.0927  0.6725
 1631SOL    HW116352   2.473   1.404  12.653 -0.5114 -0.5894 -2.2205
 1631SOL    HW216353   2.416   1.321  12.769  0.2168 -1.6817  0.3203
 1632SOL     OW16354   3.277   0.183   7.603  0.0964 -0.3756  0.7317
 1632SOL    HW116355   3.223   0.261   7.615  1.2069  0.2726  1.5734
 1632SOL    HW216356   3.219   0.117   7.640  1.0581 -0.7866  1.4829
 1633SOL     OW16357   3.671   2.854  11.011  0.1729 -0.2229  0.1686
 1633SOL    HW116358   3.762   2.839  10.988 -0.3148  0.5572 -2.2054
 1633SOL    HW216359   3.624   2.815  10.938 -0.2067 -0.3138  0.4570
 1634SOL     OW16360   3.314   1.474  12.647 -0.3112 -0.1056 -0.0838
 1634SOL    HW116361   3.245   1.539  12.643  0.0492  0.3512  1.2182
 1634SOL    HW216362   3.391   1.531  12.649 -1.7854  1.7859  1.5823
 1635SOL     OW16363   0.617   2.094   5.345  0.5218  1.3334 -0.4116
 1635SOL    HW116364   0.619   2.116   5.252 -1.3435 -0.2259 -0.8202
 1635SOL    HW216365   0.523   2.085   5.359  0.6411  1.1072  0.2508
 1636SOL     OW16366   4.390   3.031   4.210  0.0440  0.2799  0.4902
 1636SOL    HW116367   4.462   3.049   4.269  1.6634  1.7457 -1.9382
 1636SOL    HW216368   4.315   3.016   4.268  0.4976  1.2526  1.3146
 1637SOL     OW16369   0.897   1.573  13.877  0.0872  0.2347 -0.5431
 1637SOL    HW116370   0.833   1.530  13.934  0.2038  0.6700 -0.0785
 1637SOL    HW216371   0.978   1.532  13.906 -0.0876  1.8916  2.3241
 1638SOL     OW16372   4.666   0.455   6.197  0.5219 -0.3509 -0.2760
 1638SOL    HW116373   4.703   0.542   6.208  1.6920 -0.6820 -1.6083
 1638SOL    HW216374   4.693   0.413   6.279  1.6823  0.3281 -0.3085
 1639SOL     OW16375   2.384   4.690   8.467 -0.0044 -0.7745 -0.2401
 1639SOL    HW116376   2.323   4.712   8.397 -0.5740 -0.4772  0.3578
 1639SOL    HW216377   2.441   4.627   8.422 -0.1803 -1.7658  0.9430
 1640SOL     OW16378   0.026   0.385  17.446 -0.4151  0.0582  0.2884
 1640SOL    HW116379   4.705   0.470  17.441  3.6852  2.3042  2.0515
 1640SOL    HW216380   4.677   0.328  17.420 -0.9861  0.9598 -0.1220
 1641SOL     OW16381   3.852   0.890   5.185  0.0767 -0.0014 -0.3615
 1641SOL    HW116382   3.767   0.888   5.231  0.7025 -0.4569  0.7826
 1641SOL    HW216383   3.910   0.883   5.260 -0.6174  0.4508  0.2223
 1642SOL     OW16384   1.482   2.598  16.724  0.1192 -0.4247  0.0220
 1642SOL    HW116385   1.529   2.522  16.759  0.2896 -0.0526  0.5905
 1642SOL    HW216386   1.521   2.664  16.780  1.1083 -0.2971 -0.8292
 1643SOL     OW16387   4.372   0.527   2.637 -0.0166  0.4122 -0.2756
 1643SOL    HW116388   4.456   0.561   2.606  0.3399  0.3243  0.6081
 1643SOL    HW216389   4.358   0.478   2.555  2.6249 -2.3364  0.9028
 1644SOL     OW16390   1.072   0.269  17.534  0.7292  0.0993  0.1471
 1644SOL    HW116391   1.103   0.275  17.443 -0.3362  0.3787 -0.2003
 1644SOL    HW216392   1.042   0.358  17.552  0.7631  0.7667 -3.1223
 1645SOL     OW16393   1.991   3.509   5.282  0.1486 -0.0123 -0.2731
 1645SOL    HW116394   1.996   3.588   5.228  0.8967  0.1717  0.0706
 1645SOL    HW216395   1.911   3.525   5.332  0.0670 -2.4981  0.3995
 1646SOL     OW16396   2.825   4.036   6.681  0.0563 -0.6944  0.1564
 1646SOL    HW116397   2.904   4.043   6.735 -0.4660 -0.1485  0.8570
 1646SOL    HW216398   2.781   4.120   6.695 -2.3272 -2.1282  1.4299
 1647SOL     OW16399   2.623   0.188  12.907  0.1182 -0.0365  0.0987
 1647SOL    HW116400   2.695   0.156  12.853  0.5787 -2.1307  1.9456
 1647SOL    HW216401   2.627   0.282  12.889  1.9629 -0.1805 -0.2835
 1648SOL     OW16402   4.412   0.180  10.483  0.1459 -0.6133  0.3799
 1648SOL    HW116403   4.482   0.120  10.457 -1.0633 -1.2136 -1.4730
 1648SOL    HW216404   4.416   0.168  10.578 -1.3508  2.6763  0.8669
 1649SOL     OW16405   2.653   0.658   2.961  0.9310 -0.4376 -0.0473
 1649SOL    HW116406   2.624   0.601   2.890  0.5896 -2.8068  2.0172
 1649SOL    HW216407   2.598   0.737   2.954  0.9756 -0.4479 -0.5549
 1650SOL     OW16408   0.623   2.659   5.303 -0.4838 -0.1763 -0.6029
 1650SOL    HW116409   0.674   2.596   5.253 -0.4596 -0.0817 -0.6957
 1650SOL    HW216410   0.629   2.616   5.389  0.3809  0.9180 -0.1175
 1651SOL     OW16411   2.003   2.073  10.933 -0.3120 -0.3156  0.1644
 1651SOL    HW116412   2.086   2.093  10.888 -0.5277  2.2069  0.9140
 1651SOL    HW216413   2.014   2.107  11.021  1.9369  1.5265 -0.8116
 1652SOL     OW16414   0.390   2.412   9.410 -1.0040  0.3798 -0.6199
 1652SOL    HW116415   0.470   2.416   9.357 -0.2919 -1.5101  0.3234
 1652SOL    HW216416   0.381   2.318   9.419  2.1103  0.2358  0.8968
 1653SOL     OW16417   1.579   3.110   2.848  0.4091  0.4825 -0.8190
 1653SOL    HW116418   1.595   3.202   2.830  2.7155  0.0752 -0.9231
 1653SOL    HW216419   1.618   3.066   2.772  0.1825  1.9020 -1.7565
 1654SOL     OW16420   1.988   2.059   5.537  0.3967  0.1373 -0.3233
 1654SOL    HW116421   1.940   2.119   5.594 -0.2301 -2.0133  1.4154
 1654SOL    HW216422   2.055   2.031   5.599  0.6363  0.7741 -0.2941
 1655SOL     OW16423   1.014   0.729   7.425  0.3402  0.2793  0.3885
 1655SOL    HW116424   1.047   0.642   7.448 -0.4309  0.4931  2.3080
 1655SOL    HW216425   1.087   0.783   7.396  1.5312 -1.1371  0.7666
 1656SOL     OW16426   4.242   0.459  10.996  0.4985 -0.5050  0.0339
 1656SOL    HW116427   4.287   0.426  11.074 -0.2431 -2.1940 -0.2563
 1656SOL    HW216428   4.175   0.520  11.026  0.1256 -0.6461 -0.5153
 1657SOL     OW16429   2.400   4.466   3.860 -0.2503 -0.2950  0.0809
 1657SOL    HW116430   2.425   4.490   3.949 -0.4595  1.6679 -0.3826
 1657SOL    HW216431   2.319   4.418   3.876 -1.9160  2.2793 -0.6223
 1658SOL     OW16432   0.909   1.933   5.930  0.1389  0.0293 -0.0690
 1658SOL    HW116433   0.908   1.982   5.848 -0.7662  0.0312 -0.0542
 1658SOL    HW216434   1.000   1.952   5.955  0.1206 -0.3418  0.2950
 1659SOL     OW16435   3.013   3.966   8.085 -0.1008 -0.4815  0.1073
 1659SOL    HW116436   3.103   3.934   8.092 -0.4566 -1.8410 -1.9319
 1659SOL    HW216437   2.993   3.934   7.998 -0.1897 -2.4029  0.8467
 1660SOL     OW16438   3.801   4.017   8.291  0.4542 -0.3242 -0.2862
 1660SOL    HW116439   3.716   4.031   8.250  1.6133  2.4368 -1.7864
 1660SOL    HW216440   3.782   3.961   8.367  0.7355  0.3625  0.2963
 1661SOL     OW16441   1.415   2.244  17.691 -0.2596  0.0308  0.0340
 1661SOL    HW116442   1.448   2.212   0.080  0.7149 -0.2176 -0.4413
 1661SOL    HW216443   1.422   2.175  17.625 -0.1556  0.4447 -0.3812
 1662SOL     OW16444   2.246   0.191   8.229 -0.2576 -0.4937  0.1551
 1662SOL    HW116445   2.297   0.233   8.160 -2.6174  1.1494 -0.5962
 1662SOL    HW216446   2.276   0.223   8.314 -0.6841  0.7653 -0.1752
 1663SOL     OW16447   2.292   0.319  13.567  0.0815  0.1824  0.0203
 1663SOL    HW116448   2.365   0.292  13.511  1.3240  0.6450  1.3975
 1663SOL    HW216449   2.313   0.258  13.638  2.1222  0.0634 -0.6710
 1664SOL     OW16450   0.088   1.384   5.394 -0.1385  0.1549  0.0820
 1664SOL    HW116451   0.053   1.371   5.482 -0.2581  0.8409  0.1418
 1664SOL    HW216452   0.183   1.377   5.401 -0.4579 -2.4203  1.7412
 1665SOL     OW16453   0.183   2.592   8.823  0.6493 -0.0613  0.3132
 1665SOL    HW116454   0.168   2.593   8.918  0.7303  1.3362  0.3075
 1665SOL    HW216455   0.100   2.556   8.794  0.4524  0.0496  0.7382
 1666SOL     OW16456   3.547   3.825   8.922 -0.1027  0.6759  0.2342
 1666SOL    HW116457   3.523   3.890   8.856 -0.7246  0.2932  0.0933
 1666SOL    HW216458   3.473   3.839   8.982 -0.7997 -1.4120 -0.1403
 1667SOL     OW16459   0.967   0.918  15.778 -0.1709 -0.6314 -0.3622
 1667SOL    HW116460   1.045   0.973  15.785 -0.3666 -0.1905 -1.6568
 1667SOL    HW216461   0.914   0.956  15.847 -0.6087  1.0652 -1.6418
 1668SOL     OW16462   0.469   3.027   9.251 -0.6525 -0.3477  0.1363
 1668SOL    HW116463   0.421   3.107   9.272  0.0651  0.0072  0.4014
 1668SOL    HW216464   0.528   3.065   9.187 -1.1054 -1.2372 -0.8022
 1669SOL     OW16465   2.413   3.635   5.625  0.0030  0.8739  0.5502
 1669SOL    HW116466   2.493   3.621   5.574  0.3518  1.9941  0.7848
 1669SOL    HW216467   2.364   3.576   5.569 -1.3297  0.2048  2.4353
 1670SOL     OW16468   3.628   2.558  16.612 -0.4438  0.1569 -0.1547
 1670SOL    HW116469   3.572   2.502  16.667 -0.1720 -2.3922 -2.5015
 1670SOL    HW216470   3.594   2.538  16.525  0.9245  1.4188 -0.9657
 1671SOL     OW16471   4.624   0.020  14.661  0.1154  0.0041  0.3710
 1671SOL    HW116472   4.529   0.018  14.676 -0.2691  0.9909 -1.8586
 1671SOL    HW216473   4.637   0.082  14.590 -1.3212 -1.4177 -1.1523
 1672SOL     OW16474   2.660   4.431   9.466  0.3098 -0.4195  0.1202
 1672SOL    HW116475   2.698   4.468   9.386 -2.2889  1.1388 -0.3813
 1672SOL    HW216476   2.571   4.424   9.433  0.1502  1.2237  0.1741
 1673SOL     OW16477   3.527   3.335   6.190 -0.1129  0.9248  0.4612
 1673SOL    HW116478   3.550   3.298   6.275  0.3068  0.1976  0.0312
 1673SOL    HW216479   3.527   3.428   6.214 -0.3621  1.1015 -0.2171
 1674SOL     OW16480   2.875   1.179   4.165  0.0787 -0.2362 -0.2192
 1674SOL    HW116481   2.821   1.151   4.239 -1.2298 -0.3010 -1.1870
 1674SOL    HW216482   2.812   1.238   4.124  1.0136  1.5154  0.8662
 1675SOL     OW16483   1.063   2.198   8.075 -0.0876 -0.1046 -0.1838
 1675SOL    HW116484   1.070   2.254   8.153 -2.4770 -0.6067  0.3920
 1675SOL    HW216485   1.150   2.195   8.035  0.4052  2.4444  0.7233
 1676SOL     OW16486   2.717   0.956   5.144 -0.0106 -0.3484  0.0119
 1676SOL    HW116487   2.752   0.869   5.163  0.7315  0.2559  1.3697
 1676SOL    HW216488   2.625   0.941   5.123  0.3350  1.5682 -2.8946
 1677SOL     OW16489   2.949   4.530   7.870 -0.0785  0.1552 -0.1370
 1677SOL    HW116490   3.025   4.536   7.928 -1.3839 -1.8467  1.7711
 1677SOL    HW216491   2.889   4.564   7.936  0.4930 -0.1925  0.5686
 1678SOL     OW16492   2.079   4.277   1.295  0.1543  0.2177 -0.0395
 1678SOL    HW116493   2.075   4.183   1.312  1.9972 -0.0772 -1.1611
 1678SOL    HW216494   2.046   4.304   1.380  0.2465 -0.9241  0.3636
 1679SOL     OW16495   3.276   3.855   8.056  0.5502 -0.2069  0.4477
 1679SOL    HW116496   3.369   3.857   8.078 -0.2273  1.7786  3.6023
 1679SOL    HW216497   3.282   3.801   7.978  0.2499  1.1445 -0.5040
 1680SOL     OW16498   3.652   0.012   3.013  0.2469  0.4472  0.4062
 1680SOL    HW116499   3.697   4.652   3.023  0.7186  0.7698  1.0140
 1680SOL    HW216500   3.631   0.026   3.106 -2.8266  2.3337 -0.5629
 1681SOL     OW16501   3.269   3.019   6.230 -0.0220 -0.2185 -0.0458
 1681SOL    HW116502   3.223   2.953   6.179  1.7069 -0.1705 -1.6700
 1681SOL    HW216503   3.274   3.093   6.170  1.4941 -0.8775 -0.7510
 1682SOL     OW16504   0.775   3.011   3.939 -0.5017 -0.4341 -0.2097
 1682SOL    HW116505   0.805   3.006   4.029  0.3983  0.2596 -0.4706
 1682SOL    HW216506   0.829   3.088   3.920  0.6369 -0.4781  2.9441
 1683SOL     OW16507   0.433   2.606   3.263  0.3006  0.1786  0.8457
 1683SOL    HW116508   0.486   2.577   3.337 -0.0195  0.7529  1.3041
 1683SOL    HW216509   0.434   2.526   3.211  1.2719  0.9263 -0.3011
 1684SOL     OW16510   4.330   0.410   1.060 -0.6344  0.1747 -0.5237
 1684SOL    HW116511   4.393   0.472   1.023  0.4066 -0.1177  0.7788
 1684SOL    HW216512   4.339   0.330   1.008 -1.1645  0.5214 -1.1431
 1685SOL     OW16513   0.840   0.989  14.060  0.5378 -0.1163  0.6419
 1685SOL    HW116514   0.827   0.914  14.001  1.8998  1.5945 -1.8629
 1685SOL    HW216515   0.934   0.986  14.078  0.6129  2.9907  0.7578
 1686SOL     OW16516   1.364   4.317  15.281  0.5051  0.0145  0.5050
 1686SOL    HW116517   1.329   4.229  15.267  1.8270 -0.4795  0.2955
 1686SOL    HW216518   1.406   4.303  15.367  2.2916  0.4097 -0.2975
 1687SOL     OW16519   1.716   0.206   8.148  0.3679 -0.9950 -0.2083
 1687SOL    HW116520   1.655   0.234   8.080  3.0238  0.9263 -1.8272
 1687SOL    HW216521   1.659   0.176   8.218  1.1200  1.5599  1.4824
 1688SOL     OW16522   1.953   0.093   5.949 -0.2769 -0.1931 -0.0860
 1688SOL    HW116523   1.929   0.079   5.858  1.4453 -0.2276 -0.5379
 1688SOL    HW216524   2.001   0.174   5.936 -0.0054 -0.5690 -1.4237
 1689SOL     OW16525   2.900   2.010  13.782  0.3648 -0.0394  0.3074
 1689SOL    HW116526   2.914   2.035  13.873 -0.4030 -1.0370  0.7033
 1689SOL    HW216527   2.974   1.949  13.776  0.7562  0.5488 -0.9743
 1690SOL     OW16528   1.704   0.860   7.819  0.0122  0.2222 -0.3921
 1690SOL    HW116529   1.662   0.912   7.887  0.1794  0.1994 -0.2710
 1690SOL    HW216530   1.766   0.802   7.864  0.3640 -0.4160 -1.6678
 1691SOL     OW16531   1.591   3.519  17.660 -0.1691 -0.0811 -1.0833
 1691SOL    HW116532   1.577   3.581  17.588  1.3241 -0.2899 -1.5639
 1691SOL    HW216533   1.620   3.439  17.616 -0.4255 -0.0278 -1.3488
 1692SOL     OW16534   0.859   3.701   2.527 -0.2955  0.1434 -0.4054
 1692SOL    HW116535   0.901   3.647   2.595  1.2637 -0.9799 -2.2803
 1692SOL    HW216536   0.775   3.656   2.517  0.4385 -1.3271  0.0113
 1693SOL     OW16537   2.484   1.802  16.816  0.1212  0.0421  0.5476
 1693SOL    HW116538   2.487   1.786  16.721 -0.4420 -0.1738  0.5667
 1693SOL    HW216539   2.412   1.864  16.824  1.8551  2.1222  0.0161
 1694SOL     OW16540   1.908   1.513  11.091 -0.5437 -0.1854  0.3940
 1694SOL    HW116541   1.947   1.515  11.003  0.3907  1.8999  0.8505
 1694SOL    HW216542   1.980   1.556  11.137 -1.1868 -0.8535  2.0077
 1695SOL     OW16543   0.978   3.108   4.992 -0.3203 -0.1235 -0.1473
 1695SOL    HW116544   0.969   3.143   5.081  0.9212  3.0273 -1.2576
 1695SOL    HW216545   1.073   3.099   4.982 -0.2366  2.3344 -1.6798
 1696SOL     OW16546   1.400   1.486   2.069 -0.3235  0.6483 -0.2457
 1696SOL    HW116547   1.456   1.420   2.027 -1.1212  0.6089 -1.2544
 1696SOL    HW216548   1.457   1.562   2.076  2.6082 -1.6029  0.5378
 1697SOL     OW16549   4.536   1.290   0.156 -0.0011  0.2063 -0.3001
 1697SOL    HW116550   4.450   1.329   0.170 -0.1149  0.4227 -1.6024
 1697SOL    HW216551   4.518   1.200   0.185  1.6343 -0.3124 -0.9164
 1698SOL     OW16552   4.448   2.384  10.540 -0.3330 -0.2420 -0.0717
 1698SOL    HW116553   4.393   2.450  10.582  0.0685  0.7662 -1.1491
 1698SOL    HW216554   4.453   2.422  10.452 -3.2604  1.7201  0.6053
 1699SOL     OW16555   4.391   0.418  14.995  0.4518 -0.6003 -0.1736
 1699SOL    HW116556   4.446   0.340  15.002  1.0228 -0.4949 -3.4511
 1699SOL    HW216557   4.317   0.406  15.054 -0.9970  1.6076 -1.5473
 1700SOL     OW16558   3.222   1.455   2.582 -0.0227 -0.6746 -0.6824
 1700SOL    HW116559   3.217   1.524   2.516  1.7180 -0.1940 -0.3120
 1700SOL    HW216560   3.307   1.412   2.568  0.8628  0.9148 -0.2115
 1701SOL     OW16561   4.368   0.381   2.406 -0.3862 -0.3215 -0.3220
 1701SOL    HW116562   4.331   0.293   2.407 -1.5595  0.1664 -1.2061
 1701SOL    HW216563   4.393   0.401   2.316 -0.9083  1.4896 -0.0550
 1702SOL     OW16564   4.354   1.206   1.528  0.5327 -0.2401  0.1208
 1702SOL    HW116565   4.364   1.247   1.613 -2.0013 -2.0706  1.3188
 1702SOL    HW216566   4.404   1.271   1.479 -1.2580  0.8819 -0.2183
 1703SOL     OW16567   1.678   3.612  13.356  0.3072 -0.2884  0.0321
 1703SOL    HW116568   1.637   3.564  13.428  1.8166  0.0615  1.1278
 1703SOL    HW216569   1.682   3.546  13.287 -1.0022  0.5147 -0.8052
 1704SOL     OW16570   2.756   3.214   0.872 -1.2822  0.2450 -0.5792
 1704SOL    HW116571   2.704   3.268   0.813 -2.6145  0.5488  0.8775
 1704SOL    HW216572   2.686   3.169   0.919  0.4585 -1.9037  0.0134
 1705SOL     OW16573   0.948   4.361  15.273 -0.5693  0.3509  0.6980
 1705SOL    HW116574   0.901   4.423  15.328 -2.7813  0.7427 -1.6563
 1705SOL    HW216575   0.950   4.281  15.326  1.1099  0.1720  0.3844
 1706SOL     OW16576   2.604   3.361   4.079  0.1140  0.3048  0.1320
 1706SOL    HW116577   2.517   3.324   4.095  0.3535 -0.7230 -0.9975
 1706SOL    HW216578   2.627   3.333   3.991 -0.4505  0.2116  0.0163
 1707SOL     OW16579   4.249   3.356   8.226  0.0015  0.0039 -0.0879
 1707SOL    HW116580   4.168   3.315   8.254  0.1139  0.1776  0.4972
 1707SOL    HW216581   4.278   3.394   8.309 -1.0312 -2.6102  1.4698
 1708SOL     OW16582   2.039   3.109   2.437 -0.4798 -0.7412  0.1258
 1708SOL    HW116583   2.007   3.027   2.474 -1.2051 -1.4548 -2.1343
 1708SOL    HW216584   2.129   3.101   2.406 -1.8750  0.4041 -4.1999
 1709SOL     OW16585   2.233   0.149   7.115  0.3366  0.2735  0.4909
 1709SOL    HW116586   2.199   0.181   7.199 -1.4974 -1.7980  0.5217
 1709SOL    HW216587   2.285   0.074   7.143  2.7777  1.0150 -2.1289
 1710SOL     OW16588   1.645   4.401  15.339  0.1702 -0.4102 -0.2444
 1710SOL    HW116589   1.650   4.396  15.243  0.1559  2.0603 -0.3891
 1710SOL    HW216590   1.737   4.424  15.351 -0.0053  0.5253 -0.6571
 1711SOL     OW16591   1.324   4.719   7.979 -0.5151  0.0891 -0.0930
 1711SOL    HW116592   1.290   0.070   8.029 -2.2138 -1.4395  1.0325
 1711SOL    HW216593   1.416   0.022   7.973 -0.7791  1.0636  0.1039
 1712SOL     OW16594   3.660   1.756  11.174 -0.1063 -0.2617  0.1846
 1712SOL    HW116595   3.690   1.764  11.265 -0.5447  2.8186  0.0484
 1712SOL    HW216596   3.687   1.668  11.147  2.7455  0.5747  0.2760
 1713SOL     OW16597   3.598   1.160   1.456  0.3613 -0.5130 -0.3593
 1713SOL    HW116598   3.603   1.109   1.375  2.3176 -1.2643  0.2264
 1713SOL    HW216599   3.651   1.105   1.514  0.1351 -0.0340  0.3086
 1714SOL     OW16600   1.823   4.076   7.892 -0.5847  0.0204  0.0925
 1714SOL    HW116601   1.806   4.168   7.911 -1.5396  0.2375 -1.8538
 1714SOL    HW216602   1.898   4.059   7.949 -1.6981  0.1379  1.5789
 1715SOL     OW16603   0.065   1.964   7.058  0.1973 -0.4919 -0.4118
 1715SOL    HW116604   0.095   2.032   7.119  1.6918 -1.8322  0.3464
 1715SOL    HW216605   4.723   1.915   7.107 -0.6751  1.4769  0.4041
 1716SOL     OW16606   0.908   4.583  15.425  0.2522  0.3885  0.2969
 1716SOL    HW116607   0.856   4.591  15.505 -1.8543 -0.5827 -0.9760
 1716SOL    HW216608   0.889   4.673  15.399 -0.9831  0.0245 -0.0832
 1717SOL     OW16609   4.358   1.971   2.582  0.7267  0.0719 -0.9769
 1717SOL    HW116610   4.291   1.907   2.557  1.9869 -2.1011  1.1082
 1717SOL    HW216611   4.423   1.966   2.511  2.4759 -1.2356  0.7127
 1718SOL     OW16612   3.248   3.192  17.303 -0.4861  0.4487  0.1923
 1718SOL    HW116613   3.209   3.105  17.293  0.1910  0.2215 -0.5239
 1718SOL    HW216614   3.259   3.198  17.398 -0.2708  0.9601  0.1343
 1719SOL     OW16615   1.690   0.102   0.469 -0.0226  0.5256  0.1419
 1719SOL    HW116616   1.666   0.062   0.385  0.7088  0.1362  0.1154
 1719SOL    HW216617   1.605   0.134   0.497 -0.2431 -0.1674  0.2691
 1720SOL     OW16618   3.032   1.536   3.516  0.3906 -0.4040  0.1536
 1720SOL    HW116619   3.001   1.500   3.433 -4.5644 -1.4669  2.4820
 1720SOL    HW216620   3.124   1.517   3.497  0.9629 -0.2808  2.7691
 1721SOL     OW16621   4.216   2.159   9.373  0.3054  0.1020  0.2014
 1721SOL    HW116622   4.195   2.232   9.316  0.5928 -0.5943 -0.8107
 1721SOL    HW216623   4.306   2.130   9.358  0.7161  0.4104  2.1248
 1722SOL     OW16624   4.004   1.813   1.833  0.5980 -0.3105  0.1226
 1722SOL    HW116625   3.965   1.878   1.891 -0.8161 -0.1167 -1.0520
 1722SOL    HW216626   4.078   1.784   1.886  3.3232  3.0789 -1.8309
 1723SOL     OW16627   3.229   3.467   6.814 -0.3069  0.2346  0.1785
 1723SOL    HW116628   3.220   3.562   6.817 -1.0861  0.0943  2.0620
 1723SOL    HW216629   3.142   3.447   6.779  0.3300  0.9949 -1.8432
 1724SOL     OW16630   3.516   4.400   5.242 -0.4795  0.0459  0.1189
 1724SOL    HW116631   3.452   4.364   5.304  1.9230 -0.2020  2.4616
 1724SOL    HW216632   3.543   4.319   5.199 -2.0972 -1.2425  1.4838
 1725SOL     OW16633   1.806   0.711   2.315  0.5815  0.6769 -0.3453
 1725SOL    HW116634   1.738   0.646   2.333  0.2209  0.9935 -0.5902
 1725SOL    HW216635   1.879   0.658   2.280  0.4555 -0.1291  0.6194
 1726SOL     OW16636   2.783   1.029   4.716  0.0786  0.4701 -0.6129
 1726SOL    HW116637   2.876   1.037   4.694  0.8592 -1.7251  1.8386
 1726SOL    HW216638   2.789   1.045   4.810  2.1894 -2.3097 -0.2648
 1727SOL     OW16639   2.115   2.868   6.287 -0.0880  0.3111  0.1128
 1727SOL    HW116640   2.144   2.958   6.301 -1.2280  0.7742 -0.5026
 1727SOL    HW216641   2.146   2.846   6.200 -0.7092  0.2370 -0.0933
 1728SOL     OW16642   2.114   0.837  16.601  0.4821 -0.2724  0.2176
 1728SOL    HW116643   2.109   0.899  16.528 -1.8287 -1.2083 -0.3969
 1728SOL    HW216644   2.040   0.782  16.577 -0.2960  1.1964 -0.7665
 1729SOL     OW16645   1.690   1.888  16.833 -0.0089  0.1663  0.1777
 1729SOL    HW116646   1.698   1.795  16.852  0.1363 -0.2241 -1.8059
 1729SOL    HW216647   1.781   1.917  16.832  0.4656 -1.2925  1.2878
 1730SOL     OW16648   3.013   1.393   1.839  0.3058  0.0022  0.4574
 1730SOL    HW116649   2.921   1.372   1.823  1.0466 -2.5613 -0.3949
 1730SOL    HW216650   3.059   1.356   1.764 -2.1753  0.0115 -1.0482
 1731SOL     OW16651   0.195   3.066   7.994  0.3107 -0.1389 -0.0893
 1731SOL    HW116652   0.260   3.040   7.929  1.5487  0.6694  0.8533
 1731SOL    HW216653   0.139   3.132   7.952  2.6640  2.1626  0.4372
 1732SOL     OW16654   3.039   1.251  13.464  0.4358  0.3565  0.5543
 1732SOL    HW116655   3.017   1.301  13.385 -0.9987 -1.3381 -0.1170
 1732SOL    HW216656   3.083   1.175  13.426  0.8774  2.3128 -2.8278
 1733SOL     OW16657   3.457   1.534  15.483  0.4043  0.4737  0.0860
 1733SOL    HW116658   3.437   1.614  15.434  1.3724  0.7736  0.1760
 1733SOL    HW216659   3.551   1.531  15.464  0.4838  1.8048  0.2209
 1734SOL     OW16660   0.160   4.313  11.772  0.2131 -0.1955  0.8564
 1734SOL    HW116661   0.113   4.237  11.739  0.7057 -0.3317  0.4661
 1734SOL    HW216662   0.246   4.275  11.755 -0.8309 -1.8159 -0.8204
 1735SOL     OW16663   0.692   2.443   5.802 -0.0601  0.3901  0.4928
 1735SOL    HW116664   0.703   2.537   5.789 -0.2349  0.1856 -1.1021
 1735SOL    HW216665   0.615   2.443   5.860 -1.2890  1.6997 -1.1470
 1736SOL     OW16666   2.177   4.696   0.643  0.0250  0.0068  0.1309
 1736SOL    HW116667   2.215   4.620   0.599  0.4948  0.4412 -0.2112
 1736SOL    HW216668   2.086   4.667   0.635 -0.1999  1.1438 -1.5284
 1737SOL     OW16669   3.176   3.511  11.621  0.1488 -0.4018 -0.3137
 1737SOL    HW116670   3.235   3.441  11.592  0.6095  1.0945 -3.0219
 1737SOL    HW216671   3.147   3.481  11.707 -0.1943 -1.9985 -0.9685
 1738SOL     OW16672   2.694   0.529   2.488  0.0796 -0.7396  0.4604
 1738SOL    HW116673   2.691   0.624   2.480  3.1835 -0.5239  1.9684
 1738SOL    HW216674   2.605   0.515   2.454  0.3527  1.3128 -1.0955
 1739SOL     OW16675   2.388   2.197   2.242 -0.3422 -0.1875 -0.2923
 1739SOL    HW116676   2.303   2.193   2.286 -0.9644  0.5705 -1.4491
 1739SOL    HW216677   2.352   2.197   2.154 -2.1100  1.2809  0.4574
 1740SOL     OW16678   4.160   0.812   4.863 -0.2957  0.2510  0.8216
 1740SOL    HW116679   4.240   0.799   4.914 -0.6902 -1.6854  0.9532
 1740SOL    HW216680   4.191   0.824   4.774  0.6324 -1.9936  0.8565
 1741SOL     OW16681   1.785   1.884   5.007  0.3155 -0.8036  0.2362
 1741SOL    HW116682   1.770   1.950   5.075 -0.3216 -2.0107  1.2656
 1741SOL    HW216683   1.693   1.867   4.989 -0.5910  2.9376  1.2438
 1742SOL     OW16684   3.154   1.501   9.112 -0.4458  0.9831  0.0239
 1742SOL    HW116685   3.249   1.492   9.126 -0.4403 -0.0388 -0.6295
 1742SOL    HW216686   3.121   1.466   9.195 -0.3530 -0.2954 -0.4706
 1743SOL     OW16687   1.509   1.195   2.336  0.5255 -0.1709  0.1512
 1743SOL    HW116688   1.558   1.189   2.418  0.1676  1.7086  0.4951
 1743SOL    HW216689   1.564   1.262   2.294  1.4750 -1.2378 -0.3085
 1744SOL     OW16690   0.473   3.229  12.397 -0.8552 -0.0053 -0.1416
 1744SOL    HW116691   0.495   3.253  12.487  0.4507  1.6247 -0.9044
 1744SOL    HW216692   0.416   3.299  12.367  0.7930  1.6518  0.6229
 1745SOL     OW16693   0.153   2.762   4.260  0.0157 -0.1823 -0.0696
 1745SOL    HW116694   0.165   2.820   4.185  0.1271  1.3384  1.1227
 1745SOL    HW216695   0.058   2.759   4.255 -0.1690  1.5656  2.0628
 1746SOL     OW16696   4.110   2.551   5.723  0.3531  0.0356  0.2992
 1746SOL    HW116697   4.163   2.589   5.793 -0.9701 -1.4543  2.1425
 1746SOL    HW216698   4.166   2.547   5.646 -0.8482  1.2468 -0.6378
 1747SOL     OW16699   1.204   2.718   5.777  0.1328 -0.2558  0.6266
 1747SOL    HW116700   1.123   2.718   5.728  0.3937  0.1972  0.1960
 1747SOL    HW216701   1.228   2.810   5.765  2.0931 -1.2093 -2.6431
 1748SOL     OW16702   1.458   0.472   5.462  0.2242 -0.0324 -1.0369
 1748SOL    HW116703   1.409   0.548   5.495  1.4339  0.1934  0.2422
 1748SOL    HW216704   1.440   0.406   5.529  3.3332 -0.1111 -0.3095
 1749SOL     OW16705   3.432   0.048  14.254 -0.1219  0.3413  0.7121
 1749SOL    HW116706   3.478   0.024  14.174  0.5090  1.5153  0.7154
 1749SOL    HW216707   3.402   4.683  14.271 -0.8417  0.5722  0.6460
 1750SOL     OW16708   1.647   0.329   9.362 -0.1817 -0.4534 -0.5429
 1750SOL    HW116709   1.623   0.246   9.321  2.3289  0.0190 -3.0066
 1750SOL    HW216710   1.726   0.313   9.414  0.1316 -1.6812 -1.3947
 1751SOL     OW16711   1.000   1.861   7.014  0.1368 -0.7302  0.0372
 1751SOL    HW116712   1.042   1.935   7.058 -1.8553 -0.2794  1.2135
 1751SOL    HW216713   1.010   1.886   6.922  0.7314  2.1743  0.8989
 1752SOL     OW16714   3.415   1.410   4.216  0.1815  1.0150  0.5383
 1752SOL    HW116715   3.446   1.489   4.171 -2.7519  0.6024 -2.1985
 1752SOL    HW216716   3.419   1.342   4.149  1.1915  0.2327  1.3891
 1753SOL     OW16717   3.174   3.270   2.902  0.2366 -0.4571  0.0074
 1753SOL    HW116718   3.093   3.222   2.885 -0.3656  0.3674  0.5232
 1753SOL    HW216719   3.157   3.318   2.983  1.1815 -0.7055  0.3549
 1754SOL     OW16720   3.408   4.580   7.928  0.0881 -0.1518  0.7288
 1754SOL    HW116721   3.314   4.590   7.945  0.0367 -0.8694  0.8807
 1754SOL    HW216722   3.441   4.567   8.017  0.4733 -0.2904  0.5642
 1755SOL     OW16723   0.164   1.768   7.934 -0.1379 -0.0212 -0.5085
 1755SOL    HW116724   0.173   1.685   7.888  1.4739  0.4636 -1.0671
 1755SOL    HW216725   0.239   1.816   7.898 -0.6159  0.9438 -0.2255
 1756SOL     OW16726   1.340   2.253   7.963  0.5294  0.0272  0.2906
 1756SOL    HW116727   1.410   2.233   8.025  1.0680 -0.6586 -0.5472
 1756SOL    HW216728   1.330   2.164   7.928  1.4510  0.2886 -0.6206
 1757SOL     OW16729   0.923   1.613   9.121  0.6138  0.5551 -0.5406
 1757SOL    HW116730   0.855   1.609   9.054  0.2951  2.6083 -0.3334
 1757SOL    HW216731   1.002   1.605   9.067 -0.1815 -0.9609 -1.4647
 1758SOL     OW16732   2.779   3.161  10.159  0.0552 -0.3994 -0.1917
 1758SOL    HW116733   2.824   3.091  10.206 -0.4973  0.0835  1.0497
 1758SOL    HW216734   2.698   3.166  10.210 -0.1991 -1.2122 -0.5135
 1759SOL     OW16735   1.606   3.521   9.461 -1.0653 -0.2760  0.1626
 1759SOL    HW116736   1.666   3.592   9.483 -0.5673 -0.5214 -0.4088
 1759SOL    HW216737   1.556   3.552   9.385 -0.5246  1.4460  0.4968
 1760SOL     OW16738   2.341   4.664   6.410  0.0919 -0.2502 -0.1039
 1760SOL    HW116739   2.344   4.705   6.496 -0.8355  0.4973 -0.4255
 1760SOL    HW216740   2.311   0.012   6.354 -0.5243 -0.4502 -0.0292
 1761SOL     OW16741   1.999   4.161   8.118  0.2281  0.0365  0.0901
 1761SOL    HW116742   2.025   4.107   8.193 -0.5067 -2.3971 -1.4308
 1761SOL    HW216743   1.911   4.185   8.146  0.2752 -0.5074  0.7081
 1762SOL     OW16744   2.304   4.321  12.165 -0.5745  0.4796  0.1384
 1762SOL    HW116745   2.265   4.294  12.083 -2.1418  0.2224  0.9722
 1762SOL    HW216746   2.394   4.292  12.148 -0.4585  1.4477 -0.9075
 1763SOL     OW16747   4.463   3.063   3.957 -0.0145 -0.0750  0.0068
 1763SOL    HW116748   4.449   3.035   4.047 -2.1277 -3.5237 -1.3735
 1763SOL    HW216749   4.558   3.054   3.948 -0.0867 -1.2939  0.5078
 1764SOL     OW16750   3.589   0.557  10.491 -0.2151 -0.1541  0.0717
 1764SOL    HW116751   3.562   0.494  10.558  0.7437  1.0737  1.6108
 1764SOL    HW216752   3.639   0.495  10.437 -0.8532 -2.1106  1.7379
 1765SOL     OW16753   0.763   2.216   7.347  0.3304 -0.2213  0.2994
 1765SOL    HW116754   0.704   2.282   7.310 -0.4312 -0.8646  0.3554
 1765SOL    HW216755   0.769   2.162   7.268  1.6714 -0.3495  0.5037
 1766SOL     OW16756   2.357   3.011   0.149  0.2042  0.0884 -0.0852
 1766SOL    HW116757   2.314   3.052   0.224  0.1592 -0.2543  0.0773
 1766SOL    HW216758   2.392   2.929   0.184  0.0093  0.0874  0.1120
 1767SOL     OW16759   1.132   2.060   7.418  0.2408 -0.5508 -0.3201
 1767SOL    HW116760   1.224   2.076   7.439 -0.6367  0.0509  3.0372
 1767SOL    HW216761   1.122   1.978   7.467  1.5537 -1.5834 -1.7736
 1768SOL     OW16762   2.461   3.631   5.291 -0.5848 -0.4743 -0.3969
 1768SOL    HW116763   2.409   3.558   5.258 -1.2087 -0.1958 -0.0306
 1768SOL    HW216764   2.388   3.693   5.300 -1.1940 -1.3988  1.0767
 1769SOL     OW16765   2.300   0.604  11.601  0.7776 -0.6007  0.0776
 1769SOL    HW116766   2.338   0.517  11.588  0.8987 -0.8082  1.7934
 1769SOL    HW216767   2.207   0.597  11.583  0.5881  1.1762  0.3070
 1770SOL     OW16768   3.317   4.088   6.684 -0.1924 -0.2766 -0.0917
 1770SOL    HW116769   3.248   4.145   6.715 -2.6361 -2.9042 -0.6661
 1770SOL    HW216770   3.390   4.091   6.746 -1.6797 -1.7425  1.7536
 1771SOL     OW16771   0.292   0.783   4.400  0.2555  0.9275 -0.7197
 1771SOL    HW116772   0.328   0.706   4.356 -0.6926 -0.5709  1.1169
 1771SOL    HW216773   0.218   0.737   4.440  1.1845  0.9378  1.0380
 1772SOL     OW16774   4.607   1.610   9.845  0.4705 -0.0228 -0.2696
 1772SOL    HW116775   4.612   1.586   9.938  3.3423 -1.4604 -0.7993
 1772SOL    HW216776   4.635   1.700   9.858  0.0668 -0.0340  0.7303
 1773SOL     OW16777   1.044   4.404   1.594  0.0219 -0.0542 -0.1858
 1773SOL    HW116778   1.100   4.480   1.580  1.7246 -1.2502  0.1083
 1773SOL    HW216779   0.967   4.453   1.623 -0.4689  0.4949 -2.4416
 1774SOL     OW16780   4.610   3.444   3.400  0.6022  0.1510  0.4228
 1774SOL    HW116781   4.556   3.371   3.371  1.7614 -0.2027 -0.8428
 1774SOL    HW216782   4.569   3.465   3.484 -0.3501  1.2298 -0.3092
 1775SOL     OW16783   3.918   3.380   3.539 -0.2895  0.0766  0.0287
 1775SOL    HW116784   3.951   3.307   3.593 -1.3567 -0.1939  0.3085
 1775SOL    HW216785   3.892   3.345   3.454  0.8188 -1.6958  0.3982
 1776SOL     OW16786   3.079   2.053   2.801 -0.2733 -0.6212 -0.2459
 1776SOL    HW116787   3.089   2.145   2.825  0.2696 -0.6492 -0.3696
 1776SOL    HW216788   3.038   2.072   2.717 -0.2880 -1.7223 -0.4868
 1777SOL     OW16789   2.439   0.918   3.448  0.1110 -0.4059 -0.3496
 1777SOL    HW116790   2.453   0.845   3.387 -2.2420 -0.5060 -0.7554
 1777SOL    HW216791   2.388   0.979   3.396 -0.7742 -1.8977 -1.2288
 1778SOL     OW16792   1.147   2.433   0.963  0.2979  0.1424  0.2160
 1778SOL    HW116793   1.052   2.420   0.974  0.1874  1.1795  0.4304
 1778SOL    HW216794   1.171   2.490   1.036 -2.0492  2.1574 -0.5845
 1779SOL     OW16795   1.637   3.133   3.585 -0.0256 -0.8777  0.4174
 1779SOL    HW116796   1.675   3.098   3.665 -3.3234 -0.4661  2.1909
 1779SOL    HW216797   1.712   3.180   3.549 -1.3031 -0.0283 -1.1799
 1780SOL     OW16798   1.990   0.223   3.747 -0.2961  0.1238  0.1175
 1780SOL    HW116799   1.952   0.287   3.687 -2.7283  0.0217  1.5590
 1780SOL    HW216800   1.914   0.180   3.786 -0.1279  0.1527  0.4805
 1781SOL     OW16801   2.377   3.102  13.528  0.0740  0.5479  0.1571
 1781SOL    HW116802   2.340   3.013  13.526  0.0178  0.5914 -0.6944
 1781SOL    HW216803   2.443   3.111  13.459  1.3744  1.3759  1.5046
 1782SOL     OW16804   3.212   4.499   8.516  0.3019  0.1471 -0.6731
 1782SOL    HW116805   3.306   4.483   8.529  0.0383  0.3064  1.3451
 1782SOL    HW216806   3.181   4.443   8.586  0.3890  0.6765 -0.2144
 1783SOL     OW16807   0.649   3.048   7.637 -0.5165  0.2545 -0.3506
 1783SOL    HW116808   0.672   2.959   7.663  0.3546  0.8832  0.9918
 1783SOL    HW216809   0.575   3.069   7.694 -0.8116  0.4062 -0.7879
 1784SOL     OW16810   4.489   2.583   7.293 -0.1541  0.6113 -0.1908
 1784SOL    HW116811   4.516   2.646   7.225  1.2297  0.2311  0.0087
 1784SOL    HW216812   4.432   2.519   7.251 -0.5931 -0.3853  1.9220
 1785SOL     OW16813   0.003   4.302   3.856  1.0035 -1.0439 -0.0510
 1785SOL    HW116814   4.680   4.233   3.905  1.4788  0.3292  2.3381
 1785SOL    HW216815   4.660   4.324   3.790 -0.5575 -2.0738  1.1756
 1786SOL     OW16816   3.227   2.634   6.192  0.0786 -0.1925 -0.5492
 1786SOL    HW116817   3.258   2.703   6.133  1.1330  0.1243  0.3665
 1786SOL    HW216818   3.272   2.561   6.151 -1.8367 -1.1774 -0.8687
 1787SOL     OW16819   2.047   0.650   4.236 -0.0385 -0.1514  0.3429
 1787SOL    HW116820   2.138   0.629   4.215  0.2231  1.6644 -0.2543
 1787SOL    HW216821   2.059   0.740   4.265  0.4570 -0.0200 -0.2672
 1788SOL     OW16822   4.066   3.777  16.047 -0.0645  0.1248 -0.7232
 1788SOL    HW116823   4.106   3.734  16.123  0.1384 -1.6538 -1.8537
 1788SOL    HW216824   4.100   3.734  15.969 -0.9741  2.1098 -2.2287
 1789SOL     OW16825   0.141   4.503  11.959  0.0220  0.2010  0.0633
 1789SOL    HW116826   0.215   4.562  11.943 -0.5394  1.3029  1.6087
 1789SOL    HW216827   0.151   4.437  11.890  2.1145  0.3597  0.1999
 1790SOL     OW16828   2.249   0.713  10.763  0.5008 -0.3486 -0.3766
 1790SOL    HW116829   2.314   0.767  10.808  1.9437 -0.2842 -2.5741
 1790SOL    HW216830   2.174   0.753  10.807  0.8731  0.9960 -0.9521
 1791SOL     OW16831   0.688   0.447   4.568  0.0290 -0.4346 -0.4452
 1791SOL    HW116832   0.701   0.424   4.476 -3.0138  3.7630 -1.9387
 1791SOL    HW216833   0.627   0.521   4.561  1.0695  0.4250 -0.4382
 1792SOL     OW16834   0.412   4.594   6.895  0.6546 -0.4277  0.0950
 1792SOL    HW116835   0.363   4.526   6.941  1.1811 -0.8847 -0.0150
 1792SOL    HW216836   0.348   4.630   6.834  0.5908 -0.6709  0.0171
 1793SOL     OW16837   2.020   4.040  12.935 -0.0442  0.1892  0.7212
 1793SOL    HW116838   2.034   4.133  12.918 -0.2188  0.3479  1.4613
 1793SOL    HW216839   1.930   4.045  12.965 -0.2360  2.8868 -0.3199
 1794SOL     OW16840   1.541   0.016   8.279  0.4630 -0.7577  0.0653
 1794SOL    HW116841   1.554   4.710   8.189 -1.4599 -2.3125  0.2983
 1794SOL    HW216842   1.445   0.012   8.287  0.1429  0.5087 -3.2659
 1795SOL     OW16843   2.088   3.921   6.031 -0.0287 -0.2131 -0.0237
 1795SOL    HW116844   2.110   3.838   5.988  0.5730 -0.0175 -0.1010
 1795SOL    HW216845   2.119   3.897   6.119 -0.8823 -1.2140  0.0112
 1796SOL     OW16846   4.215   0.114   1.934 -0.6857  0.4913 -0.2595
 1796SOL    HW116847   4.304   0.116   1.969 -0.2035 -1.6435 -1.3794
 1796SOL    HW216848   4.222   0.036   1.879 -1.1767 -1.6645  2.6902
 1797SOL     OW16849   2.717   0.421   7.288 -0.1209  0.2395  0.1053
 1797SOL    HW116850   2.794   0.365   7.297  0.2639  0.8162  0.4144
 1797SOL    HW216851   2.651   0.366   7.329  2.0271 -0.7486  2.2368
 1798SOL     OW16852   3.107   3.947   1.159  0.1874  0.8029 -0.4020
 1798SOL    HW116853   3.186   3.949   1.105  0.2344 -3.4554 -0.4551
 1798SOL    HW216854   3.067   3.871   1.117  0.9835 -1.2041  2.4481
 1799SOL     OW16855   0.510   2.178   0.893 -0.3742  0.4346  0.2479
 1799SOL    HW116856   0.479   2.088   0.903 -4.2261  1.7549  0.0984
 1799SOL    HW216857   0.596   2.163   0.852 -0.0367  1.8795  0.4420
 1800SOL     OW16858   0.909   1.620   3.892  0.1259  0.4218 -0.2901
 1800SOL    HW116859   0.916   1.549   3.956 -2.1458 -0.2260 -0.7318
 1800SOL    HW216860   0.962   1.585   3.820 -1.6230 -2.3888 -0.2045
 1801SOL     OW16861   0.100   0.517  10.689 -0.0853  0.0596 -0.6863
 1801SOL    HW116862   0.071   0.585  10.750  1.2599  0.5435 -0.5934
 1801SOL    HW216863   0.021   0.473  10.659 -0.9775  1.3317 -0.2313
 1802SOL     OW16864   3.005   0.049  14.431  0.4742  0.0222  0.2774
 1802SOL    HW116865   2.979   0.096  14.352 -0.7874 -2.7494 -0.9525
 1802SOL    HW216866   3.069   0.109  14.470  0.1965 -0.6162  1.6950
 1803SOL     OW16867   0.245   2.806   3.110 -0.0356 -0.3964 -0.0408
 1803SOL    HW116868   0.291   2.724   3.093 -1.0008 -1.3546  1.8952
 1803SOL    HW216869   0.204   2.775   3.191  1.8052 -0.5820  0.8183
 1804SOL     OW16870   2.162   1.552   7.226 -0.6532  0.2360 -0.5104
 1804SOL    HW116871   2.198   1.589   7.145 -0.2942  1.2137  0.0992
 1804SOL    HW216872   2.240   1.506   7.258 -0.9297  0.7625  0.9376
 1805SOL     OW16873   0.207   4.160  13.017 -0.1379  0.0405 -0.4914
 1805SOL    HW116874   0.285   4.105  13.002 -0.5607 -0.5363 -0.6068
 1805SOL    HW216875   0.136   4.095  13.018  0.1232 -0.2177  1.1557
 1806SOL     OW16876   4.212   0.221   8.664  0.0635 -0.0736  0.0914
 1806SOL    HW116877   4.282   0.236   8.600 -2.1408  2.2592 -1.7805
 1806SOL    HW216878   4.253   0.247   8.747  1.5063  2.4940 -1.4114
 1807SOL     OW16879   1.458   1.103  16.401 -0.2775 -0.2110 -0.3542
 1807SOL    HW116880   1.543   1.132  16.434  0.1235 -0.5749 -1.0629
 1807SOL    HW216881   1.396   1.161  16.445  1.5091  2.1835 -0.9798
 1808SOL     OW16882   0.995   3.157   3.455  0.3948  0.2650 -0.5517
 1808SOL    HW116883   0.908   3.185   3.428  0.0260 -1.2245 -0.9439
 1808SOL    HW216884   1.007   3.068   3.421 -0.3464 -0.6174  1.4892
 1809SOL     OW16885   4.177   0.934  16.781  0.2103  0.0922  0.2788
 1809SOL    HW116886   4.151   0.956  16.692 -0.9337 -2.8106 -0.0959
 1809SOL    HW216887   4.237   0.862  16.760 -2.2877 -1.3021 -1.9440
 1810SOL     OW16888   0.790   3.968   2.497 -0.2673 -0.4179 -0.0113
 1810SOL    HW116889   0.736   3.959   2.419 -0.2609  0.5661 -0.1354
 1810SOL    HW216890   0.818   3.879   2.516  0.5311 -0.0014  0.7844
 1811SOL     OW16891   4.061   0.710   8.569  0.5120  0.2218 -0.4672
 1811SOL    HW116892   4.078   0.617   8.583  0.0720 -0.3390 -3.6960
 1811SOL    HW216893   3.969   0.706   8.542  0.0261 -2.3823  1.6238
 1812SOL     OW16894   1.468   3.293   9.532 -0.1148  0.5756  0.4250
 1812SOL    HW116895   1.520   3.369   9.506 -0.5886  0.0850 -1.8979
 1812SOL    HW216896   1.533   3.226   9.513  0.4571  1.8804 -2.2502
 1813SOL     OW16897   1.593   1.954   9.219 -0.2580 -0.0346 -0.1517
 1813SOL    HW116898   1.535   1.896   9.268 -1.3905  1.3154  0.1176
 1813SOL    HW216899   1.638   1.895   9.159 -0.8254 -0.1207 -0.4931
 1814SOL     OW16900   1.189   2.314   6.158  0.4813  0.2698  0.0326
 1814SOL    HW116901   1.129   2.266   6.216  1.3118 -0.5754  0.1921
 1814SOL    HW216902   1.271   2.268   6.174 -0.8181 -1.2331  2.3646
 1815SOL     OW16903   2.156   2.258   3.237 -0.1944 -0.4488  0.0699
 1815SOL    HW116904   2.129   2.331   3.180 -1.2215 -0.2184  0.8696
 1815SOL    HW216905   2.066   2.232   3.255  0.0672 -0.0283  1.9251
 1816SOL     OW16906   3.249   3.604  16.657 -0.5011  0.3440  0.2376
 1816SOL    HW116907   3.214   3.693  16.659  2.2868  1.4992 -2.0031
 1816SOL    HW216908   3.312   3.617  16.727 -1.4023  1.6478  0.7977
 1817SOL     OW16909   1.669   4.509   6.374  0.3647 -0.6293  0.7762
 1817SOL    HW116910   1.746   4.454   6.359 -0.6529 -0.8381 -3.4668
 1817SOL    HW216911   1.713   4.593   6.389  0.8314 -0.6596 -0.4747
 1818SOL     OW16912   4.135   1.742   2.213  0.2636 -0.2655  0.0456
 1818SOL    HW116913   4.230   1.732   2.220  0.3205  0.3572  0.1352
 1818SOL    HW216914   4.114   1.650   2.231 -0.3532  0.5314  3.4033
 1819SOL     OW16915   1.610   1.770   9.684 -0.5591  0.4245  0.2529
 1819SOL    HW116916   1.703   1.794   9.682 -1.6122  4.6744  1.1315
 1819SOL    HW216917   1.591   1.776   9.591  0.4586  2.0703  0.1395
 1820SOL     OW16918   4.318   4.642   4.587  0.5018 -0.0459  0.1433
 1820SOL    HW116919   4.397   4.694   4.569  1.6239 -2.8750 -3.1934
 1820SOL    HW216920   4.268   4.705   4.638  1.7529  1.1656 -0.1206
 1821SOL     OW16921   0.691   3.147   2.192 -0.4773 -0.0123  0.2260
 1821SOL    HW116922   0.663   3.224   2.142  0.6831  0.0274 -0.3595
 1821SOL    HW216923   0.769   3.183   2.234 -0.3775  1.1409 -0.9391
 1822SOL     OW16924   2.639   0.089   9.101 -0.1061 -0.9698  0.3215
 1822SOL    HW116925   2.646   0.068   9.008 -1.6211  0.8476 -0.2162
 1822SOL    HW216926   2.544   0.098   9.110 -0.0456  0.1235 -0.0836
 1823SOL     OW16927   3.867   0.632  16.009  0.3901  0.1694  0.1901
 1823SOL    HW116928   3.812   0.684  16.067 -0.8938  0.2764 -1.1296
 1823SOL    HW216929   3.930   0.701  15.988  1.2132 -0.7106 -0.2643
 1824SOL     OW16930   2.962   2.428   6.471  0.2162 -0.3214 -0.6481
 1824SOL    HW116931   2.985   2.439   6.378  2.2785  2.7642  0.2136
 1824SOL    HW216932   2.884   2.484   6.478  0.7930  0.4329 -0.2591
 1825SOL     OW16933   1.093   3.701   3.448 -0.3947  0.1837 -0.1936
 1825SOL    HW116934   1.011   3.707   3.397 -0.8769  1.5110  0.7440
 1825SOL    HW216935   1.086   3.632   3.514  1.7109 -0.2930 -0.4694
 1826SOL     OW16936   1.469   1.985  13.327 -0.0206 -0.1022  0.8726
 1826SOL    HW116937   1.469   1.979  13.232  0.1018 -0.7370  0.9128
 1826SOL    HW216938   1.374   1.984  13.342 -0.0034 -0.2179  0.9730
 1827SOL     OW16939   3.741   2.350   4.878 -0.4412  0.2901 -0.1994
 1827SOL    HW116940   3.686   2.334   4.801  1.0012 -2.1782 -0.7481
 1827SOL    HW216941   3.804   2.417   4.851 -0.5941 -0.1520 -1.6733
 1828SOL     OW16942   2.611   4.144   4.229 -0.2782 -0.4571  0.4132
 1828SOL    HW116943   2.547   4.201   4.272 -1.7731 -0.3351 -1.9789
 1828SOL    HW216944   2.597   4.062   4.277  0.0417 -2.3299 -2.7194
 1829SOL     OW16945   1.677   1.309   6.370 -0.4507 -0.4436  0.0403
 1829SOL    HW116946   1.680   1.386   6.314  0.7809 -0.1182  0.5721
 1829SOL    HW216947   1.747   1.260   6.327  0.8255  1.6620 -0.2853
 1830SOL     OW16948   1.266   4.257   3.621  0.2032  0.3813 -0.3724
 1830SOL    HW116949   1.233   4.169   3.603  1.3814 -0.1674  0.1052
 1830SOL    HW216950   1.315   4.256   3.703 -0.2649  1.1254 -0.0786
 1831SOL     OW16951   3.904   0.155   1.836 -0.0943 -0.3711 -0.4373
 1831SOL    HW116952   3.826   0.139   1.783  1.1668  0.7407 -2.6536
 1831SOL    HW216953   3.950   0.074   1.813 -0.4187 -0.1210 -1.9648
 1832SOL     OW16954   0.982   2.871   2.046 -0.5861  0.3506  0.2374
 1832SOL    HW116955   1.071   2.905   2.054  0.1779 -1.7097  0.4354
 1832SOL    HW216956   0.936   2.941   2.000 -4.8573 -1.7054  1.4403
 1833SOL     OW16957   2.186   3.080   7.531  0.1507  0.6824  0.0209
 1833SOL    HW116958   2.102   3.121   7.513 -0.5113 -0.4567  0.5540
 1833SOL    HW216959   2.210   3.092   7.439 -0.2991  2.6034  0.1557
 1834SOL     OW16960   4.564   2.131  15.168 -0.1807  0.2612  0.5230
 1834SOL    HW116961   4.639   2.072  15.163  1.1704  1.8676  1.7161
 1834SOL    HW216962   4.617   2.211  15.172 -0.1176  0.2022  0.9133
 1835SOL     OW16963   3.281   2.382  12.689  0.0636 -0.2294 -0.4806
 1835SOL    HW116964   3.270   2.477  12.692  2.7359  0.1116 -1.1121
 1835SOL    HW216965   3.354   2.364  12.749  1.0536  0.9422 -1.3256
 1836SOL     OW16966   2.361   4.434   1.269 -0.4407  0.9576  0.1255
 1836SOL    HW116967   2.419   4.498   1.228  0.4183  1.1074  1.5671
 1836SOL    HW216968   2.327   4.391   1.190  2.0722 -0.7898 -0.0021
 1837SOL     OW16969   0.362   0.221   1.905 -0.2788 -1.0964  0.2824
 1837SOL    HW116970   0.441   0.172   1.930 -0.4505 -0.3761  2.1735
 1837SOL    HW216971   0.395   0.274   1.833 -4.0234 -1.7341 -1.9091
 1838SOL     OW16972   1.146   0.177  12.324 -0.3169  0.3105  0.1701
 1838SOL    HW116973   1.188   0.118  12.386 -2.6619 -4.5530 -2.7973
 1838SOL    HW216974   1.124   0.239  12.394 -1.7172  0.2465 -0.2025
 1839SOL     OW16975   3.927   4.317   9.200 -0.3862  0.0331  0.4224
 1839SOL    HW116976   3.931   4.408   9.172 -0.6199  0.7370  2.6368
 1839SOL    HW216977   3.833   4.302   9.209 -0.6166  0.7918 -0.8372
 1840SOL     OW16978   1.985   3.289   8.059 -0.1246 -0.3172 -0.2407
 1840SOL    HW116979   1.904   3.258   8.018  0.1212  0.1304 -1.0595
 1840SOL    HW216980   2.014   3.212   8.108 -0.3178 -0.9069 -1.0417
 1841SOL     OW16981   1.239   2.611   3.839  0.7653 -0.3292  0.1551
 1841SOL    HW116982   1.301   2.633   3.770  0.0349 -1.9999 -1.0105
 1841SOL    HW216983   1.197   2.696   3.857 -1.3720 -0.9002 -2.1462
 1842SOL     OW16984   4.626   1.080   2.811 -0.5004  0.0344  0.3182
 1842SOL    HW116985   4.687   1.039   2.750  0.3425  0.8214  0.6383
 1842SOL    HW216986   4.548   1.069   2.756  0.2364 -0.7897 -0.5482
 1843SOL     OW16987   0.296   3.868   3.579  0.1671  0.1996 -0.0986
 1843SOL    HW116988   0.297   3.806   3.652 -1.1235  2.3020  1.7133
 1843SOL    HW216989   0.206   3.901   3.575  0.6197  1.5540  0.9497
 1844SOL     OW16990   1.584   0.105  11.031 -0.3840 -0.4041  0.0621
 1844SOL    HW116991   1.512   0.043  11.044  0.3199 -0.9767  1.1969
 1844SOL    HW216992   1.630   0.040  10.978  1.0185  0.9130 -0.3324
 1845SOL     OW16993   3.135   1.657   4.136  0.0166 -0.4802  0.0423
 1845SOL    HW116994   3.167   1.622   4.219 -2.4044 -0.1227  1.1202
 1845SOL    HW216995   3.076   1.730   4.158 -1.5193 -1.7840  0.2563
 1846SOL     OW16996   4.462   0.012   2.018 -0.3489  0.0371 -0.7675
 1846SOL    HW116997   4.515   0.058   2.084  0.1427  0.9083 -1.7702
 1846SOL    HW216998   4.518   4.657   2.014 -2.9493 -1.9441  1.7422
 1847SOL     OW16999   3.192   2.270   2.387  0.2442 -0.6507  0.2083
 1847SOL    HW117000   3.263   2.208   2.369  0.9389  0.1072  0.3761
 1847SOL    HW217001   3.123   2.228   2.334  0.8213  0.0977 -1.1348
 1848SOL     OW17002   1.868   0.092   3.435 -0.0031 -0.1921 -0.8496
 1848SOL    HW117003   1.950   0.073   3.391  1.0838  1.7916  0.3237
 1848SOL    HW217004   1.879   0.185   3.457  1.1414 -0.5519  0.1233
 1849SOL     OW17005   2.913   4.347   5.683 -0.1684  0.1876 -0.2032
 1849SOL    HW117006   2.893   4.333   5.775  1.6064  0.4210  0.2096
 1849SOL    HW217007   2.825   4.346   5.645  0.2978 -1.4981 -1.2067
 1850SOL     OW17008   1.108   0.524   2.805  0.0548 -0.0708  0.4618
 1850SOL    HW117009   1.105   0.547   2.898  0.4534  1.3338  0.1321
 1850SOL    HW217010   1.163   0.446   2.802 -0.5967 -0.5400  0.7049
 1851SOL     OW17011   0.114   1.341  15.797  0.0065  0.2089  0.1636
 1851SOL    HW117012   0.026   1.358  15.762 -0.9055 -0.5251  2.0980
 1851SOL    HW217013   0.119   1.389  15.880 -0.4333 -0.8279  0.7905
 1852SOL     OW17014   4.352   3.229  13.320  0.5094  0.4458 -0.5015
 1852SOL    HW117015   4.378   3.203  13.232 -0.4913 -0.3861 -0.5459
 1852SOL    HW217016   4.427   3.196  13.370  0.8157  0.8876 -0.6688
 1853SOL     OW17017   0.749   1.713   5.499  0.0560  0.1300  0.2967
 1853SOL    HW117018   0.833   1.738   5.462  1.1026 -1.0747  1.8360
 1853SOL    HW217019   0.778   1.630   5.537 -1.1210  0.4911  1.9758
 1854SOL     OW17020   1.573   0.336  15.112  0.1786 -0.6806 -0.3611
 1854SOL    HW117021   1.483   0.305  15.099 -0.3898 -0.0761  2.1035
 1854SOL    HW217022   1.557   0.420  15.156  0.3449 -0.3645 -0.9051
 1855SOL     OW17023   2.591   4.233   4.740 -0.4725  0.2056 -0.2959
 1855SOL    HW117024   2.506   4.235   4.695  0.9871  0.6339 -3.0080
 1855SOL    HW217025   2.551   4.232   4.828 -0.7223  2.7953 -0.3653
 1856SOL     OW17026   3.582   2.051   9.545 -0.1626 -0.3911 -0.1214
 1856SOL    HW117027   3.516   2.076   9.610  0.5176  2.0349 -0.3933
 1856SOL    HW217028   3.664   2.042   9.593  0.0573 -2.7710 -0.9364
 1857SOL     OW17029   2.219   0.983   2.189  0.4085  0.5145  0.3430
 1857SOL    HW117030   2.172   0.928   2.126  0.9298 -1.3142  1.5772
 1857SOL    HW217031   2.170   0.980   2.271 -1.6380 -2.5582 -1.0035
 1858SOL     OW17032   0.939   1.998   2.078 -0.2177 -0.1085  0.0256
 1858SOL    HW117033   1.023   2.032   2.047  0.7330 -1.1387  1.4710
 1858SOL    HW217034   0.955   1.997   2.173 -0.1127 -0.5132  0.0036
 1859SOL     OW17035   0.678   1.530   5.814 -0.6976 -0.0568 -0.0785
 1859SOL    HW117036   0.586   1.551   5.797 -0.4456  1.0332 -0.0980
 1859SOL    HW217037   0.732   1.603   5.782 -2.3848  0.7911 -0.9808
 1860SOL     OW17038   0.932   1.246   3.798  0.2325 -0.4066 -0.2272
 1860SOL    HW117039   0.994   1.294   3.744 -1.1634 -0.8033 -2.1599
 1860SOL    HW217040   0.953   1.157   3.771 -0.2220 -0.2811 -0.9992
 1861SOL     OW17041   1.558   3.516   2.639  0.1327  0.4518  0.6420
 1861SOL    HW117042   1.487   3.580   2.649  0.3587  0.6528  0.9524
 1861SOL    HW217043   1.538   3.490   2.549  2.5946  0.7190  0.0280
 1862SOL     OW17044   3.080   1.546   5.722  0.1368  0.1612 -0.2979
 1862SOL    HW117045   3.082   1.594   5.805  0.3706  0.9403 -0.7545
 1862SOL    HW217046   3.049   1.461   5.754 -0.3908  0.1402 -0.8542
 1863SOL     OW17047   0.493   4.574   9.919  0.3861  0.7060 -0.5158
 1863SOL    HW117048   0.554   4.627   9.970  1.1732 -0.6979 -0.0170
 1863SOL    HW217049   0.434   4.637   9.878  0.4966  0.9918 -0.2332
 1864SOL     OW17050   3.403   3.574   7.325 -0.4035  0.5557 -0.1974
 1864SOL    HW117051   3.480   3.537   7.368 -1.3235  0.2787  1.1860
 1864SOL    HW217052   3.433   3.585   7.234  0.6674  1.6625  0.2920
 1865SOL     OW17053   2.508   4.581   4.099 -0.3975  0.3942  0.3782
 1865SOL    HW117054   2.572   4.553   4.165  0.9974 -1.2396 -1.6621
 1865SOL    HW217055   2.524   4.673   4.078 -1.1916  0.6907  1.0723
 1866SOL     OW17056   2.554   1.668   5.338  0.3447 -0.2493  0.3128
 1866SOL    HW117057   2.641   1.629   5.344 -0.6878 -2.3199  1.8329
 1866SOL    HW217058   2.485   1.617   5.381 -0.3556 -0.2490 -0.7932
 1867SOL     OW17059   2.736   4.343   4.538  0.1676  0.1779  0.6699
 1867SOL    HW117060   2.786   4.265   4.513 -0.2785 -1.1243  3.8332
 1867SOL    HW217061   2.682   4.313   4.611 -3.0349  1.9683 -0.9780
 1868SOL     OW17062   4.154   0.627   3.542 -0.0888 -0.3324  0.0989
 1868SOL    HW117063   4.129   0.718   3.527  0.2801  0.1495  2.4193
 1868SOL    HW217064   4.198   0.606   3.459 -1.1185  1.9623 -1.0247
 1869SOL     OW17065   3.951   3.263   8.715  0.3625 -0.2815  0.9315
 1869SOL    HW117066   4.008   3.190   8.693  1.2002  0.4823  0.5794
 1869SOL    HW217067   3.870   3.217   8.739  0.7908 -0.4209  2.1251
 1870SOL     OW17068   0.865   4.536   4.521 -0.5731  0.1629  0.1729
 1870SOL    HW117069   0.821   4.621   4.515  1.2029  0.9625 -1.6353
 1870SOL    HW217070   0.875   4.505   4.431 -3.0321  0.9218 -0.3618
 1871SOL     OW17071   0.004   2.091   8.236 -0.0480 -0.3386 -0.2148
 1871SOL    HW117072   0.089   2.131   8.217 -0.0507 -0.4532 -0.4676
 1871SOL    HW217073   4.672   2.138   8.174  2.5074  1.0196 -1.4772
 1872SOL     OW17074   0.541   3.590  15.991 -0.0416  0.3086  0.1045
 1872SOL    HW117075   0.473   3.614  16.054  0.5986 -0.6112  1.1503
 1872SOL    HW217076   0.620   3.584  16.044  1.4905 -1.1454 -2.3352
 1873SOL     OW17077   1.168   3.155  10.453 -0.2915 -0.1035 -0.1604
 1873SOL    HW117078   1.210   3.241  10.453  0.9241 -0.6909 -1.7810
 1873SOL    HW217079   1.220   3.108  10.388  0.8384 -1.6649  1.8991
 1874SOL     OW17080   3.115   1.062   9.114 -0.6847 -0.1200  0.3008
 1874SOL    HW117081   3.022   1.038   9.117 -0.4444 -0.8946  1.2633
 1874SOL    HW217082   3.141   1.042   9.025  0.2393 -1.4406  0.8751
 1875SOL     OW17083   1.262   3.807  15.427 -0.7473  0.3939  0.0589
 1875SOL    HW117084   1.292   3.859  15.503 -1.2043  1.3982 -0.4477
 1875SOL    HW217085   1.249   3.872  15.358  1.3387  1.5821  0.7763
 1876SOL     OW17086   3.055   0.057  10.532  0.4450 -0.2296  0.3251
 1876SOL    HW117087   3.046   0.070  10.627  0.7903  0.4860  0.2613
 1876SOL    HW217088   3.107   0.137  10.520 -0.6527  1.1837  4.8964
 1877SOL     OW17089   0.670   3.035   5.265  0.1004 -0.1262 -0.0241
 1877SOL    HW117090   0.629   3.122   5.262  0.9266  0.3017  1.4272
 1877SOL    HW217091   0.620   3.007   5.341 -0.1931 -0.7272 -0.4403
 1878SOL     OW17092   1.016   1.285   3.152  0.4035 -0.5657 -0.1539
 1878SOL    HW117093   1.007   1.216   3.218 -1.4066 -1.6656 -1.5344
 1878SOL    HW217094   1.043   1.366   3.196 -1.4913 -0.1860  0.3014
 1879SOL     OW17095   0.692   3.755   8.292  0.1324  0.1020 -0.2331
 1879SOL    HW117096   0.783   3.773   8.317 -0.1293 -2.7485  2.7088
 1879SOL    HW217097   0.657   3.708   8.368 -0.3101 -1.5027 -1.4446
 1880SOL     OW17098   2.727   1.278   2.414 -0.0806 -0.5146 -0.6083
 1880SOL    HW117099   2.813   1.268   2.455  0.1141  3.1382 -0.0818
 1880SOL    HW217100   2.755   1.307   2.328 -1.8528  1.2000 -0.6215
 1881SOL     OW17101   2.854   3.076   8.319  0.0473  0.3779  0.5402
 1881SOL    HW117102   2.852   3.146   8.385 -0.9283  0.8726 -0.0123
 1881SOL    HW217103   2.927   3.102   8.263 -1.8334  0.3229 -1.9342
 1882SOL     OW17104   1.623   1.070   4.876  0.1332  0.3973 -0.7246
 1882SOL    HW117105   1.615   0.998   4.814  1.2473 -0.7283  0.4307
 1882SOL    HW217106   1.652   1.027   4.957  0.7903  1.8038 -0.2075
 1883SOL     OW17107   4.019   4.250   9.469 -0.0794  0.2578 -0.1352
 1883SOL    HW117108   4.111   4.269   9.486  0.5932 -1.1115 -2.2129
 1883SOL    HW217109   3.999   4.295   9.388 -1.7438  0.8114  0.5834
 1884SOL     OW17110   0.670   3.331  13.949  0.2289  0.0995 -0.1012
 1884SOL    HW117111   0.697   3.240  13.960 -2.5550 -0.4021  2.7249
 1884SOL    HW217112   0.754   3.359  13.913 -0.9178  1.7304 -1.5421
 1885SOL     OW17113   1.262   0.556   8.129  0.4117  0.3684  0.4559
 1885SOL    HW117114   1.271   0.532   8.221 -1.2486 -3.2898 -0.3415
 1885SOL    HW217115   1.346   0.600   8.120  0.1433  0.7126 -0.3926
 1886SOL     OW17116   2.774   1.401  16.384  0.0745  0.1469  0.4593
 1886SOL    HW117117   2.779   1.325  16.442 -0.6888  0.2831  0.7041
 1886SOL    HW217118   2.866   1.419  16.364  0.1993 -2.0196 -0.8710
 1887SOL     OW17119   4.174   3.631   8.796  0.4721  0.1125  0.2372
 1887SOL    HW117120   4.169   3.596   8.707 -0.5303  1.1099 -0.0989
 1887SOL    HW217121   4.157   3.724   8.783  2.3417  0.4765  0.2847
 1888SOL     OW17122   4.553   1.244   9.103 -0.8004  0.3416  0.6791
 1888SOL    HW117123   4.468   1.288   9.106 -0.4844  0.9959 -0.3125
 1888SOL    HW217124   4.604   1.291   9.169 -0.7218  0.2859  0.6576
 1889SOL     OW17125   1.240   1.466   1.594  0.3863  0.2312 -0.5444
 1889SOL    HW117126   1.301   1.480   1.666  0.9856  1.4080 -1.2744
 1889SOL    HW217127   1.304   1.479   1.524 -1.4971  1.8085 -1.9436
 1890SOL     OW17128   0.520   0.129  12.806 -0.1887  0.1891  0.1857
 1890SOL    HW117129   0.453   0.186  12.768 -0.5485  0.9695  1.9729
 1890SOL    HW217130   0.536   0.168  12.893  0.1080  2.9748 -1.1067
 1891SOL     OW17131   0.473   3.386   7.691  0.2066  0.2102 -0.0314
 1891SOL    HW117132   0.424   3.316   7.734 -2.8273  2.0005 -0.6323
 1891SOL    HW217133   0.494   3.356   7.602  0.7346  0.3076  0.0556
 1892SOL     OW17134   4.125   2.786   8.975 -0.2709  0.7226 -0.1961
 1892SOL    HW117135   4.110   2.836   9.056 -0.6161  1.8234 -0.9420
 1892SOL    HW217136   4.100   2.698   9.001 -1.5638  1.6758  1.8149
 1893SOL     OW17137   1.593   0.189   4.154  0.3497 -0.1632  0.2883
 1893SOL    HW117138   1.637   0.104   4.155  1.2685  0.3138  0.9981
 1893SOL    HW217139   1.503   0.167   4.132 -0.7026  3.4726  1.0129
 1894SOL     OW17140   0.083   1.438   6.715  0.3196 -0.3996 -0.4455
 1894SOL    HW117141   0.008   1.388   6.748  1.3127 -0.5016  1.6959
 1894SOL    HW217142   0.147   1.372   6.688 -0.5207 -0.8687 -1.3162
 1895SOL     OW17143   0.982   4.516  13.390 -0.5865 -0.5500  0.0621
 1895SOL    HW117144   0.963   4.610  13.401  0.2622 -0.6653  2.3967
 1895SOL    HW217145   1.023   4.500  13.474 -2.1411  2.1060  1.3546
 1896SOL     OW17146   1.789   1.622   5.270 -0.0500  0.3569  0.2976
 1896SOL    HW117147   1.885   1.622   5.276  0.0404  1.2490 -1.0480
 1896SOL    HW217148   1.768   1.710   5.240 -0.1967  0.2491  0.0836
 1897SOL     OW17149   0.329   4.230   5.854 -0.6684  0.2818  0.5008
 1897SOL    HW117150   0.267   4.183   5.911  0.2758 -1.0018  0.4810
 1897SOL    HW217151   0.265   4.242   5.784  0.6993  1.1703 -0.5602
 1898SOL     OW17152   1.431   3.103   7.235 -0.0130 -0.0257  0.3026
 1898SOL    HW117153   1.482   3.026   7.213  1.0439  1.0228 -0.9681
 1898SOL    HW217154   1.343   3.086   7.201  0.0387  0.3384 -0.0186
 1899SOL     OW17155   0.066   3.175   8.770  0.2525  0.9077 -0.0690
 1899SOL    HW117156   0.052   3.236   8.698 -0.7699  0.7315 -0.0204
 1899SOL    HW217157   4.700   3.150   8.790 -0.5744  3.4971 -0.5613
 1900SOL     OW17158   2.900   2.211   8.137  0.2803 -0.0364  0.1663
 1900SOL    HW117159   2.911   2.274   8.065  1.3139  1.4852  1.6704
 1900SOL    HW217160   2.816   2.239   8.173  0.7155 -0.4128  1.4489
 1901SOL     OW17161   2.157   4.077   3.485 -0.6583 -0.9437  0.0729
 1901SOL    HW117162   2.220   4.113   3.548 -0.3199  0.7631 -1.2340
 1901SOL    HW217163   2.080   4.057   3.539 -0.8858 -1.0161 -0.2777
 1902SOL     OW17164   0.459   3.323  16.328  0.4152  0.4984 -0.1717
 1902SOL    HW117165   0.407   3.382  16.274  0.8626  1.4171  0.4057
 1902SOL    HW217166   0.505   3.273  16.261 -1.1266 -0.0462 -0.8246
 1903SOL     OW17167   3.944   3.860  10.016 -0.1735  0.3387 -0.5065
 1903SOL    HW117168   3.933   3.909   9.934  0.7954  0.5221 -0.5243
 1903SOL    HW217169   3.935   3.770   9.984 -1.3154 -0.3290  1.6959
 1904SOL     OW17170   2.759   0.762   3.991  0.2641 -0.2361 -0.0420
 1904SOL    HW117171   2.840   0.747   4.041 -0.7783 -1.7076  1.2265
 1904SOL    HW217172   2.704   0.790   4.065  0.9865 -1.6147  1.0215
 1905SOL     OW17173   3.417   4.250   9.187 -0.1384 -0.1594 -0.6214
 1905SOL    HW117174   3.372   4.332   9.166 -2.1168 -0.5639  2.0485
 1905SOL    HW217175   3.505   4.276   9.212  0.3078 -1.8611 -0.4671
 1906SOL     OW17176   0.813   0.671   2.132 -0.5808 -0.0557 -0.0139
 1906SOL    HW117177   0.738   0.716   2.093 -0.8276  0.4543  1.0484
 1906SOL    HW217178   0.819   0.714   2.218  2.0007 -0.6711  0.1074
 1907SOL     OW17179   4.652   0.621   2.723  0.3997  0.1571  0.0092
 1907SOL    HW117180   4.702   0.557   2.672 -0.8248  0.4798 -1.5962
 1907SOL    HW217181   4.667   0.693   2.662  1.5392 -1.2697 -1.4025
 1908SOL     OW17182   0.557   2.059   2.344 -0.5062 -0.0075  0.6084
 1908SOL    HW117183   0.647   2.027   2.332 -0.5780 -0.2655  0.7599
 1908SOL    HW217184   0.567   2.146   2.384  1.5287  0.3558 -0.6603
 1909SOL     OW17185   2.821   1.082   1.931  0.3341 -0.2394 -0.3479
 1909SOL    HW117186   2.905   1.120   1.958  0.5876  0.2484 -1.7950
 1909SOL    HW217187   2.783   1.161   1.891 -0.2910 -1.1662 -1.5628
 1910SOL     OW17188   0.388   0.455   0.573 -0.8392  0.1090  0.4042
 1910SOL    HW117189   0.427   0.412   0.649  1.3320  0.8787 -0.2520
 1910SOL    HW217190   0.301   0.417   0.581 -1.6645  1.9104  0.1176
 1911SOL     OW17191   3.256   0.679  14.354 -0.0639 -0.0740 -0.0020
 1911SOL    HW117192   3.288   0.765  14.378  1.2035 -0.7242  0.6484
 1911SOL    HW217193   3.164   0.675  14.381 -0.5676  0.6262 -1.6707
 1912SOL     OW17194   2.125   3.565   4.294  0.0809 -0.2289 -0.7962
 1912SOL    HW117195   2.036   3.600   4.302 -0.3537 -1.1263 -1.6511
 1912SOL    HW217196   2.145   3.588   4.203 -4.2867  0.0890 -1.7070
 1913SOL     OW17197   2.722   1.640   8.901  0.2794 -0.1832 -0.3025
 1913SOL    HW117198   2.754   1.706   8.962 -1.2172 -1.2177  1.6088
 1913SOL    HW217199   2.778   1.563   8.911  1.2195  0.6223  0.5433
 1914SOL     OW17200   2.162   3.464  11.939 -0.3190  0.5121  0.7249
 1914SOL    HW117201   2.132   3.384  11.982 -0.9650  0.9788  1.1573
 1914SOL    HW217202   2.197   3.512  12.014  1.0817  3.0272 -1.5453
 1915SOL     OW17203   4.416   0.218   4.262 -0.3166  0.2602  0.4816
 1915SOL    HW117204   4.330   0.238   4.300  0.1270  0.8864  1.1622
 1915SOL    HW217205   4.397   0.133   4.223  1.0411 -0.1855  0.7937
 1916SOL     OW17206   0.768   1.765   6.519  0.0344  0.0104  0.9795
 1916SOL    HW117207   0.820   1.843   6.537 -1.1956  1.5349 -2.0843
 1916SOL    HW217208   0.686   1.798   6.482  0.7455  0.3721 -0.2690
 1917SOL     OW17209   0.627   2.362   9.290  0.1272 -0.1481  0.4678
 1917SOL    HW117210   0.633   2.421   9.214 -1.7408 -0.9539 -0.3149
 1917SOL    HW217211   0.589   2.286   9.246 -0.7737  0.3779  0.3339
 1918SOL     OW17212   3.168   3.779   2.527 -0.1273 -0.1415  0.0220
 1918SOL    HW117213   3.202   3.818   2.446 -1.5413 -1.6359 -1.2902
 1918SOL    HW217214   3.246   3.731   2.555  1.3581  1.2089 -1.7883
 1919SOL     OW17215   2.583   3.321   5.961 -0.0321 -0.3186  0.5740
 1919SOL    HW117216   2.566   3.343   5.870  0.6702 -1.2566  0.2129
 1919SOL    HW217217   2.542   3.236   5.980 -1.0679  0.1381  0.3436
 1920SOL     OW17218   3.780   3.054   6.372 -0.1105  0.0420  0.1856
 1920SOL    HW117219   3.747   3.142   6.389 -0.6541  0.0540 -0.9063
 1920SOL    HW217220   3.694   3.014   6.362  0.9572 -2.1397 -0.3429
 1921SOL     OW17221   2.607   0.965  14.412  0.1767 -0.0398 -0.5853
 1921SOL    HW117222   2.542   0.975  14.482 -0.3351 -0.0507 -1.0556
 1921SOL    HW217223   2.685   0.957  14.467 -0.3684  0.3771  0.2455
 1922SOL     OW17224   2.224   1.305   4.836 -0.3000  0.3919 -0.1804
 1922SOL    HW117225   2.255   1.392   4.861  3.5138 -1.0917  0.2193
 1922SOL    HW217226   2.310   1.263   4.839  0.2206  1.3234 -2.4574
 1923SOL     OW17227   2.911   1.703   2.888  0.1380  0.7494  0.5189
 1923SOL    HW117228   2.878   1.710   2.978  2.1421 -1.3719  1.4315
 1923SOL    HW217229   2.832   1.742   2.851  0.3880  0.6774 -0.0890
 1924SOL     OW17230   4.633   0.310   9.508 -0.1887 -0.2157  0.4142
 1924SOL    HW117231   4.610   0.304   9.415 -1.1998 -0.2184  0.6692
 1924SOL    HW217232   4.713   0.362   9.515 -1.2644  1.1993  2.1619
 1925SOL     OW17233   0.995   0.492   2.109  0.5554  0.4200  0.2619
 1925SOL    HW117234   0.933   0.563   2.123 -0.5730 -0.6320  0.5661
 1925SOL    HW217235   0.998   0.497   2.014  0.5536 -0.0710  0.2370
 1926SOL     OW17236   0.784   2.902   5.053  0.0740  0.1198  0.0752
 1926SOL    HW117237   0.830   2.985   5.044  0.2452  0.0661  0.4477
 1926SOL    HW217238   0.729   2.922   5.128  0.4890 -0.2156  0.4695
 1927SOL     OW17239   4.093   1.361  10.463  0.1320 -0.0072  0.3997
 1927SOL    HW117240   4.140   1.279  10.445 -1.0745 -0.3629 -1.1376
 1927SOL    HW217241   4.032   1.358  10.389 -0.5651 -0.7775  1.0168
 1928SOL     OW17242   4.571   2.255  11.870 -0.2840 -0.2630 -0.1425
 1928SOL    HW117243   4.548   2.343  11.840 -0.4069 -0.0010  0.7225
 1928SOL    HW217244   4.532   2.202  11.801 -1.3746  0.4070 -0.0385
 1929SOL     OW17245   2.355   2.794  17.018  0.2339  0.3101 -0.4935
 1929SOL    HW117246   2.437   2.807  17.064  1.1944 -1.7537 -1.6277
 1929SOL    HW217247   2.286   2.768  17.078 -0.9858 -0.3669 -2.1815
 1930SOL     OW17248   1.979   2.063   7.302  0.3540  0.2564 -0.4503
 1930SOL    HW117249   1.988   2.024   7.215 -0.4307  1.0481 -0.8906
 1930SOL    HW217250   1.948   1.990   7.356  1.9820  0.3947  0.6505
 1931SOL     OW17251   2.606   4.420  17.043  0.0139  0.1897  0.0196
 1931SOL    HW117252   2.653   4.362  17.103  1.2005 -0.2862 -1.3719
 1931SOL    HW217253   2.547   4.455  17.110 -0.8073 -0.1923 -0.5039
 1932SOL     OW17254   3.559   1.412   1.513 -0.0671 -0.0459  0.0825
 1932SOL    HW117255   3.649   1.442   1.522  0.8438 -2.5139 -0.6549
 1932SOL    HW217256   3.575   1.320   1.493 -1.2957 -0.9326  3.1024
 1933SOL     OW17257   1.517   1.207   2.884 -0.9709  0.1112 -0.0712
 1933SOL    HW117258   1.455   1.273   2.853 -0.6497  0.8724  0.8835
 1933SOL    HW217259   1.452   1.137   2.887  0.2777 -1.0004  1.0156
 1934SOL     OW17260   4.118   3.583  12.328  0.3551 -0.3088 -0.1840
 1934SOL    HW117261   4.173   3.597  12.251 -0.1273  0.4130 -0.4011
 1934SOL    HW217262   4.153   3.650  12.386 -0.8321  0.6924 -0.6297
 1935SOL     OW17263   1.892   1.591   4.849  0.1923 -0.5778  0.3242
 1935SOL    HW117264   1.869   1.500   4.830 -0.6336 -0.4311  0.6578
 1935SOL    HW217265   1.806   1.629   4.835 -0.0918 -1.2714  0.1973
 1936SOL     OW17266   3.682   0.364   7.485  0.2195  0.2975 -0.0641
 1936SOL    HW117267   3.666   0.360   7.391 -1.5643  2.7788  0.1384
 1936SOL    HW217268   3.641   0.282   7.513  2.2070 -0.8356 -0.4718
 1937SOL     OW17269   0.802   3.408  15.742  0.6150 -0.2019 -0.1986
 1937SOL    HW117270   0.880   3.369  15.703 -0.6167 -1.4402 -1.4014
 1937SOL    HW217271   0.773   3.460  15.667 -3.0042 -0.1987  1.1839
 1938SOL     OW17272   4.573   4.299   4.790  0.2429  0.0556  0.3641
 1938SOL    HW117273   4.490   4.335   4.820  1.6981  1.4740  2.6172
 1938SOL    HW217274   4.559   4.212   4.828 -0.4475 -0.5681 -1.3195
 1939SOL     OW17275   1.622   1.144  11.216  0.3472  0.1809 -0.1870
 1939SOL    HW117276   1.614   1.054  11.246  0.1910  0.4750  0.6539
 1939SOL    HW217277   1.631   1.185  11.302  0.5602 -1.5535  0.6144
 1940SOL     OW17278   1.942   2.117   6.830 -0.3280  0.5131 -0.2428
 1940SOL    HW117279   1.876   2.174   6.792 -2.2530 -1.3353  0.3218
 1940SOL    HW217280   2.014   2.094   6.770 -1.4138 -3.5526  0.0481
 1941SOL     OW17281   4.224   0.467   5.063 -0.5587 -1.0436  0.2627
 1941SOL    HW117282   4.154   0.427   5.011 -0.2008 -0.2000 -0.8767
 1941SOL    HW217283   4.178   0.545   5.094 -0.3378 -0.7800 -0.0834
 1942SOL     OW17284   1.221   1.093   3.957  0.1840  0.4111 -0.0252
 1942SOL    HW117285   1.252   1.079   4.046 -2.0367  0.2074  0.7058
 1942SOL    HW217286   1.293   1.142   3.918  0.6839 -1.2293 -1.1833
 1943SOL     OW17287   2.811   2.950   6.898 -0.1517  0.1768 -0.7509
 1943SOL    HW117288   2.824   2.871   6.951  1.7945  0.7397 -0.3717
 1943SOL    HW217289   2.719   2.937   6.876 -0.7170  2.9697  0.0147
 1944SOL     OW17290   1.016   4.497   7.719  0.5899  0.0532  0.0396
 1944SOL    HW117291   1.052   4.533   7.800  2.9281 -1.3625 -0.3886
 1944SOL    HW217292   1.062   4.416   7.697 -0.9118 -0.7320 -0.2322
 1945SOL     OW17293   3.625   1.022  10.509  0.4509  0.0735 -0.5088
 1945SOL    HW117294   3.647   0.938  10.550 -0.2635  0.2548  0.2549
 1945SOL    HW217295   3.692   1.024  10.441  0.1237 -1.3151 -0.8883
 1946SOL     OW17296   2.745   1.507   8.502 -0.3520 -0.2162  0.8793
 1946SOL    HW117297   2.787   1.421   8.508 -2.3200 -1.1982  0.7804
 1946SOL    HW217298   2.814   1.566   8.532  0.6556 -1.3576  0.7868
 1947SOL     OW17299   0.163   0.071  13.191  0.4431  0.3050  0.6554
 1947SOL    HW117300   0.182   4.717  13.138  0.7070  1.0336 -0.3231
 1947SOL    HW217301   0.149   0.138  13.124 -2.4763 -0.9047  0.0552
 1948SOL     OW17302   2.452   0.463   5.150  0.2580 -0.3642 -0.2569
 1948SOL    HW117303   2.359   0.452   5.128  0.2494 -0.0028 -0.4067
 1948SOL    HW217304   2.484   0.535   5.097  0.4926  0.2448  0.7049
 1949SOL     OW17305   0.959   4.002   5.173  0.4642 -0.2154  0.2911
 1949SOL    HW117306   0.913   3.930   5.217 -1.9878  1.3028  0.2501
 1949SOL    HW217307   0.930   4.074   5.228  0.1711  0.3710 -0.6373
 1950SOL     OW17308   2.891   0.530  16.628  0.1573  0.6250  0.0441
 1950SOL    HW117309   2.885   0.480  16.547 -0.6936  0.9303 -0.0864
 1950SOL    HW217310   2.981   0.561  16.633  1.1177 -1.8760 -1.8498
 1951SOL     OW17311   0.163   1.286   5.964 -0.7399 -0.2239  0.4278
 1951SOL    HW117312   0.216   1.355   5.923 -1.0189 -2.0212 -3.0314
 1951SOL    HW217313   0.074   1.308   5.935 -1.2080  1.1623  2.9270
 1952SOL     OW17314   0.234   3.346   0.389  0.5372 -0.3306 -0.3960
 1952SOL    HW117315   0.176   3.321   0.317  1.3135 -1.8305 -0.4892
 1952SOL    HW217316   0.178   3.401   0.444  2.0261  1.4059 -0.6125
 1953SOL     OW17317   1.353   0.846   5.822 -0.3650 -0.2604 -0.3275
 1953SOL    HW117318   1.387   0.875   5.906 -2.7978 -1.7655  1.1428
 1953SOL    HW217319   1.272   0.896   5.813 -0.5434 -0.3070  1.1516
 1954SOL     OW17320   2.485   2.714   5.645  0.3181  0.0008 -0.8735
 1954SOL    HW117321   2.482   2.769   5.567 -3.7965  0.4353 -0.4176
 1954SOL    HW217322   2.527   2.642   5.599  2.0870  0.8031 -0.5019
 1955SOL     OW17323   0.040   4.587  10.102  0.1398 -0.5401 -0.5510
 1955SOL    HW117324   0.097   4.516  10.073  2.2398  1.7219 -1.9111
 1955SOL    HW217325   0.021   4.626  10.017 -1.3075 -0.0400 -0.0007
 1956SOL     OW17326   2.876   0.270   8.765  0.3416  0.1942  0.5761
 1956SOL    HW117327   2.796   0.312   8.798  0.2350  0.6160 -0.2351
 1956SOL    HW217328   2.834   0.241   8.684 -0.9678  2.0503  0.6049
 1957SOL     OW17329   3.868   3.054   1.454  0.8522 -0.3748  0.4148
 1957SOL    HW117330   3.947   3.001   1.466  0.9931 -0.2042  0.2216
 1957SOL    HW217331   3.868   3.064   1.359  2.6166 -1.8278  0.2577
 1958SOL     OW17332   0.348   3.356   1.630 -0.0137 -0.1816 -0.2137
 1958SOL    HW117333   0.313   3.416   1.696  1.9912 -1.2575  1.8595
 1958SOL    HW217334   0.412   3.420   1.600  1.0183 -2.1960 -2.2791
 1959SOL     OW17335   4.158   3.442   7.644 -0.3804 -0.1245  0.0631
 1959SOL    HW117336   4.185   3.361   7.600 -1.2193  1.1528 -2.8420
 1959SOL    HW217337   4.076   3.419   7.686 -0.7773  1.4894  0.1754
 1960SOL     OW17338   2.187   1.575   2.062 -0.0544  0.1050 -0.5675
 1960SOL    HW117339   2.270   1.557   2.106 -1.4714  0.2213  2.1840
 1960SOL    HW217340   2.221   1.563   1.973 -0.3324 -0.9463 -0.5327
 1961SOL     OW17341   1.661   1.913   2.458 -0.1278 -0.6934  0.2014
 1961SOL    HW117342   1.681   1.884   2.547  0.1074 -2.0662 -0.3077
 1961SOL    HW217343   1.743   1.958   2.436 -0.2541 -0.0554  1.0181
 1962SOL     OW17344   2.267   2.590  14.007  0.4927 -0.7389 -0.0419
 1962SOL    HW117345   2.250   2.647  14.083 -0.1453 -1.0759  0.0636
 1962SOL    HW217346   2.181   2.574  13.969  0.5365 -1.6602  0.2500
 1963SOL     OW17347   3.247   4.322   7.187  0.5587  0.2550 -0.1472
 1963SOL    HW117348   3.248   4.234   7.147 -3.6920  0.9131 -1.6178
 1963SOL    HW217349   3.319   4.366   7.141  1.2028  0.2066  0.8108
 1964SOL     OW17350   2.173   0.067  14.388 -0.3525 -0.4040  0.6032
 1964SOL    HW117351   2.194   4.699  14.410  5.5301  1.3061  1.9447
 1964SOL    HW217352   2.087   0.079  14.427 -0.4036 -0.5030  0.5226
 1965SOL     OW17353   0.370   3.710   8.344 -0.1573 -0.1876  0.3565
 1965SOL    HW117354   0.384   3.637   8.284 -0.3385  0.0697  0.0038
 1965SOL    HW217355   0.438   3.696   8.410 -2.1087 -0.7940  2.2426
 1966SOL     OW17356   1.734   3.677   1.460 -0.5787 -0.1385  0.4470
 1966SOL    HW117357   1.727   3.585   1.434 -0.6545 -0.2922  1.0159
 1966SOL    HW217358   1.751   3.669   1.554  0.4805  1.1959  0.3592
 1967SOL     OW17359   0.407   3.029   8.435  0.6022 -0.1187 -0.0731
 1967SOL    HW117360   0.361   3.076   8.505  0.8520  2.0716 -1.3808
 1967SOL    HW217361   0.486   3.080   8.418 -0.3670  1.5868  0.6021
 1968SOL     OW17362   0.718   3.981   2.230 -0.2883  0.1390  0.1667
 1968SOL    HW117363   0.661   3.909   2.204  1.4994 -1.5738  0.9793
 1968SOL    HW217364   0.767   3.992   2.149  2.3112  0.6748  1.8258
 1969SOL     OW17365   3.669   4.443   2.044 -0.6698  0.5166 -0.2656
 1969SOL    HW117366   3.616   4.521   2.028  1.8925  2.1393 -0.8723
 1969SOL    HW217367   3.621   4.404   2.117 -1.9598  1.2888 -0.6945
 1970SOL     OW17368   0.195   0.009   6.585  0.0940  0.4008 -0.3834
 1970SOL    HW117369   0.200   0.039   6.676 -0.4318 -1.4317  0.2383
 1970SOL    HW217370   0.271   0.046   6.539  1.0726 -1.3134 -0.1337
 1971SOL     OW17371   2.560   1.143   8.870 -0.3548  0.3849 -0.5229
 1971SOL    HW117372   2.525   1.098   8.946  0.3662 -1.1527 -1.1022
 1971SOL    HW217373   2.507   1.223   8.876 -0.0509  0.5185  0.2882
 1972SOL     OW17374   2.187   1.091   8.596 -0.5907  0.0892  0.4108
 1972SOL    HW117375   2.249   1.154   8.633 -0.6781 -0.1401  0.9374
 1972SOL    HW217376   2.139   1.153   8.541  0.9232  0.2423 -0.7388
 1973SOL     OW17377   0.541   3.346   2.613  0.4359  0.0207 -0.1199
 1973SOL    HW117378   0.548   3.376   2.703  0.2723  2.3369 -0.8664
 1973SOL    HW217379   0.601   3.273   2.604  1.4261  0.8841 -0.4685
 1974SOL     OW17380   0.285   4.151   4.374  0.3960 -0.2889 -0.5978
 1974SOL    HW117381   0.333   4.148   4.291 -2.0897  1.5765 -2.1024
 1974SOL    HW217382   0.196   4.182   4.359  0.6698  0.3533 -0.9203
 1975SOL     OW17383   3.609   3.309   3.460  0.2013  0.0808  0.4921
 1975SOL    HW117384   3.668   3.340   3.391 -0.0802  1.2146  0.7519
 1975SOL    HW217385   3.620   3.216   3.441 -0.6870 -0.4878  2.7269
 1976SOL     OW17386   2.254   3.304   8.216 -0.5686 -0.2244  0.3956
 1976SOL    HW117387   2.296   3.275   8.297  0.5714 -3.1194 -1.2306
 1976SOL    HW217388   2.204   3.224   8.199  0.1357  0.1385 -3.4156
 1977SOL     OW17389   0.354   0.010   7.237  0.3975  0.0967  0.5439
 1977SOL    HW117390   0.377   0.008   7.330  2.0268 -0.5220  0.1349
 1977SOL    HW217391   0.439   0.032   7.198 -1.6425  0.9763 -3.4417
 1978SOL     OW17392   2.360   2.478   5.025  0.6822  0.0106  0.3668
 1978SOL    HW117393   2.342   2.402   4.971 -1.1228  1.4816 -1.1063
 1978SOL    HW217394   2.307   2.474   5.104  0.7280  0.6851  0.4345
 1979SOL     OW17395   3.677   1.910   9.053  0.2244  0.3866  0.0223
 1979SOL    HW117396   3.586   1.885   9.032 -0.1357  1.3099  0.5150
 1979SOL    HW217397   3.670   1.898   9.147  0.5263  1.1124  0.1312
 1980SOL     OW17398   0.569   1.057   3.536  0.1314 -0.4251  0.1699
 1980SOL    HW117399   0.649   1.012   3.509 -0.6887 -1.3353 -0.7695
 1980SOL    HW217400   0.514   1.021   3.466 -1.0331  2.4777 -0.4402
 1981SOL     OW17401   2.500   1.582   3.138 -0.2115 -0.0529 -0.3229
 1981SOL    HW117402   2.442   1.631   3.080  0.6584  0.2493 -0.9421
 1981SOL    HW217403   2.531   1.659   3.185  2.2612 -0.7179 -0.8632
 1982SOL     OW17404   4.602   0.911   5.135  0.0085  0.0711 -0.0617
 1982SOL    HW117405   4.537   0.975   5.163  2.2570  1.9507  0.8253
 1982SOL    HW217406   4.675   0.946   5.185 -0.0182  0.7846 -0.5276
 1983SOL     OW17407   0.664   4.469  12.734  0.0544  0.1184  0.3187
 1983SOL    HW117408   0.575   4.443  12.711 -1.1371  1.6362  3.2558
 1983SOL    HW217409   0.707   4.468  12.648 -0.2147  1.7333  0.1790
 1984SOL     OW17410   3.226   2.868   6.028  0.2037  0.0045 -0.0417
 1984SOL    HW117411   3.306   2.920   6.020  0.9546 -1.1245  0.2183
 1984SOL    HW217412   3.214   2.842   5.937 -1.1411 -0.3202  0.2333
 1985SOL     OW17413   0.064   0.653   4.470 -0.1774  0.8022 -0.3741
 1985SOL    HW117414   0.013   0.661   4.550  1.0366  0.9724  0.3841
 1985SOL    HW217415   0.007   0.666   4.394 -0.6258  0.1282 -0.1472
 1986SOL     OW17416   3.423   4.462   4.848  0.2176 -0.1508 -0.1852
 1986SOL    HW117417   3.413   4.486   4.756  2.4431  1.5470  0.0236
 1986SOL    HW217418   3.365   4.387   4.864 -0.2610  0.0171 -1.1482
 1987SOL     OW17419   1.902   2.679   7.608  0.2855 -0.0516 -0.2599
 1987SOL    HW117420   1.872   2.663   7.698 -1.5347  1.7316 -0.5599
 1987SOL    HW217421   1.828   2.727   7.573 -0.6631  0.6703  2.6731
 1988SOL     OW17422   2.872   4.132   7.893 -0.2478 -0.2516  0.1687
 1988SOL    HW117423   2.887   4.045   7.856 -0.3541 -0.3893  0.4489
 1988SOL    HW217424   2.957   4.140   7.937 -0.1518 -0.4087  0.0120
 1989SOL     OW17425   3.335   4.615   6.167 -0.4183 -0.0550  0.5492
 1989SOL    HW117426   3.315   4.611   6.073  2.1196  0.9551 -0.0282
 1989SOL    HW217427   3.362   4.524   6.178  2.4227  0.8067  0.6762
 1990SOL     OW17428   1.690   2.193   2.653 -0.2603 -0.5460 -0.3908
 1990SOL    HW117429   1.663   2.109   2.616  0.1907 -1.5784  1.6323
 1990SOL    HW217430   1.630   2.201   2.727  1.9200 -2.3457  1.5762
 1991SOL     OW17431   4.403   2.097  10.614  0.2027 -0.6456 -0.9598
 1991SOL    HW117432   4.399   2.184  10.573 -0.2038  0.3652  1.2405
 1991SOL    HW217433   4.320   2.085  10.660  1.1934  1.0174  1.2562
 1992SOL     OW17434   3.336   1.937   5.273 -0.0380 -0.3772  0.1571
 1992SOL    HW117435   3.391   1.875   5.320  0.3045  0.6093  1.0563
 1992SOL    HW217436   3.403   1.995   5.236  0.9064 -0.7975  1.2389
 1993SOL     OW17437   0.841   0.349   2.636  0.3549 -0.4202 -0.0756
 1993SOL    HW117438   0.754   0.326   2.603  0.0413 -0.4613  0.7886
 1993SOL    HW217439   0.885   0.369   2.553  0.5747 -1.7883 -0.2894
 1994SOL     OW17440   4.386   0.486   5.803 -0.3221 -0.0295  0.2257
 1994SOL    HW117441   4.434   0.547   5.858 -1.5147  0.0676  1.1654
 1994SOL    HW217442   4.342   0.548   5.744  0.3510  0.9706  0.7824
 1995SOL     OW17443   4.345   1.086   6.702  0.4415  0.2608 -0.1876
 1995SOL    HW117444   4.390   1.064   6.620  2.4455  0.3683  0.9034
 1995SOL    HW217445   4.341   1.180   6.684  0.1100  0.5144  1.2573
 1996SOL     OW17446   2.304   1.045  13.873 -0.5460 -0.2637 -0.0900
 1996SOL    HW117447   2.281   0.986  13.944 -1.8633  0.1498 -0.1749
 1996SOL    HW217448   2.391   1.073  13.902 -0.3252 -0.1773 -0.8341
 1997SOL     OW17449   2.404   4.497  14.917  0.0232  0.0659 -0.6798
 1997SOL    HW117450   2.376   4.531  15.002  0.9938  1.3835 -0.8856
 1997SOL    HW217451   2.392   4.406  14.941  0.9042  0.1880  0.2214
 1998SOL     OW17452   1.585   2.773   6.866  0.0541  0.1478 -0.2491
 1998SOL    HW117453   1.515   2.743   6.808 -0.9215  2.1457 -0.1186
 1998SOL    HW217454   1.655   2.748   6.805  0.7873 -0.8970  1.0131
 1999SOL     OW17455   2.368   1.679   7.074  0.0454  0.0832 -0.3197
 1999SOL    HW117456   2.458   1.657   7.099  0.3269 -2.5282 -3.6491
 1999SOL    HW217457   2.361   1.647   6.984  0.6106  3.2817 -1.4763
 2000SOL     OW17458   2.550   0.208   5.159  0.1289 -0.1626  0.8177
 2000SOL    HW117459   2.475   0.195   5.216 -1.6200 -2.1948 -1.9370
 2000SOL    HW217460   2.544   0.302   5.142 -0.8685 -0.6448 -1.4726
 2001SOL     OW17461   0.436   1.245   6.239  0.4326 -0.4384 -0.3209
 2001SOL    HW117462   0.422   1.164   6.190 -2.1988  1.0065 -1.9740
 2001SOL    HW217463   0.486   1.290   6.171  1.5009 -0.9139  0.1445
 2002SOL     OW17464   0.443   1.629   7.851 -0.6409  0.0332 -0.4487
 2002SOL    HW117465   0.493   1.549   7.835  0.5730  0.6574  0.2886
 2002SOL    HW217466   0.508   1.698   7.839  0.6744 -0.5392  3.4240
 2003SOL     OW17467   4.084   0.733  13.449  0.3168  0.3574  0.0939
 2003SOL    HW117468   4.024   0.747  13.522 -0.7209  1.4779 -0.9701
 2003SOL    HW217469   4.165   0.714  13.495  0.9487  2.0755 -0.3198
 2004SOL     OW17470   2.101   2.422  15.066 -0.4914 -0.4477 -0.3561
 2004SOL    HW117471   2.067   2.486  15.128  0.8743  1.6681 -1.7784
 2004SOL    HW217472   2.191   2.404  15.094 -0.6281  0.5605  0.7103
 2005SOL     OW17473   1.871   0.674   7.905  0.4091  0.4470  0.0905
 2005SOL    HW117474   1.826   0.637   7.980  2.3930  0.0779  1.1052
 2005SOL    HW217475   1.863   0.588   7.863 -0.3486  1.0739 -1.0467
 2006SOL     OW17476   1.347   1.888   3.934  0.1048 -0.2621  0.2751
 2006SOL    HW117477   1.368   1.797   3.955  0.2297 -0.5593 -1.1653
 2006SOL    HW217478   1.374   1.902   3.843 -1.1040 -1.6791 -0.2976
 2007SOL     OW17479   3.722   4.607   0.221 -0.4265  0.0914  0.3123
 2007SOL    HW117480   3.637   4.572   0.249 -0.6660  1.3404  1.1402
 2007SOL    HW217481   3.750   4.639   0.306  0.3333  0.8265 -0.2137
 2008SOL     OW17482   3.455   0.722   5.420  0.0375  0.1783 -0.0647
 2008SOL    HW117483   3.486   0.793   5.476 -1.0781  0.2899  0.3976
 2008SOL    HW217484   3.422   0.665   5.489 -1.3283 -0.1503 -0.9767
 2009SOL     OW17485   1.065   3.610   6.861  0.6767 -0.1758 -0.0824
 2009SOL    HW117486   1.156   3.633   6.879  1.1505 -2.4287  0.4196
 2009SOL    HW217487   1.049   3.665   6.784 -2.1069 -1.9762 -0.7709
 2010SOL     OW17488   2.133   1.355   7.577  0.4635 -0.0036 -0.7228
 2010SOL    HW117489   2.223   1.352   7.544  0.6590 -0.9647 -0.0969
 2010SOL    HW217490   2.088   1.338   7.494  0.0857  2.0132 -0.9304
 2011SOL     OW17491   0.427   2.959  17.204  0.0426  0.2947  0.3008
 2011SOL    HW117492   0.429   3.024  17.274  0.4900  1.3671 -0.7075
 2011SOL    HW217493   0.332   2.946  17.196  0.1249 -0.8424  1.2758
 2012SOL     OW17494   4.438   2.998  13.031  0.4204 -0.5049 -0.1263
 2012SOL    HW117495   4.463   2.916  13.072 -2.4154 -0.1895  2.2330
 2012SOL    HW217496   4.516   3.009  12.976  2.2705 -0.3816  2.5274
 2013SOL     OW17497   0.271   1.952   7.409 -0.7076  0.0506  0.4067
 2013SOL    HW117498   0.365   1.970   7.420  0.0485 -2.1249 -2.2875
 2013SOL    HW217499   0.276   1.862   7.442  1.8323  1.3509  3.4796
 2014SOL     OW17500   0.528   0.653   2.664  0.2039  0.2779  0.3378
 2014SOL    HW117501   0.561   0.688   2.582 -0.5703  0.3967  0.0806
 2014SOL    HW217502   0.611   0.618   2.698  0.5692  2.1346  1.3476
 2015SOL     OW17503   1.526   2.515   8.254 -0.7701 -0.4170  0.3152
 2015SOL    HW117504   1.517   2.555   8.168  1.2855  0.9805  0.7454
 2015SOL    HW217505   1.492   2.573   8.323 -1.5419 -1.6493  0.9777
 2016SOL     OW17506   1.060   3.674   8.657  0.0414 -0.3375 -0.0140
 2016SOL    HW117507   1.106   3.591   8.648  0.9723  0.2624 -0.8132
 2016SOL    HW217508   1.101   3.712   8.735  1.5675  0.1165 -1.0301
 2017SOL     OW17509   3.737   0.414   6.972 -0.0477 -0.0119  0.3610
 2017SOL    HW117510   3.742   0.509   6.961 -0.0151  0.1950  2.0449
 2017SOL    HW217511   3.810   0.391   7.029  0.3717  1.6621  0.5150
 2018SOL     OW17512   1.281   1.357  15.239 -0.1829  0.4705 -0.6458
 2018SOL    HW117513   1.245   1.288  15.295 -2.4595  2.9353  0.9648
 2018SOL    HW217514   1.374   1.336  15.245  0.1921  1.8073 -1.8990
 2019SOL     OW17515   0.302   0.996   2.041 -0.2716  0.0351 -0.0210
 2019SOL    HW117516   0.350   0.961   1.966 -0.2313 -0.8160  0.4117
 2019SOL    HW217517   0.261   0.917   2.076 -0.6448 -0.7196 -2.1839
 2020SOL     OW17518   3.267   3.169  13.355  0.0184 -0.2122 -0.4753
 2020SOL    HW117519   3.251   3.249  13.405  1.9372  1.4518 -2.5299
 2020SOL    HW217520   3.299   3.201  13.271 -1.8465  0.6805 -0.8436
 2021SOL     OW17521   0.663   3.323   1.502  0.3748  0.4489 -0.0530
 2021SOL    HW117522   0.598   3.331   1.432  1.0474  0.7342 -0.6440
 2021SOL    HW217523   0.629   3.248   1.551 -2.7214  1.1899 -1.0275
 2022SOL     OW17524   2.792   2.389   7.944 -0.3558  0.0292 -0.8723
 2022SOL    HW117525   2.844   2.455   7.899 -0.8708  0.8627 -0.2415
 2022SOL    HW217526   2.766   2.328   7.875  0.5527 -0.8415 -0.4377
 2023SOL     OW17527   2.214   2.960   3.662  0.5337 -0.0331 -0.2281
 2023SOL    HW117528   2.225   2.874   3.621 -1.6052  0.4558 -1.8117
 2023SOL    HW217529   2.255   3.019   3.598 -1.7005  0.1815 -1.4638
 2024SOL     OW17530   1.190   3.363   1.351  0.4911  0.6575  0.4073
 2024SOL    HW117531   1.212   3.362   1.257 -0.0687 -0.1632  0.2884
 2024SOL    HW217532   1.101   3.399   1.350  0.3428  0.2246 -1.6856
 2025SOL     OW17533   4.327   1.249   9.951  0.0574  0.0304 -0.3702
 2025SOL    HW117534   4.270   1.278   9.880 -1.8125 -0.5621  0.9046
 2025SOL    HW217535   4.320   1.331  10.000  1.0256  1.0395 -1.8883
 2026SOL     OW17536   3.816   1.059  14.667 -0.2378  0.6080 -0.2501
 2026SOL    HW117537   3.883   1.063  14.599  1.3055 -0.7026  1.2121
 2026SOL    HW217538   3.879   1.063  14.739  0.8096  0.7356 -1.1656
 2027SOL     OW17539   3.894   4.616   2.118 -0.3426 -0.0519 -0.2096
 2027SOL    HW117540   3.880   4.530   2.077 -2.2186 -0.0214  0.3649
 2027SOL    HW217541   3.811   4.660   2.095  0.9640  2.3746 -0.2807
 2028SOL     OW17542   1.711   2.727   5.918  0.0850  0.1090 -0.5756
 2028SOL    HW117543   1.723   2.804   5.863 -2.4207  1.7414  1.1834
 2028SOL    HW217544   1.620   2.748   5.938  0.4766  1.5180 -0.2818
 2029SOL     OW17545   2.152   1.966   6.684 -0.6687 -0.0597 -0.1682
 2029SOL    HW117546   2.242   1.982   6.713 -0.2131  0.8603 -2.0500
 2029SOL    HW217547   2.155   1.983   6.590  1.4909 -1.0812 -0.2902
 2030SOL     OW17548   0.816   1.708   2.770 -0.1254  0.2302 -0.8182
 2030SOL    HW117549   0.792   1.649   2.699  3.6503 -0.5305 -1.5119
 2030SOL    HW217550   0.736   1.761   2.774 -0.9730 -1.2692  1.7057
 2031SOL     OW17551   4.434   2.998   3.109  0.6154  0.1660  0.5239
 2031SOL    HW117552   4.490   2.961   3.177  2.0916 -0.9089 -1.2637
 2031SOL    HW217553   4.354   3.006   3.162  0.6334  0.8530  0.4555
 2032SOL     OW17554   4.525   1.184   3.588 -0.2891 -0.3211  0.9905
 2032SOL    HW117555   4.608   1.151   3.555 -0.1753 -0.5761  1.5264
 2032SOL    HW217556   4.472   1.133   3.526  0.3055 -0.7920  0.8696
 2033SOL     OW17557   3.162   1.334   4.761  0.7497 -0.2694 -0.1008
 2033SOL    HW117558   3.103   1.260   4.751  0.4460 -0.1531  0.8572
 2033SOL    HW217559   3.225   1.309   4.828  1.5965 -0.7371 -1.0737
 2034SOL     OW17560   3.441   4.244   5.897  0.1480  0.3855 -0.4722
 2034SOL    HW117561   3.483   4.314   5.848  0.7837  0.4769  0.2057
 2034SOL    HW217562   3.442   4.276   5.987 -1.5887  0.3847 -0.4461
 2035SOL     OW17563   3.740   4.188   7.938  0.4721 -0.2152  0.3164
 2035SOL    HW117564   3.793   4.113   7.909 -0.7766 -0.7201 -0.6729
 2035SOL    HW217565   3.666   4.193   7.878  1.3177  1.8874 -0.5389
 2036SOL     OW17566   0.273   0.506   5.873 -0.8487 -0.1883 -0.0365
 2036SOL    HW117567   0.317   0.440   5.927  0.1259  0.3472 -0.1834
 2036SOL    HW217568   0.224   0.460   5.804 -0.2214 -0.3659 -0.3609
 2037SOL     OW17569   2.209   3.920   8.781  0.3798  0.6249  0.6282
 2037SOL    HW117570   2.235   4.008   8.808 -1.3908  1.1027  0.7349
 2037SOL    HW217571   2.131   3.933   8.727  1.2629 -1.0397 -1.0663
 2038SOL     OW17572   2.714   4.491   4.923 -0.1990 -0.3708 -0.0176
 2038SOL    HW117573   2.667   4.416   4.961  0.6591  0.2355  2.2165
 2038SOL    HW217574   2.684   4.567   4.973  0.6527  0.3465 -0.6102
 2039SOL     OW17575   1.573   1.375  14.070  0.1679 -0.7902  0.1045
 2039SOL    HW117576   1.648   1.385  14.012 -0.1161 -0.1309 -0.1502
 2039SOL    HW217577   1.584   1.444  14.136  0.6165 -1.1858  0.4445
 2040SOL     OW17578   2.176   0.191   0.513  0.2021 -0.0415  0.5041
 2040SOL    HW117579   2.186   0.106   0.556 -1.6726 -1.1190 -1.1938
 2040SOL    HW217580   2.097   0.174   0.463  0.9751  0.1000 -0.7715
 2041SOL     OW17581   2.083   2.657   6.606 -0.5108 -0.1439 -0.1344
 2041SOL    HW117582   2.166   2.689   6.641 -0.7520  0.0301  0.2826
 2041SOL    HW217583   2.090   2.562   6.601 -3.1410 -0.3175 -0.6428
 2042SOL     OW17584   0.466   0.671  14.739  0.2746  0.2951 -0.2267
 2042SOL    HW117585   0.525   0.596  14.753  0.3975  0.6791  1.3883
 2042SOL    HW217586   0.445   0.643  14.650 -2.1562 -0.6424  0.6329
 2043SOL     OW17587   2.922   1.387   8.232  0.3358 -0.5555  0.2555
 2043SOL    HW117588   2.850   1.445   8.207 -1.3361 -3.7087 -2.2621
 2043SOL    HW217589   2.885   1.333   8.303 -0.3066  0.5611  0.7754
 2044SOL     OW17590   3.720   3.481   4.611 -0.1400 -0.3092 -0.3288
 2044SOL    HW117591   3.777   3.523   4.547  0.8949 -1.3104 -0.0682
 2044SOL    HW217592   3.743   3.388   4.608  1.1238  0.0116 -0.5243
 2045SOL     OW17593   3.099   2.357   6.945  0.2955 -0.6546 -0.1556
 2045SOL    HW117594   3.048   2.381   6.867 -1.7795 -0.2488  1.3256
 2045SOL    HW217595   3.072   2.421   7.010 -0.5034  1.4393 -2.5264
 2046SOL     OW17596   0.659   4.672  17.443 -0.6407  0.4595 -0.2858
 2046SOL    HW117597   0.642   0.023  17.386  0.3781  1.0052  0.1186
 2046SOL    HW217598   0.753   4.686  17.456 -0.5872 -2.2783  2.2861
 2047SOL     OW17599   0.185   3.099   4.341 -0.1963  0.4007 -0.1530
 2047SOL    HW117600   0.223   3.021   4.383 -1.1599 -0.2587 -0.5180
 2047SOL    HW217601   0.249   3.160   4.379  0.3677 -0.8527  0.9354
 2048SOL     OW17602   2.767   2.577   8.271 -0.0559 -0.4372 -0.2505
 2048SOL    HW117603   2.852   2.536   8.282  0.1085 -0.4007 -1.4024
 2048SOL    HW217604   2.784   2.663   8.310 -2.4824  0.3894 -0.9463
 2049SOL     OW17605   2.556   3.103   9.049  0.3835  0.5125 -0.1957
 2049SOL    HW117606   2.486   3.073   9.106 -0.4124  0.3434 -1.2536
 2049SOL    HW217607   2.615   3.028   9.057  0.7973  0.9953  1.3337
 2050SOL     OW17608   0.798   4.002   4.569 -0.3375 -0.9908 -0.1183
 2050SOL    HW117609   0.735   4.070   4.597 -0.5293 -1.5773  0.8821
 2050SOL    HW217610   0.743   3.924   4.576 -0.1537 -0.9471  1.8406
 2051SOL     OW17611   3.062   4.189   6.348  0.4829 -0.5720 -0.0100
 2051SOL    HW117612   3.135   4.135   6.377  1.3717  0.4638 -0.3212
 2051SOL    HW217613   3.075   4.269   6.400 -0.4432  0.4938 -1.4022
 2052SOL     OW17614   1.914   1.963   2.379 -0.2224  0.4809 -0.2173
 2052SOL    HW117615   1.929   2.001   2.293  1.9219 -0.0860 -0.0853
 2052SOL    HW217616   1.979   1.892   2.376  0.9702  1.5967 -0.5869
 2053SOL     OW17617   0.059   1.898   6.578  0.5242 -0.6328 -0.0630
 2053SOL    HW117618   0.122   1.899   6.506  2.8488  2.1273  2.0314
 2053SOL    HW217619   0.008   1.825   6.543  0.8588 -1.9918  2.3354
 2054SOL     OW17620   2.836   4.157  10.708  0.6578  0.1280  0.0959
 2054SOL    HW117621   2.925   4.192  10.707 -0.0721  1.9893 -0.1565
 2054SOL    HW217622   2.835   4.127  10.618 -1.0328 -2.2818  0.9094
 2055SOL     OW17623   0.643   3.720  13.795 -0.1834 -0.0919 -0.3822
 2055SOL    HW117624   0.671   3.761  13.713 -0.3126  0.4118 -0.1777
 2055SOL    HW217625   0.552   3.750  13.799 -0.0675  0.6136 -3.5982
 2056SOL     OW17626   0.860   3.724  10.270 -0.2533  0.0460 -0.1428
 2056SOL    HW117627   0.875   3.689  10.358  0.6696 -0.1570 -0.3869
 2056SOL    HW217628   0.946   3.712  10.232 -0.7029 -0.1970 -1.0881
 2057SOL     OW17629   3.300   3.788   6.681 -0.1342  0.4999  0.2390
 2057SOL    HW117630   3.283   3.882   6.688 -1.7211  0.2052  0.3740
 2057SOL    HW217631   3.220   3.763   6.728 -0.4498 -0.6842 -0.9234
 2058SOL     OW17632   3.746   1.377   8.719 -0.4069 -0.1545  0.4959
 2058SOL    HW117633   3.753   1.283   8.738 -1.4204 -0.2387  0.4654
 2058SOL    HW217634   3.661   1.405   8.754  1.2239  1.9582  2.6743
 2059SOL     OW17635   4.006   2.932   3.870  0.3769  0.1673  0.7289
 2059SOL    HW117636   4.057   2.977   3.937 -1.6287  0.1950  2.2267
 2059SOL    HW217637   4.074   2.867   3.852  0.3649  0.9203 -1.9815
 2060SOL     OW17638   4.048   0.779   7.000 -0.0968 -0.0262  0.1611
 2060SOL    HW117639   4.046   0.689   6.966 -0.2924 -0.0613  0.2620
 2060SOL    HW217640   4.065   0.829   6.920  1.9066  1.2219  1.3770
 2061SOL     OW17641   2.817   1.181   8.911  0.9058 -0.4828 -0.0148
 2061SOL    HW117642   2.840   1.108   8.969  2.0568  0.2252  0.4086
 2061SOL    HW217643   2.728   1.156   8.885  0.8368 -0.7595  0.4890
 2062SOL     OW17644   3.276   1.432   0.535 -0.6385 -0.0526 -0.1953
 2062SOL    HW117645   3.241   1.411   0.621  1.5546 -0.4767  0.6067
 2062SOL    HW217646   3.364   1.402   0.559  0.0031 -0.0704 -2.5467
 2063SOL     OW17647   3.833   4.617   0.982 -0.5973  0.1438 -0.5599
 2063SOL    HW117648   3.752   4.572   0.957 -0.6831 -0.1361  0.2311
 2063SOL    HW217649   3.900   4.600   0.916 -0.6701 -0.0835 -0.5754
 2064SOL     OW17650   4.681   1.480   6.249 -0.2105  0.3163 -0.0776
 2064SOL    HW117651   0.043   1.468   6.292  0.4933  0.2418 -1.4833
 2064SOL    HW217652   4.705   1.527   6.169 -1.2380 -1.0811 -1.2016
 2065SOL     OW17653   2.930   3.000   7.639 -0.1412 -0.5475  0.0211
 2065SOL    HW117654   2.843   2.960   7.643  0.5628 -1.9840  0.6767
 2065SOL    HW217655   2.915   3.067   7.571  1.7222 -1.6170 -1.4484
 2066SOL     OW17656   2.684   4.079   5.141  0.7705  0.3498 -0.0242
 2066SOL    HW117657   2.686   4.079   5.237  1.4260 -0.1514 -0.0348
 2066SOL    HW217658   2.730   3.997   5.120  2.1933  1.1310  0.0437
 2067SOL     OW17659   4.191   1.560  15.255  0.3277 -0.0494 -0.1609
 2067SOL    HW117660   4.242   1.498  15.203 -1.1447 -0.6006 -0.9588
 2067SOL    HW217661   4.112   1.508  15.270  0.9266 -0.3317  1.9042
 2068SOL     OW17662   4.072   1.659   4.226  0.0893 -0.3200 -0.1094
 2068SOL    HW117663   4.133   1.715   4.177 -0.8520 -0.0653 -0.9721
 2068SOL    HW217664   4.127   1.581   4.227 -1.1705 -1.1857  1.4536
 2069SOL     OW17665   3.859   4.148   2.170  0.0264  0.4624 -0.8041
 2069SOL    HW117666   3.767   4.173   2.174  0.0721  0.5972 -0.6067
 2069SOL    HW217667   3.848   4.055   2.190  2.4280  0.3557  0.0508
 2070SOL     OW17668   0.019   2.103   2.430 -0.1015 -0.2238  0.2986
 2070SOL    HW117669   0.019   2.035   2.363  0.4105  1.8232 -1.7874
 2070SOL    HW217670   4.676   2.162   2.394 -0.8835 -2.0179 -1.1927
 2071SOL     OW17671   0.607   4.406   7.957  0.1276 -0.4848  0.6480
 2071SOL    HW117672   0.612   4.444   8.045 -1.0727 -1.2594  1.0517
 2071SOL    HW217673   0.512   4.394   7.950  0.2289 -1.6267  1.1691
 2072SOL     OW17674   3.948   4.422  12.162 -0.2521  0.1340  0.0694
 2072SOL    HW117675   3.923   4.444  12.072 -1.9214  1.9621  0.9878
 2072SOL    HW217676   4.032   4.378  12.146  0.3395  2.0548 -2.2138
 2073SOL     OW17677   0.747   0.408  15.138  0.4468  0.7273  0.1286
 2073SOL    HW117678   0.789   0.341  15.084 -2.4931  0.4415 -1.8319
 2073SOL    HW217679   0.771   0.489  15.093  0.5289  0.1322 -0.9038
 2074SOL     OW17680   1.188   2.903   9.384  0.5948 -0.1278  0.8060
 2074SOL    HW117681   1.229   2.969   9.328 -1.3780 -0.4043 -0.9774
 2074SOL    HW217682   1.101   2.944   9.384 -0.3883 -2.2094 -1.7044
 2075SOL     OW17683   3.722   0.060  14.572  0.2890 -0.8583  0.7695
 2075SOL    HW117684   3.669   4.709  14.602  0.1865 -1.6659 -1.4062
 2075SOL    HW217685   3.806   0.018  14.556  0.5953 -0.4143  1.2322
 2076SOL     OW17686   2.860   1.110   3.027  0.2549  0.1173 -0.0572
 2076SOL    HW117687   2.773   1.111   2.989 -0.3636 -1.1668  1.3132
 2076SOL    HW217688   2.885   1.017   3.024 -1.9832 -0.5794  3.3458
 2077SOL     OW17689   3.775   3.672   2.551 -0.2338  0.1610 -0.0942
 2077SOL    HW117690   3.761   3.606   2.619  1.0953  0.1810  0.1965
 2077SOL    HW217691   3.866   3.660   2.524  0.0847  2.2559  0.0010
 2078SOL     OW17692   1.157   0.487   5.853  0.0802 -0.9409 -0.3675
 2078SOL    HW117693   1.094   0.558   5.842  0.9719 -0.1391 -0.4021
 2078SOL    HW217694   1.117   0.449   5.931  1.8687 -0.1549  0.9436
 2079SOL     OW17695   2.940   2.067   2.559 -0.4247 -0.5882  0.1030
 2079SOL    HW117696   3.018   2.051   2.506 -2.5921 -1.1023 -2.9064
 2079SOL    HW217697   2.922   2.161   2.549 -0.6581 -0.4107  2.0331
 2080SOL     OW17698   1.768   3.792  12.504  0.6051  0.0516  0.4939
 2080SOL    HW117699   1.833   3.809  12.572  0.8857  2.3733 -0.3604
 2080SOL    HW217700   1.812   3.806  12.420  2.2783 -0.3158  1.2934
 2081SOL     OW17701   1.112   1.231   7.619 -0.1297 -0.1160  0.0796
 2081SOL    HW117702   1.189   1.286   7.603 -0.0030 -0.4411 -0.4168
 2081SOL    HW217703   1.150   1.143   7.618 -0.0457 -0.1307  2.9526
 2082SOL     OW17704   2.589   2.452  14.200  0.4046  0.3429 -0.1513
 2082SOL    HW117705   2.677   2.460  14.161  0.8580 -0.6041  0.6780
 2082SOL    HW217706   2.608   2.387  14.268 -0.9834 -1.7056 -1.7130
 2083SOL     OW17707   1.454   1.365  11.806  0.0187  0.0695  0.2944
 2083SOL    HW117708   1.545   1.336  11.805  0.0684  0.2179  0.6726
 2083SOL    HW217709   1.408   1.330  11.883 -3.1517 -2.2698 -2.6438
 2084SOL     OW17710   0.708   1.489   3.546  0.2010  0.2721 -1.0703
 2084SOL    HW117711   0.691   1.442   3.628  0.6229  1.1945 -0.4511
 2084SOL    HW217712   0.629   1.457   3.503 -1.6610  0.4493  2.1882
 2085SOL     OW17713   3.430   3.070   8.745  0.3859 -0.0033 -0.4077
 2085SOL    HW117714   3.369   3.044   8.813  2.1512 -1.2618  0.7080
 2085SOL    HW217715   3.404   3.007   8.678  1.7904 -0.5849 -0.4208
 2086SOL     OW17716   2.068   4.058   4.120  0.0729  0.3551 -0.3951
 2086SOL    HW117717   1.975   4.081   4.119  0.3044  1.4705  2.9579
 2086SOL    HW217718   2.061   3.963   4.131  1.2394  0.6258  2.8063
 2087SOL     OW17719   4.011   2.341   1.366 -0.2376  0.4691 -0.0109
 2087SOL    HW117720   4.036   2.415   1.422  0.7923  0.1136  0.0040
 2087SOL    HW217721   3.972   2.389   1.293  1.2231 -0.7743 -1.6008
 2088SOL     OW17722   1.613   3.530   4.012  0.2711  0.0244 -0.3742
 2088SOL    HW117723   1.546   3.476   4.053  2.9655 -2.8123  0.2740
 2088SOL    HW217724   1.628   3.594   4.082  1.0384  0.4571 -0.9316
 2089SOL     OW17725   0.148   0.046   7.631  0.4196  0.4395 -0.2320
 2089SOL    HW117726   0.117   4.693   7.680  0.2454  0.2477 -0.6410
 2089SOL    HW217727   0.071   0.075   7.581 -0.0548 -0.4215  0.0110
 2090SOL     OW17728   1.986   3.500   3.348  0.4603 -0.4260  0.4392
 2090SOL    HW117729   2.035   3.438   3.401 -0.8529 -0.3375  1.7371
 2090SOL    HW217730   2.062   3.555   3.329  0.6550 -0.3152  1.5340
 2091SOL     OW17731   3.494   0.318   2.031 -0.2932 -0.3492 -0.2151
 2091SOL    HW117732   3.527   0.300   1.943  1.4695  2.6850 -0.1572
 2091SOL    HW217733   3.404   0.289   2.013  0.0717 -0.4664 -1.8427
 2092SOL     OW17734   4.372   0.947   3.898  0.4551 -0.7609  0.1852
 2092SOL    HW117735   4.356   0.921   3.807 -0.5336 -1.7404  0.6388
 2092SOL    HW217736   4.388   1.039   3.880 -0.5599 -0.7778 -0.8282
 2093SOL     OW17737   2.255   1.456  10.678 -0.4517 -0.1485 -0.3628
 2093SOL    HW117738   2.176   1.409  10.705 -1.3269  0.0079 -2.6490
 2093SOL    HW217739   2.227   1.545  10.702  0.6327 -0.8134  3.2744
 2094SOL     OW17740   4.050   4.454   4.574  0.2008  0.3404  0.3496
 2094SOL    HW117741   4.081   4.385   4.632 -3.6755 -1.7781 -0.1321
 2094SOL    HW217742   4.119   4.520   4.580 -0.5273  1.2861 -1.5458
 2095SOL     OW17743   2.773   3.659   2.718  0.3082 -0.3355  0.0847
 2095SOL    HW117744   2.727   3.579   2.694 -1.5355  0.7546 -0.0230
 2095SOL    HW217745   2.821   3.663   2.635  2.2298  0.4986  1.2391
 2096SOL     OW17746   1.190   2.659   0.198  0.3978  0.3239  0.6917
 2096SOL    HW117747   1.098   2.659   0.226  0.7242  0.3949  1.7513
 2096SOL    HW217748   1.178   2.617   0.113 -1.1973  0.7957  0.6801
 2097SOL     OW17749   2.319   0.369   2.646  0.3060  0.4459  0.5137
 2097SOL    HW117750   2.312   0.416   2.563 -3.2644  0.6448  0.9457
 2097SOL    HW217751   2.401   0.401   2.684  1.4119 -2.2338  0.4341
 2098SOL     OW17752   2.295   4.036   2.158  0.0502 -0.6557 -0.6485
 2098SOL    HW117753   2.218   3.981   2.143 -1.1442  0.4803  1.3523
 2098SOL    HW217754   2.356   3.980   2.110  0.7455 -1.3930  1.1048
 2099SOL     OW17755   3.973   4.441   7.331  0.2753 -0.0859 -0.3302
 2099SOL    HW117756   3.919   4.504   7.283 -1.5886  0.5033  2.5049
 2099SOL    HW217757   3.997   4.492   7.409  2.7188  0.2997 -1.3488
 2100SOL     OW17758   1.132   3.306  11.940  0.4572  0.2897  0.4507
 2100SOL    HW117759   1.183   3.350  11.872  0.9751  0.4446  0.9365
 2100SOL    HW217760   1.045   3.303  11.899  0.5714 -0.7693  0.2986
 2101SOL     OW17761   0.113   4.436   9.417 -0.1950 -0.2860 -0.0719
 2101SOL    HW117762   0.153   4.391   9.343  1.8774  1.6159 -0.0980
 2101SOL    HW217763   0.031   4.387   9.419  0.1541 -0.8727 -0.2498
 2102SOL     OW17764   2.595   1.049   0.880 -0.3293 -0.0654 -0.5074
 2102SOL    HW117765   2.681   1.082   0.853  1.2343 -3.2773  0.5643
 2102SOL    HW217766   2.553   1.124   0.923  0.1660 -1.2858  2.0844
 2103SOL     OW17767   4.151   0.897   6.751  0.3021 -0.1806  0.5218
 2103SOL    HW117768   4.064   0.929   6.726  0.2502  0.9551  2.1674
 2103SOL    HW217769   4.205   0.974   6.731  0.3255 -0.3259  0.0222
 2104SOL     OW17770   1.075   4.513   5.948 -0.5342 -0.8368  0.4221
 2104SOL    HW117771   1.009   4.582   5.939 -0.5979 -0.7359  1.7042
 2104SOL    HW217772   1.065   4.465   5.866 -2.5486  0.8717 -0.3462
 2105SOL     OW17773   4.372   2.326   4.180 -0.2687 -0.2485 -0.0856
 2105SOL    HW117774   4.401   2.373   4.258 -1.1020 -1.0142  0.6818
 2105SOL    HW217775   4.389   2.389   4.110  2.1400  0.7092  1.3515
 2106SOL     OW17776   2.980   2.805   6.252 -0.0867  0.3435  0.3846
 2106SOL    HW117777   2.983   2.852   6.169 -0.8910  0.1211  0.2315
 2106SOL    HW217778   3.065   2.763   6.263 -0.4239 -0.7016 -1.0886
 2107SOL     OW17779   3.273   3.667   9.035 -0.1981  0.2618 -0.2373
 2107SOL    HW117780   3.226   3.745   9.064  1.7235  0.7412  1.5379
 2107SOL    HW217781   3.266   3.608   9.110  2.8711  1.5266  1.0254
 2108SOL     OW17782   2.424   0.713   8.673  0.5316  0.6960 -0.1594
 2108SOL    HW117783   2.395   0.771   8.743  1.8079  0.9258  0.1850
 2108SOL    HW217784   2.496   0.674   8.724  0.9895  0.3901 -1.0420
 2109SOL     OW17785   4.151   0.514   0.891 -0.4944 -0.1689 -0.0167
 2109SOL    HW117786   4.221   0.491   0.952 -0.1863 -2.5433 -1.2843
 2109SOL    HW217787   4.101   0.433   0.903  0.8141 -1.2957 -2.3130
 2110SOL     OW17788   2.909   2.379  17.677  0.1494 -0.8306  0.5746
 2110SOL    HW117789   2.901   2.457   0.037 -0.2943  0.7758 -1.7933
 2110SOL    HW217790   2.893   2.320   0.056 -0.1296 -0.1070  1.0824
 2111SOL     OW17791   0.668   2.991   8.347 -0.2423  0.7056 -0.3291
 2111SOL    HW117792   0.616   2.914   8.370 -2.0751  1.5883 -1.4357
 2111SOL    HW217793   0.736   2.951   8.294  0.3414  0.2195  0.7971
 2112SOL     OW17794   4.510   3.068   6.374 -0.0682  0.1854 -0.2047
 2112SOL    HW117795   4.428   3.020   6.383  1.6864 -2.4660  1.7605
 2112SOL    HW217796   4.555   3.017   6.306 -0.2901 -1.0592  0.5800
 2113SOL     OW17797   3.884   1.181   8.306  0.4780  0.2283 -0.2029
 2113SOL    HW117798   3.791   1.202   8.313 -0.3308 -4.0360  1.7680
 2113SOL    HW217799   3.889   1.132   8.225  0.4721 -2.1572  1.2398
 2114SOL     OW17800   2.749   4.629   5.865  0.1014 -0.4231 -0.4647
 2114SOL    HW117801   2.823   4.640   5.806 -1.4754  0.0551 -2.3376
 2114SOL    HW217802   2.781   4.549   5.908  2.0555  0.3359 -0.5181
 2115SOL     OW17803   0.086   2.558   5.581 -0.7821  0.4868 -0.0887
 2115SOL    HW117804   0.176   2.575   5.609 -1.2946 -2.1871  3.1211
 2115SOL    HW217805   0.090   2.526   5.491  2.5584  0.6124  0.0347
 2116SOL     OW17806   2.456   3.001   4.041 -0.4969  0.2246  0.1773
 2116SOL    HW117807   2.423   2.917   4.073  0.2336  0.6164  1.9661
 2116SOL    HW217808   2.407   3.066   4.090 -0.7618  0.3046 -0.1979
 2117SOL     OW17809   3.362   0.561   2.157  0.1360  0.5501 -0.2976
 2117SOL    HW117810   3.436   0.500   2.149  1.1353  1.7097  0.1810
 2117SOL    HW217811   3.364   0.609   2.074 -1.1495  1.1988  0.0424
 2118SOL     OW17812   3.578   3.859   3.785  0.0998 -0.1463 -0.1260
 2118SOL    HW117813   3.488   3.826   3.793  0.7582 -2.0348 -0.3622
 2118SOL    HW217814   3.622   3.776   3.803 -1.6633 -1.0313  0.1720
 2119SOL     OW17815   1.067   3.937   1.058  0.5152 -0.7710 -0.4379
 2119SOL    HW117816   1.143   3.966   1.007 -1.9630  1.4864 -2.9165
 2119SOL    HW217817   1.050   4.017   1.109  0.6261 -1.7955  1.1859
 2120SOL     OW17818   2.874   3.048   6.052  0.4831  0.4428 -0.4013
 2120SOL    HW117819   2.898   3.117   6.114  1.8200  1.4212 -2.0324
 2120SOL    HW217820   2.862   3.097   5.971 -0.0349 -0.9969 -1.2034
 2121SOL     OW17821   2.753   0.683   6.129  0.1828 -0.7031  0.2452
 2121SOL    HW117822   2.734   0.715   6.217  1.7130  0.2978  0.2053
 2121SOL    HW217823   2.832   0.632   6.144  1.3096  1.0853  0.3517
 2122SOL     OW17824   1.878   1.722   2.040  0.1847 -0.1568  0.6197
 2122SOL    HW117825   1.937   1.798   2.042 -0.1182  0.1285 -0.9253
 2122SOL    HW217826   1.894   1.691   1.951  0.3518  1.3030  0.1444
 2123SOL     OW17827   3.700   2.413   2.529 -0.3153 -0.1296 -0.1103
 2123SOL    HW117828   3.642   2.483   2.558 -1.7601 -1.3469 -0.0021
 2123SOL    HW217829   3.723   2.446   2.442 -1.3578  1.5589  0.2483
 2124SOL     OW17830   3.957   4.459   5.010  0.1415  0.1738 -0.4920
 2124SOL    HW117831   3.881   4.425   4.962 -1.2586  1.6983  0.6619
 2124SOL    HW217832   3.910   4.485   5.089  0.3243  1.5043 -0.8324
 2125SOL     OW17833   1.308   1.248   1.839 -0.6946  0.2704 -0.4774
 2125SOL    HW117834   1.390   1.258   1.791  0.3521  0.2607  1.3168
 2125SOL    HW217835   1.304   1.153   1.854 -2.8485  0.4417  0.0950
 2126SOL     OW17836   3.945   2.314  15.439  1.1303 -0.7603  0.4602
 2126SOL    HW117837   4.021   2.284  15.388  1.2613 -0.0106  0.2245
 2126SOL    HW217838   3.991   2.354  15.513  0.3498  1.3235 -0.1956
 2127SOL     OW17839   4.453   4.095   5.521  0.5124 -0.1289  0.3965
 2127SOL    HW117840   4.392   4.068   5.453  0.0819 -0.0055  0.7319
 2127SOL    HW217841   4.404   4.165   5.564  2.9126  2.6331 -1.3514
 2128SOL     OW17842   3.987   0.104  12.433  0.0588  0.2810 -0.4361
 2128SOL    HW117843   4.074   0.137  12.410 -0.4935  1.8136 -0.2989
 2128SOL    HW217844   3.976   0.048  12.356  1.9250 -0.6706 -0.0197
 2129SOL     OW17845   4.187   0.468  14.316  0.1849 -0.6564  0.1429
 2129SOL    HW117846   4.222   0.379  14.312  1.0871 -0.3859  2.2876
 2129SOL    HW217847   4.269   0.514  14.338 -2.0231  2.4997  1.8034
 2130SOL     OW17848   4.674   0.600  16.748  0.0819  0.0392 -0.3309
 2130SOL    HW117849   0.033   0.604  16.699  0.0199 -0.6272 -0.4890
 2130SOL    HW217850   4.649   0.509  16.731  1.8388 -0.7793  1.4580
 2131SOL     OW17851   4.704   4.607   0.870 -0.0968  0.3589  0.4180
 2131SOL    HW117852   0.043   4.661   0.822 -0.6927 -0.7157 -1.6108
 2131SOL    HW217853   4.670   4.673   0.929  1.5607  0.2639  1.4737
 2132SOL     OW17854   1.834   3.771   3.054 -0.2168 -0.2484  0.1775
 2132SOL    HW117855   1.819   3.862   3.079  0.0881  0.5340 -2.5380
 2132SOL    HW217856   1.752   3.766   3.005 -1.1634  0.0705  1.7282
 2133SOL     OW17857   2.850   3.406   3.878  0.0945 -0.8535  0.1576
 2133SOL    HW117858   2.776   3.387   3.820  0.1980  0.1418 -0.2953
 2133SOL    HW217859   2.873   3.314   3.896 -0.2332 -1.0582 -0.4604
 2134SOL     OW17860   0.550   1.752   5.271  0.2188  0.4757  0.2385
 2134SOL    HW117861   0.630   1.776   5.318  1.6065 -0.8283 -1.4396
 2134SOL    HW217862   0.484   1.748   5.340 -0.6350  1.9306 -0.5056
 2135SOL     OW17863   0.871   2.219   3.608  0.3605  0.1833  0.2194
 2135SOL    HW117864   0.906   2.171   3.683 -1.8956 -0.1319  1.0532
 2135SOL    HW217865   0.821   2.162   3.550  2.1225 -0.5711 -0.5663
 2136SOL     OW17866   0.748   3.394   5.546  0.0278 -0.1257  0.5344
 2136SOL    HW117867   0.820   3.348   5.502 -0.8073  0.0944 -1.0399
 2136SOL    HW217868   0.774   3.394   5.638 -0.6931  1.1319  0.7346
 2137SOL     OW17869   0.845   0.185   5.517 -0.6975 -0.2230 -0.0957
 2137SOL    HW117870   0.858   0.244   5.443  2.3718  1.2378  1.6264
 2137SOL    HW217871   0.795   0.116   5.472 -1.2465  0.9473 -1.2682
 2138SOL     OW17872   4.130   1.339  11.936  0.3352 -0.3977 -0.0013
 2138SOL    HW117873   4.037   1.320  11.923  0.0864  0.6725  0.1717
 2138SOL    HW217874   4.133   1.435  11.929 -0.4298 -0.4215 -0.7163
 2139SOL     OW17875   1.681   4.132  10.627  0.5395 -0.0705 -0.6096
 2139SOL    HW117876   1.760   4.186  10.618 -0.5525  2.0527  2.2719
 2139SOL    HW217877   1.724   4.051  10.602  2.2896  0.5831  0.2116
 2140SOL     OW17878   4.557   2.226   7.228  0.1683  0.7949 -0.2650
 2140SOL    HW117879   4.560   2.274   7.145 -1.9054  1.0024 -0.2211
 2140SOL    HW217880   4.645   2.193   7.242 -0.3447  0.1044  1.2918
 2141SOL     OW17881   3.479   0.001   5.751 -0.5160  0.0653 -0.6455
 2141SOL    HW117882   3.482   0.062   5.677 -0.5313 -1.5472 -1.9747
 2141SOL    HW217883   3.494   0.055   5.829 -1.1690  1.0304 -1.1941
 2142SOL     OW17884   3.045   0.114  10.805 -0.6284 -0.0382  0.3297
 2142SOL    HW117885   3.056   0.020  10.813 -0.5589  0.0029  0.7488
 2142SOL    HW217886   2.999   0.135  10.886  1.4414  2.3318  0.8952
 2143SOL     OW17887   2.464   0.639   4.661  0.0448  0.1089 -0.6022
 2143SOL    HW117888   2.449   0.732   4.648  1.8200  0.3850 -0.6906
 2143SOL    HW217889   2.551   0.647   4.622  0.1650  0.9706 -0.1552
 2144SOL     OW17890   3.569   2.557  15.809  0.2223  0.0279 -0.0808
 2144SOL    HW117891   3.488   2.524  15.848 -0.4071 -0.2425 -1.5928
 2144SOL    HW217892   3.530   2.637  15.774  0.2295  0.4791  0.9472
 2145SOL     OW17893   1.378   2.059   7.514  0.5460  0.2593 -0.1261
 2145SOL    HW117894   1.447   2.111   7.473  0.6025  0.3313  0.0614
 2145SOL    HW217895   1.423   2.058   7.598 -2.0251  1.8380  1.2870
 2146SOL     OW17896   3.681   2.877   9.673 -0.8182  0.1769 -0.0775
 2146SOL    HW117897   3.664   2.908   9.584 -1.5216  3.2588  1.1181
 2146SOL    HW217898   3.668   2.958   9.723 -2.0046 -1.6714  2.6420
 2147SOL     OW17899   1.981   0.546  13.775 -0.1384  0.2496 -0.3303
 2147SOL    HW117900   2.002   0.500  13.693 -1.9288  0.8443 -1.0995
 2147SOL    HW217901   2.051   0.501  13.823 -0.4669 -0.6959 -0.7437
 2148SOL     OW17902   0.286   3.706   0.176  0.5292  0.3481  0.1487
 2148SOL    HW117903   0.203   3.722   0.220  0.4826 -4.0812  1.6479
 2148SOL    HW217904   0.260   3.631   0.123  0.7644  0.1886  0.2593
 2149SOL     OW17905   1.493   3.867  15.654  0.1058  0.2479  0.1297
 2149SOL    HW117906   1.580   3.851  15.691  1.1609  0.6909 -2.1945
 2149SOL    HW217907   1.440   3.817  15.717  0.8211 -0.8316 -0.1187
 2150SOL     OW17908   2.100   3.798  17.667  0.4632 -0.5808 -0.1366
 2150SOL    HW117909   2.131   3.799  17.577 -0.6257  1.7305 -0.4665
 2150SOL    HW217910   2.011   3.762  17.660 -0.4995  1.8871 -0.3612
 2151SOL     OW17911   4.069   1.918   9.149 -0.0315  0.0580 -0.6171
 2151SOL    HW117912   4.056   1.826   9.172  1.4145  0.2956  1.1522
 2151SOL    HW217913   4.087   1.907   9.056 -0.8142  1.5433 -0.9475
 2152SOL     OW17914   1.978   4.204  14.374 -0.2112  0.2993  0.0115
 2152SOL    HW117915   1.925   4.255  14.313  1.1623  0.5772 -0.9716
 2152SOL    HW217916   1.995   4.121  14.328 -1.4450  0.2114 -0.2864
 2153SOL     OW17917   3.735   0.259   1.562 -0.4580  0.5428 -0.0908
 2153SOL    HW117918   3.682   0.202   1.506 -0.5264  0.7286 -0.2148
 2153SOL    HW217919   3.796   0.279   1.491  0.3846  0.4504  0.6095
 2154SOL     OW17920   2.284   2.581   0.603 -0.2382 -0.1458 -0.2043
 2154SOL    HW117921   2.310   2.539   0.685  0.8977 -0.8440 -0.9082
 2154SOL    HW217922   2.338   2.528   0.544  1.0515  1.0092 -0.0398
 2155SOL     OW17923   4.452   3.665   6.303 -0.2647 -0.0143  0.4031
 2155SOL    HW117924   4.377   3.682   6.246 -1.3402  0.0657  1.8336
 2155SOL    HW217925   4.402   3.674   6.385  1.4849 -0.1702  1.4929
 2156SOL     OW17926   3.562   3.409  17.449 -0.1985 -0.7318 -0.1041
 2156SOL    HW117927   3.580   3.409  17.543  2.4435  1.5762 -0.6037
 2156SOL    HW217928   3.624   3.470  17.408 -0.6852  0.0076  0.2677
 2157SOL     OW17929   2.775   3.944   5.574  0.0052  0.0250 -0.5032
 2157SOL    HW117930   2.842   3.881   5.548 -0.0658  0.0481 -0.7447
 2157SOL    HW217931   2.790   3.951   5.668  1.4459  3.1910 -0.9305
 2158SOL     OW17932   1.581   1.693   2.079  0.4860 -0.1490 -0.3197
 2158SOL    HW117933   1.665   1.738   2.086 -0.6968  1.9194  0.4332
 2158SOL    HW217934   1.544   1.739   2.004 -3.5523 -3.0514 -0.0909
 2159SOL     OW17935   1.676   4.401   0.862  0.8783  0.1623  0.2681
 2159SOL    HW117936   1.759   4.402   0.909  1.1758  0.2242 -0.2642
 2159SOL    HW217937   1.699   4.383   0.771 -0.4211 -0.4336  0.0607
 2160SOL     OW17938   1.095   1.317  10.467 -0.5046  0.6552 -0.3717
 2160SOL    HW117939   1.102   1.347  10.377 -0.8628  1.2242 -0.2095
 2160SOL    HW217940   1.115   1.224  10.457 -0.2991  0.5574  0.9355
 2161SOL     OW17941   1.389   2.603   5.932  0.1928  0.1303 -0.5263
 2161SOL    HW117942   1.331   2.626   5.860 -1.0187 -0.3458  0.3050
 2161SOL    HW217943   1.377   2.678   5.991  0.5826 -0.1896 -0.0355
 2162SOL     OW17944   4.299   3.824   3.815 -0.1229 -0.5351  0.4317
 2162SOL    HW117945   4.296   3.742   3.765  0.8820  0.3278 -1.0251
 2162SOL    HW217946   4.232   3.876   3.771  3.0441  3.0853 -0.0787
 2163SOL     OW17947   4.541   3.856   8.412  0.0501  0.4612 -0.2126
 2163SOL    HW117948   4.637   3.851   8.413  0.1443  2.4908  0.0574
 2163SOL    HW217949   4.521   3.911   8.488 -1.2811 -0.5331  0.1481
 2164SOL     OW17950   2.389   3.263   5.479 -0.1560  0.4060 -0.3155
 2164SOL    HW117951   2.347   3.235   5.398  0.5212 -3.7503  0.7865
 2164SOL    HW217952   2.315   3.310   5.517  0.7959  1.1890  0.5942
 2165SOL     OW17953   0.098   4.679  17.402  0.4688  0.3389  0.6614
 2165SOL    HW117954   0.134   0.039  17.435  0.6685 -0.2674  1.9829
 2165SOL    HW217955   0.060   4.621  17.468  1.1540 -0.5931  0.2267
 2166SOL     OW17956   1.100   4.439   4.647  1.1860 -0.0142  0.5491
 2166SOL    HW117957   1.103   4.434   4.742  3.0701  1.4867  0.5524
 2166SOL    HW217958   1.012   4.472   4.626  0.2092 -1.9923  1.5093
 2167SOL     OW17959   4.462   0.913  17.110  0.0323 -0.3041  0.2145
 2167SOL    HW117960   4.513   0.840  17.075 -1.1085 -0.7451 -0.5275
 2167SOL    HW217961   4.482   0.986  17.051  0.1446 -1.3252 -1.0191
 2168SOL     OW17962   2.675   1.224   0.323 -0.3207  0.4714 -0.2251
 2168SOL    HW117963   2.710   1.286   0.259  1.8390 -0.5274 -0.0083
 2168SOL    HW217964   2.581   1.228   0.305  0.1417  0.7323 -2.5834
 2169SOL     OW17965   3.474   1.699   5.418  0.2048 -0.0727 -0.3164
 2169SOL    HW117966   3.489   1.617   5.372  0.5479 -0.9863  1.4289
 2169SOL    HW217967   3.549   1.697   5.478 -1.7756  1.3776  2.2081
 2170SOL     OW17968   3.475   1.022   9.609  0.0365  0.3841  0.0544
 2170SOL    HW117969   3.384   1.036   9.635 -0.4209  0.5731 -1.6788
 2170SOL    HW217970   3.490   1.098   9.553 -1.2539  0.6074  0.0140
 2171SOL     OW17971   0.816   4.242   2.334 -0.1342 -0.1556  0.6042
 2171SOL    HW117972   0.746   4.219   2.272  0.0331  0.8288  0.0409
 2171SOL    HW217973   0.810   4.172   2.399  1.9549  0.6043  1.6054
 2172SOL     OW17974   0.037   0.978   3.042  0.3529  0.3424  0.0031
 2172SOL    HW117975   0.039   0.887   3.012 -1.1760 -0.1857  1.5399
 2172SOL    HW217976   0.000   1.029   2.970 -1.5310  0.6827  1.2055
 2173SOL     OW17977   0.645   1.542  17.165  0.1016  0.7357  0.8118
 2173SOL    HW117978   0.593   1.622  17.170 -2.0787 -0.7162  1.6423
 2173SOL    HW217979   0.736   1.559  17.188  0.2917 -0.6037  1.0468
 2174SOL     OW17980   0.601   1.079   6.764  0.2930  0.1706 -0.2611
 2174SOL    HW117981   0.572   1.023   6.836 -0.3040 -0.1336 -0.7443
 2174SOL    HW217982   0.519   1.124   6.745  1.4303  1.6605 -1.6533
 2175SOL     OW17983   2.126   0.906   0.705 -0.1170 -0.4866 -0.2064
 2175SOL    HW117984   2.096   0.815   0.703  2.8033 -1.4725  0.1205
 2175SOL    HW217985   2.133   0.918   0.611  0.9764  3.5654  0.4057
 2176SOL     OW17986   1.885   0.931   5.319 -0.3881  0.0415  0.7770
 2176SOL    HW117987   1.896   1.006   5.378 -2.0264  0.3884  0.6465
 2176SOL    HW217988   1.857   0.864   5.380 -2.7313 -1.2316 -1.7276
 2177SOL     OW17989   3.744   4.398  13.191 -0.3512  0.3219  0.7081
 2177SOL    HW117990   3.754   4.491  13.172 -1.6677  0.2824 -0.1314
 2177SOL    HW217991   3.660   4.386  13.148 -0.0439  1.9495 -0.2969
 2178SOL     OW17992   3.059   3.592   6.236  0.6734  0.3189  0.0294
 2178SOL    HW117993   2.975   3.574   6.277  1.7957 -0.5861  1.9485
 2178SOL    HW217994   3.075   3.520   6.176  0.3039  0.1727  0.1083
 2179SOL     OW17995   1.699   2.842   9.179 -1.1026  0.7317 -0.4693
 2179SOL    HW117996   1.653   2.770   9.223 -1.7943  2.0489  0.9558
 2179SOL    HW217997   1.624   2.901   9.175 -1.7637 -0.0225  0.7858
 2180SOL     OW17998   0.347   3.635   0.652  0.4460  0.3936  0.7830
 2180SOL    HW117999   0.273   3.575   0.648  0.6114  0.1612  1.1902
 2180SOL    HW218000   0.348   3.673   0.564  1.3902 -1.1097  0.1431
 2181SOL     OW18001   0.484   0.159  15.693 -0.6963  0.1816  0.6004
 2181SOL    HW118002   0.488   0.244  15.735  0.1582  0.2417  0.3990
 2181SOL    HW218003   0.478   0.110  15.774  0.3437 -2.5354 -0.9424
 2182SOL     OW18004   1.603   2.000  10.722  0.2297  0.0253 -0.3172
 2182SOL    HW118005   1.601   2.017  10.816  2.6816 -1.5109  0.0306
 2182SOL    HW218006   1.633   2.086  10.692  0.9858 -0.7677 -1.8424
 2183SOL     OW18007   3.212   0.898  15.490  0.1083  0.4003 -0.6266
 2183SOL    HW118008   3.151   0.936  15.554  1.4429  0.6576  0.4822
 2183SOL    HW218009   3.173   0.812  15.476 -1.9092  0.8950  1.9773
 2184SOL     OW18010   4.240   2.092   6.266 -0.2951  0.3475  0.7074
 2184SOL    HW118011   4.148   2.101   6.241 -0.3260  1.4177  1.2011
 2184SOL    HW218012   4.234   2.032   6.340 -0.0219 -0.7912 -0.1860
 2185SOL     OW18013   3.976   3.602   1.528  0.1404  0.4359 -0.8256
 2185SOL    HW118014   4.060   3.558   1.545 -0.7641 -0.5323  1.1328
 2185SOL    HW218015   3.967   3.639   1.616 -1.6085 -2.6769  0.3080
 2186SOL     OW18016   1.734   3.613   6.708 -0.2548  0.3539 -0.1016
 2186SOL    HW118017   1.751   3.596   6.615 -2.6648  0.1916 -0.5359
 2186SOL    HW218018   1.640   3.592   6.705 -0.4609  1.4079 -1.0997
 2187SOL     OW18019   2.109   3.004   8.734 -0.5542  0.8103 -0.0515
 2187SOL    HW118020   2.180   2.952   8.771 -0.8330  1.2331  1.0907
 2187SOL    HW218021   2.045   2.999   8.806 -0.1906  0.1970  0.2263
 2188SOL     OW18022   4.549   2.581  12.591  0.1133  0.3978  0.0069
 2188SOL    HW118023   4.474   2.634  12.616  1.0410  0.6906  2.1651
 2188SOL    HW218024   4.538   2.571  12.497 -2.8060  3.7124  0.0174
 2189SOL     OW18025   4.514   4.718   5.212  0.5563 -0.7299 -0.3558
 2189SOL    HW118026   4.493   4.677   5.295  1.4353 -0.4105  0.0226
 2189SOL    HW218027   4.451   4.671   5.159 -2.7603  1.4801  1.6188
 2190SOL     OW18028   2.510   1.292   1.969 -0.1937 -0.2138 -0.1888
 2190SOL    HW118029   2.468   1.229   1.912 -0.8256  0.6612 -0.6949
 2190SOL    HW218030   2.499   1.247   2.053  2.0407 -1.1873 -0.4360
 2191SOL     OW18031   1.266   2.276  13.554 -0.2352  0.6394  0.0518
 2191SOL    HW118032   1.241   2.311  13.468  0.6921 -0.3347 -0.6230
 2191SOL    HW218033   1.183   2.255  13.596 -0.0872 -0.0913 -0.0230
 2192SOL     OW18034   0.903   0.796   4.820 -0.0514 -0.2350  0.3845
 2192SOL    HW118035   0.883   0.875   4.769 -1.5338 -0.5128  0.5542
 2192SOL    HW218036   0.909   0.726   4.755 -0.4356  1.4757 -1.4910
 2193SOL     OW18037   2.943   1.806   4.253  0.1185  0.3028 -0.2070
 2193SOL    HW118038   2.864   1.766   4.289 -0.3879  0.8456 -0.7299
 2193SOL    HW218039   2.912   1.837   4.168 -0.8127  1.4648  0.5574
 2194SOL     OW18040   1.088   4.413   5.693 -0.4286 -0.4602 -1.0319
 2194SOL    HW118041   1.180   4.438   5.694 -0.7475  0.6603 -0.2226
 2194SOL    HW218042   1.064   4.449   5.607  0.0691  0.2072 -0.8814
 2195SOL     OW18043   3.551   0.175   5.949 -0.5908 -0.0002 -0.4536
 2195SOL    HW118044   3.580   0.230   5.877 -1.0308  0.6077 -0.1688
 2195SOL    HW218045   3.635   0.158   5.992 -1.0585  0.1919  0.5346
 2196SOL     OW18046   2.191   4.719   4.373 -0.1472 -0.2362  1.0990
 2196SOL    HW118047   2.174   4.719   4.467 -1.8638  2.9878  0.7724
 2196SOL    HW218048   2.273   0.044   4.370  0.7311 -1.6712  1.6712
 2197SOL     OW18049   1.254   3.460  14.046  0.1491 -0.3112  0.0723
 2197SOL    HW118050   1.178   3.403  14.033  0.6521 -0.8308 -0.6037
 2197SOL    HW218051   1.314   3.396  14.084 -2.4603 -1.2669  2.5597
 2198SOL     OW18052   1.890   0.168   5.388 -0.1897  0.2007 -0.6431
 2198SOL    HW118053   1.967   0.224   5.392 -0.0265 -0.0453 -0.3121
 2198SOL    HW218054   1.866   0.188   5.297  0.8683  0.0463 -0.9569
 2199SOL     OW18055   2.477   4.170   5.723  0.2582 -0.1205  0.1388
 2199SOL    HW118056   2.386   4.172   5.695 -0.1051  4.4568  1.6863
 2199SOL    HW218057   2.486   4.080   5.755 -2.7525 -1.3722 -2.5465
 2200SOL     OW18058   1.457   2.675  13.188 -0.0926 -0.1583 -0.4639
 2200SOL    HW118059   1.542   2.688  13.230 -0.1607 -1.3600  0.0458
 2200SOL    HW218060   1.483   2.620  13.114 -1.5026 -1.1551 -0.2360
 2201SOL     OW18061   0.336   1.662   7.047 -0.1151  0.0641  0.2420
 2201SOL    HW118062   0.305   1.676   6.957  0.0959 -0.5880  0.0698
 2201SOL    HW218063   0.288   1.734   7.088 -1.2407 -0.8984  0.5863
 2202SOL     OW18064   0.558   3.135   1.642  0.2863 -0.0481 -0.2334
 2202SOL    HW118065   0.483   3.121   1.583 -0.1244 -0.2409  0.3401
 2202SOL    HW218066   0.513   3.147   1.726 -1.1392 -0.1255 -0.9770
 2203SOL     OW18067   1.999   4.360   0.801  0.4056  0.0908 -0.1915
 2203SOL    HW118068   2.083   4.318   0.779 -0.6800 -1.2757 -1.7794
 2203SOL    HW218069   1.975   4.330   0.889  3.5134  0.4669  0.7944
 2204SOL     OW18070   1.299   4.394   7.411 -0.7050  0.1381  0.3636
 2204SOL    HW118071   1.240   4.334   7.367 -0.4305  0.1895 -0.0833
 2204SOL    HW218072   1.269   4.477   7.374  3.8500  1.0431 -1.3238
 2205SOL     OW18073   3.239   2.299   9.050  0.9900 -0.0830 -0.2035
 2205SOL    HW118074   3.328   2.319   9.081  0.6580  1.7393 -0.4128
 2205SOL    HW218075   3.192   2.378   9.077  0.7104  0.5405 -2.5107
 2206SOL     OW18076   3.429   2.830   3.089 -0.4963 -0.4257  0.0508
 2206SOL    HW118077   3.494   2.762   3.069  2.9632  3.2791 -1.1730
 2206SOL    HW218078   3.478   2.887   3.148  1.9674 -1.9132 -0.5215
 2207SOL     OW18079   2.360   1.622  13.246  0.1458  0.5553  0.2339
 2207SOL    HW118080   2.443   1.593  13.284 -0.2512 -0.7457  0.1068
 2207SOL    HW218081   2.397   1.688  13.188  0.2696  0.1330 -0.1769
 2208SOL     OW18082   0.980   2.999   6.614  0.0637 -0.0203 -0.3851
 2208SOL    HW118083   0.952   2.947   6.690  0.3934 -1.0021 -0.9406
 2208SOL    HW218084   1.061   2.957   6.587  1.2965  0.9806  1.7423
 2209SOL     OW18085   1.545   3.368   5.387  0.3763  0.4608  0.2219
 2209SOL    HW118086   1.561   3.462   5.399 -1.0830  0.6321  0.8788
 2209SOL    HW218087   1.495   3.353   5.467  0.2955 -0.9664 -0.1035
 2210SOL     OW18088   3.493   3.519   7.666 -0.4640  0.2982 -0.2841
 2210SOL    HW118089   3.536   3.477   7.591  3.1048  0.7495  1.5498
 2210SOL    HW218090   3.500   3.450   7.732 -0.7858 -1.1788 -1.7878
 2211SOL     OW18091   3.965   3.701  10.329 -0.3489  0.1456 -0.1146
 2211SOL    HW118092   4.001   3.708  10.240  1.1260  1.7729  0.6158
 2211SOL    HW218093   4.036   3.732  10.385 -0.6349  0.6484 -0.0227
 2212SOL     OW18094   1.445   3.421  10.186 -0.0056  0.2886  0.0872
 2212SOL    HW118095   1.376   3.448  10.247  1.1073  0.2526  1.3750
 2212SOL    HW218096   1.430   3.486  10.117 -2.1575  2.1932  2.3411
 2213SOL     OW18097   0.430   4.473   3.849  0.0105  0.1921 -0.3851
 2213SOL    HW118098   0.339   4.498   3.864  0.6141  2.5119 -0.7022
 2213SOL    HW218099   0.469   4.550   3.809 -1.3330  0.6151 -0.8741
 2214SOL     OW18100   1.168   2.078   4.003  0.0924  0.1826 -0.1024
 2214SOL    HW118101   1.096   2.041   3.951  0.1558  0.8383 -0.6533
 2214SOL    HW218102   1.238   2.023   3.967  0.6647 -0.0822  1.4352
 2215SOL     OW18103   0.296   1.006   4.550  0.0062 -0.3778  0.0705
 2215SOL    HW118104   0.281   0.930   4.495  2.6430 -2.6738  2.5054
 2215SOL    HW218105   0.247   0.982   4.629 -0.0100 -1.1281 -0.1726
 2216SOL     OW18106   3.542   2.029   4.893 -0.3334 -1.1405  0.1092
 2216SOL    HW118107   3.585   2.070   4.818  1.2990  0.1269  1.7381
 2216SOL    HW218108   3.618   1.998   4.943  0.2011 -1.1738 -0.7287
 2217SOL     OW18109   0.714   0.421   7.467  0.0534  0.2710  0.1339
 2217SOL    HW118110   0.660   0.440   7.543 -0.5770  1.8316 -0.6894
 2217SOL    HW218111   0.664   0.347   7.434  0.9463  1.5582 -4.1566
 2218SOL     OW18112   4.369   3.917   7.486 -0.6335  0.7686  0.3786
 2218SOL    HW118113   4.396   3.924   7.578  3.1213 -1.2308 -0.6047
 2218SOL    HW218114   4.395   4.003   7.450  0.9208  0.2687  0.3017
 2219SOL     OW18115   3.494   2.686   1.779  0.6962  0.0065  0.2513
 2219SOL    HW118116   3.418   2.637   1.750  0.6491  0.1437  0.1439
 2219SOL    HW218117   3.473   2.770   1.739 -0.5123 -0.9623 -1.1405
 2220SOL     OW18118   1.411   0.422   3.152 -0.7221 -0.1079  0.0644
 2220SOL    HW118119   1.478   0.464   3.207 -2.3807 -0.6360  2.5127
 2220SOL    HW218120   1.463   0.365   3.096  1.0850  2.2381 -0.6775
 2221SOL     OW18121   0.036   4.256   4.311  0.3129  0.3595  0.5517
 2221SOL    HW118122   0.071   4.327   4.257  0.9822  0.3323  0.9473
 2221SOL    HW218123   4.723   4.317   4.376 -0.6790  3.3542 -2.8438
 2222SOL     OW18124   1.154   0.538   2.539 -0.2195  0.1418 -0.7190
 2222SOL    HW118125   1.120   0.536   2.628 -0.4715 -0.5201 -0.8254
 2222SOL    HW218126   1.109   0.463   2.500 -1.4404 -0.1872  1.3757
 2223SOL     OW18127   3.371   1.604   3.981  0.1981  0.0553  0.6372
 2223SOL    HW118128   3.295   1.593   4.037 -0.4216  0.6787 -0.0768
 2223SOL    HW218129   3.383   1.698   3.992  0.2751  0.3662 -1.9451
 2224SOL     OW18130   2.592   3.464   2.637  0.1796 -0.0914  0.7074
 2224SOL    HW118131   2.630   3.408   2.570  0.4752  0.5592  0.3349
 2224SOL    HW218132   2.499   3.468   2.614  0.5109 -1.5257 -0.8197
 2225SOL     OW18133   2.341   3.837   3.996  0.0449 -0.5822  0.8240
 2225SOL    HW118134   2.392   3.783   4.055  1.7082 -2.3060 -2.1912
 2225SOL    HW218135   2.381   3.805   3.916  0.8286 -1.1703  1.4600
 2226SOL     OW18136   0.935   3.214   9.059  0.0910 -0.2863 -0.1396
 2226SOL    HW118137   0.906   3.123   9.050  0.3513 -0.2252 -1.6799
 2226SOL    HW218138   0.902   3.247   8.975 -0.8137  0.4720  0.5123
 2227SOL     OW18139   3.960   3.946   5.459  0.0075  0.5736 -0.0973
 2227SOL    HW118140   3.930   4.036   5.471 -1.8332 -0.1229  0.5148
 2227SOL    HW218141   3.889   3.890   5.491  2.1475 -1.7577  0.5610
 2228SOL     OW18142   0.159   4.699   2.276  0.0944  0.2810  0.2578
 2228SOL    HW118143   0.157   0.070   2.290 -0.2309  0.5303 -1.4026
 2228SOL    HW218144   0.145   4.666   2.365 -1.7783  0.1288 -0.1028
 2229SOL     OW18145   4.575   3.343   7.210  0.3521  0.4046 -0.4675
 2229SOL    HW118146   4.639   3.343   7.138 -1.2496  0.9161 -1.9069
 2229SOL    HW218147   4.583   3.250   7.231 -0.2471  0.2527 -0.8960
 2230SOL     OW18148   2.532   0.987   7.510  0.3271 -0.0147  0.1661
 2230SOL    HW118149   2.508   0.977   7.602 -1.0870 -2.9641 -0.5009
 2230SOL    HW218150   2.627   0.986   7.520  0.2361 -1.5154  0.8155
 2231SOL     OW18151   1.712   4.018   7.627 -0.5002  0.3303  0.6189
 2231SOL    HW118152   1.792   3.992   7.582 -0.9104 -0.0065  0.0844
 2231SOL    HW218153   1.742   4.026   7.718 -1.1090  2.6580  0.5980
 2232SOL     OW18154   4.454   0.454  14.424  0.0807  0.0856 -0.2932
 2232SOL    HW118155   4.534   0.413  14.391  1.6500  2.2932  0.7406
 2232SOL    HW218156   4.484   0.495  14.506  0.0711 -3.4177  1.4765
 2233SOL     OW18157   4.338   3.171   0.118  0.0321  0.7494  0.5077
 2233SOL    HW118158   4.382   3.179   0.033 -0.8179 -2.1243 -0.1797
 2233SOL    HW218159   4.279   3.246   0.117  0.1258  0.8177  0.1447
 2234SOL     OW18160   0.050   0.109   9.876 -0.0567 -0.2939 -0.2305
 2234SOL    HW118161   0.035   0.202   9.893  1.6714 -0.4353  2.1450
 2234SOL    HW218162   4.716   0.092   9.801 -1.3192 -0.2526  0.7269
 2235SOL     OW18163   1.174   0.195   7.748 -0.1509 -0.1568  0.2191
 2235SOL    HW118164   1.215   0.150   7.674 -0.8997 -2.0936  0.9901
 2235SOL    HW218165   1.119   0.124   7.782 -1.1781  0.3661 -0.3472
 2236SOL     OW18166   1.168   1.454  13.859 -0.4953  0.2390 -0.2379
 2236SOL    HW118167   1.113   1.379  13.837 -1.4745  0.6365  0.8647
 2236SOL    HW218168   1.232   1.409  13.914 -0.7764 -2.5840 -2.2605
 2237SOL     OW18169   2.930   0.738   4.864  0.7938  0.0688 -0.1827
 2237SOL    HW118170   2.970   0.727   4.951 -1.8119 -1.7158  0.7971
 2237SOL    HW218171   2.966   0.822   4.838  1.8076 -1.1587 -2.7361
 2238SOL     OW18172   3.473   4.501   4.024  0.1067  0.0677  0.2788
 2238SOL    HW118173   3.569   4.508   4.030 -0.0665  2.7687 -0.0518
 2238SOL    HW218174   3.441   4.497   4.114 -0.4892 -0.8222  0.0170
 2239SOL     OW18175   3.541   1.341  14.961  0.1151 -0.7816 -0.6101
 2239SOL    HW118176   3.596   1.283  14.908  0.1584 -0.9488 -0.3833
 2239SOL    HW218177   3.511   1.402  14.895 -0.8501  1.4288  1.8784
 2240SOL     OW18178   2.529   2.070   3.392  0.2909  0.2709 -0.0192
 2240SOL    HW118179   2.573   2.040   3.471 -0.0363 -1.6739 -0.5581
 2240SOL    HW218180   2.548   2.164   3.391 -0.8940  0.5178  1.4103
 2241SOL     OW18181   2.803   4.091   4.480 -0.4704 -0.1115 -0.4269
 2241SOL    HW118182   2.713   4.059   4.474 -0.8808  1.1044 -0.7298
 2241SOL    HW218183   2.824   4.064   4.569  1.0970 -1.3300 -1.1654
 2242SOL     OW18184   3.261   0.032   6.583  0.1202 -0.3080 -0.2848
 2242SOL    HW118185   3.339   4.704   6.603 -0.0629 -1.0205 -1.4164
 2242SOL    HW218186   3.195   4.698   6.622 -0.0140 -0.3975 -0.6408
 2243SOL     OW18187   1.475   0.167  12.284 -0.0302  0.0755  0.3428
 2243SOL    HW118188   1.496   0.074  12.288 -1.0888 -0.1194  1.4930
 2243SOL    HW218189   1.382   0.163  12.263  0.1472  0.3744 -0.5012
 2244SOL     OW18190   3.854   3.602   7.262  0.3981  0.2826 -0.1569
 2244SOL    HW118191   3.813   3.539   7.203 -2.2161  1.0098  0.8630
 2244SOL    HW218192   3.945   3.599   7.232  0.2010 -0.5309 -0.6656
 2245SOL     OW18193   1.274   2.265   4.346 -0.3223 -0.6795 -0.2948
 2245SOL    HW118194   1.326   2.338   4.378 -0.8131  0.1617 -1.4352
 2245SOL    HW218195   1.342   2.233   4.288 -0.5590 -0.4438 -0.6986
 2246SOL     OW18196   4.689   0.594   7.830 -0.0820  0.0650 -0.2430
 2246SOL    HW118197   0.027   0.602   7.758 -0.9742 -1.2519 -1.1352
 2246SOL    HW218198   0.024   0.617   7.902 -0.5385  0.7911 -0.1092
 2247SOL     OW18199   4.432   0.504   1.742  0.0047 -0.3932  0.1411
 2247SOL    HW118200   4.354   0.452   1.757  0.9507 -2.0290 -0.5277
 2247SOL    HW218201   4.496   0.434   1.731  1.0704  0.3150  1.8245
 2248SOL     OW18202   3.788   3.867  15.128 -0.4806 -0.3566 -0.7403
 2248SOL    HW118203   3.823   3.778  15.118 -1.1860 -0.8762  1.3543
 2248SOL    HW218204   3.736   3.869  15.208  0.4672  3.2605 -0.1938
 2249SOL     OW18205   3.955   1.298  10.237  0.4885  0.1581 -0.3067
 2249SOL    HW118206   3.982   1.253  10.157 -0.4572  0.8556 -1.0139
 2249SOL    HW218207   3.915   1.371  10.190 -1.1126  0.0073  0.8085
 2250SOL     OW18208   2.632   1.843  13.425 -0.2806 -0.3134  0.1604
 2250SOL    HW118209   2.678   1.807  13.500  1.1841 -0.5041 -0.8198
 2250SOL    HW218210   2.573   1.909  13.462 -2.5570 -1.9291 -0.5465
 2251SOL     OW18211   1.263   0.412   8.378 -0.2731 -0.0850 -0.2824
 2251SOL    HW118212   1.199   0.342   8.390  1.8560 -2.2920 -1.7241
 2251SOL    HW218213   1.239   0.474   8.447  0.2849 -0.3783  0.1687
 2252SOL     OW18214   0.145   3.310   4.647  0.3331 -0.2824  0.0414
 2252SOL    HW118215   0.077   3.245   4.628 -1.0729  1.7484 -1.8756
 2252SOL    HW218216   0.098   3.392   4.640 -0.3900 -0.6848  0.1642
 2253SOL     OW18217   3.750   2.969  14.174  0.4814 -0.3444  0.0279
 2253SOL    HW118218   3.702   2.901  14.127  0.7846  0.2126 -1.1073
 2253SOL    HW218219   3.803   2.913  14.231 -1.6183  0.5734  2.8479
 2254SOL     OW18220   0.939   1.916   6.311 -0.0207 -0.5316 -0.5040
 2254SOL    HW118221   1.024   1.872   6.314 -0.1776 -0.8687 -1.0290
 2254SOL    HW218222   0.894   1.857   6.250 -1.9393  1.3024 -0.8646
 2255SOL     OW18223   3.633   1.416   0.708 -0.4768  1.0675  0.2530
 2255SOL    HW118224   3.672   1.461   0.634 -2.7753  3.3596  0.4196
 2255SOL    HW218225   3.575   1.354   0.665 -0.0279  2.0450 -1.7381
 2256SOL     OW18226   2.914   1.810  12.825  0.4617  0.4463 -0.4300
 2256SOL    HW118227   2.873   1.845  12.746  0.7519  1.4382 -0.1376
 2256SOL    HW218228   2.970   1.886  12.840  2.1734 -1.1068  1.0954
 2257SOL     OW18229   3.583   2.202   6.953  0.1348 -0.4137  0.0282
 2257SOL    HW118230   3.510   2.256   6.924  1.2127  0.8830 -0.2708
 2257SOL    HW218231   3.556   2.112   6.935  0.0153 -0.4430  0.3652
 2258SOL     OW18232   3.308   0.941   2.301 -0.5729  0.2005 -0.0270
 2258SOL    HW118233   3.320   0.911   2.391 -1.3885 -0.1035 -0.0201
 2258SOL    HW218234   3.225   0.897   2.281  0.4855 -1.7854 -0.0619
 2259SOL     OW18235   1.153   1.222   1.494 -0.1176 -0.1483  0.5111
 2259SOL    HW118236   1.235   1.176   1.510  1.6805  2.1951 -1.9979
 2259SOL    HW218237   1.166   1.299   1.548  0.8289 -2.4462  3.5608
 2260SOL     OW18238   3.393   1.299   4.932  0.4616 -0.2655  0.4559
 2260SOL    HW118239   3.385   1.238   5.005 -0.4873  1.3581  1.7069
 2260SOL    HW218240   3.410   1.388   4.963  1.3971 -0.1147 -0.4917
 2261SOL     OW18241   1.651   4.238   8.490 -0.3243  0.3569  0.1897
 2261SOL    HW118242   1.603   4.321   8.488  1.0146  1.1139 -0.8162
 2261SOL    HW218243   1.713   4.269   8.557  0.3707 -1.0750  0.2076
 2262SOL     OW18244   2.647   4.107   8.070 -0.3793  0.2674  0.4543
 2262SOL    HW118245   2.709   4.107   7.997 -0.3118  1.1756  0.5133
 2262SOL    HW218246   2.570   4.084   8.019  0.3404 -1.4843  0.1733
 2263SOL     OW18247   2.438   1.930   4.846  0.0096  0.6027  0.9612
 2263SOL    HW118248   2.365   1.883   4.805 -0.3424  0.5408  1.6525
 2263SOL    HW218249   2.470   1.880   4.922 -0.2976  1.0232  1.3665
 2264SOL     OW18250   3.739   4.269  16.498  0.0975  0.1277  0.1327
 2264SOL    HW118251   3.786   4.246  16.418  1.0482 -1.8400  1.2559
 2264SOL    HW218252   3.700   4.185  16.521 -0.6129  0.0612 -1.3299
 2265SOL     OW18253   3.831   3.709  11.693  0.0034  0.0229  0.3634
 2265SOL    HW118254   3.872   3.627  11.721  1.1528  0.0992 -1.1291
 2265SOL    HW218255   3.906   3.767  11.705  0.1641 -0.2834  0.8605
 2266SOL     OW18256   3.415   0.042  10.786  0.0697 -0.6229 -0.7543
 2266SOL    HW118257   3.422   4.671  10.803  0.6236  0.0305  2.4512
 2266SOL    HW218258   3.509   0.060  10.785 -0.1724  0.6381 -0.2314
 2267SOL     OW18259   3.656   0.743   4.317  0.4370 -0.0551  0.0329
 2267SOL    HW118260   3.608   0.819   4.284  0.3422 -1.7734 -3.7181
 2267SOL    HW218261   3.690   0.783   4.398  0.1842  1.4006 -0.5775
 2268SOL     OW18262   1.392   3.078   8.239  0.0732 -0.3079 -0.0271
 2268SOL    HW118263   1.370   3.019   8.167  0.1196  0.5632 -0.7555
 2268SOL    HW218264   1.454   3.136   8.195  1.2402 -0.3388  1.5641
 2269SOL     OW18265   0.735   4.054   6.744  0.5286 -0.0282  0.2581
 2269SOL    HW118266   0.827   4.027   6.737  0.3063 -0.7296  0.0985
 2269SOL    HW218267   0.690   3.970   6.737  2.2197 -0.8398 -0.8454
 2270SOL     OW18268   2.178   0.405   6.447 -0.0632 -0.3925 -0.3812
 2270SOL    HW118269   2.093   0.390   6.488  0.5055 -1.3555  0.4319
 2270SOL    HW218270   2.160   0.394   6.354  0.3648 -0.9467 -0.3996
 2271SOL     OW18271   2.665   2.967   4.866  0.1572 -0.2364 -0.0261
 2271SOL    HW118272   2.681   2.875   4.846 -0.1332 -0.5026  1.0012
 2271SOL    HW218273   2.576   2.970   4.902 -0.4212 -0.5734 -1.4169
 2272SOL     OW18274   0.029   3.187   3.550  0.3021  0.2306 -0.0886
 2272SOL    HW118275   0.055   3.166   3.460  3.0825  0.2357  0.7233
 2272SOL    HW218276   0.091   3.256   3.574  0.6058 -0.4739  1.1616
 2273SOL     OW18277   0.350   0.088   2.643  0.1560  0.3658 -0.0992
 2273SOL    HW118278   0.346   0.021   2.712  1.1850  1.2316  0.8046
 2273SOL    HW218279   0.324   0.036   2.567 -1.4785  0.2479  0.5464
 2274SOL     OW18280   4.670   2.572   1.114  0.5310  0.1070 -0.0670
 2274SOL    HW118281   0.003   2.502   1.148  2.2780  0.9077 -1.3078
 2274SOL    HW218282   4.667   2.634   1.187 -3.4069  0.7217 -0.7353
 2275SOL     OW18283   0.398   1.697   4.614 -0.2909 -0.0789  0.0510
 2275SOL    HW118284   0.428   1.736   4.532  1.4495  1.3314  1.3490
 2275SOL    HW218285   0.433   1.761   4.676 -0.9026  0.4084 -0.1113
 2276SOL     OW18286   3.983   1.970   2.778 -0.2898 -0.1432  0.2017
 2276SOL    HW118287   4.059   1.912   2.770  0.1712  0.7996 -2.3496
 2276SOL    HW218288   3.997   2.026   2.702  1.0193  0.9413  1.2425
 2277SOL     OW18289   1.848   0.247   1.745 -0.2157  0.4147  0.3219
 2277SOL    HW118290   1.766   0.295   1.738  0.6850  2.2371  2.4049
 2277SOL    HW218291   1.910   0.319   1.755 -1.0766  0.9890  1.5308
 2278SOL     OW18292   2.764   4.537   9.215 -0.1036 -0.1715  0.0706
 2278SOL    HW118293   2.752   4.620   9.169  1.6009  0.5776  0.9890
 2278SOL    HW218294   2.737   4.484   9.140  1.4453  1.0815 -1.3717
 2279SOL     OW18295   3.439   0.450   0.263  0.2644 -0.3686  0.1118
 2279SOL    HW118296   3.416   0.484   0.176  3.1701  0.1510 -0.4658
 2279SOL    HW218297   3.390   0.509   0.320 -0.1623  0.1464 -0.7900
 2280SOL     OW18298   1.953   0.360   7.266  0.3398 -0.5203  0.6941
 2280SOL    HW118299   1.955   0.433   7.204  3.2800 -0.3702  0.9516
 2280SOL    HW218300   2.032   0.382   7.316 -0.7435  1.5838  1.4434
 2281SOL     OW18301   2.614   2.523   8.791  0.7227  0.4297 -0.1668
 2281SOL    HW118302   2.702   2.558   8.804  0.9742 -0.2407 -0.0547
 2281SOL    HW218303   2.616   2.435   8.828  1.2227  0.0489 -1.0961
 2282SOL     OW18304   2.120   0.712   6.340  0.3441  0.2558  0.0971
 2282SOL    HW118305   2.175   0.764   6.283  0.5090 -0.8721 -0.7704
 2282SOL    HW218306   2.165   0.729   6.423  0.0407 -1.6025  0.6577
 2283SOL     OW18307   4.675   2.922  12.888  0.0746  0.2095  0.1341
 2283SOL    HW118308   0.043   2.934  12.911 -0.1571 -2.4346  2.4403
 2283SOL    HW218309   4.671   2.858  12.816  0.9998  0.6182 -0.2769
 2284SOL     OW18310   3.480   2.226   9.911  0.3051 -0.0349 -0.3056
 2284SOL    HW118311   3.457   2.316   9.888  0.7575 -0.5686 -2.8172
 2284SOL    HW218312   3.418   2.216   9.983  0.0809  0.7467 -0.3839
 2285SOL     OW18313   0.434   1.677   8.913  0.3040 -0.2853 -0.6789
 2285SOL    HW118314   0.404   1.672   9.004  2.3230 -0.5200 -0.0290
 2285SOL    HW218315   0.465   1.767   8.902 -0.0730 -0.0965 -0.1942
 2286SOL     OW18316   1.761   0.590   3.857  0.5616 -0.3079  0.5385
 2286SOL    HW118317   1.757   0.528   3.783  1.3607  0.3805 -0.0775
 2286SOL    HW218318   1.688   0.554   3.907  0.8147 -1.6413 -0.0520
 2287SOL     OW18319   0.095   0.964  12.453  0.1760 -0.0469  0.4167
 2287SOL    HW118320   0.186   0.969  12.423 -0.3313  1.2983 -0.9187
 2287SOL    HW218321   0.104   1.022  12.528  1.4793  1.3411 -0.8329
 2288SOL     OW18322   4.285   0.949   3.619  0.5260 -0.0856 -0.1293
 2288SOL    HW118323   4.341   0.966   3.543 -1.6729  2.3587 -1.1911
 2288SOL    HW218324   4.213   1.011   3.603  0.2422 -0.3789  0.0259
 2289SOL     OW18325   3.937   0.977   4.239 -0.0905 -0.4188 -0.3595
 2289SOL    HW118326   3.882   0.907   4.277  0.6253  0.0455  1.5395
 2289SOL    HW218327   4.017   0.929   4.218 -0.9548 -1.7799 -0.5440
 2290SOL     OW18328   2.744   3.679   1.990 -0.3381  0.0951 -0.8362
 2290SOL    HW118329   2.800   3.687   2.067  0.6502  2.7306 -1.8032
 2290SOL    HW218330   2.689   3.607   2.018 -1.1719  0.9354 -0.3152
 2291SOL     OW18331   3.621   4.714   7.814 -0.4299 -0.7676  0.6565
 2291SOL    HW118332   3.542   4.672   7.849 -1.5474  3.1074  2.7243
 2291SOL    HW218333   3.683   4.642   7.803  0.4157 -0.1126  1.1502
 2292SOL     OW18334   1.905   4.667   1.408  0.1626 -0.4778 -0.4158
 2292SOL    HW118335   1.942   4.609   1.342 -0.7603 -0.1866 -1.1860
 2292SOL    HW218336   1.975   4.679   1.472 -0.6743  0.3869  0.3380
 2293SOL     OW18337   1.018   3.724   4.756  0.2038  0.4863 -0.1357
 2293SOL    HW118338   0.957   3.697   4.688  0.6565  0.6804 -0.6152
 2293SOL    HW218339   1.048   3.808   4.720  0.8154  0.6292  0.6905
 2294SOL     OW18340   3.293   0.659   6.890  0.0103 -0.0182 -0.4952
 2294SOL    HW118341   3.350   0.717   6.940 -1.6780  1.0158  0.2284
 2294SOL    HW218342   3.326   0.653   6.800 -0.6135  0.7775 -0.7855
 2295SOL     OW18343   3.312   1.873   4.892  0.1949 -0.5729  0.0056
 2295SOL    HW118344   3.319   1.813   4.818 -1.2147  0.3751 -0.8723
 2295SOL    HW218345   3.401   1.905   4.906 -0.3779  0.6206  0.9952
 2296SOL     OW18346   1.398   0.338  11.960  0.2792  0.4107 -0.5485
 2296SOL    HW118347   1.460   0.288  11.907 -0.9165  0.9876 -2.5260
 2296SOL    HW218348   1.452   0.366  12.034 -0.3398  1.6573 -0.5616
 2297SOL     OW18349   3.393   4.613   0.578  0.0741  0.5641  0.1921
 2297SOL    HW118350   3.348   4.549   0.523 -0.6709  0.7954  0.5260
 2297SOL    HW218351   3.340   4.688   0.550 -0.7508 -0.0945  0.0158
 2298SOL     OW18352   3.576   4.159   5.028 -0.1818 -0.2919  0.7673
 2298SOL    HW118353   3.616   4.126   4.948 -1.1958  3.2948 -1.2360
 2298SOL    HW218354   3.484   4.132   5.029 -0.0874 -0.6410 -1.0747
 2299SOL     OW18355   4.540   0.671  10.067 -0.1472 -0.3937 -0.4579
 2299SOL    HW118356   4.562   0.631  10.151 -1.3608 -0.6830 -0.2739
 2299SOL    HW218357   4.620   0.718  10.047 -1.6192  1.0477 -2.9127
 2300SOL     OW18358   3.632   3.310  11.349  0.1168  0.7018 -0.7527
 2300SOL    HW118359   3.691   3.374  11.309 -0.3337  1.1116 -0.7635
 2300SOL    HW218360   3.570   3.295  11.277 -2.8945 -0.5153  2.0612
 2301SOL     OW18361   3.484   0.465   5.160  0.2731 -0.2180 -0.0018
 2301SOL    HW118362   3.406   0.434   5.114  0.9644 -0.5833 -0.9178
 2301SOL    HW218363   3.439   0.473   5.244 -0.6547  0.1139 -0.5265
 2302SOL     OW18364   3.674   0.940   6.216 -0.1584  0.1324 -0.8360
 2302SOL    HW118365   3.641   0.981   6.297 -1.9307 -1.1025 -0.9145
 2302SOL    HW218366   3.628   0.997   6.154 -3.7136 -0.1631  1.5051
 2303SOL     OW18367   2.454   1.911   7.764  0.1530 -0.3245 -0.3068
 2303SOL    HW118368   2.461   1.990   7.818  1.4540 -1.2368  0.8722
 2303SOL    HW218369   2.457   1.962   7.684  1.4790 -1.3479 -0.9038
 2304SOL     OW18370   1.323   3.003  10.278 -0.0265 -0.3184  0.0689
 2304SOL    HW118371   1.337   2.976  10.187 -0.4087  2.4902 -0.8356
 2304SOL    HW218372   1.414   3.001  10.305  0.5621  1.0159 -1.7993
 2305SOL     OW18373   1.749   1.515   7.508  0.1618 -0.6577 -0.2337
 2305SOL    HW118374   1.817   1.542   7.570 -0.4745  2.6861 -0.9935
 2305SOL    HW218375   1.809   1.509   7.434 -0.4690  1.4337 -0.8915
 2306SOL     OW18376   3.280   0.131   4.892 -0.2032 -0.0968  0.2838
 2306SOL    HW118377   3.323   0.113   4.808 -1.0836 -0.5806 -0.0605
 2306SOL    HW218378   3.198   0.087   4.870  0.4140 -1.4536  0.7397
 2307SOL     OW18379   4.162   0.252   4.383  0.7331 -0.4889  0.4574
 2307SOL    HW118380   4.125   0.164   4.387  0.9721 -0.5271  1.9202
 2307SOL    HW218381   4.126   0.293   4.462  0.3538  1.3178 -0.6536
 2308SOL     OW18382   0.909   4.142  15.410 -0.1420  0.2341 -0.9113
 2308SOL    HW118383   0.955   4.058  15.410  0.0617  0.3372 -2.4381
 2308SOL    HW218384   0.844   4.137  15.480  0.1431  1.4824 -0.5566
 2309SOL     OW18385   0.331   0.463   2.102 -0.1550 -0.2338 -0.2780
 2309SOL    HW118386   0.346   0.396   2.035 -1.8455 -0.4969 -0.3793
 2309SOL    HW218387   0.363   0.544   2.061 -0.2485  0.3490  0.7989
 2310SOL     OW18388   3.120   2.564   2.733 -0.1601 -0.7276  0.1734
 2310SOL    HW118389   3.028   2.588   2.747 -0.2510 -0.4408 -0.9557
 2310SOL    HW218390   3.153   2.653   2.721 -0.1747 -0.5653  1.3341
 2311SOL     OW18391   3.626   0.561  14.642 -0.4088 -0.3561 -0.1443
 2311SOL    HW118392   3.681   0.483  14.649  0.0066  0.1077  1.7979
 2311SOL    HW218393   3.564   0.527  14.578  0.2643 -0.0765 -0.9505
 2312SOL     OW18394   2.945   4.196  16.107 -0.4074  0.0417  0.8089
 2312SOL    HW118395   2.986   4.282  16.100 -1.8628  0.5136 -2.3799
 2312SOL    HW218396   2.978   4.138  16.038 -3.6499  0.9868 -1.5585
 2313SOL     OW18397   3.552   4.714   8.498  0.7888  0.0816  0.1880
 2313SOL    HW118398   3.477   0.041   8.530  1.2125 -0.3045  1.8299
 2313SOL    HW218399   3.626   0.051   8.493 -0.7382  1.7744 -1.5794
 2314SOL     OW18400   0.678   0.211   3.096 -0.1499 -0.0046  0.3886
 2314SOL    HW118401   0.594   0.253   3.073  0.1346  0.8728  0.9297
 2314SOL    HW218402   0.744   0.255   3.042 -0.2471 -0.8606 -0.4252
 2315SOL     OW18403   4.109   2.323   7.478  0.0031  0.4179  0.0854
 2315SOL    HW118404   4.203   2.335   7.468  0.2334 -2.3723 -1.0972
 2315SOL    HW218405   4.097   2.238   7.436 -3.8782  0.3837  1.2944
 2316SOL     OW18406   0.886   2.065   4.883  0.3587  0.2882  0.3332
 2316SOL    HW118407   0.935   2.077   4.802  0.8302 -1.3951  0.3652
 2316SOL    HW218408   0.817   2.004   4.856 -0.3244  1.3243 -0.2369
 2317SOL     OW18409   0.699   4.046  11.594  1.0763  0.5109 -0.5754
 2317SOL    HW118410   0.719   4.137  11.571 -1.1395  0.1992 -3.6717
 2317SOL    HW218411   0.645   4.068  11.670 -0.6735  0.2978 -1.7634
 2318SOL     OW18412   1.447   4.247   0.654 -0.2114  0.1532  0.0136
 2318SOL    HW118413   1.529   4.199   0.661 -0.3771 -0.2554 -0.9009
 2318SOL    HW218414   1.437   4.254   0.559 -1.2336 -1.3759  0.0254
 2319SOL     OW18415   1.800   0.115   4.635  0.2706 -0.5100  0.1922
 2319SOL    HW118416   1.782   0.202   4.670  1.2583  0.3628 -1.4615
 2319SOL    HW218417   1.847   0.137   4.554 -0.4982  0.4416  0.0107
 2320SOL     OW18418   3.191   2.172   4.458 -0.3665  0.1169 -0.7459
 2320SOL    HW118419   3.226   2.175   4.547  0.1760 -0.7764 -0.9293
 2320SOL    HW218420   3.151   2.258   4.457 -0.0988  0.2633  0.6703
 2321SOL     OW18421   4.040   2.906   7.593  0.4349 -0.0461 -0.1226
 2321SOL    HW118422   4.069   2.858   7.670  0.8780 -0.3075 -0.4473
 2321SOL    HW218423   4.080   2.847   7.529 -1.7666 -1.5162 -0.1143
 2322SOL     OW18424   4.591   2.431   3.325  0.1193  0.2993 -0.3651
 2322SOL    HW118425   4.577   2.501   3.262 -0.1787  0.0432 -0.5817
 2322SOL    HW218426   4.678   2.402   3.297  0.2736 -0.2468  0.6655
 2323SOL     OW18427   1.577   1.723  11.021  0.4483 -0.3059 -0.2278
 2323SOL    HW118428   1.553   1.774  11.098  0.9559 -1.3214  0.6161
 2323SOL    HW218429   1.559   1.634  11.053  0.4741 -0.8305 -1.6361
 2324SOL     OW18430   0.807   1.473  10.425 -0.2391 -0.2024 -0.1202
 2324SOL    HW118431   0.741   1.525  10.471 -0.0037  1.5147 -1.7334
 2324SOL    HW218432   0.748   1.424  10.367 -2.9268  0.6838  1.8747
 2325SOL     OW18433   4.094   1.975  12.577 -0.4314 -0.9824  0.0371
 2325SOL    HW118434   4.178   1.930  12.585 -0.3420 -1.4219 -3.2025
 2325SOL    HW218435   4.047   1.944  12.654 -0.8974 -0.4414 -0.0316
 2326SOL     OW18436   3.261   1.013   6.546  0.1914 -0.1310 -0.4703
 2326SOL    HW118437   3.271   1.052   6.633 -0.9072  0.3195 -0.5505
 2326SOL    HW218438   3.348   1.033   6.511 -0.1220  0.2938 -1.0128
 2327SOL     OW18439   2.980   2.917   4.808 -0.1908  0.4670  0.6927
 2327SOL    HW118440   2.916   2.847   4.821 -1.7828  2.2781  2.5362
 2327SOL    HW218441   3.024   2.902   4.725 -0.1528 -2.3413  1.2187
 2328SOL     OW18442   2.699   0.364   7.837 -0.2189 -0.2598 -0.4528
 2328SOL    HW118443   2.655   0.365   7.923  0.1111  0.2126 -0.2906
 2328SOL    HW218444   2.789   0.342   7.859 -0.9815  0.0388  3.1164
 2329SOL     OW18445   4.149   3.854  13.666 -0.0950 -0.5114  0.1199
 2329SOL    HW118446   4.170   3.947  13.660 -0.3686 -0.4215  0.5327
 2329SOL    HW218447   4.240   3.828  13.680  0.5583  1.3505 -0.6017
 2330SOL     OW18448   3.141   0.174   3.020  0.2144  0.2909  0.0361
 2330SOL    HW118449   3.122   0.177   3.113 -0.0080  1.4279 -0.0387
 2330SOL    HW218450   3.150   0.079   3.011  0.6817  0.1997  1.5057
 2331SOL     OW18451   0.671   0.655   6.927  0.4188 -0.2111 -0.1592
 2331SOL    HW118452   0.741   0.721   6.924  1.2550 -1.2122 -2.3290
 2331SOL    HW218453   0.721   0.575   6.946  0.5816  0.0730  0.6165
 2332SOL     OW18454   4.340   4.379   8.033 -0.6631 -0.4345 -0.1586
 2332SOL    HW118455   4.335   4.473   8.019  0.1228 -0.3963 -0.1530
 2332SOL    HW218456   4.282   4.386   8.109 -1.2011  0.0163 -0.6077
 2333SOL     OW18457   3.198   3.453   7.984  0.0660 -0.1872  0.0847
 2333SOL    HW118458   3.154   3.383   8.032 -2.0211  1.0426 -0.0300
 2333SOL    HW218459   3.287   3.446   8.020  1.0161  1.0271 -2.0772
 2334SOL     OW18460   0.839   3.346  12.063  0.3225  0.2199 -0.3651
 2334SOL    HW118461   0.811   3.435  12.043  0.1079  0.1244 -0.4852
 2334SOL    HW218462   0.757   3.313  12.100  0.6763  0.6280  0.7992
 2335SOL     OW18463   1.719   3.826  16.628 -0.0253  0.0375 -0.1737
 2335SOL    HW118464   1.758   3.913  16.633  1.0093 -0.5027  1.0188
 2335SOL    HW218465   1.755   3.808  16.541  3.3176  1.0381  0.9981
 2336SOL     OW18466   4.037   2.939   9.699 -0.1507 -0.2671  0.1107
 2336SOL    HW118467   4.129   2.919   9.717  0.6989  2.0349 -1.6552
 2336SOL    HW218468   4.001   2.940   9.787 -0.2802 -0.3038  0.0575
 2337SOL     OW18469   4.353   1.077   6.969 -0.1450 -0.1771 -0.4477
 2337SOL    HW118470   4.350   1.077   6.874 -2.8928 -1.1006 -0.3418
 2337SOL    HW218471   4.395   0.991   6.971 -0.6786 -0.4429 -0.8112
 2338SOL     OW18472   1.677   2.023   3.495 -0.4333  0.3035 -0.4577
 2338SOL    HW118473   1.591   2.045   3.532 -0.2020 -0.0238  0.2615
 2338SOL    HW218474   1.699   2.116   3.486 -0.1608  0.4409  1.7146
 2339SOL     OW18475   3.452   1.420   7.845  0.1405 -0.0731 -0.0789
 2339SOL    HW118476   3.405   1.370   7.778 -2.1327 -0.2403  1.6196
 2339SOL    HW218477   3.383   1.484   7.863 -0.1337 -1.3692  3.6050
 2340SOL     OW18478   1.429   0.244   3.455  0.9792 -0.5716 -0.0484
 2340SOL    HW118479   1.372   0.246   3.378  0.7977 -0.5810  0.0873
 2340SOL    HW218480   1.377   0.190   3.514 -3.1941 -0.3687 -3.5534
 2341SOL     OW18481   3.803   0.361   0.398  0.0372 -0.5427  0.1326
 2341SOL    HW118482   3.834   0.276   0.369  0.0449 -1.1642  1.9532
 2341SOL    HW218483   3.735   0.378   0.333 -0.2178  0.7825  0.7439
 2342SOL     OW18484   3.520   2.593  13.531  0.2730  0.2794 -0.4485
 2342SOL    HW118485   3.533   2.498  13.534 -2.4312 -0.1158 -1.4870
 2342SOL    HW218486   3.425   2.597  13.523  0.4237 -0.9933 -2.7726
 2343SOL     OW18487   4.228   0.794   7.551  0.5508 -0.1717 -0.0827
 2343SOL    HW118488   4.202   0.708   7.519  0.3508  0.1723 -0.8589
 2343SOL    HW218489   4.163   0.840   7.498  0.4572  0.8236  0.8957
 2344SOL     OW18490   2.691   1.626   1.832  0.5304 -0.6301 -0.1850
 2344SOL    HW118491   2.666   1.704   1.783  0.0377  0.2524  1.4532
 2344SOL    HW218492   2.787   1.623   1.831  0.4971 -1.5908 -0.8098
 2345SOL     OW18493   2.548   4.586   1.139 -0.1241 -0.0474 -0.4299
 2345SOL    HW118494   2.640   4.607   1.118  0.8200 -0.6191  3.0882
 2345SOL    HW218495   2.499   4.668   1.130  0.6292  0.1682 -2.5284
 2346SOL     OW18496   4.402   1.069  10.232 -0.5527 -0.2073 -0.5349
 2346SOL    HW118497   4.372   1.090  10.144 -1.6931  1.0858  0.1597
 2346SOL    HW218498   4.493   1.098  10.228 -0.7347  0.2386 -1.4592
 2347SOL     OW18499   0.871   4.100  14.783 -0.4414  0.5687 -0.1974
 2347SOL    HW118500   0.946   4.159  14.787  1.2478 -1.5413 -0.6114
 2347SOL    HW218501   0.905   4.040  14.717 -0.2756  1.5528 -1.0086
 2348SOL     OW18502   0.235   3.095   5.141  0.0458 -0.4542  0.0440
 2348SOL    HW118503   0.225   3.073   5.234  0.6669  2.2079  0.7470
 2348SOL    HW218504   0.318   3.143   5.141 -0.6029  0.6691 -0.2159
 2349SOL     OW18505   3.769   4.492   7.865 -0.0538 -0.1857  0.4864
 2349SOL    HW118506   3.739   4.401   7.877  1.1265 -0.5085  1.0363
 2349SOL    HW218507   3.804   4.514   7.952 -0.0660  1.2567  0.1258
 2350SOL     OW18508   1.224   0.084   3.058  0.2793 -0.5192 -0.1471
 2350SOL    HW118509   1.165   0.009   3.048  1.4134 -1.4961  0.4850
 2350SOL    HW218510   1.306   0.039   3.038  0.2035  0.0919 -1.7524
 2351SOL     OW18511   1.393   3.742   9.573  0.1712 -0.0957 -0.3740
 2351SOL    HW118512   1.330   3.679   9.606 -1.4058  0.4566 -2.3586
 2351SOL    HW218513   1.430   3.689   9.503 -1.2782  0.4885 -1.5798
 2352SOL     OW18514   4.297   4.143   1.589 -0.0453  0.0170 -0.0670
 2352SOL    HW118515   4.334   4.076   1.647 -0.3407 -0.5922 -0.5842
 2352SOL    HW218516   4.203   4.125   1.583 -0.4475  2.1510 -0.1325
 2353SOL     OW18517   0.802   3.386   5.099 -0.5008  0.1502  0.8054
 2353SOL    HW118518   0.742   3.460   5.086 -1.2256 -0.4139  0.9415
 2353SOL    HW218519   0.738   3.317   5.081  1.2930 -1.2478 -0.1347
 2354SOL     OW18520   0.773   0.670   7.286 -0.5687  0.1909  0.1448
 2354SOL    HW118521   0.767   0.593   7.343 -1.2534 -1.3640 -2.0197
 2354SOL    HW218522   0.854   0.709   7.319 -0.7850 -0.6462  1.6610
 2355SOL     OW18523   4.256   3.206  17.070  0.0336  0.3973 -0.5697
 2355SOL    HW118524   4.281   3.146  17.000 -0.3429 -0.7459  0.2729
 2355SOL    HW218525   4.171   3.234  17.036 -0.4384 -2.0417 -1.3512
 2356SOL     OW18526   3.420   0.733   8.572  0.2437 -0.4871  0.3358
 2356SOL    HW118527   3.461   0.818   8.590 -1.3184 -0.1795  2.3615
 2356SOL    HW218528   3.443   0.680   8.648  0.3075 -0.9101  0.0240
 2357SOL     OW18529   2.743   1.381   4.015  0.0757 -0.0121 -0.0662
 2357SOL    HW118530   2.688   1.442   3.966 -0.4483 -1.5461 -1.3941
 2357SOL    HW218531   2.825   1.428   4.030 -1.2201  2.2540 -0.1326
 2358SOL     OW18532   0.020   4.034   6.896 -0.0724 -0.0575 -0.1173
 2358SOL    HW118533   4.655   4.002   6.879 -0.7030  1.8148 -0.3127
 2358SOL    HW218534   0.017   4.078   6.981 -1.4258  1.1000 -0.7754
 2359SOL     OW18535   0.953   1.526   4.731  0.1705 -0.1303  0.4190
 2359SOL    HW118536   0.993   1.447   4.694 -1.0762  0.3674 -2.0450
 2359SOL    HW218537   1.019   1.588   4.699  0.2462  1.1651  3.1234
 2360SOL     OW18538   0.737   2.031   3.438  0.3121  0.0550  0.2249
 2360SOL    HW118539   0.702   1.950   3.401  0.3557 -0.3412  1.0565
 2360SOL    HW218540   0.805   2.049   3.373 -0.2990 -1.1378 -0.7415
 2361SOL     OW18541   0.715   2.404  11.585  0.7111  0.2293 -0.2662
 2361SOL    HW118542   0.645   2.339  11.595 -0.6758  1.4223 -2.1716
 2361SOL    HW218543   0.683   2.450  11.507  1.2642 -0.9410 -1.1814
 2362SOL     OW18544   3.371   0.247  10.190  0.0733  0.4907 -0.6362
 2362SOL    HW118545   3.388   0.158  10.222 -3.3111  0.3057  0.5876
 2362SOL    HW218546   3.431   0.248  10.115 -1.5334  2.3323 -1.8885
 2363SOL     OW18547   1.196   1.090  15.856 -0.3871 -0.0193  0.0118
 2363SOL    HW118548   1.161   1.160  15.911  2.0623  0.3754  1.0910
 2363SOL    HW218549   1.235   1.043  15.929 -0.9779 -0.0788  0.2847
 2364SOL     OW18550   3.235   1.320   2.849 -0.3564  0.5023  0.2608
 2364SOL    HW118551   3.170   1.390   2.860  1.9580  2.6757  0.1206
 2364SOL    HW218552   3.311   1.358   2.893  0.2522 -1.2006  0.6927
 2365SOL     OW18553   3.265   2.909   3.369 -0.1641  0.5043 -0.2266
 2365SOL    HW118554   3.266   2.816   3.345  0.5844  0.4186  0.1412
 2365SOL    HW218555   3.312   2.945   3.294  0.1360 -1.0212 -0.7853
 2366SOL     OW18556   0.791   1.283   5.840 -0.1845 -0.5747 -0.0682
 2366SOL    HW118557   0.743   1.365   5.831 -1.6563 -1.4162 -0.0042
 2366SOL    HW218558   0.873   1.296   5.792  1.3060 -1.8944  2.1066
 2367SOL     OW18559   4.642   3.232  11.278 -0.0209 -0.1731  0.1874
 2367SOL    HW118560   4.719   3.288  11.281 -1.5170  1.7890  2.2235
 2367SOL    HW218561   4.580   3.295  11.242 -0.6315 -0.3127  0.9933
 2368SOL     OW18562   0.864   2.274  13.174 -0.0675 -0.5800  0.2795
 2368SOL    HW118563   0.951   2.242  13.149 -0.1056 -1.3771  1.1925
 2368SOL    HW218564   0.852   2.245  13.264 -1.1324 -1.9264 -0.2980
 2369SOL     OW18565   1.547   3.503  13.567 -0.0071  0.1571  0.3649
 2369SOL    HW118566   1.453   3.518  13.559 -0.1353 -0.8245  0.0337
 2369SOL    HW218567   1.558   3.516  13.661 -0.6867 -1.7844  0.6998
 2370SOL     OW18568   0.451   4.013  11.481  0.6236 -0.5947 -0.3313
 2370SOL    HW118569   0.464   3.942  11.418  0.1154  1.5233 -2.8035
 2370SOL    HW218570   0.542   4.032  11.504  0.7064  0.6884 -1.7149
 2371SOL     OW18571   2.036   1.298   2.414 -0.4616  0.7402  0.1148
 2371SOL    HW118572   2.126   1.306   2.384 -1.0255  0.0114 -1.7718
 2371SOL    HW218573   1.991   1.314   2.331 -1.2005  0.4122  0.4469
 2372SOL     OW18574   1.218   4.259   7.138  0.1713 -0.4819  0.3083
 2372SOL    HW118575   1.279   4.199   7.181  1.0360 -0.5198 -0.9837
 2372SOL    HW218576   1.280   4.327   7.111  0.2920 -0.6348  0.1989
 2373SOL     OW18577   4.622   1.821   3.976 -0.5882  0.6017 -0.0830
 2373SOL    HW118578   4.593   1.768   3.903 -1.2357 -0.0688  0.6672
 2373SOL    HW218579   4.541   1.835   4.025  0.0639  0.3938  1.0496
 2374SOL     OW18580   2.366   3.745   8.641 -0.6887  0.2903 -0.0100
 2374SOL    HW118581   2.297   3.756   8.706  0.9350  1.3358  1.5329
 2374SOL    HW218582   2.385   3.837   8.627 -0.5643  0.1290 -0.9470
 2375SOL     OW18583   2.241   3.562   7.661 -0.1604  0.4573 -0.5144
 2375SOL    HW118584   2.185   3.515   7.723  0.5273 -0.1948 -0.3764
 2375SOL    HW218585   2.302   3.582   7.733 -0.5212 -0.9879  0.2001
 2376SOL     OW18586   1.212   3.347   3.351 -0.0198  0.8524 -0.5612
 2376SOL    HW118587   1.134   3.302   3.385 -0.5794  0.6983 -2.0446
 2376SOL    HW218588   1.275   3.279   3.377 -0.1015  1.4455  1.2169
 2377SOL     OW18589   4.172   0.339   5.862 -0.1248  0.5605 -0.1106
 2377SOL    HW118590   4.133   0.414   5.817 -2.3101 -0.3668  0.2394
 2377SOL    HW218591   4.261   0.373   5.869 -0.6084  1.3046  2.2875
 2378SOL     OW18592   1.506   3.203   2.242 -0.2881  0.2249 -1.1641
 2378SOL    HW118593   1.543   3.118   2.265 -2.5976 -0.0778  1.4283
 2378SOL    HW218594   1.556   3.255   2.304 -0.9892 -0.8199  0.2837
 2379SOL     OW18595   2.570   4.075   7.755 -0.1188 -0.4897  0.6193
 2379SOL    HW118596   2.615   4.092   7.673 -0.5398  3.0164  1.1346
 2379SOL    HW218597   2.595   3.986   7.781  2.1176 -0.0024  0.1031
 2380SOL     OW18598   1.347   0.818   2.010  0.0351  0.0007  0.3613
 2380SOL    HW118599   1.432   0.863   2.017  0.6871 -1.4232  1.6858
 2380SOL    HW218600   1.345   0.797   2.104 -2.3913 -2.5753 -0.2567
 2381SOL     OW18601   4.509   3.044   0.428  0.1862  0.1922  0.2967
 2381SOL    HW118602   4.552   2.964   0.397  1.2163  0.5517  0.7854
 2381SOL    HW218603   4.576   3.071   0.491  0.7890  2.4567 -1.3119
 2382SOL     OW18604   0.836   0.944  16.011 -0.0066  0.7048 -0.1945
 2382SOL    HW118605   0.853   0.985  16.096  0.6532  0.9652 -0.4499
 2382SOL    HW218606   0.757   0.892  16.025 -1.2409  2.1661 -1.6595
 2383SOL     OW18607   1.741   2.183   8.819  0.2868 -0.3591 -0.1704
 2383SOL    HW118608   1.810   2.194   8.884  0.9954 -1.1195 -0.7935
 2383SOL    HW218609   1.779   2.119   8.759  0.3965  0.9403 -1.4832
 2384SOL     OW18610   1.788   4.316  15.062 -0.0782 -0.0896 -0.2835
 2384SOL    HW118611   1.880   4.293  15.048  0.1516 -0.5330  1.9327
 2384SOL    HW218612   1.753   4.284  14.979  1.1838 -1.4482 -0.3027
 2385SOL     OW18613   3.487   2.748   9.262 -0.5055 -0.2067  0.0248
 2385SOL    HW118614   3.545   2.704   9.200 -1.9873  1.3102 -2.4741
 2385SOL    HW218615   3.523   2.721   9.346 -0.2734 -0.9066 -0.2997
 2386SOL     OW18616   1.133   2.407   8.228  0.5846  0.0826 -0.2875
 2386SOL    HW118617   1.073   2.472   8.190 -0.6596 -0.1203  1.3219
 2386SOL    HW218618   1.151   2.451   8.311  0.3184  0.9167 -0.6630
 2387SOL     OW18619   3.566   4.662  14.027 -0.0959 -0.3954 -0.1273
 2387SOL    HW118620   3.639   4.658  13.965  0.3155 -1.3056  0.4127
 2387SOL    HW218621   3.516   4.584  14.004  1.3013 -1.5442  0.7150
 2388SOL     OW18622   0.537   2.212   1.998  0.1016  0.5882  0.4192
 2388SOL    HW118623   0.534   2.267   1.920  1.3564  1.7193  1.1725
 2388SOL    HW218624   0.443   2.203   2.010  0.1536 -2.6045 -1.4936
 2389SOL     OW18625   1.011   4.327   2.958 -0.0998 -0.2513 -0.3297
 2389SOL    HW118626   0.980   4.337   2.868  1.0818 -0.2779 -0.7404
 2389SOL    HW218627   1.107   4.330   2.956 -0.0268 -1.6358  1.0204
 2390SOL     OW18628   3.047   2.762   7.632  0.5565  0.2655 -0.0745
 2390SOL    HW118629   3.114   2.797   7.572  0.5356 -0.6957 -0.6687
 2390SOL    HW218630   2.997   2.837   7.663  0.6831  0.1238  0.4557
 2391SOL     OW18631   0.463   4.204   5.136  0.1538 -0.6045  0.5846
 2391SOL    HW118632   0.506   4.165   5.212 -2.1694 -0.0277  2.2082
 2391SOL    HW218633   0.534   4.226   5.076  1.4531 -2.0128  1.6117
 2392SOL     OW18634   0.950   1.447   2.331 -0.2980  0.3116 -0.2595
 2392SOL    HW118635   0.903   1.428   2.249 -1.4147  1.0371  0.2197
 2392SOL    HW218636   1.027   1.492   2.298 -1.1464  1.2018 -1.0353
 2393SOL     OW18637   1.327   3.615   6.062 -0.2486 -0.4379  0.2790
 2393SOL    HW118638   1.364   3.587   5.978  0.1218 -1.5849  0.8236
 2393SOL    HW218639   1.370   3.548   6.116 -0.3173 -0.3167  0.4790
 2394SOL     OW18640   3.104   0.403   7.655 -0.0292 -0.5145 -0.1493
 2394SOL    HW118641   3.064   0.476   7.607  2.5096  0.6961 -0.4360
 2394SOL    HW218642   3.023   0.361   7.684 -2.0000  2.7815 -0.9374
 2395SOL     OW18643   3.761   1.756  10.181  0.1230  0.2730 -1.0211
 2395SOL    HW118644   3.668   1.778  10.166  0.0127  0.0100 -0.7164
 2395SOL    HW218645   3.755   1.742  10.276  3.2449  2.4201 -0.5245
 2396SOL     OW18646   1.491   3.856  14.683 -0.2692 -0.3024  0.1585
 2396SOL    HW118647   1.402   3.871  14.717  0.0472  0.7983  0.5082
 2396SOL    HW218648   1.473   3.791  14.616  2.4251  1.3634 -2.1882
 2397SOL     OW18649   0.342   2.969   3.462 -0.0888 -0.1058 -0.4015
 2397SOL    HW118650   0.276   2.940   3.399  0.4160 -0.5902 -0.7050
 2397SOL    HW218651   0.312   3.058   3.479  1.6039  0.3080  0.4370
 2398SOL     OW18652   3.669   3.991   5.316  0.5468 -0.1205  1.1492
 2398SOL    HW118653   3.659   4.036   5.400 -2.4110 -0.7249  1.1301
 2398SOL    HW218654   3.592   4.024   5.269  2.3910 -0.2711 -1.9489
 2399SOL     OW18655   0.496   3.124  14.732 -0.3199  0.1008  0.1771
 2399SOL    HW118656   0.431   3.191  14.754 -0.3938 -0.8122  2.7830
 2399SOL    HW218657   0.553   3.175  14.674  1.2146  0.3434  1.9062
 2400SOL     OW18658   2.848   3.419   2.135 -0.1181  0.3038  0.2875
 2400SOL    HW118659   2.930   3.457   2.105  0.1187  0.7724  1.5187
 2400SOL    HW218660   2.863   3.334   2.093 -2.0847 -0.4451  1.1018
 2401SOL     OW18661   2.836   1.274   8.645 -0.2836 -0.4047 -0.0122
 2401SOL    HW118662   2.904   1.211   8.671 -1.9514 -2.1948  0.0426
 2401SOL    HW218663   2.787   1.279   8.727 -1.0267 -1.8152 -0.3684
 2402SOL     OW18664   0.595   3.245   8.263 -0.0620 -0.3611 -0.1573
 2402SOL    HW118665   0.502   3.227   8.251 -0.8240  1.8928  2.3549
 2402SOL    HW218666   0.628   3.156   8.256  1.8285  0.2115  1.5755
 2403SOL     OW18667   3.322   2.068  16.160 -0.0565 -0.5095 -0.9362
 2403SOL    HW118668   3.252   2.132  16.169 -0.7804 -1.5563  0.8482
 2403SOL    HW218669   3.284   1.992  16.116 -4.2154  1.3198 -0.5036
 2404SOL     OW18670   3.390   1.592   5.735  0.1001 -0.0459 -0.0477
 2404SOL    HW118671   3.453   1.526   5.703 -0.8379 -1.0643  0.2130
 2404SOL    HW218672   3.317   1.554   5.686  0.0286  1.9143 -1.4700
 2405SOL     OW18673   1.330   0.484   3.986  0.3833  0.7147  0.3744
 2405SOL    HW118674   1.272   0.552   3.951  0.8445  0.5358 -0.7508
 2405SOL    HW218675   1.260   0.426   4.014  0.3204  0.6014 -0.0223
 2406SOL     OW18676   2.005   3.273   5.512  0.4384  0.0984 -0.2541
 2406SOL    HW118677   2.057   3.347   5.541 -0.4188  0.2430  0.8910
 2406SOL    HW218678   1.929   3.286   5.568  1.0218 -0.5103  0.6873
 2407SOL     OW18679   3.894   0.963   5.460 -0.0342  0.7762  0.1006
 2407SOL    HW118680   3.826   0.904   5.493 -1.6037  1.1962 -2.3465
 2407SOL    HW218681   3.848   1.046   5.448 -0.3907  0.3294 -1.6298
 2408SOL     OW18682   0.177   4.554   4.510  0.1871  0.1908 -0.3914
 2408SOL    HW118683   0.139   4.639   4.486  0.2250 -0.6437 -3.3168
 2408SOL    HW218684   0.107   4.490   4.503  0.9168 -0.7179  0.5466
 2409SOL     OW18685   0.157   3.685  11.383 -0.2997 -0.4593 -0.2418
 2409SOL    HW118686   0.133   3.770  11.419  0.4747 -1.3368  2.3971
 2409SOL    HW218687   0.252   3.699  11.377 -0.5338  0.5633 -1.4746
 2410SOL     OW18688   4.224   2.611   9.996  0.3025  0.2495  0.1409
 2410SOL    HW118689   4.294   2.636  10.055  0.7212  2.9140 -1.4748
 2410SOL    HW218690   4.145   2.621  10.050 -0.3779 -1.3374 -0.5537
 2411SOL     OW18691   1.570   0.522   2.836 -0.2950  0.1778 -0.5029
 2411SOL    HW118692   1.660   0.521   2.869 -0.6443 -2.6175  0.3008
 2411SOL    HW218693   1.570   0.607   2.791 -2.0749 -0.8320 -2.3926
 2412SOL     OW18694   4.372   2.685   6.080 -0.0980 -0.3191 -0.7654
 2412SOL    HW118695   4.313   2.631   6.132  0.0733 -0.3312 -0.5859
 2412SOL    HW218696   4.332   2.772   6.080  1.3029  0.3137  3.7391
 2413SOL     OW18697   3.439   3.721  10.563 -0.2087  0.5462  0.0973
 2413SOL    HW118698   3.511   3.710  10.501 -0.7140  3.1027 -0.8954
 2413SOL    HW218699   3.482   3.717  10.649  0.3610 -0.2850 -0.2217
 2414SOL     OW18700   2.370   3.892   7.018 -0.2004 -0.0111  0.2033
 2414SOL    HW118701   2.363   3.881   7.113  0.8925  3.6582  0.7282
 2414SOL    HW218702   2.295   3.951   7.006  0.3294  0.5084 -0.5546
 2415SOL     OW18703   3.273   3.522   8.563  0.3593 -0.3865 -0.0846
 2415SOL    HW118704   3.346   3.461   8.565 -0.0546 -0.9458 -2.6987
 2415SOL    HW218705   3.278   3.552   8.654 -0.8430 -3.0511  0.8561
 2416SOL     OW18706   0.522   0.455  15.351  0.4434 -0.3266  0.1036
 2416SOL    HW118707   0.577   0.398  15.405 -0.5893 -1.2696  0.1513
 2416SOL    HW218708   0.542   0.418  15.265  1.0650  3.1055 -1.2222
 2417SOL     OW18709   2.386   0.427   6.628  0.5863 -0.4168 -0.7577
 2417SOL    HW118710   2.315   0.419   6.565 -1.6227  0.8585  1.5437
 2417SOL    HW218711   2.394   0.337   6.657  1.0215  0.2396  1.1801
 2418SOL     OW18712   3.391   3.695  11.825  0.0541 -0.2066  0.0133
 2418SOL    HW118713   3.482   3.711  11.850 -0.1349  0.8731  0.0412
 2418SOL    HW218714   3.394   3.662  11.735 -1.7190  1.0102 -0.5048
 2419SOL     OW18715   3.183   1.152   8.560  0.1658  0.0341  0.0047
 2419SOL    HW118716   3.172   1.247   8.558  0.0105  0.0206  0.1582
 2419SOL    HW218717   3.228   1.129   8.641 -0.6907 -0.5559  0.3186
 2420SOL     OW18718   2.763   0.152   6.829 -1.1560 -0.4342 -0.1206
 2420SOL    HW118719   2.838   0.192   6.872  0.3096 -2.8099 -0.4688
 2420SOL    HW218720   2.779   0.063   6.859 -1.4245 -0.7903 -1.0390
 2421SOL     OW18721   3.090   1.835  13.786  0.0638 -0.4004  0.7641
 2421SOL    HW118722   3.174   1.839  13.830 -1.0533 -0.2086  2.8592
 2421SOL    HW218723   3.087   1.745  13.752 -0.9192  0.7333 -2.1571
 2422SOL     OW18724   0.367   1.338  10.667  0.2275  0.1836  0.2316
 2422SOL    HW118725   0.462   1.338  10.677  0.0789 -1.6954  1.5308
 2422SOL    HW218726   0.350   1.374  10.754 -1.5810  0.9800 -0.4460
 2423SOL     OW18727   4.589   2.837  10.815 -0.1733  0.1729  0.1719
 2423SOL    HW118728   4.663   2.854  10.874  0.7400 -1.2256 -0.5658
 2423SOL    HW218729   4.544   2.774  10.871 -2.0053  0.5538 -0.8965
 2424SOL     OW18730   0.463   0.782   4.110  0.3430  0.4393  0.6252
 2424SOL    HW118731   0.507   0.828   4.181  0.6847 -0.1873  0.8139
 2424SOL    HW218732   0.453   0.859   4.053  0.2319 -0.8462 -1.1002
 2425SOL     OW18733   0.395   1.839  14.881 -0.6092 -0.2777  0.9735
 2425SOL    HW118734   0.342   1.817  14.804  0.3537 -0.5982  0.4028
 2425SOL    HW218735   0.475   1.863  14.834 -0.7680  0.5633  1.1357
 2426SOL     OW18736   4.091   1.588   1.557 -0.0320 -0.3103 -0.5354
 2426SOL    HW118737   4.116   1.627   1.473  4.1495 -0.7072  0.5364
 2426SOL    HW218738   4.166   1.615   1.610 -1.6215  0.6678  1.2101
 2427SOL     OW18739   1.634   0.441   3.434 -0.4555  0.5445 -0.9706
 2427SOL    HW118740   1.654   0.409   3.346  1.3987  1.4104 -0.8438
 2427SOL    HW218741   1.554   0.391   3.454  0.2345  0.1145  0.7273
 2428SOL     OW18742   3.529   3.702   9.457  0.0351 -0.6893 -0.1219
 2428SOL    HW118743   3.518   3.714   9.551  1.7217  0.0687 -0.0263
 2428SOL    HW218744   3.578   3.621   9.448  0.1021 -0.8554  1.8264
 2429SOL     OW18745   2.844   3.968   5.832 -0.2158  0.2280  0.0659
 2429SOL    HW118746   2.850   4.030   5.905 -0.9543 -0.2142  0.5083
 2429SOL    HW218747   2.884   3.892   5.874  1.0610  0.8601 -0.0030
 2430SOL     OW18748   4.174   4.512   6.229 -0.0148  0.3368 -0.2477
 2430SOL    HW118749   4.224   4.431   6.244 -1.5482 -0.6869 -0.6744
 2430SOL    HW218750   4.244   4.577   6.233  0.7528 -0.4720 -0.3583
 2431SOL     OW18751   4.065   3.194   7.304  0.3269  0.5050 -0.3492
 2431SOL    HW118752   4.105   3.145   7.232 -2.0458  0.2439 -1.5015
 2431SOL    HW218753   4.136   3.199   7.368 -0.7171 -1.8568  0.9614
 2432SOL     OW18754   0.870   3.659   0.075 -0.0090 -0.0497  0.1263
 2432SOL    HW118755   0.782   3.621   0.080  0.1047 -0.2209  0.7222
 2432SOL    HW218756   0.928   3.584   0.072  1.7613  1.2651  1.5111
 2433SOL     OW18757   0.616   0.879  17.035  0.1450 -0.4945  0.1587
 2433SOL    HW118758   0.566   0.953  17.069  1.3889  0.9364 -1.1132
 2433SOL    HW218759   0.626   0.901  16.943  1.2089 -0.8542  0.1855
 2434SOL     OW18760   0.732   4.632   3.391 -0.0972  0.1974  0.4414
 2434SOL    HW118761   0.794   4.647   3.320  0.0996 -1.6829  0.2195
 2434SOL    HW218762   0.691   4.548   3.368  0.5084 -0.2170  0.8984
 2435SOL     OW18763   3.296   1.197   7.956  0.6206 -0.4262  0.4016
 2435SOL    HW118764   3.274   1.152   8.038 -1.2338  2.5345  1.5291
 2435SOL    HW218765   3.349   1.131   7.911  1.2387  0.1213  0.3295
 2436SOL     OW18766   2.735   1.957   2.734  0.4633  0.2907  0.0907
 2436SOL    HW118767   2.678   2.033   2.740  1.6303  1.0920  1.1753
 2436SOL    HW218768   2.807   1.994   2.683 -0.7477  1.7355 -0.5507
 2437SOL     OW18769   3.451   2.382   3.311 -0.1995 -0.7020  0.0878
 2437SOL    HW118770   3.521   2.321   3.286  0.8179 -0.2443  1.8376
 2437SOL    HW218771   3.441   2.371   3.406 -1.1682 -3.1679 -0.2751
 2438SOL     OW18772   0.271   0.153  15.995 -0.4427 -0.1827 -0.3889
 2438SOL    HW118773   0.345   0.211  16.011 -2.1551  1.7292  0.5410
 2438SOL    HW218774   0.311   0.098  15.927  0.0097 -2.9766  2.1082
 2439SOL     OW18775   1.096   3.343  13.207  0.0794 -0.6233 -0.2455
 2439SOL    HW118776   1.182   3.337  13.166  0.2569  0.2239  0.0013
 2439SOL    HW218777   1.120   3.337  13.300 -2.2650  1.2594  0.4793
 2440SOL     OW18778   0.892   1.686   5.761  0.8928 -0.3800 -0.3870
 2440SOL    HW118779   0.947   1.653   5.833  0.6339 -2.0421 -0.9478
 2440SOL    HW218780   0.887   1.781   5.765 -0.4829 -0.3440 -3.0255
 2441SOL     OW18781   3.123   2.256   7.866  0.6183  0.2796  0.4617
 2441SOL    HW118782   3.139   2.280   7.775  2.2092 -1.6981  0.2085
 2441SOL    HW218783   3.198   2.291   7.915 -1.0324  0.4215  2.8422
 2442SOL     OW18784   2.864   3.211  11.771 -0.3473 -0.2646  0.3287
 2442SOL    HW118785   2.821   3.236  11.853  0.5954  1.2774  0.3452
 2442SOL    HW218786   2.925   3.140  11.792  0.7688  0.1533 -1.5449
 2443SOL     OW18787   4.701   2.700  16.550 -1.1155  0.8417  0.2796
 2443SOL    HW118788   4.624   2.647  16.531 -0.8549  0.4796  0.2196
 2443SOL    HW218789   4.705   2.699  16.645  0.7805  2.5724  0.2075
 2444SOL     OW18790   1.487   3.998   5.222  0.2594 -0.2740  0.2617
 2444SOL    HW118791   1.478   4.057   5.147  1.5189 -0.9396 -0.4086
 2444SOL    HW218792   1.427   3.924   5.212 -1.3608  1.0386  0.3539
 2445SOL     OW18793   4.323   0.331   6.569  0.1766 -0.5957  0.1392
 2445SOL    HW118794   4.287   0.400   6.513 -0.3543 -1.9444 -1.1825
 2445SOL    HW218795   4.414   0.357   6.583 -0.7231  2.8386 -0.4178
 2446SOL     OW18796   0.566   1.025   0.942  0.4121  0.4236  0.2747
 2446SOL    HW118797   0.479   1.054   0.915  0.8215  2.4026  1.0693
 2446SOL    HW218798   0.546   0.932   0.932  1.9401  0.1517 -0.2296
 2447SOL     OW18799   1.838   0.184   2.087 -0.2674  0.1407 -0.3967
 2447SOL    HW118800   1.759   0.136   2.110  1.1426 -1.2616  1.5082
 2447SOL    HW218801   1.885   0.110   2.047  0.5340  0.3058  0.2463
 2448SOL     OW18802   0.928   3.511   2.987  0.3317  0.3746 -0.2108
 2448SOL    HW118803   0.986   3.438   3.008  1.9024  1.6567  0.0056
 2448SOL    HW218804   0.991   3.582   3.003 -0.6260  1.3276 -0.6981
 2449SOL     OW18805   2.005   2.459   4.242  0.1922  0.1248 -0.0150
 2449SOL    HW118806   1.962   2.409   4.311  1.6888  1.9923  2.2666
 2449SOL    HW218807   1.930   2.506   4.206  0.0946 -0.6108 -0.7732
 2450SOL     OW18808   3.702   2.725   6.347 -0.6563 -0.6063 -0.1079
 2450SOL    HW118809   3.646   2.653   6.318 -2.2142  0.3231  0.5654
 2450SOL    HW218810   3.632   2.785   6.375  0.5164  0.2909  0.9403
 2451SOL     OW18811   1.950   0.201   2.772 -0.3603  0.4311 -0.6518
 2451SOL    HW118812   1.983   0.166   2.855 -1.0049  1.1202 -0.1083
 2451SOL    HW218813   1.991   0.287   2.777  0.8306 -0.2197  0.8582
 2452SOL     OW18814   2.309   0.403   5.563 -0.0709  0.0243 -0.4767
 2452SOL    HW118815   2.287   0.396   5.656 -0.0551 -1.1375 -0.5595
 2452SOL    HW218816   2.348   0.491   5.562 -2.1029  0.9181  1.3087
 2453SOL     OW18817   2.265   1.325   2.272  0.7788  0.2979 -0.1901
 2453SOL    HW118818   2.277   1.407   2.224  2.6421  0.8451  1.1851
 2453SOL    HW218819   2.318   1.265   2.220  1.6953  0.7955  0.1660
 2454SOL     OW18820   1.827   1.113   7.038 -0.1693  0.1498  0.7186
 2454SOL    HW118821   1.765   1.077   7.101 -1.0644 -2.1710 -1.4651
 2454SOL    HW218822   1.768   1.121   6.963 -0.8936  3.3201  1.6315
 2455SOL     OW18823   3.592   2.252   6.331 -0.1463  0.0637 -0.2022
 2455SOL    HW118824   3.560   2.337   6.362  0.6091 -0.0526  0.8853
 2455SOL    HW218825   3.631   2.210   6.407 -1.4754  0.7665  0.8702
 2456SOL     OW18826   0.240   3.210   2.853 -0.3042  0.1697 -0.1384
 2456SOL    HW118827   0.333   3.207   2.875 -0.5128 -1.8262  0.4868
 2456SOL    HW218828   0.220   3.117   2.843 -0.6759  0.0747  1.4515
 2457SOL     OW18829   3.856   3.997   7.766 -0.1081 -0.3146 -0.1357
 2457SOL    HW118830   3.773   3.986   7.720 -0.5197  0.7624  0.3316
 2457SOL    HW218831   3.910   4.027   7.693 -0.6979 -0.1383 -0.5001
 2458SOL     OW18832   3.559   3.385   1.809 -0.5111 -0.2206  0.2969
 2458SOL    HW118833   3.490   3.436   1.851  0.5235  1.7300 -0.3812
 2458SOL    HW218834   3.623   3.454   1.795 -0.4632  0.4742  3.9487
 2459SOL     OW18835   1.982   2.305   2.899 -0.0063 -0.0852  0.1834
 2459SOL    HW118836   2.032   2.370   2.949 -0.5835 -0.1344  0.8236
 2459SOL    HW218837   1.921   2.348   2.839 -0.8261 -1.8134 -0.2262
 2460SOL     OW18838   4.429   3.789  12.679 -0.3913 -0.2494 -0.6633
 2460SOL    HW118839   4.502   3.811  12.736 -0.1291  2.0471 -1.9238
 2460SOL    HW218840   4.370   3.747  12.742  1.2244  0.8679  1.5782
 2461SOL     OW18841   2.049   1.230   3.000  0.1118 -0.0920 -0.1118
 2461SOL    HW118842   2.025   1.179   3.077  2.0827 -1.4830 -0.4294
 2461SOL    HW218843   1.959   1.234   2.969  0.4295 -1.3942 -1.1749
 2462SOL     OW18844   2.669   2.300   8.453  0.0118  0.2496  0.7774
 2462SOL    HW118845   2.668   2.281   8.359 -2.0507  0.1869  0.8008
 2462SOL    HW218846   2.641   2.391   8.466 -2.0942 -0.0843 -1.4502
 2463SOL     OW18847   0.496   2.223   9.007  0.1515 -0.3829 -0.0022
 2463SOL    HW118848   0.444   2.251   9.082  3.3590 -0.1380  2.1497
 2463SOL    HW218849   0.451   2.251   8.928  1.0029 -1.5966 -0.9243
 2464SOL     OW18850   3.320   3.991   9.876 -0.0988 -0.4012 -0.0302
 2464SOL    HW118851   3.254   4.057   9.900  1.2071  1.3865 -1.3346
 2464SOL    HW218852   3.316   3.984   9.781 -1.6994 -0.2233  0.0096
 2465SOL     OW18853   2.164   2.599   2.826  0.0884  0.2495 -0.5576
 2465SOL    HW118854   2.238   2.590   2.765 -0.7418 -2.1330 -1.2119
 2465SOL    HW218855   2.087   2.576   2.775  0.6131  0.3969 -1.4229
 2466SOL     OW18856   3.950   2.590   9.372 -0.2438  0.5076 -0.2300
 2466SOL    HW118857   4.043   2.576   9.352  0.1907 -0.4628  2.4993
 2466SOL    HW218858   3.946   2.677   9.410 -1.2154  0.3596 -0.0100
 2467SOL     OW18859   2.187   1.135   4.148 -0.3014  0.0628 -0.1879
 2467SOL    HW118860   2.125   1.140   4.076 -0.3271  0.9586 -0.1049
 2467SOL    HW218861   2.189   1.228   4.173 -0.1250 -0.2466  0.9656
 2468SOL     OW18862   4.158   3.982   0.259  0.5053 -0.0928  0.1899
 2468SOL    HW118863   4.072   4.023   0.260  0.2975 -0.5280 -0.4919
 2468SOL    HW218864   4.207   4.033   0.324 -0.5191  1.3433 -0.1806
 2469SOL     OW18865   4.264   0.283   3.400 -0.6439 -0.3757 -0.3783
 2469SOL    HW118866   4.309   0.211   3.444  0.8925 -1.0020 -2.9795
 2469SOL    HW218867   4.232   0.323   3.480 -1.2493  1.3535 -1.4866
 2470SOL     OW18868   0.677   4.645  14.150 -0.2005 -0.5248  0.0692
 2470SOL    HW118869   0.634   4.564  14.121 -2.3488 -0.1792  2.2879
 2470SOL    HW218870   0.598   4.698  14.159  0.4466  0.2044  1.3689
 2471SOL     OW18871   3.420   3.755   5.361 -0.5168  0.2148  0.1582
 2471SOL    HW118872   3.350   3.694   5.385  2.4721 -1.7186  3.9321
 2471SOL    HW218873   3.484   3.694   5.325 -0.6829  1.1394 -1.6953
 2472SOL     OW18874   0.199   1.513  10.523 -0.2204  0.2287 -0.3293
 2472SOL    HW118875   0.196   1.566  10.603 -0.8956  0.0735 -0.2466
 2472SOL    HW218876   0.227   1.423  10.540 -1.7383 -0.3371 -0.7640
 2473SOL     OW18877   1.287   3.212  11.602  0.4734 -0.1660  0.1440
 2473SOL    HW118878   1.378   3.184  11.605  0.7905  0.7588 -0.6352
 2473SOL    HW218879   1.241   3.139  11.643 -0.2482 -0.2740 -0.8371
 2474SOL     OW18880   1.218   2.835   5.185 -0.1919 -0.6274  0.6607
 2474SOL    HW118881   1.133   2.798   5.164 -0.6630  0.4145  0.7426
 2474SOL    HW218882   1.258   2.755   5.219  0.6295 -1.1239 -1.4719
 2475SOL     OW18883   4.192   1.647   7.191 -0.4245  0.3093  0.1483
 2475SOL    HW118884   4.282   1.616   7.198 -0.6707 -0.5636 -0.6823
 2475SOL    HW218885   4.151   1.586   7.131 -2.6840 -0.8424  2.8521
 2476SOL     OW18886   2.075   3.423  15.751 -0.1506 -0.3242  0.4035
 2476SOL    HW118887   2.127   3.489  15.705 -1.4703  1.3565  1.3444
 2476SOL    HW218888   2.140   3.366  15.792  0.5459 -0.4670 -0.8922
 2477SOL     OW18889   2.314   1.267  15.512 -0.1495 -0.3517 -0.7432
 2477SOL    HW118890   2.275   1.354  15.518 -0.3127 -0.3908 -1.2754
 2477SOL    HW218891   2.271   1.237  15.433 -1.4971  0.2963 -0.2684
 2478SOL     OW18892   0.161   0.451  14.790  0.3581 -0.2797  0.6268
 2478SOL    HW118893   0.237   0.480  14.842  0.7853 -0.9544  0.3834
 2478SOL    HW218894   0.084   0.489  14.833  1.7673  1.2062  1.8476
 2479SOL     OW18895   3.088   4.550   0.008  0.1541 -0.1171 -0.0750
 2479SOL    HW118896   3.033   4.596   0.073 -1.2692  0.3926 -1.6343
 2479SOL    HW218897   3.107   4.623  17.644  1.6025 -2.6259 -2.6819
 2480SOL     OW18898   3.649   2.015   9.869 -0.0291 -0.0690 -0.0673
 2480SOL    HW118899   3.608   2.101   9.878  0.8387  0.4798 -1.4636
 2480SOL    HW218900   3.703   2.027   9.791  0.6744  0.5703  0.5154
 2481SOL     OW18901   1.051   4.276  15.909  0.1419 -0.0910 -0.1881
 2481SOL    HW118902   1.070   4.338  15.838 -0.0887 -1.8370 -1.7909
 2481SOL    HW218903   1.065   4.189  15.870  1.7578 -0.0385  0.2752
 2482SOL     OW18904   3.548   3.833   7.997 -0.1433 -0.2504 -0.1895
 2482SOL    HW118905   3.493   3.797   7.928  1.6624  1.5820 -2.5751
 2482SOL    HW218906   3.637   3.828   7.962 -1.1921 -3.5967 -2.2948
 2483SOL     OW18907   3.089   4.663   7.045 -0.0663  0.5364 -0.2223
 2483SOL    HW118908   3.142   0.006   7.000 -0.9409  1.3546 -0.0576
 2483SOL    HW218909   3.120   4.688   7.133  0.5312 -1.3295  0.0837
 2484SOL     OW18910   3.724   3.018   3.970 -0.5054  0.0391 -0.5792
 2484SOL    HW118911   3.708   3.069   3.891 -0.4094 -0.5072 -0.9493
 2484SOL    HW218912   3.801   2.969   3.941 -0.9222 -1.2504  0.4635
 2485SOL     OW18913   1.764   1.753  13.026  0.5396  0.5793  0.2973
 2485SOL    HW118914   1.714   1.829  13.056  0.5642  0.2805  1.0905
 2485SOL    HW218915   1.746   1.674  13.077 -2.5960  1.0322 -0.1256
 2486SOL     OW18916   0.898   0.732  11.937 -0.6973 -0.4408  0.0679
 2486SOL    HW118917   0.839   0.715  11.864 -0.6653  0.2199 -0.1130
 2486SOL    HW218918   0.891   0.652  11.989 -4.1808  0.5368  1.0943
 2487SOL     OW18919   2.720   1.611   3.571 -0.1744  0.2365  0.0428
 2487SOL    HW118920   2.745   1.525   3.607 -1.2193 -0.4988 -1.0188
 2487SOL    HW218921   2.647   1.584   3.517 -0.6209 -2.2148  1.8723
 2488SOL     OW18922   3.006   0.644   3.239  0.1573  0.8277 -0.2453
 2488SOL    HW118923   2.974   0.723   3.281 -2.0412 -0.3999  0.3667
 2488SOL    HW218924   3.078   0.678   3.185 -1.4213  0.9105 -2.3152
 2489SOL     OW18925   3.906   1.255   5.202 -0.7325 -0.0673  0.0418
 2489SOL    HW118926   3.981   1.231   5.147 -0.4334 -0.6069  0.6877
 2489SOL    HW218927   3.843   1.247   5.130 -0.4699  0.7114 -0.2757
 2490SOL     OW18928   1.660   0.993  15.544  0.2668 -0.5623 -0.0324
 2490SOL    HW118929   1.590   1.057  15.534  1.1728  0.3811 -0.3871
 2490SOL    HW218930   1.732   1.053  15.564 -1.6129  2.0248 -1.0693
 2491SOL     OW18931   2.817   3.974  16.192 -0.6690 -0.5839 -0.4677
 2491SOL    HW118932   2.859   4.050  16.151  0.1067 -0.9737 -0.3938
 2491SOL    HW218933   2.892   3.929  16.230 -0.9837 -1.9752 -1.5081
 2492SOL     OW18934   4.559   0.547   4.870  0.3426  0.0820 -0.0303
 2492SOL    HW118935   4.540   0.486   4.799 -1.7004  0.3662  0.2897
 2492SOL    HW218936   4.599   0.487   4.934  0.6845 -1.4160 -1.6588
 2493SOL     OW18937   2.980   0.682  16.156  0.2336  1.0356  0.4477
 2493SOL    HW118938   2.933   0.764  16.173  1.1711  1.7109 -0.2138
 2493SOL    HW218939   2.919   0.620  16.195  0.3385  0.0493 -0.9592
 2494SOL     OW18940   1.140   3.386   8.593 -0.3558 -0.1284  0.1015
 2494SOL    HW118941   1.208   3.346   8.540 -0.0020  0.5678  0.0318
 2494SOL    HW218942   1.078   3.423   8.530 -1.0418  0.2222  0.9798
 2495SOL     OW18943   4.262   3.763  15.065 -0.0745  0.0206 -0.5932
 2495SOL    HW118944   4.246   3.716  14.983  1.3298  1.2597 -1.5717
 2495SOL    HW218945   4.329   3.713  15.112  1.5267  1.9067 -0.8978
 2496SOL     OW18946   4.407   0.213   0.835  0.1108 -0.1044  0.0564
 2496SOL    HW118947   4.316   0.188   0.820  0.1363 -0.9613  1.3425
 2496SOL    HW218948   4.445   0.162   0.763 -0.5628 -0.5022 -0.0105
 2497SOL     OW18949   1.759   2.483   6.426  0.4238  0.1295  0.7036
 2497SOL    HW118950   1.850   2.459   6.443  0.4760 -1.3155 -1.6990
 2497SOL    HW218951   1.709   2.463   6.505  0.3205  2.4079  1.2276
 2498SOL     OW18952   2.553   4.215   1.121  0.2353  0.4023 -0.4609
 2498SOL    HW118953   2.528   4.274   1.192 -0.6567 -2.6561  1.7428
 2498SOL    HW218954   2.589   4.280   1.060  1.0606 -0.2644 -0.6731
 2499SOL     OW18955   4.216   3.664  10.145 -0.1852  0.3561  0.4738
 2499SOL    HW118956   4.231   3.593  10.208  2.1897 -1.4590 -2.1837
 2499SOL    HW218957   4.302   3.704  10.143 -0.3376  0.6805  0.4082
 2500SOL     OW18958   1.707   0.353   8.489 -0.2348  0.3930  0.8913
 2500SOL    HW118959   1.730   0.383   8.578  0.7215 -1.0300  1.1197
 2500SOL    HW218960   1.719   0.259   8.497 -1.5421  0.0660 -0.9477
 2501SOL     OW18961   3.105   1.794   5.217  0.3527  0.1297  0.0581
 2501SOL    HW118962   3.077   1.754   5.300  0.9900 -1.2167 -0.3809
 2501SOL    HW218963   3.197   1.808   5.241  0.7362  1.7869 -2.4417
 2502SOL     OW18964   2.230   1.430   2.922 -0.3886  0.1154  0.4925
 2502SOL    HW118965   2.184   1.511   2.898 -0.7066 -0.2433 -0.0998
 2502SOL    HW218966   2.155   1.371   2.927 -1.0050  0.9370  0.9820
 2503SOL     OW18967   0.838   0.903   5.780 -0.1937  0.0275 -0.0677
 2503SOL    HW118968   0.876   0.829   5.826  1.0324 -0.4471 -1.8149
 2503SOL    HW218969   0.888   0.973   5.822  0.1599  0.7389 -1.6390
 2504SOL     OW18970   2.478   0.219   6.299 -0.0273  0.5380 -0.4001
 2504SOL    HW118971   2.503   0.135   6.261 -1.0527 -0.8885  2.0471
 2504SOL    HW218972   2.385   0.212   6.277  0.1837  0.0675 -1.1802
 2505SOL     OW18973   3.103   0.680   1.676 -0.6162  0.4130 -0.0124
 2505SOL    HW118974   3.116   0.701   1.768 -0.2189 -0.2761  0.0917
 2505SOL    HW218975   3.156   0.743   1.627  1.4212 -1.0778  0.2591
 2506SOL     OW18976   2.756   2.542  13.238 -0.6903 -0.5097 -0.0091
 2506SOL    HW118977   2.842   2.524  13.200  0.0648  0.3880  1.2949
 2506SOL    HW218978   2.707   2.469  13.200 -0.8386 -1.0617  1.2393
 2507SOL     OW18979   0.493   0.872   9.094  0.0581  0.7649  0.3659
 2507SOL    HW118980   0.511   0.803   9.158  1.9924 -1.0978 -2.2185
 2507SOL    HW218981   0.407   0.844   9.063  1.6555 -1.3645 -2.1717
 2508SOL     OW18982   0.960   0.673   5.054  0.2428 -0.4688  0.6701
 2508SOL    HW118983   0.891   0.706   5.111 -1.3687  0.0382 -1.5633
 2508SOL    HW218984   0.952   0.722   4.972  1.9184 -0.5844  0.4263
 2509SOL     OW18985   4.492   4.279   1.428  0.2390 -0.0383 -0.0306
 2509SOL    HW118986   4.478   4.357   1.483  0.5111 -0.3095  0.4263
 2509SOL    HW218987   4.440   4.219   1.482  1.7363 -0.3161  1.1047
 2510SOL     OW18988   2.293   1.700   7.698  1.1606  0.4176 -0.1644
 2510SOL    HW118989   2.269   1.705   7.605 -2.2671  0.4910  0.7125
 2510SOL    HW218990   2.365   1.763   7.695  1.6381 -0.0372  1.5089
 2511SOL     OW18991   1.170   0.275   5.371 -0.7429  0.2308  0.4577
 2511SOL    HW118992   1.082   0.303   5.344  0.1588  2.8197  0.1719
 2511SOL    HW218993   1.193   0.331   5.446 -1.3672 -0.8602  1.4642
 2512SOL     OW18994   0.195   1.861   5.991  0.4522  0.7596  0.3982
 2512SOL    HW118995   0.208   1.770   6.016 -1.3678  0.4865  0.3401
 2512SOL    HW218996   0.213   1.861   5.897 -0.4214 -0.4551  0.2320
 2513SOL     OW18997   4.546   2.768   7.104 -0.2417  0.3730  0.3051
 2513SOL    HW118998   4.536   2.863   7.099 -2.6762  0.1488  1.2349
 2513SOL    HW218999   4.639   2.766   7.128 -0.2206  0.7860  0.2664
 2514SOL     OW19000   3.127   2.015   5.452 -0.1160  0.3101 -0.1586
 2514SOL    HW119001   3.172   2.006   5.368 -0.8716 -0.3675 -0.4860
 2514SOL    HW219002   3.170   1.946   5.501  1.3918  1.4737  0.1531
 2515SOL     OW19003   0.333   1.461  14.658  0.1896 -0.2578 -0.7828
 2515SOL    HW119004   0.338   1.557  14.655 -1.3737 -0.1328  0.6292
 2515SOL    HW219005   0.411   1.444  14.711 -0.9656 -1.6194  0.4823
 2516SOL     OW19006   0.353   0.502   4.302  0.0617 -0.0822 -0.2853
 2516SOL    HW119007   0.433   0.490   4.251 -0.3497  2.1557 -1.4812
 2516SOL    HW219008   0.296   0.530   4.230 -0.9483 -1.1394  0.1084
 2517SOL     OW19009   4.064   2.197   3.764  0.0377 -0.6076  0.3208
 2517SOL    HW119010   4.054   2.284   3.727 -0.8889 -1.0367 -0.4416
 2517SOL    HW219011   4.089   2.142   3.689  0.2652 -2.0520  1.4630
 2518SOL     OW19012   3.711   2.074  12.855 -0.6640 -0.3452 -0.3614
 2518SOL    HW119013   3.736   2.003  12.795  0.0729  1.2675 -1.9483
 2518SOL    HW219014   3.707   2.149  12.796 -0.6787 -1.4085 -1.7144
 2519SOL     OW19015   0.362   1.941   7.854 -0.2241 -0.2609 -0.3659
 2519SOL    HW119016   0.385   1.991   7.932 -0.1728  0.9912 -1.1853
 2519SOL    HW219017   0.447   1.917   7.817 -0.4102  0.1674 -1.0672
 2520SOL     OW19018   1.487   4.200  14.662 -0.2363  0.5635  0.4084
 2520SOL    HW119019   1.397   4.167  14.658 -0.8296  2.5470 -2.4642
 2520SOL    HW219020   1.522   4.176  14.577 -1.8412  0.3395 -0.1876
 2521SOL     OW19021   0.247   4.610   1.880  0.5975  0.2807 -0.7090
 2521SOL    HW119022   0.302   4.682   1.910 -0.4608  2.0196 -2.9093
 2521SOL    HW219023   0.274   4.531   1.928  0.4938 -0.1723 -1.3945
 2522SOL     OW19024   2.052   4.704   1.996 -0.0538  0.4343  0.1132
 2522SOL    HW119025   2.124   0.011   2.051  0.8792  1.1245 -1.4759
 2522SOL    HW219026   2.077   4.612   1.992  1.1152  0.7426  0.4653
 2523SOL     OW19027   2.503   0.775  11.647 -0.5448 -0.0770  0.9919
 2523SOL    HW119028   2.424   0.724  11.630 -1.8245  1.6351  1.7758
 2523SOL    HW219029   2.500   0.790  11.741  3.3419  1.4627  0.8853
 2524SOL     OW19030   0.558   3.929   3.542 -0.6969 -0.3006 -0.8085
 2524SOL    HW119031   0.475   3.888   3.566 -0.5278 -1.2770 -1.9286
 2524SOL    HW219032   0.525   3.977   3.466  1.1954  0.3323 -1.2348
 2525SOL     OW19033   3.384   3.279  15.364  0.3439 -0.0666 -0.6560
 2525SOL    HW119034   3.312   3.342  15.367  1.7477  1.5110 -0.2546
 2525SOL    HW219035   3.367   3.225  15.286  1.5433  0.8705 -1.5558
 2526SOL     OW19036   0.554   0.055   1.720 -0.1102  0.4619 -0.7452
 2526SOL    HW119037   0.505   4.697   1.707  1.3810 -0.3671 -1.2817
 2526SOL    HW219038   0.531   0.097   1.637 -3.0882  1.1336  0.4061
 2527SOL     OW19039   0.584   3.109  17.049  0.1724  0.6513 -0.0013
 2527SOL    HW119040   0.521   3.067  17.107 -1.2843  1.7974 -0.7678
 2527SOL    HW219041   0.658   3.051  17.066  0.1008  0.9457  1.3000
 2528SOL     OW19042   3.459   0.681   3.790 -0.1349 -0.4259  0.0603
 2528SOL    HW119043   3.481   0.679   3.697  0.3168 -2.1287  0.2056
 2528SOL    HW219044   3.548   0.670   3.822  0.2647  0.7183 -0.6297
 2529SOL     OW19045   1.724   3.984  13.100 -0.1339 -0.2345 -0.2086
 2529SOL    HW119046   1.735   4.076  13.126 -2.9638 -0.0289  0.3681
 2529SOL    HW219047   1.769   3.944  13.174 -1.3767 -2.6906 -0.7745
 2530SOL     OW19048   2.984   3.169   6.518 -0.2521  0.6048 -0.1691
 2530SOL    HW119049   3.070   3.135   6.545 -0.4434  1.1359  1.1124
 2530SOL    HW219050   2.974   3.244   6.576  0.7019  0.8698 -0.3390
 2531SOL     OW19051   1.491   1.200  10.937 -0.3502  0.3236 -0.3502
 2531SOL    HW119052   1.528   1.178  11.022 -1.4887  1.1084  0.3545
 2531SOL    HW219053   1.556   1.173  10.873  0.8098 -1.8826  1.7716
 2532SOL     OW19054   1.167   2.577   4.956  0.2953  0.0703  0.0476
 2532SOL    HW119055   1.183   2.634   4.881 -2.9102 -1.4641 -1.7719
 2532SOL    HW219056   1.123   2.637   5.016 -1.5800 -1.4091  0.1266
 2533SOL     OW19057   2.717   1.597   2.104  0.1422  0.3890  0.3635
 2533SOL    HW119058   2.685   1.623   2.018  1.3271  0.1140 -0.1617
 2533SOL    HW219059   2.771   1.674   2.125 -1.3182  0.5027  3.6667
 2534SOL     OW19060   2.365   1.635  12.770  0.2908  0.1207 -0.8400
 2534SOL    HW119061   2.327   1.570  12.829  0.1350  0.0719 -0.9948
 2534SOL    HW219062   2.306   1.627  12.695  0.4607 -0.3500 -0.9271
 2535SOL     OW19063   3.874   3.284   4.550  0.1991  0.4061 -0.6584
 2535SOL    HW119064   3.958   3.323   4.524  1.0105 -2.5689 -2.4789
 2535SOL    HW219065   3.868   3.224   4.476  0.4167  0.4341 -0.6997
 2536SOL     OW19066   1.042   3.985   0.451  0.3026  0.1034  0.3543
 2536SOL    HW119067   1.023   4.070   0.491 -0.5293  0.7778 -1.4983
 2536SOL    HW219068   1.058   3.925   0.524  1.3893  0.0914  0.1107
 2537SOL     OW19069   4.595   2.899   1.741  0.0167 -0.0445 -0.4510
 2537SOL    HW119070   4.651   2.952   1.684 -1.9168 -0.2115 -2.5043
 2537SOL    HW219071   4.656   2.876   1.811  1.9367 -0.4528 -2.2763
 2538SOL     OW19072   0.504   0.415   2.306  0.0819  0.1824  0.2846
 2538SOL    HW119073   0.529   0.333   2.265 -0.1114 -0.4574  1.4564
 2538SOL    HW219074   0.476   0.462   2.227  1.9716  1.0979  0.1746
 2539SOL     OW19075   3.923   4.699  10.134  0.2137 -0.4133  0.0096
 2539SOL    HW119076   3.957   0.003  10.219 -1.6912  4.3322 -0.7381
 2539SOL    HW219077   3.954   4.609  10.132  1.2319 -0.0840  1.1288
 2540SOL     OW19078   0.602   3.025  14.402 -0.2618  0.0441  0.2488
 2540SOL    HW119079   0.642   3.096  14.452  0.6565  0.3936 -0.9763
 2540SOL    HW219080   0.509   3.027  14.425 -0.4247 -1.7268 -0.2971
 2541SOL     OW19081   1.997   2.434   4.542 -0.1603 -0.1497 -0.0313
 2541SOL    HW119082   2.023   2.366   4.604  2.9318  3.1611  2.3123
 2541SOL    HW219083   1.963   2.494   4.608  0.5756  0.3059 -0.0647
 2542SOL     OW19084   4.251   3.174   5.095 -0.0497 -0.0369  0.7502
 2542SOL    HW119085   4.323   3.112   5.107 -1.0800 -0.5874  4.0824
 2542SOL    HW219086   4.222   3.157   5.005  2.3847 -1.5177  0.2350
 2543SOL     OW19087   1.551   1.722   9.420 -0.7855  0.0820  0.2690
 2543SOL    HW119088   1.460   1.695   9.408 -1.1695  2.5415 -2.4327
 2543SOL    HW219089   1.593   1.689   9.340 -1.3277  0.9463 -0.3764
 2544SOL     OW19090   1.714   3.957  15.895  0.3124  0.0774  0.4385
 2544SOL    HW119091   1.705   3.870  15.857 -1.6796  0.7847 -0.7366
 2544SOL    HW219092   1.698   4.010  15.816  0.6087 -1.2145 -0.4941
 2545SOL     OW19093   0.632   4.213   6.530  0.2084 -0.3419  0.3085
 2545SOL    HW119094   0.637   4.291   6.585  0.5792 -1.2144  1.5167
 2545SOL    HW219095   0.642   4.151   6.602  0.6088 -0.8781 -0.2039
 2546SOL     OW19096   0.078   3.408   6.366  0.0516 -0.3605  0.0451
 2546SOL    HW119097   0.123   3.387   6.447  1.2534 -0.7835 -0.7323
 2546SOL    HW219098   0.051   3.499   6.381 -1.2842 -0.8421  0.5478
 2547SOL     OW19099   4.660   2.827   9.072  0.1989  0.2114 -0.4972
 2547SOL    HW119100   4.587   2.874   9.112 -0.5708 -1.5025  0.1399
 2547SOL    HW219101   0.012   2.876   9.104 -0.7441  1.4862 -0.2148
 2548SOL     OW19102   4.304   1.493   4.685  0.1303  0.3200 -0.2774
 2548SOL    HW119103   4.372   1.484   4.618 -0.7114 -2.0246 -0.8313
 2548SOL    HW219104   4.326   1.578   4.723 -1.2190  0.5075  0.0645
 2549SOL     OW19105   3.728   2.125   1.060 -0.1394  0.0870 -0.1851
 2549SOL    HW119106   3.700   2.163   1.143 -2.9322 -1.3660 -0.4347
 2549SOL    HW219107   3.790   2.191   1.031  0.3372 -0.3686 -0.1998
 2550SOL     OW19108   0.309   0.606   7.122  0.1399  0.0354 -0.2042
 2550SOL    HW119109   0.298   0.514   7.097 -0.8373 -0.1749  0.9636
 2550SOL    HW219110   0.277   0.642   7.040 -1.5532 -0.3845  0.2527
 2551SOL     OW19111   3.557   2.417   7.643 -0.1928 -0.3170  0.3658
 2551SOL    HW119112   3.534   2.498   7.689  1.6823 -0.5620  1.7083
 2551SOL    HW219113   3.565   2.450   7.553 -0.8493  0.0758  0.4521
 2552SOL     OW19114   3.903   1.521  16.939 -0.9360 -0.1441 -0.2761
 2552SOL    HW119115   3.951   1.515  17.022 -0.0704 -0.0663 -0.7736
 2552SOL    HW219116   3.830   1.573  16.972  0.0132  1.3006 -0.4554
 2553SOL     OW19117   3.035   1.335  12.374 -0.0048  0.0782  0.2863
 2553SOL    HW119118   3.130   1.349  12.376  0.3756 -2.2104 -2.8149
 2553SOL    HW219119   3.025   1.272  12.445  0.3756  1.5548  1.6645
 2554SOL     OW19120   4.011   2.507   8.797  0.1920  0.4741  0.0666
 2554SOL    HW119121   3.983   2.523   8.887 -1.9655  1.1791 -0.7522
 2554SOL    HW219122   3.960   2.577   8.757  0.0495  1.3095  1.7241
 2555SOL     OW19123   0.847   3.826   6.189 -0.2185 -0.8195 -0.1163
 2555SOL    HW119124   0.757   3.836   6.159  0.0089  0.9005 -0.2403
 2555SOL    HW219125   0.868   3.917   6.208  0.6644 -1.0241 -0.1189
 2556SOL     OW19126   2.310   1.712   3.027  0.4282  0.2273  0.3787
 2556SOL    HW119127   2.355   1.776   2.972  2.2057 -0.6542  0.8214
 2556SOL    HW219128   2.235   1.764   3.054 -0.3580 -1.3300  1.1852
 2557SOL     OW19129   3.822   0.224   2.882  0.6160 -0.0787  0.4669
 2557SOL    HW119130   3.776   0.210   2.965  0.0880 -0.7433  0.0559
 2557SOL    HW219131   3.757   0.194   2.819  0.8631  1.4136 -0.4989
 2558SOL     OW19132   1.833   1.181  14.602  0.0741  0.1452 -0.2465
 2558SOL    HW119133   1.842   1.248  14.535  1.4566  0.5325  0.3196
 2558SOL    HW219134   1.837   1.101  14.549 -1.2001  0.8021 -1.3128
 2559SOL     OW19135   3.691   0.081   2.079 -0.2427  0.4414  0.5617
 2559SOL    HW119136   3.622   0.145   2.097  1.7548  2.9075 -0.6031
 2559SOL    HW219137   3.640   0.013   2.035 -1.5842  1.0374  1.1810
 2560SOL     OW19138   4.207   3.236  10.557 -0.2579 -0.1536  0.0626
 2560SOL    HW119139   4.178   3.301  10.621  1.5961 -1.4380  2.1866
 2560SOL    HW219140   4.288   3.209  10.599 -0.7729  2.0954  2.4630
 2561SOL     OW19141   0.948   3.919  17.619  0.4182  0.0307 -0.3838
 2561SOL    HW119142   0.938   3.844  17.677  0.9900  0.6201  0.4763
 2561SOL    HW219143   0.867   3.925  17.568  0.3674  0.4761 -0.2484
 2562SOL     OW19144   1.680   4.376   7.082 -0.0531 -0.2700  0.2007
 2562SOL    HW119145   1.623   4.299   7.078 -2.9685  1.8268  1.0552
 2562SOL    HW219146   1.756   4.327   7.111  0.8834  0.4368 -1.0586
 2563SOL     OW19147   4.265   1.004   0.083 -0.2004 -0.2790 -0.0938
 2563SOL    HW119148   4.344   0.990   0.136 -0.1852 -3.1200 -0.8977
 2563SOL    HW219149   4.263   1.098   0.104 -1.1445 -0.0590 -1.1892
 2564SOL     OW19150   4.210   0.093   9.141 -0.1072 -0.0964 -0.0645
 2564SOL    HW119151   4.275   0.115   9.208  0.8091 -0.4988 -0.8198
 2564SOL    HW219152   4.274   0.064   9.075 -1.1000 -1.1319 -0.5759
 2565SOL     OW19153   4.350   3.805   1.987 -0.5040  0.3988 -0.0110
 2565SOL    HW119154   4.270   3.853   2.003  1.2611  2.7852  1.6311
 2565SOL    HW219155   4.362   3.819   1.893  1.5057 -0.8572  0.0492
 2566SOL     OW19156   0.686   4.589   6.984 -0.5435 -0.3998 -0.4781
 2566SOL    HW119157   0.657   4.669   7.028 -1.1224 -0.5414 -0.6050
 2566SOL    HW219158   0.609   4.565   6.933 -2.3564  1.2882  1.4337
 2567SOL     OW19159   3.076   3.793   1.886  0.2028 -0.2417  0.2147
 2567SOL    HW119160   2.996   3.828   1.926 -0.2841  1.5513 -2.3108
 2567SOL    HW219161   3.070   3.818   1.793 -1.8316 -2.9210 -0.3775
 2568SOL     OW19162   0.374   3.640  17.191 -0.0138 -0.1597 -0.6432
 2568SOL    HW119163   0.468   3.654  17.179  0.1992 -1.9195 -0.9907
 2568SOL    HW219164   0.363   3.571  17.126  2.3578 -0.5478 -0.6441
 2569SOL     OW19165   0.633   0.060  10.720  0.0258  0.2476 -0.2035
 2569SOL    HW119166   0.620   4.689  10.729 -0.5598  0.4082  0.6184
 2569SOL    HW219167   0.572   0.096  10.784  0.9219  1.5098 -0.0586
 2570SOL     OW19168   0.417   3.572   1.158 -0.1973  0.5278 -0.1885
 2570SOL    HW119169   0.489   3.605   1.104 -0.0597  0.8116  0.1687
 2570SOL    HW219170   0.342   3.581   1.100 -1.8070 -0.8933  1.6802
 2571SOL     OW19171   3.728   2.903   5.817  0.2784  0.1086  0.5216
 2571SOL    HW119172   3.774   2.858   5.747  0.2394  0.3113  0.3677
 2571SOL    HW219173   3.804   2.945   5.857  1.0623  0.1593 -1.0515
 2572SOL     OW19174   4.094   2.807  14.411  0.4348  0.4381  0.3389
 2572SOL    HW119175   4.092   2.898  14.381 -0.9335 -0.3165 -1.8265
 2572SOL    HW219176   4.105   2.821  14.506 -0.3691 -0.7020  0.6047
 2573SOL     OW19177   3.913   1.070   6.189 -0.2485  0.0142  0.1130
 2573SOL    HW119178   3.912   1.139   6.256 -0.0534 -0.5497  0.6915
 2573SOL    HW219179   3.830   1.026   6.205  0.6453 -1.7055  0.0138
 2574SOL     OW19180   2.717   3.721   3.622  0.2021  0.2837  0.5644
 2574SOL    HW119181   2.711   3.802   3.672  1.4159 -0.0040  1.1874
 2574SOL    HW219182   2.802   3.694   3.658  0.3484 -0.3636 -0.2684
 2575SOL     OW19183   4.065   1.454   2.046  0.1172  0.1086 -0.0802
 2575SOL    HW119184   4.158   1.446   2.027  0.2584  1.4885 -0.0309
 2575SOL    HW219185   4.060   1.470   2.141 -1.1557  0.0364 -0.1302
 2576SOL     OW19186   1.905   1.829  12.336 -0.2119 -0.2019 -0.5235
 2576SOL    HW119187   1.874   1.917  12.358  0.4191 -0.8582  2.9733
 2576SOL    HW219188   1.824   1.778  12.340 -1.5556  2.1622  2.9614
 2577SOL     OW19189   3.603   0.663   2.849  0.1116  0.2077 -0.3679
 2577SOL    HW119190   3.636   0.700   2.767 -1.8687  0.2365 -1.1621
 2577SOL    HW219191   3.680   0.629   2.893  0.8949  2.2844 -0.1355
 2578SOL     OW19192   3.842   4.207   9.996  0.6445  0.6590  0.3774
 2578SOL    HW119193   3.775   4.188   9.930  1.7881  1.6448 -1.0553
 2578SOL    HW219194   3.849   4.125  10.044  0.3032  0.6115  0.3456
 2579SOL     OW19195   1.048   1.674   4.425  0.0789  0.3286  0.6383
 2579SOL    HW119196   1.070   1.765   4.407  1.9769 -0.6514 -1.9049
 2579SOL    HW219197   1.118   1.650   4.484  0.4608  0.7286  0.3480
 2580SOL     OW19198   2.394   3.870  15.677  0.0724  0.4521  0.0687
 2580SOL    HW119199   2.489   3.878  15.682  0.2569 -1.0034 -0.9806
 2580SOL    HW219200   2.363   3.939  15.736  0.6175 -0.6735  1.6538
 2581SOL     OW19201   2.689   2.235  14.367 -0.2723 -0.0067  0.0080
 2581SOL    HW119202   2.752   2.165  14.349 -0.1991  0.1032 -0.1634
 2581SOL    HW219203   2.713   2.253  14.458  1.1155  1.7843 -0.7241
 2582SOL     OW19204   4.379   1.681  10.568 -0.3517 -0.2742 -0.2515
 2582SOL    HW119205   4.432   1.752  10.533 -0.2757 -0.0630  0.2961
 2582SOL    HW219206   4.450   1.619  10.590 -0.4667 -0.1997  0.3342
 2583SOL     OW19207   3.519   1.810   7.528  0.1836 -0.2121  0.0777
 2583SOL    HW119208   3.475   1.734   7.489  0.3412 -0.5539  0.5736
 2583SOL    HW219209   3.524   1.870   7.453  1.2907 -1.2655 -0.7003
 2584SOL     OW19210   3.033   2.398   4.471 -0.0555  0.2957 -0.3262
 2584SOL    HW119211   3.062   2.414   4.560  2.7230 -3.4855 -0.5705
 2584SOL    HW219212   2.941   2.371   4.479  0.0437 -0.1082 -0.5220
 2585SOL     OW19213   2.488   4.069   6.270 -0.1590 -0.0836 -0.5741
 2585SOL    HW119214   2.406   4.099   6.230 -0.8148 -1.2845 -0.1265
 2585SOL    HW219215   2.559   4.104   6.216  0.4787 -0.3959  0.0658
 2586SOL     OW19216   3.835   3.380  10.170 -0.1874 -0.0050 -0.2051
 2586SOL    HW119217   3.865   3.376  10.261 -0.8420 -1.0225 -0.0402
 2586SOL    HW219218   3.777   3.455  10.183 -0.6679 -0.6290  1.3029
 2587SOL     OW19219   3.862   1.899  16.095  0.0433  0.4013  0.4068
 2587SOL    HW119220   3.788   1.948  16.130  0.0345  0.2306  0.6327
 2587SOL    HW219221   3.941   1.935  16.135  0.3304  0.0408  0.1716
 2588SOL     OW19222   4.528   4.078   2.764 -0.9059 -0.7153  0.1842
 2588SOL    HW119223   4.522   4.086   2.859  1.2453 -1.0367  0.3619
 2588SOL    HW219224   4.477   4.157   2.745  0.3259  0.4829  1.7583
 2589SOL     OW19225   0.942   1.337   4.051 -0.1915  0.6206  0.5265
 2589SOL    HW119226   1.022   1.288   4.071 -0.4814 -0.0082  0.1178
 2589SOL    HW219227   0.923   1.292   3.969  1.3605 -0.3875  0.7181
 2590SOL     OW19228   3.633   0.873  10.917  0.0554  0.3280 -0.4992
 2590SOL    HW119229   3.654   0.954  10.964 -2.8565 -0.4883  2.2454
 2590SOL    HW219230   3.548   0.891  10.877 -0.6885  0.1453  0.9834
 2591SOL     OW19231   2.844   2.710   7.007 -0.0003 -0.2524 -0.2337
 2591SOL    HW119232   2.935   2.702   7.035  0.0932  1.2990 -0.0608
 2591SOL    HW219233   2.815   2.619   7.001 -0.5528 -0.2029  1.7056
 2592SOL     OW19234   1.846   3.422   9.261  0.3582 -0.1430 -0.4475
 2592SOL    HW119235   1.891   3.484   9.203 -2.4974  2.1789 -0.1400
 2592SOL    HW219236   1.759   3.427   9.222 -0.4801 -1.0608  1.3095
 2593SOL     OW19237   2.943   4.634   5.687 -0.3514 -0.2536  0.5672
 2593SOL    HW119238   2.942   4.538   5.679 -0.8706 -0.0766 -1.5009
 2593SOL    HW219239   2.979   4.668   5.605 -0.6752 -1.4448 -0.0734
 2594SOL     OW19240   3.029   1.742   8.209  0.2723  0.1202 -0.9791
 2594SOL    HW119241   3.045   1.807   8.141  1.6193  0.8138 -0.0075
 2594SOL    HW219242   2.944   1.714   8.176 -0.5706 -0.1920  1.4430
 2595SOL     OW19243   3.889   2.008   3.018 -0.0532  0.4943 -0.8063
 2595SOL    HW119244   3.916   1.974   2.932 -3.1433 -1.1396 -1.1535
 2595SOL    HW219245   3.842   2.086   2.988  0.7923  0.3739 -2.4785
 2596SOL     OW19246   0.133   4.138  12.709 -0.4722  0.2009  0.1386
 2596SOL    HW119247   0.214   4.170  12.748 -1.0435  3.1134 -1.0356
 2596SOL    HW219248   0.183   4.135  12.627 -3.0015 -0.7435 -1.3605
 2597SOL     OW19249   3.738   2.042   1.647  0.5853 -0.2669  0.0497
 2597SOL    HW119250   3.671   2.079   1.588  1.1301  0.3281 -0.1983
 2597SOL    HW219251   3.822   2.060   1.605 -0.0982  1.4276 -0.6249
 2598SOL     OW19252   4.512   4.598   8.274  0.3674  0.2937 -0.6699
 2598SOL    HW119253   4.579   4.632   8.333  0.2765  0.2791 -0.5605
 2598SOL    HW219254   4.435   4.644   8.309 -0.3328 -0.3175 -1.4035
 2599SOL     OW19255   1.466   2.558  16.456  0.5400 -0.2538  0.1818
 2599SOL    HW119256   1.501   2.566  16.545 -0.2740  0.1898  0.4612
 2599SOL    HW219257   1.540   2.568  16.397 -0.8294 -0.2625 -1.5411
 2600SOL     OW19258   4.179   0.777   2.121  0.4530  1.0491  0.4528
 2600SOL    HW119259   4.162   0.730   2.203  0.7394 -0.3096 -0.2586
 2600SOL    HW219260   4.148   0.865   2.141 -1.1870  0.7010 -0.5773
 2601SOL     OW19261   1.493   0.149   0.643 -0.4698 -0.2055 -0.3530
 2601SOL    HW119262   1.404   0.170   0.672 -0.1993 -1.3947  1.3532
 2601SOL    HW219263   1.538   0.180   0.722 -0.1604 -0.1455 -0.5545
 2602SOL     OW19264   2.830   2.757  10.184 -0.0989 -0.1495  0.3553
 2602SOL    HW119265   2.779   2.676  10.186  0.6900 -0.7376 -2.4744
 2602SOL    HW219266   2.763   2.824  10.180  0.3151  0.1291 -2.4784
 2603SOL     OW19267   3.991   4.675  11.006 -0.5016 -0.7117  0.1181
 2603SOL    HW119268   4.057   4.605  11.007  0.2236  0.0022  1.5119
 2603SOL    HW219269   3.922   4.623  10.966  0.0770 -1.0825 -0.4110
 2604SOL     OW19270   2.984   1.356  13.857  0.0699  0.2286  0.3318
 2604SOL    HW119271   3.017   1.345  13.946 -0.1644 -1.8768  0.1584
 2604SOL    HW219272   2.892   1.332  13.867 -0.0699 -0.2359 -1.9641
 2605SOL     OW19273   2.925   2.598   7.823  0.4125 -0.8152 -0.3131
 2605SOL    HW119274   2.972   2.620   7.904 -1.1799 -1.2486  0.7261
 2605SOL    HW219275   2.992   2.626   7.761  0.9118 -0.9558  0.1608
 2606SOL     OW19276   4.558   1.942  10.451 -0.0959  0.5336 -0.2097
 2606SOL    HW119277   4.614   2.017  10.428  0.7232 -0.8033 -2.5930
 2606SOL    HW219278   4.503   1.982  10.518  0.1379 -1.4449  1.1418
 2607SOL     OW19279   3.163   4.400  10.658  0.2783  1.2705  0.2895
 2607SOL    HW119280   3.197   4.433  10.575 -0.3946  0.0183 -0.4784
 2607SOL    HW219281   3.234   4.347  10.696 -1.9235 -2.2244 -0.5284
 2608SOL     OW19282   0.090   0.732  10.022 -0.0068  0.4090  0.1962
 2608SOL    HW119283   0.138   0.650  10.014  1.4037  1.3486 -0.9853
 2608SOL    HW219284   0.096   0.768  10.111  0.3202  1.0051 -0.0621
 2609SOL     OW19285   3.028   0.855   6.636  0.2358  0.1616 -0.3618
 2609SOL    HW119286   3.041   0.789   6.705 -0.0769 -0.4065 -0.8485
 2609SOL    HW219287   3.114   0.898   6.634 -0.0012  0.6203 -0.7471
 2610SOL     OW19288   2.962   2.041   7.753  0.1930 -0.0949  0.0244
 2610SOL    HW119289   2.997   2.090   7.828 -1.5589  0.2218  0.6529
 2610SOL    HW219290   3.022   2.065   7.683 -0.9873  2.4295 -0.1451
 2611SOL     OW19291   4.703   3.577   4.526  0.5596  0.0404  0.0518
 2611SOL    HW119292   4.628   3.582   4.585  0.6763 -1.6687  0.3264
 2611SOL    HW219293   4.675   3.508   4.466  3.0472  0.1722 -1.2858
 2612SOL     OW19294   2.312   1.005  10.367 -0.2282 -0.3323 -0.1599
 2612SOL    HW119295   2.386   1.065  10.377  0.2959 -1.2204  1.2909
 2612SOL    HW219296   2.286   1.012  10.459 -0.3748 -0.0825 -0.2178
 2613SOL     OW19297   3.665   3.704   2.284 -0.1526  0.3361  0.5577
 2613SOL    HW119298   3.702   3.662   2.362  1.9250  2.9493  0.9826
 2613SOL    HW219299   3.617   3.636   2.236  0.2755  1.1252 -0.9602
 2614SOL     OW19300   0.664   4.630   2.828 -0.0117 -0.9927  0.3924
 2614SOL    HW119301   0.703   4.660   2.746  0.4269 -1.2279  0.5131
 2614SOL    HW219302   0.616   4.708   2.855  2.2760  0.4044  0.4122
 2615SOL     OW19303   0.991   2.471   4.454  0.1782 -0.0494  0.3404
 2615SOL    HW119304   1.067   2.529   4.456  1.2982 -1.5788  2.0419
 2615SOL    HW219305   0.993   2.442   4.363 -1.7083 -0.6487  0.4906
 2616SOL     OW19306   1.555   2.399  17.457 -0.6076  0.1927 -0.0337
 2616SOL    HW119307   1.513   2.359  17.381  1.6509  1.6370 -2.0125
 2616SOL    HW219308   1.582   2.323  17.509  0.9632  0.6644 -0.1902
 2617SOL     OW19309   1.823   2.363   5.975  0.7482  0.3680  0.3910
 2617SOL    HW119310   1.736   2.401   5.988  0.4966  0.4403 -1.5137
 2617SOL    HW219311   1.870   2.446   5.984 -0.7733  1.0011  2.6975
 2618SOL     OW19312   3.416   2.229  13.288  0.1532  0.2906  0.4847
 2618SOL    HW119313   3.483   2.197  13.228  1.7220 -0.5997  2.7074
 2618SOL    HW219314   3.406   2.320  13.261 -0.0348 -0.0877 -0.7107
 2619SOL     OW19315   2.167   2.966   1.545 -0.0435  0.3712 -0.5845
 2619SOL    HW119316   2.163   3.040   1.606 -0.5299 -1.3730  1.4855
 2619SOL    HW219317   2.260   2.957   1.522  0.0670  0.9411 -0.3550
 2620SOL     OW19318   2.667   1.954   4.475  0.1074  0.3331 -0.2310
 2620SOL    HW119319   2.665   1.952   4.379  1.1232  2.3658 -0.2950
 2620SOL    HW219320   2.662   1.865   4.510  1.5841 -0.3154 -1.6795
 2621SOL     OW19321   4.517   2.298   1.395 -0.0220 -0.6856  0.8632
 2621SOL    HW119322   4.526   2.361   1.467 -2.6497 -0.1736  0.7759
 2621SOL    HW219323   4.435   2.336   1.363 -0.4302 -2.2007  0.1353
 2622SOL     OW19324   0.056   4.569  12.662  0.2444 -0.1514  0.1885
 2622SOL    HW119325   0.045   4.575  12.756  1.7412  2.4184  0.1899
 2622SOL    HW219326   4.697   4.609  12.633  0.4791  0.8304  0.8807
 2623SOL     OW19327   2.022   4.289   8.627  0.7912  0.2173 -0.3475
 2623SOL    HW119328   2.079   4.362   8.651 -0.3861  2.1115 -3.2884
 2623SOL    HW219329   1.935   4.310   8.661  0.5215 -3.1577  1.0075
 2624SOL     OW19330   4.038   1.115   9.362  0.5691  0.7684 -0.4355
 2624SOL    HW119331   4.055   1.026   9.332  0.0466  0.8172 -0.8811
 2624SOL    HW219332   3.952   1.136   9.325 -0.4376 -0.0221  1.5067
 2625SOL     OW19333   3.887   3.566  10.735  0.2323  0.5041 -0.2844
 2625SOL    HW119334   3.938   3.647  10.731 -2.4588  2.2381  0.7000
 2625SOL    HW219335   3.951   3.495  10.735 -0.4340 -0.0884  0.1602
 2626SOL     OW19336   0.147   1.868   9.289  0.1006 -0.9964 -0.6566
 2626SOL    HW119337   0.160   1.778   9.317  2.2971 -0.3778  0.3377
 2626SOL    HW219338   0.177   1.868   9.198 -0.1529  2.5313 -0.7430
 2627SOL     OW19339   4.353   1.160  11.143  0.2560 -0.2203  0.2309
 2627SOL    HW119340   4.288   1.191  11.079  0.7148  1.4846  0.5897
 2627SOL    HW219341   4.420   1.229  11.140 -0.6177  0.6094 -0.1438
 2628SOL     OW19342   1.890   2.905   8.964 -0.1630  0.0967 -0.6666
 2628SOL    HW119343   1.852   2.958   9.034  1.0378 -0.8358  0.6910
 2628SOL    HW219344   1.882   2.821   9.009 -0.3979 -0.1443 -1.1503
 2629SOL     OW19345   0.672   1.526   1.913 -0.2745  0.2152 -0.6328
 2629SOL    HW119346   0.577   1.513   1.913  0.1562 -2.9860  1.7159
 2629SOL    HW219347   0.679   1.554   1.822  0.3404  1.0865 -0.3166
 2630SOL     OW19348   1.406   3.078  15.207  0.5316  0.5388 -0.0523
 2630SOL    HW119349   1.345   3.030  15.263  0.1523  0.1836 -0.7571
 2630SOL    HW219350   1.357   3.083  15.124 -2.5676 -1.4349  1.6528
 2631SOL     OW19351   0.530   4.703   7.931  0.3538 -0.4365 -0.0488
 2631SOL    HW119352   0.573   4.624   7.964  2.8978  0.1952 -1.8689
 2631SOL    HW219353   0.575   4.706   7.847  3.7728  1.1507  1.8587
 2632SOL     OW19354   0.896   3.005   7.256  0.1144  0.3410  0.1208
 2632SOL    HW119355   0.822   2.957   7.218  0.9595 -1.9841  1.3772
 2632SOL    HW219356   0.888   2.992   7.351 -2.0555 -1.6387 -0.3132
 2633SOL     OW19357   1.621   3.749   6.157  0.3565  0.3055 -0.1402
 2633SOL    HW119358   1.590   3.729   6.069 -0.3376 -0.8453  0.3675
 2633SOL    HW219359   1.551   3.802   6.194 -0.6888 -1.1361 -0.0633
 2634SOL     OW19360   0.882   2.788   7.827  0.2515 -0.2623  0.8732
 2634SOL    HW119361   0.931   2.756   7.751  2.3732  0.7406  1.8365
 2634SOL    HW219362   0.799   2.747   7.801 -0.8475  1.1486  2.2122
 2635SOL     OW19363   0.621   3.571   2.520  0.2110  0.3002  0.3540
 2635SOL    HW119364   0.540   3.608   2.485 -0.4629 -0.8291  0.7434
 2635SOL    HW219365   0.593   3.481   2.536  1.8773  0.0213  1.6651
 2636SOL     OW19366   2.824   2.059   6.224 -0.1121  0.3556 -0.0542
 2636SOL    HW119367   2.898   2.083   6.168 -0.8968  1.2309 -0.7255
 2636SOL    HW219368   2.874   2.100   6.295  0.7786  0.6330 -0.8405
 2637SOL     OW19369   0.248   0.121   8.459 -0.5308  0.1210 -0.5830
 2637SOL    HW119370   0.297   0.197   8.428  2.6002 -0.8200  2.1226
 2637SOL    HW219371   0.229   0.156   8.546  1.4108  0.5065 -0.3259
 2638SOL     OW19372   0.352   3.176   8.197  0.8170 -0.0865 -0.5459
 2638SOL    HW119373   0.312   3.123   8.267 -0.0893  1.7295  0.2943
 2638SOL    HW219374   0.315   3.124   8.125 -0.6874  1.2764 -0.7526
 2639SOL     OW19375   2.964   2.310  12.730  0.4009  0.1848 -0.1478
 2639SOL    HW119376   2.873   2.291  12.706  1.1111 -1.6874 -1.3915
 2639SOL    HW219377   3.012   2.233  12.698 -2.5499 -0.9270 -1.9664
 2640SOL     OW19378   1.556   3.464   1.814 -0.0462  0.2774  0.0991
 2640SOL    HW119379   1.599   3.408   1.750 -1.0624 -0.1087 -0.2576
 2640SOL    HW219380   1.483   3.496   1.761 -0.1160  1.2669  0.7947
 2641SOL     OW19381   2.120   1.877   4.071  0.4184  0.3167  0.5779
 2641SOL    HW119382   2.100   1.931   3.995 -2.3637 -1.5246 -0.0005
 2641SOL    HW219383   2.213   1.895   4.086  0.8289 -0.5257 -0.9546
 2642SOL     OW19384   0.237   3.676   4.557  0.1399 -0.4019 -0.2043
 2642SOL    HW119385   0.227   3.693   4.651 -0.5381  2.7234 -0.8525
 2642SOL    HW219386   0.147   3.649   4.543  0.7561 -1.3190 -2.3326
 2643SOL     OW19387   1.230   3.366   8.141  0.1065  0.2040  0.3316
 2643SOL    HW119388   1.213   3.460   8.151  0.7870  0.5901 -2.0761
 2643SOL    HW219389   1.242   3.367   8.046 -1.2935  0.0695  0.1501
 2644SOL     OW19390   2.759   0.254  16.122  0.7575  0.0825 -0.3473
 2644SOL    HW119391   2.834   0.215  16.078 -0.7963 -1.0670 -2.0110
 2644SOL    HW219392   2.741   0.180  16.180  3.1076  0.7505  1.2011
 2645SOL     OW19393   2.353   4.282   0.771 -0.2451 -0.0515 -0.2355
 2645SOL    HW119394   2.424   4.331   0.813  0.1697  0.4908 -1.5876
 2645SOL    HW219395   2.361   4.196   0.812 -0.6735 -0.7952 -1.7119
 2646SOL     OW19396   0.821   3.091   1.872 -0.5012  0.2719  0.1453
 2646SOL    HW119397   0.841   3.161   1.935  1.7357  0.4151 -0.7457
 2646SOL    HW219398   0.741   3.120   1.828 -1.0918  1.4364  1.9503
 2647SOL     OW19399   1.401   0.823   4.133 -0.2958  0.7393  0.4276
 2647SOL    HW119400   1.472   0.881   4.106 -2.2258  2.2129 -1.4451
 2647SOL    HW219401   1.446   0.756   4.186  0.1529  0.2024 -0.6283
 2648SOL     OW19402   3.162   1.521   8.275 -0.0449  0.2674 -0.0889
 2648SOL    HW119403   3.090   1.463   8.253  2.0908 -2.0962 -0.9386
 2648SOL    HW219404   3.118   1.606   8.272  1.5211  1.0877 -0.0236
 2649SOL     OW19405   4.491   1.636   4.187 -0.0497  0.5336  0.3991
 2649SOL    HW119406   4.575   1.680   4.204 -0.1610  0.6361  0.6895
 2649SOL    HW219407   4.512   1.551   4.149 -1.5081  1.3422 -2.1297
 2650SOL     OW19408   2.874   0.861  14.635  0.1730 -0.2610 -0.5791
 2650SOL    HW119409   2.820   0.839  14.711 -0.6424 -1.8484 -1.6171
 2650SOL    HW219410   2.964   0.842  14.663  1.1650  0.3364 -3.3726
 2651SOL     OW19411   4.586   1.067   2.442 -0.5821 -0.2869 -0.3306
 2651SOL    HW119412   4.494   1.057   2.419 -0.4655 -0.8894 -0.5332
 2651SOL    HW219413   4.591   1.162   2.436 -3.0524 -0.2564 -2.1020
 2652SOL     OW19414   4.713   0.103  14.418  0.4396 -0.5421 -0.2031
 2652SOL    HW119415   0.043   0.182  14.421  1.8376 -1.3509 -3.1577
 2652SOL    HW219416   0.022   0.063  14.337 -1.2027 -2.5646  0.1199
 2653SOL     OW19417   1.743   1.534   2.921  0.0584  0.3840  0.4515
 2653SOL    HW119418   1.756   1.475   2.995 -0.0504 -0.7015 -0.4072
 2653SOL    HW219419   1.831   1.572   2.916  0.9603 -1.9811 -1.5575
 2654SOL     OW19420   4.506   3.349   1.576 -0.2410 -0.1228 -0.0621
 2654SOL    HW119421   4.471   3.264   1.603  0.0034 -0.1619  0.1283
 2654SOL    HW219422   4.524   3.392   1.659 -0.9856 -0.5721  0.3358
 2655SOL     OW19423   3.138   4.058   5.298 -0.0268  0.5005 -1.0290
 2655SOL    HW119424   3.066   3.997   5.283  0.1080  0.6367 -2.2236
 2655SOL    HW219425   3.091   4.125   5.346 -0.4780  0.6865 -1.7405
 2656SOL     OW19426   3.175   3.115   7.330 -0.0966  0.2245 -0.6188
 2656SOL    HW119427   3.098   3.148   7.376 -0.5808 -0.8538 -0.6494
 2656SOL    HW219428   3.137   3.060   7.262 -2.1230 -0.8858  1.4053
 2657SOL     OW19429   1.785   0.835   5.936  0.2092  0.3111  0.4909
 2657SOL    HW119430   1.735   0.758   5.910 -0.2561  1.6192 -2.5743
 2657SOL    HW219431   1.852   0.797   5.992  1.9062  0.5720 -1.3518
 2658SOL     OW19432   4.396   2.800  16.615  0.2954  0.2929  0.3386
 2658SOL    HW119433   4.425   2.729  16.558 -0.1473  1.9290 -1.9530
 2658SOL    HW219434   4.343   2.852  16.555 -0.1397 -0.6882 -0.1138
 2659SOL     OW19435   4.099   4.054   6.955 -0.1122  0.3414  0.2347
 2659SOL    HW119436   4.078   4.110   7.031  1.0977  1.0110  0.0655
 2659SOL    HW219437   4.108   3.967   6.994 -0.2849 -0.0701 -0.6513
 2660SOL     OW19438   4.413   3.753   6.800 -0.0160 -0.0824 -0.4310
 2660SOL    HW119439   4.380   3.818   6.738 -0.2660  0.0864 -0.1227
 2660SOL    HW219440   4.361   3.673   6.794  0.7427 -0.5827 -0.3091
 2661SOL     OW19441   0.063   0.592   2.324  0.2159 -0.0886 -0.1638
 2661SOL    HW119442   0.044   0.659   2.390 -1.3579  0.4074 -1.1187
 2661SOL    HW219443   0.131   0.633   2.271 -0.0237 -2.0121 -1.9643
 2662SOL     OW19444   4.286   0.037   3.066 -0.0733  0.7160 -0.6481
 2662SOL    HW119445   4.346   0.078   3.003  1.4654  0.4502  0.6437
 2662SOL    HW219446   4.200   0.062   3.031  0.2238  2.3342 -0.2136
 2663SOL     OW19447   2.336   4.400  11.192  0.5458 -0.3479 -0.3060
 2663SOL    HW119448   2.275   4.418  11.120  1.3023  1.3235 -0.5364
 2663SOL    HW219449   2.384   4.324  11.160  0.9892  0.4388 -1.4897
 2664SOL     OW19450   4.552   3.202   8.369  0.0441 -0.5669 -0.1719
 2664SOL    HW119451   4.490   3.260   8.412 -0.4282 -2.4738  1.7227
 2664SOL    HW219452   4.622   3.206   8.435  0.5911  1.5735 -0.8830
 2665SOL     OW19453   3.959   2.550  10.903  0.6587 -0.0100 -0.0684
 2665SOL    HW119454   3.950   2.644  10.915 -0.8978 -0.6544  4.2073
 2665SOL    HW219455   4.052   2.540  10.924  0.2316 -0.0495  1.8141
 2666SOL     OW19456   3.198   4.306  16.413 -0.1147 -0.2071  0.3883
 2666SOL    HW119457   3.249   4.347  16.343  0.2175  1.8506  1.8141
 2666SOL    HW219458   3.178   4.227  16.363 -0.9094  0.1071  0.2169
 2667SOL     OW19459   0.002   3.073   1.585  0.1073  0.0499 -0.3063
 2667SOL    HW119460   0.094   3.097   1.574 -0.5590  2.9148  0.4978
 2667SOL    HW219461   4.685   3.156   1.562  0.9161  1.4590  3.3317
 2668SOL     OW19462   1.819   2.688   7.872  0.7379 -0.3495 -0.3763
 2668SOL    HW119463   1.726   2.689   7.896  0.8128 -0.9737 -0.0545
 2668SOL    HW219464   1.840   2.780   7.887 -0.3919  0.2671 -2.7159
 2669SOL     OW19465   2.444   3.580   4.760  0.2679  0.4721  0.3782
 2669SOL    HW119466   2.452   3.644   4.690 -1.9434 -0.5008 -0.7554
 2669SOL    HW219467   2.357   3.547   4.738  1.1651 -1.1224 -0.6931
 2670SOL     OW19468   1.828   3.917   4.033 -0.0493 -0.6150 -0.1474
 2670SOL    HW119469   1.753   3.916   4.093 -1.7290  2.2320 -2.1933
 2670SOL    HW219470   1.867   3.830   4.038 -2.9179 -1.6326  3.8953
 2671SOL     OW19471   2.115   1.099   3.563 -0.0954 -0.6303  0.0434
 2671SOL    HW119472   2.136   1.021   3.512  0.6041 -1.6478  1.9075
 2671SOL    HW219473   2.127   1.171   3.501  1.8183 -0.5069  0.5643
 2672SOL     OW19474   4.440   4.538   0.283 -0.5065 -0.1042  0.2457
 2672SOL    HW119475   4.368   4.547   0.345 -1.2393  1.9321 -0.8969
 2672SOL    HW219476   4.497   4.495   0.347  0.3942  1.9718  0.8408
 2673SOL     OW19477   3.384   2.841   1.998  0.3874  0.1271 -0.0897
 2673SOL    HW119478   3.433   2.819   1.919  2.0593 -0.2135  1.0404
 2673SOL    HW219479   3.357   2.932   1.988  0.2588  0.1116  0.1192
 2674SOL     OW19480   1.059   4.407   4.939 -0.0681  0.2323 -0.4311
 2674SOL    HW119481   1.082   4.442   5.025  0.4483  1.0277 -0.9089
 2674SOL    HW219482   1.084   4.317   4.962 -0.4122 -0.1686 -1.6248
 2675SOL     OW19483   3.597   1.090   0.798 -0.4991  0.0610  0.3992
 2675SOL    HW119484   3.574   0.999   0.778  0.4607 -0.1828  0.4123
 2675SOL    HW219485   3.626   1.089   0.889  1.6683 -1.4179 -0.3098
 2676SOL     OW19486   3.130   3.392   7.735 -0.1155  0.4853 -0.0510
 2676SOL    HW119487   3.096   3.307   7.764 -0.3103  0.9805  1.1799
 2676SOL    HW219488   3.158   3.422   7.821  1.5857  0.9143 -0.7548
 2677SOL     OW19489   1.514   0.333   0.048 -0.4234 -0.3820  0.6757
 2677SOL    HW119490   1.575   0.405   0.032  0.5640 -1.3758 -0.0253
 2677SOL    HW219491   1.426   0.370   0.040  0.3174  1.6422  1.7494
 2678SOL     OW19492   2.433   3.962  13.606 -0.5582  0.0427  0.0203
 2678SOL    HW119493   2.441   4.014  13.527 -1.3523  0.0509 -0.0507
 2678SOL    HW219494   2.488   4.010  13.669 -0.9395 -0.3950  0.6895
 2679SOL     OW19495   1.551   0.330   4.379  0.2041  0.0138 -0.0224
 2679SOL    HW119496   1.465   0.368   4.364 -0.6172 -1.6572  0.5466
 2679SOL    HW219497   1.578   0.312   4.289 -2.4572 -0.4750 -0.7182
 2680SOL     OW19498   0.422   4.064  12.166 -0.4606 -0.1380 -0.1451
 2680SOL    HW119499   0.376   4.144  12.191 -0.9096 -0.4958  0.1949
 2680SOL    HW219500   0.360   4.019  12.109 -1.0801 -1.9248  1.9036
 2681SOL     OW19501   3.911   2.788   8.395 -0.1367 -0.3916  0.1226
 2681SOL    HW119502   3.910   2.750   8.307  1.8740 -0.0635 -0.0502
 2681SOL    HW219503   4.003   2.813   8.400 -0.4914  1.2323 -1.3347
 2682SOL     OW19504   2.532   3.020   5.546 -0.1343 -0.0108 -0.6779
 2682SOL    HW119505   2.495   3.107   5.531  0.7418  0.0523 -2.5318
 2682SOL    HW219506   2.625   3.035   5.528  0.5548 -3.5165  0.0024
 2683SOL     OW19507   0.387   1.308   7.438  0.2362  0.2496  0.4831
 2683SOL    HW119508   0.301   1.337   7.407  0.6849  1.8355  0.7404
 2683SOL    HW219509   0.375   1.269   7.524 -1.1139  2.1509  1.1619
 2684SOL     OW19510   0.904   4.326   2.726 -0.1473 -0.4830 -0.2413
 2684SOL    HW119511   0.928   4.419   2.730 -1.3725 -0.3587  4.0734
 2684SOL    HW219512   0.821   4.321   2.678 -1.3042 -0.9726  1.8164
 2685SOL     OW19513   4.719   4.707   5.954 -0.7581 -0.0166  0.0274
 2685SOL    HW119514   4.633   4.665   5.950 -0.8283  0.2802 -1.3445
 2685SOL    HW219515   0.009   0.022   5.867 -0.6068  0.3731  0.2205
 2686SOL     OW19516   2.796   1.364  14.672 -0.4625  0.3516 -0.2440
 2686SOL    HW119517   2.840   1.357  14.757  0.6755 -0.4395 -0.8895
 2686SOL    HW219518   2.825   1.279  14.637  1.9284 -0.3990  3.5125
 2687SOL     OW19519   2.414   4.647  16.895  0.3093  0.1824 -0.3055
 2687SOL    HW119520   2.333   4.671  16.851  0.0980 -1.9504 -1.0930
 2687SOL    HW219521   2.394   4.655  16.988  0.4213 -2.1496 -0.0759
 2688SOL     OW19522   3.845   2.981   7.273 -0.5034  0.4749 -0.4361
 2688SOL    HW119523   3.825   3.002   7.365 -1.4939  0.2383 -0.5945
 2688SOL    HW219524   3.929   3.025   7.268 -0.0588 -0.1690  1.1754
 2689SOL     OW19525   0.557   3.464  14.201 -0.2261 -0.4213 -0.3708
 2689SOL    HW119526   0.463   3.476  14.193 -0.2287 -1.8365 -2.3059
 2689SOL    HW219527   0.579   3.428  14.115 -0.5390  0.4392 -0.8098
 2690SOL     OW19528   0.426   3.588   4.384  0.1314  0.2436  0.1516
 2690SOL    HW119529   0.338   3.625   4.396 -0.5573 -0.9733 -1.1255
 2690SOL    HW219530   0.457   3.562   4.471  0.4052  2.3124  0.6802
 2691SOL     OW19531   0.085   2.148   3.764 -0.2498 -0.4722 -0.5095
 2691SOL    HW119532   0.080   2.115   3.674 -0.2949 -0.5191 -0.4897
 2691SOL    HW219533   0.113   2.235   3.736 -1.8058  0.2540  0.2667
 2692SOL     OW19534   1.111   1.740   4.088 -0.8042  0.2234  0.0611
 2692SOL    HW119535   1.128   1.651   4.121  2.6466 -0.0256 -2.4384
 2692SOL    HW219536   1.192   1.759   4.040 -0.5896 -0.2671  0.2287
 2693SOL     OW19537   1.251   0.255   8.018 -0.2141 -0.0044  0.2879
 2693SOL    HW119538   1.227   0.242   7.927 -3.5331 -0.6802  1.2691
 2693SOL    HW219539   1.198   0.330   8.046  1.4606  1.0802  0.6198
 2694SOL     OW19540   2.456   0.859   2.968  0.2771  0.6406  0.2943
 2694SOL    HW119541   2.391   0.929   2.966  0.4220  0.7593 -0.1031
 2694SOL    HW219542   2.535   0.912   2.979  1.0295 -1.1607  3.9358
 2695SOL     OW19543   4.495   4.129   2.201 -0.1133  0.5443 -0.3420
 2695SOL    HW119544   4.495   4.081   2.119 -0.5793 -1.8392  1.0573
 2695SOL    HW219545   4.437   4.202   2.181  0.3057  1.0617  0.3125
 2696SOL     OW19546   3.153   2.504   5.859  0.3453  0.2323 -0.1405
 2696SOL    HW119547   3.230   2.495   5.803 -0.0269 -0.2758 -0.5656
 2696SOL    HW219548   3.173   2.444   5.931  0.6019  0.7865  0.2572
 2697SOL     OW19549   1.461   1.658  11.405  0.6185 -0.1338 -0.2974
 2697SOL    HW119550   1.520   1.733  11.405  0.3813  0.0490  2.1716
 2697SOL    HW219551   1.411   1.672  11.486  0.5334  0.6764 -0.4915
 2698SOL     OW19552   4.024   2.066  17.693  0.1675 -0.1151 -0.3437
 2698SOL    HW119553   4.097   2.111   0.042  0.1781  0.7690 -1.2626
 2698SOL    HW219554   4.032   2.120  17.614 -0.0311 -0.4702 -0.6056
 2699SOL     OW19555   4.553   1.359   9.745 -0.8029  0.4457  0.3277
 2699SOL    HW119556   4.570   1.448   9.776 -2.0201  0.9061 -0.3571
 2699SOL    HW219557   4.605   1.312   9.811 -0.5083  1.5455  0.8770
 2700SOL     OW19558   3.735   2.178   4.378 -0.3634 -0.8164  0.1180
 2700SOL    HW119559   3.795   2.103   4.378 -0.4291 -0.8774  2.7306
 2700SOL    HW219560   3.728   2.194   4.284 -0.2822 -2.2765 -0.1352
 2701SOL     OW19561   1.462   4.403   6.234 -0.3262  0.4826 -0.3949
 2701SOL    HW119562   1.526   4.446   6.291  0.7626 -0.7868 -0.6675
 2701SOL    HW219563   1.374   4.408   6.272 -0.0819  0.0980  0.2149
 2702SOL     OW19564   3.178   2.666   2.363 -0.3848  0.1699  0.3409
 2702SOL    HW119565   3.134   2.738   2.409 -2.0481 -0.3315 -0.4625
 2702SOL    HW219566   3.246   2.637   2.423 -3.0962 -2.4363  2.0915
 2703SOL     OW19567   4.671   4.711  13.370  0.0937 -0.1200  0.1169
 2703SOL    HW119568   0.004   4.697  13.446 -2.1263  0.1915  1.8234
 2703SOL    HW219569   0.012   0.029  13.313  1.2317 -0.1903  1.3484
 2704SOL     OW19570   3.029   4.399   0.428  0.5516 -0.1189  0.0302
 2704SOL    HW119571   3.075   4.393   0.345  2.7404  1.3832  1.1279
 2704SOL    HW219572   2.941   4.372   0.402  0.2679  0.2100  0.6589
 2705SOL     OW19573   2.747   2.452  13.561  0.1285  0.0265  0.4837
 2705SOL    HW119574   2.831   2.451  13.515  1.0342 -2.2205  2.1486
 2705SOL    HW219575   2.707   2.371  13.528  1.6892 -1.4824  2.2307
 2706SOL     OW19576   1.345   2.654   2.923 -0.0276  0.2754 -0.3596
 2706SOL    HW119577   1.416   2.596   2.952  0.1905  0.0039 -1.4344
 2706SOL    HW219578   1.300   2.592   2.866 -0.3780  1.5527 -1.4639
 2707SOL     OW19579   2.500   4.484   3.312 -0.2362 -0.2335  0.0248
 2707SOL    HW119580   2.555   4.413   3.346 -1.1219 -1.4514 -1.0640
 2707SOL    HW219581   2.522   4.552   3.376  1.4151  0.4898 -1.2949
 2708SOL     OW19582   4.367   4.362   8.547  0.1363  0.1130  0.0624
 2708SOL    HW119583   4.425   4.324   8.613  0.0097 -0.1396  0.0273
 2708SOL    HW219584   4.414   4.344   8.466  1.4269 -0.1178  0.8652
 2709SOL     OW19585   4.388   3.800  15.833 -0.5923 -0.3498  0.1904
 2709SOL    HW119586   4.468   3.809  15.884 -0.8173  0.4721  0.3986
 2709SOL    HW219587   4.404   3.861  15.761  1.6303 -0.3452  0.6933
 2710SOL     OW19588   0.333   2.514   6.990  0.7785  0.6235 -0.2871
 2710SOL    HW119589   0.268   2.494   6.923  0.8812  0.4114 -0.3214
 2710SOL    HW219590   0.280   2.524   7.069  0.2052 -0.3846 -0.5575
 2711SOL     OW19591   4.171   2.105   6.786  0.0552 -0.2347  0.3923
 2711SOL    HW119592   4.179   2.186   6.734 -3.8930 -0.8563 -1.1425
 2711SOL    HW219593   4.252   2.116   6.836 -1.7488  1.1355  2.9900
 2712SOL     OW19594   3.766   4.451   4.571 -0.4484  0.2622 -0.1426
 2712SOL    HW119595   3.745   4.514   4.640  1.4929 -0.3381  0.9625
 2712SOL    HW219596   3.861   4.452   4.576 -0.5871  1.1128  2.1935
 2713SOL     OW19597   4.291   2.597   5.536  0.0139 -0.2177 -0.4139
 2713SOL    HW119598   4.352   2.670   5.526  3.1976 -2.6255  1.4665
 2713SOL    HW219599   4.273   2.579   5.444 -1.0412 -0.1422 -0.2227
 2714SOL     OW19600   0.147   0.258   7.822  0.0876 -0.0415 -0.7734
 2714SOL    HW119601   0.103   0.191   7.875 -0.2104 -0.5581 -1.6609
 2714SOL    HW219602   0.169   0.192   7.756  1.6959  0.5867 -0.8749
 2715SOL     OW19603   1.807   3.409   4.373  0.2721 -0.0662 -0.0660
 2715SOL    HW119604   1.896   3.409   4.408 -0.3759  0.0213  1.5708
 2715SOL    HW219605   1.807   3.490   4.323 -0.2794 -0.0819 -0.0914
 2716SOL     OW19606   0.926   0.501  12.069 -0.7071  0.2422  0.4472
 2716SOL    HW119607   1.017   0.484  12.093 -0.5945 -0.0399 -0.1974
 2716SOL    HW219608   0.901   0.409  12.076  1.4719 -0.1928  2.6533
 2717SOL     OW19609   2.274   4.274   5.949 -0.1014  0.1705  0.1311
 2717SOL    HW119610   2.285   4.217   5.874 -0.3538 -1.3534  1.2655
 2717SOL    HW219611   2.190   4.315   5.927 -0.4025 -1.8259 -2.3259
 2718SOL     OW19612   3.717   2.664  13.704  0.3041 -0.0266 -0.8753
 2718SOL    HW119613   3.775   2.680  13.629  0.2399 -3.1401 -1.6311
 2718SOL    HW219614   3.638   2.640  13.654  0.1266  1.9745 -1.5326
 2719SOL     OW19615   1.931   1.491   7.312  0.0426  0.8454 -0.3974
 2719SOL    HW119616   1.965   1.402   7.319 -1.3163  0.3926  0.3928
 2719SOL    HW219617   2.006   1.540   7.277  0.0903  0.2786 -1.0833
 2720SOL     OW19618   4.719   1.640   4.322 -0.6424  0.7551  0.0902
 2720SOL    HW119619   0.063   1.660   4.257  0.4182 -0.1134  0.9153
 2720SOL    HW219620   0.004   1.713   4.382  0.2090  1.5924 -1.0444
 2721SOL     OW19621   2.018   3.619   2.650 -0.4475  0.3537  0.3274
 2721SOL    HW119622   1.982   3.682   2.712 -1.2771 -1.5449  1.7607
 2721SOL    HW219623   1.948   3.620   2.585  0.1952 -0.5526 -0.3824
 2722SOL     OW19624   0.458   0.292  13.624  0.1500  0.0095  0.3805
 2722SOL    HW119625   0.449   0.263  13.715 -1.5449  1.6983  0.7584
 2722SOL    HW219626   0.551   0.316  13.625  0.0411  0.3419  2.1047
 2723SOL     OW19627   4.467   0.759   4.085 -0.3956 -0.6264 -0.0944
 2723SOL    HW119628   4.435   0.832   4.033  0.2750 -0.2416  0.0374
 2723SOL    HW219629   4.550   0.798   4.114 -2.2533  3.0797  0.2120
 2724SOL     OW19630   0.116   4.007   1.350  0.3958  0.0215  0.1002
 2724SOL    HW119631   0.160   4.090   1.332 -0.5405  0.5641  0.3229
 2724SOL    HW219632   0.186   3.969   1.405  0.3735  1.4105  1.0791
 2725SOL     OW19633   2.315   3.504   3.942 -0.5368  0.2685 -0.9398
 2725SOL    HW119634   2.233   3.534   3.904  0.5968  1.7619 -2.1805
 2725SOL    HW219635   2.379   3.557   3.895 -0.2433  1.6978  1.0804
 2726SOL     OW19636   1.631   0.243  14.532  0.0430 -0.1924  0.2151
 2726SOL    HW119637   1.638   0.335  14.558 -0.9622  0.1649 -0.7779
 2726SOL    HW219638   1.563   0.214  14.593 -1.4691  0.6907 -1.0581
 2727SOL     OW19639   0.169   4.576   0.032  0.6785 -0.3104  0.0120
 2727SOL    HW119640   0.096   4.527  17.690  1.9452 -1.3535 -1.0748
 2727SOL    HW219641   0.160   4.547   0.123  2.7262  0.4604  0.4435
 2728SOL     OW19642   0.872   2.350   8.456  0.0154  0.5018 -0.7699
 2728SOL    HW119643   0.878   2.365   8.550 -0.1369  2.2385 -1.0340
 2728SOL    HW219644   0.886   2.256   8.458  2.4437  0.9048  0.3132
 2729SOL     OW19645   1.869   4.389   2.214 -0.4787 -0.3202 -0.0994
 2729SOL    HW119646   1.788   4.439   2.205 -0.2676 -0.0169 -0.3109
 2729SOL    HW219647   1.885   4.354   2.126 -1.3807  0.2552 -0.4894
 2730SOL     OW19648   0.899   4.413   4.250 -0.2216  0.3873 -0.0887
 2730SOL    HW119649   0.991   4.412   4.274 -0.5065  0.5022  1.0318
 2730SOL    HW219650   0.897   4.396   4.156 -0.6483 -0.5415  0.0809
 2731SOL     OW19651   4.375   2.895   5.546 -0.2024 -0.3297 -0.4621
 2731SOL    HW119652   4.287   2.926   5.525 -0.6488  0.3506  2.3586
 2731SOL    HW219653   4.421   2.961   5.598  0.6745 -0.9557 -0.4374
 2732SOL     OW19654   0.340   3.370   8.001  0.7516  0.3405  0.0633
 2732SOL    HW119655   0.343   3.445   8.061  2.6554  0.3632 -0.0450
 2732SOL    HW219656   0.326   3.300   8.065 -0.7737  0.7456  0.1691
 2733SOL     OW19657   0.989   4.073   6.227 -0.1202 -0.5503 -0.1693
 2733SOL    HW119658   0.934   4.142   6.189 -1.7538 -2.3925 -1.1748
 2733SOL    HW219659   0.963   4.088   6.318 -0.8734  0.4234 -0.5432
 2734SOL     OW19660   2.419   1.356   3.349 -0.0076 -0.0833 -0.3293
 2734SOL    HW119661   2.356   1.392   3.286  1.9829  2.1910 -0.9901
 2734SOL    HW219662   2.507   1.380   3.319  0.6163 -1.2627  0.5539
 2735SOL     OW19663   4.443   1.733   5.842  0.1502 -0.3201  0.1494
 2735SOL    HW119664   4.398   1.811   5.808 -0.1870 -0.9001 -0.7132
 2735SOL    HW219665   4.441   1.748   5.937  1.4477  1.1864 -0.0663
 2736SOL     OW19666   0.583   0.425   9.791  0.3519  0.0366 -0.7903
 2736SOL    HW119667   0.562   0.386   9.876 -0.1252  2.2868  0.1328
 2736SOL    HW219668   0.539   0.510   9.797  2.3837  0.7672  3.0863
 2737SOL     OW19669   4.149   4.406   0.449  0.2033 -0.1405 -0.0623
 2737SOL    HW119670   4.063   4.412   0.491 -1.1663 -1.2966 -2.6631
 2737SOL    HW219671   4.149   4.310   0.450 -1.5542 -0.1676 -2.3903
 2738SOL     OW19672   3.384   1.613  12.939  0.2245  0.1735 -0.0058
 2738SOL    HW119673   3.420   1.702  12.941 -0.2276  0.3893 -1.8041
 2738SOL    HW219674   3.467   1.566  12.945  0.4867  0.7738  1.1044
 2739SOL     OW19675   0.280   0.323   2.765  0.1263  0.7497 -0.0993
 2739SOL    HW119676   0.266   0.351   2.674  0.0618  1.3988  0.1094
 2739SOL    HW219677   0.323   0.238   2.756 -2.0097 -0.4818  1.3501
 2740SOL     OW19678   0.298   0.897   9.456  0.0730  0.1812  0.3090
 2740SOL    HW119679   0.315   0.855   9.541 -0.7589  0.5885  0.6704
 2740SOL    HW219680   0.221   0.851   9.423  0.2778  0.2332 -0.2387
 2741SOL     OW19681   1.331   3.820   1.684  0.4971 -0.5176  0.0890
 2741SOL    HW119682   1.287   3.879   1.622  1.5450 -0.5762 -0.7066
 2741SOL    HW219683   1.394   3.875   1.730  1.3012 -0.7776 -0.7065
 2742SOL     OW19684   0.436   4.654   6.016 -0.3795  0.6426 -0.2715
 2742SOL    HW119685   0.405   4.692   5.934  0.9095 -0.6366 -1.3331
 2742SOL    HW219686   0.383   4.713   6.070 -1.5234 -2.0635  1.6200
 2743SOL     OW19687   4.582   0.141  13.004  0.2408 -0.0551  0.4625
 2743SOL    HW119688   4.566   0.047  13.017  2.7672 -0.6421 -0.6517
 2743SOL    HW219689   4.558   0.156  13.096  3.8422 -0.9526  1.5817
 2744SOL     OW19690   4.075   3.173  13.390  0.2562  0.2217  0.3407
 2744SOL    HW119691   4.057   3.147  13.480  0.5518 -0.6326  0.1519
 2744SOL    HW219692   4.164   3.206  13.403  1.4626 -2.5769 -0.7113
 2745SOL     OW19693   3.526   3.024  11.371  0.1421 -0.1174  0.2831
 2745SOL    HW119694   3.577   3.105  11.380  1.1834 -0.6502 -0.7048
 2745SOL    HW219695   3.449   3.039  11.425  1.0297  1.7334  1.0230
 2746SOL     OW19696   0.304   4.411   9.633 -0.0864  0.1498 -0.5631
 2746SOL    HW119697   0.391   4.451   9.626 -0.4034  1.2814  2.2961
 2746SOL    HW219698   0.261   4.452   9.558 -1.8002 -0.7712 -0.0942
 2747SOL     OW19699   3.606   2.014   3.710  0.5891  1.0700 -0.3041
 2747SOL    HW119700   3.668   1.941   3.700 -1.5339 -0.9678  1.5022
 2747SOL    HW219701   3.659   2.089   3.683 -0.7544  1.1223 -2.7255
 2748SOL     OW19702   1.890   0.431   5.618 -0.1391  0.0815 -0.2128
 2748SOL    HW119703   1.919   0.414   5.528 -1.4579  0.2981 -0.6841
 2748SOL    HW219704   1.961   0.399   5.673  0.9124 -1.9736 -2.7332
 2749SOL     OW19705   1.628   1.963   4.023  0.1209 -0.3666 -0.4881
 2749SOL    HW119706   1.685   1.890   3.998 -3.5572 -2.9913 -1.1583
 2749SOL    HW219707   1.541   1.924   4.033  0.1195 -0.4719 -0.8960
 2750SOL     OW19708   3.970   3.638  13.884  0.2727 -0.0884  0.3142
 2750SOL    HW119709   4.059   3.604  13.893  0.1815 -0.5587 -0.6238
 2750SOL    HW219710   3.930   3.564  13.839 -1.7841  2.2675 -1.6708
 2751SOL     OW19711   4.182   1.862   5.804  0.6817 -0.0273 -0.6901
 2751SOL    HW119712   4.181   1.789   5.742 -1.6025 -0.6306  0.0397
 2751SOL    HW219713   4.200   1.931   5.740 -0.0287  2.0412  1.3274
 2752SOL     OW19714   2.361   1.371   3.607 -0.1024  0.2276  0.2836
 2752SOL    HW119715   2.389   1.362   3.516  0.0243  0.9800  0.2412
 2752SOL    HW219716   2.272   1.347   3.584  0.4129 -1.3294 -0.0738
 2753SOL     OW19717   3.412   4.006   8.378  0.4142  0.0943 -0.0833
 2753SOL    HW119718   3.467   4.080   8.403 -0.0355  1.4073 -2.8986
 2753SOL    HW219719   3.373   4.038   8.296  1.1549  2.1377  0.3774
 2754SOL     OW19720   0.109   2.667  13.935  0.0238  0.7603  0.3373
 2754SOL    HW119721   0.203   2.668  13.953  0.4005 -1.7422 -1.4843
 2754SOL    HW219722   0.108   2.621  13.851  0.7444 -0.3121  0.9141
 2755SOL     OW19723   2.028   4.594   5.261 -0.2365  0.5450 -0.2064
 2755SOL    HW119724   1.968   4.633   5.324 -1.1130 -3.3006  1.3258
 2755SOL    HW219725   1.985   4.512   5.238 -0.1637  0.0349  1.4741
 2756SOL     OW19726   4.042   0.903   1.592  0.3115 -0.1381 -0.0248
 2756SOL    HW119727   4.105   0.832   1.589 -0.1553 -0.5779  0.5028
 2756SOL    HW219728   4.047   0.932   1.683  0.2081  0.6493 -0.2684
 2757SOL     OW19729   0.556   4.292   4.358  0.6703 -0.6592  0.0996
 2757SOL    HW119730   0.520   4.238   4.288 -0.9072 -0.0861  0.4483
 2757SOL    HW219731   0.625   4.338   4.311 -1.0310 -0.3924 -2.1216
 2758SOL     OW19732   4.198   2.182   7.101  0.6438  0.0911 -0.0811
 2758SOL    HW119733   4.216   2.102   7.151 -1.1337 -1.0968 -1.3397
 2758SOL    HW219734   4.261   2.170   7.030 -0.6068  2.2423 -1.5464
 2759SOL     OW19735   0.232   0.367   5.150  0.5233  0.0740  0.2272
 2759SOL    HW119736   0.271   0.291   5.106  0.0996  0.3263 -0.6002
 2759SOL    HW219737   0.201   0.420   5.076 -1.9141  2.4311  2.9152
 2760SOL     OW19738   2.971   1.892   7.208 -0.1964 -0.2081 -0.0225
 2760SOL    HW119739   2.964   1.845   7.125  1.2720 -0.5009  0.0215
 2760SOL    HW219740   2.886   1.937   7.213  0.5487  1.2503 -0.3507
 2761SOL     OW19741   1.622   4.342   2.764  0.2243 -0.2479  0.1545
 2761SOL    HW119742   1.635   4.405   2.693 -1.4430  1.6534  1.4890
 2761SOL    HW219743   1.561   4.285   2.718 -1.8294  1.2007  1.0435
 2762SOL     OW19744   0.997   3.584   5.188  0.0942 -0.0808 -0.0319
 2762SOL    HW119745   0.949   3.510   5.149  2.4795 -1.1247 -0.9550
 2762SOL    HW219746   0.977   3.643   5.116  0.2894  0.1735  0.1244
 2763SOL     OW19747   1.455   2.341  10.823 -0.7393  0.0435  0.1549
 2763SOL    HW119748   1.461   2.265  10.881  0.5503  1.3057  1.7060
 2763SOL    HW219749   1.384   2.385  10.869 -0.7697  0.2910 -0.1283
 2764SOL     OW19750   1.923   2.857  11.358  0.4356  0.1148  0.3228
 2764SOL    HW119751   1.999   2.872  11.414  1.0987  0.0736 -0.5649
 2764SOL    HW219752   1.864   2.820  11.423 -1.2797  0.8537 -0.8081
 2765SOL     OW19753   3.051   4.165   2.964  0.4042  0.2616 -0.1116
 2765SOL    HW119754   3.071   4.111   2.887  0.3288  1.5614 -1.0388
 2765SOL    HW219755   3.054   4.251   2.924  0.8930  0.1595 -0.2904
 2766SOL     OW19756   0.551   1.870   5.649  0.4310 -0.2912 -0.0493
 2766SOL    HW119757   0.591   1.805   5.591 -1.9473 -2.4973  0.8284
 2766SOL    HW219758   0.624   1.860   5.710 -0.0638  1.1619  0.7770
 2767SOL     OW19759   0.200   0.123   5.404 -0.0239 -0.3123 -0.3690
 2767SOL    HW119760   0.276   0.064   5.408 -0.2006 -0.4523  0.9144
 2767SOL    HW219761   0.162   0.097   5.320 -1.3441 -2.2697  0.8366
 2768SOL     OW19762   2.928   3.642   4.777 -0.1706  0.4515  0.3001
 2768SOL    HW119763   2.910   3.699   4.853 -1.0966 -2.7877  2.5159
 2768SOL    HW219764   2.891   3.691   4.704 -1.3792 -2.9973 -1.3712
 2769SOL     OW19765   3.497   4.429   8.514  0.0114  0.4716  0.6605
 2769SOL    HW119766   3.546   4.379   8.580 -0.8745 -0.1142  0.8712
 2769SOL    HW219767   3.526   4.518   8.531  0.2281  0.3928  0.7049
 2770SOL     OW19768   1.277   1.549   8.161  0.5255  0.1748  0.0122
 2770SOL    HW119769   1.279   1.536   8.256 -0.0174  1.7066  0.2369
 2770SOL    HW219770   1.185   1.539   8.137  0.2550 -2.3800  2.1349
 2771SOL     OW19771   2.957   3.546   7.030 -0.2629 -0.4041  0.5489
 2771SOL    HW119772   2.973   3.624   7.083  2.2917 -0.0545 -0.7668
 2771SOL    HW219773   2.970   3.480   7.098  2.0591  1.0904  1.5732
 2772SOL     OW19774   3.749   1.824   2.710  0.7626  0.0183  0.6713
 2772SOL    HW119775   3.794   1.902   2.743 -0.6220  1.3605 -0.5895
 2772SOL    HW219776   3.668   1.872   2.692  1.2546  0.6561  0.1366
 2773SOL     OW19777   3.630   3.793   7.675 -0.4018  0.3107  0.1264
 2773SOL    HW119778   3.570   3.720   7.656 -0.0163  0.5811 -2.1413
 2773SOL    HW219779   3.703   3.765   7.620 -0.9086 -0.4948 -0.1368
 2774SOL     OW19780   3.317   1.883   4.055  0.4991  0.4486 -0.0058
 2774SOL    HW119781   3.369   1.947   4.005 -1.9956  1.4326 -1.3223
 2774SOL    HW219782   3.293   1.946   4.123 -1.1322 -0.9107  0.6553
 2775SOL     OW19783   2.967   1.604  11.119 -0.1288  0.1936  0.1179
 2775SOL    HW119784   2.927   1.586  11.034  1.3130  0.0378 -0.5188
 2775SOL    HW219785   3.040   1.659  11.091  0.1282 -0.2856 -0.1382
 2776SOL     OW19786   3.891   3.228  14.437  0.2809  0.3104  0.6911
 2776SOL    HW119787   3.822   3.294  14.426 -0.0613  0.0512  1.2711
 2776SOL    HW219788   3.878   3.219  14.531  0.0131 -2.4263  0.3943
 2777SOL     OW19789   1.710   2.001   2.101 -0.8215  0.0478 -0.1886
 2777SOL    HW119790   1.683   1.935   2.165  0.8329 -1.1315 -0.7032
 2777SOL    HW219791   1.804   2.012   2.106 -0.6733 -0.8125 -0.9469
 2778SOL     OW19792   0.091   2.534   2.758  0.3323  0.3936  0.3416
 2778SOL    HW119793   0.036   2.516   2.682  2.5677 -2.0974 -0.6950
 2778SOL    HW219794   0.112   2.627   2.746 -1.5171  0.9823  1.7355
 2779SOL     OW19795   2.025   0.022   2.568  0.0248 -0.1125  0.6421
 2779SOL    HW119796   2.025   0.101   2.513  0.8669 -1.3254 -1.1381
 2779SOL    HW219797   1.994   0.075   2.641 -3.0265 -0.6624 -0.2468
 2780SOL     OW19798   0.709   1.756  14.590  0.7531 -0.0666  0.2076
 2780SOL    HW119799   0.656   1.828  14.624 -0.9788 -1.0499 -0.3973
 2780SOL    HW219800   0.739   1.708  14.668 -0.9609 -1.2982  0.1210
 2781SOL     OW19801   4.203   1.123  10.407 -0.2244 -0.0771  0.0243
 2781SOL    HW119802   4.264   1.129  10.334  1.5974  0.4817  1.5788
 2781SOL    HW219803   4.209   1.029  10.424 -0.8722 -0.2892 -0.9406
 2782SOL     OW19804   2.277   3.247  15.094 -0.2212  0.3203 -0.1934
 2782SOL    HW119805   2.343   3.304  15.055 -0.7356  0.5783 -0.6881
 2782SOL    HW219806   2.244   3.287  15.175  0.7313 -1.6901  1.2106
 2783SOL     OW19807   0.485   2.415   5.617  0.2434  0.4806  0.3320
 2783SOL    HW119808   0.560   2.410   5.675  0.1203 -0.0755  0.4455
 2783SOL    HW219809   0.433   2.491   5.643  0.4403 -0.0275  2.2220
 2784SOL     OW19810   3.996   2.058   7.387 -0.0424 -0.2317 -0.0303
 2784SOL    HW119811   4.047   2.004   7.447  2.1949 -0.0694 -1.7960
 2784SOL    HW219812   3.925   2.099   7.437  1.8501  0.0925  2.4011
 2785SOL     OW19813   2.416   4.210   1.393  0.0929  0.7926 -0.2167
 2785SOL    HW119814   2.401   4.296   1.353 -3.0157  0.4298  0.1639
 2785SOL    HW219815   2.359   4.157   1.338 -1.3761  0.5930  1.4981
 2786SOL     OW19816   2.607   2.991  13.695  0.2800 -0.0305 -0.4136
 2786SOL    HW119817   2.689   3.020  13.735 -0.0263  1.5880 -0.9437
 2786SOL    HW219818   2.591   3.054  13.625  0.1004  1.5026  0.9888
 2787SOL     OW19819   2.388   1.593  12.267 -0.1614 -0.6606  0.4719
 2787SOL    HW119820   2.370   1.559  12.179  1.1342 -1.6569  0.5914
 2787SOL    HW219821   2.323   1.662  12.279 -1.0981 -1.6166  0.8995
 2788SOL     OW19822   3.912   4.440   0.576 -0.5178 -0.0017 -0.4581
 2788SOL    HW119823   3.900   4.534   0.590 -0.3929 -0.0081 -0.3155
 2788SOL    HW219824   3.821   4.409   0.572  0.3031 -2.4226 -0.1304
 2789SOL     OW19825   2.870   0.919   9.075 -0.1856 -0.2874 -0.1112
 2789SOL    HW119826   2.873   0.856   9.148  0.0158 -1.1920 -0.9067
 2789SOL    HW219827   2.853   0.865   8.998 -0.0146 -0.4351 -0.0455
 2790SOL     OW19828   1.313   1.812   3.489  0.2450 -0.2197  0.7406
 2790SOL    HW119829   1.289   1.725   3.459  1.5451 -1.4011  3.0796
 2790SOL    HW219830   1.396   1.814   3.442 -0.7649 -0.4368 -1.0681
 2791SOL     OW19831   0.286   4.617   4.974 -0.0362  0.0871  0.5918
 2791SOL    HW119832   0.329   4.566   5.042  2.5960  2.1540  0.4682
 2791SOL    HW219833   0.355   4.626   4.908 -1.7734  1.1600 -1.0680
 2792SOL     OW19834   0.273   1.508   5.862 -0.2657  0.5064 -0.1347
 2792SOL    HW119835   0.307   1.488   5.775  1.3262 -2.3258  1.1422
 2792SOL    HW219836   0.321   1.588   5.885 -0.8581  0.2347  2.0004
 2793SOL     OW19837   0.166   2.760   3.636 -0.5049  0.3815  0.1387
 2793SOL    HW119838   0.160   2.683   3.694  0.4954  1.5069  1.7209
 2793SOL    HW219839   0.256   2.751   3.603 -0.8262 -1.6086 -0.2324
 2794SOL     OW19840   2.643   3.441  13.034  0.0118  0.3443 -0.0177
 2794SOL    HW119841   2.716   3.429  13.095 -0.1631 -0.6362 -0.0087
 2794SOL    HW219842   2.645   3.353  12.996  0.8794  0.5244 -0.3831
 2795SOL     OW19843   3.564   1.613   3.165  0.4349 -0.1040 -0.3893
 2795SOL    HW119844   3.576   1.706   3.185 -2.4327 -0.0185  0.9822
 2795SOL    HW219845   3.582   1.587   3.256 -4.7760  0.1886  0.7453
 2796SOL     OW19846   4.534   4.315   8.319  0.0056 -0.2062 -0.0297
 2796SOL    HW119847   4.535   4.392   8.261 -1.4220  0.6150  1.0125
 2796SOL    HW219848   4.627   4.297   8.330  0.0822  0.7352  0.9281
 2797SOL     OW19849   4.330   1.870   3.878 -0.3661 -0.4690 -0.3933
 2797SOL    HW119850   4.358   1.848   3.789 -2.1123 -0.4240 -0.9400
 2797SOL    HW219851   4.337   1.966   3.878 -0.5071 -0.4651 -2.9071
 2798SOL     OW19852   4.177   0.112   0.002  0.2575 -0.1803  0.1869
 2798SOL    HW119853   4.174   0.016   0.002 -1.1007 -0.1311 -0.5709
 2798SOL    HW219854   4.085   0.135   0.015  0.9570  3.2916 -1.0684
 2799SOL     OW19855   3.342   1.125   4.124 -0.7079 -0.1128 -0.4604
 2799SOL    HW119856   3.279   1.073   4.075 -0.3774 -1.0445  0.1101
 2799SOL    HW219857   3.283   1.189   4.164 -0.1450 -0.6941  1.2864
 2800SOL     OW19858   2.013   2.411   7.575  0.1831  0.2629 -0.4360
 2800SOL    HW119859   1.953   2.379   7.642  1.7573  1.3668  1.5081
 2800SOL    HW219860   2.005   2.505   7.592 -0.6996  0.3728 -1.5117
 2801SOL     OW19861   1.239   2.707   4.722 -0.4481  0.1849 -0.4802
 2801SOL    HW119862   1.161   2.730   4.672 -1.6423 -3.1349 -0.1286
 2801SOL    HW219863   1.292   2.787   4.721 -0.2995  0.0910  1.8103
 2802SOL     OW19864   1.159   3.456  15.039  0.4431 -0.2215  0.0328
 2802SOL    HW119865   1.116   3.540  15.058  1.8662  0.5877 -0.3453
 2802SOL    HW219866   1.226   3.455  15.107  1.5793  0.8200 -1.0702
 2803SOL     OW19867   4.297   0.572   9.873  0.2469 -0.1487 -0.1483
 2803SOL    HW119868   4.388   0.597   9.855  0.3651  0.2277  0.9631
 2803SOL    HW219869   4.306   0.540   9.963  0.0245  0.1623 -0.0138
 2804SOL     OW19870   2.207   1.294   6.151 -0.2010 -0.0016  0.4117
 2804SOL    HW119871   2.253   1.210   6.148  0.5476  0.4387 -0.4054
 2804SOL    HW219872   2.259   1.338   6.219  0.1852 -0.1333  0.1970
 2805SOL     OW19873   4.026   0.007   4.423 -0.0050  0.2525  0.2545
 2805SOL    HW119874   3.999   4.641   4.400  0.1984  0.0292  0.8660
 2805SOL    HW219875   3.965   0.037   4.491 -2.5861 -0.5672 -1.7130
 2806SOL     OW19876   3.966   1.468   6.536 -0.4065 -0.1520  0.2273
 2806SOL    HW119877   3.987   1.539   6.475 -0.6315  0.9371  1.4140
 2806SOL    HW219878   4.033   1.407   6.504 -0.3485  0.8043 -1.4320
 2807SOL     OW19879   2.613   2.905  10.134  0.1819 -0.0100 -0.5557
 2807SOL    HW119880   2.578   2.938  10.216 -2.0751 -0.4317 -1.3550
 2807SOL    HW219881   2.535   2.888  10.081 -0.6198  0.3989  0.5168
 2808SOL     OW19882   3.132   0.337  10.104  0.0272  0.2453 -0.4867
 2808SOL    HW119883   3.222   0.334  10.137 -0.7213 -0.0009  1.5532
 2808SOL    HW219884   3.100   0.249  10.123 -0.5325  0.6010  0.2442
 2809SOL     OW19885   1.555   0.771  15.418  0.5875 -0.3379 -0.9313
 2809SOL    HW119886   1.604   0.834  15.471  1.2221 -1.6981  0.0799
 2809SOL    HW219887   1.466   0.783  15.450  1.8003 -1.3051  2.8606
 2810SOL     OW19888   2.270   3.137   5.212  0.0129  0.2664 -0.0141
 2810SOL    HW119889   2.189   3.155   5.165  1.3044  1.7708 -1.6432
 2810SOL    HW219890   2.241   3.061   5.261 -0.9032 -0.3029 -1.4543
 2811SOL     OW19891   3.852   4.219   5.235  0.5259 -0.2297 -0.3988
 2811SOL    HW119892   3.895   4.190   5.155  2.2408 -2.1612  1.2276
 2811SOL    HW219893   3.794   4.147   5.260  1.1200 -0.8534 -0.8289
 2812SOL     OW19894   0.648   3.978  12.022  0.1048 -0.0224  0.2193
 2812SOL    HW119895   0.588   4.019  12.084  1.9439 -1.1522  2.7301
 2812SOL    HW219896   0.614   4.007  11.938 -1.2065 -0.0407  0.7516
 2813SOL     OW19897   3.017   3.960   0.280 -0.3753  0.3996  1.1094
 2813SOL    HW119898   3.095   4.006   0.250  1.1553 -1.2187  2.5774
 2813SOL    HW219899   2.983   4.017   0.349 -0.8036 -1.4799  2.4527
 2814SOL     OW19900   2.286   2.572  16.224  0.6714 -0.5627  0.3091
 2814SOL    HW119901   2.298   2.663  16.196 -0.1363 -0.7091 -0.5292
 2814SOL    HW219902   2.352   2.533  16.167  0.0888 -1.0836 -0.0121
 2815SOL     OW19903   0.043   4.473   0.274  0.7851  0.2658 -0.0432
 2815SOL    HW119904   4.703   4.481   0.345  0.9846 -0.4063  0.2126
 2815SOL    HW219905   0.119   4.502   0.325  1.7833 -1.9310 -0.2883
 2816SOL     OW19906   4.670   2.943   6.195 -0.0263 -0.1826 -0.0386
 2816SOL    HW119907   4.679   2.854   6.161 -4.7726 -1.0733  0.9944
 2816SOL    HW219908   0.036   2.978   6.191  0.3019 -1.2148 -1.6167
 2817SOL     OW19909   4.205   4.212   5.594  0.1758 -0.2979 -0.1372
 2817SOL    HW119910   4.182   4.261   5.515 -0.0005 -0.3353 -0.1087
 2817SOL    HW219911   4.121   4.171   5.614  0.9918 -1.4337  0.9259
 2818SOL     OW19912   1.375   3.889   1.156 -0.3379 -0.2550 -0.8320
 2818SOL    HW119913   1.435   3.814   1.156  0.2137  0.1854  1.9484
 2818SOL    HW219914   1.367   3.912   1.063 -0.9275  0.3590 -0.6276
 2819SOL     OW19915   4.509   3.125   4.786 -0.0184  0.0475 -0.1318
 2819SOL    HW119916   4.415   3.131   4.768 -0.2417 -0.7401  0.7914
 2819SOL    HW219917   4.505   3.076   4.868 -0.4973 -1.0767 -0.8267
 2820SOL     OW19918   3.984   0.865  16.033  0.2868  0.3424  0.0437
 2820SOL    HW119919   4.039   0.935  15.999 -0.6135  0.5545 -0.9836
 2820SOL    HW219920   3.986   0.902  16.121 -2.5763 -0.1237  0.3017
 2821SOL     OW19921   1.934   4.343   5.199  0.1577 -0.1018 -0.3249
 2821SOL    HW119922   1.855   4.317   5.246  0.6575 -0.5182  0.2808
 2821SOL    HW219923   1.922   4.289   5.120 -0.1304 -0.2021 -0.2108
 2822SOL     OW19924   1.776   2.596  12.654  0.3079 -0.0165  0.0175
 2822SOL    HW119925   1.797   2.578  12.562 -0.5190  1.1843 -0.4106
 2822SOL    HW219926   1.701   2.537  12.660 -1.0917  1.8389  0.7952
 2823SOL     OW19927   3.917   0.543   5.753 -0.2167  0.0479 -0.1019
 2823SOL    HW119928   3.966   0.575   5.678  0.0800 -1.3484 -0.4940
 2823SOL    HW219929   3.832   0.588   5.743 -1.0197 -1.0886  1.6320
 2824SOL     OW19930   0.837   2.026   4.348  0.1475 -0.5426 -0.3803
 2824SOL    HW119931   0.912   2.084   4.337  0.8660 -1.6573 -1.4521
 2824SOL    HW219932   0.845   1.990   4.259 -1.1660  0.0567 -0.7415
 2825SOL     OW19933   1.966   1.492   4.478 -0.3666  0.7887 -0.1910
 2825SOL    HW119934   2.033   1.559   4.491  0.1890 -0.2383  2.3089
 2825SOL    HW219935   1.935   1.505   4.388 -0.5407  0.2954 -0.2027
 2826SOL     OW19936   2.358   2.517   9.402  0.5010 -0.4821 -0.3116
 2826SOL    HW119937   2.272   2.535   9.439  1.0662  2.1034 -0.2891
 2826SOL    HW219938   2.415   2.565   9.461  1.7834 -0.2474 -1.7380
 2827SOL     OW19939   2.780   1.789   6.250 -0.8214  0.0631 -0.3760
 2827SOL    HW119940   2.800   1.879   6.224 -0.3788 -0.0063 -0.2848
 2827SOL    HW219941   2.865   1.766   6.289 -1.9687 -0.4111  1.8274
 2828SOL     OW19942   3.907   1.471  17.466  0.0219  0.5196  0.0308
 2828SOL    HW119943   3.864   1.543  17.512 -0.8470 -0.1361  0.2652
 2828SOL    HW219944   3.892   1.393  17.521 -0.0733  0.4343 -0.1162
 2829SOL     OW19945   0.389   2.032   4.096  0.5794  0.5390 -0.1914
 2829SOL    HW119946   0.387   2.126   4.111 -0.5925  0.7231 -1.5305
 2829SOL    HW219947   0.481   2.024   4.071  0.7672 -0.6309  0.8480
 2830SOL     OW19948   3.188   4.494  16.755  0.0235 -0.5744 -0.5532
 2830SOL    HW119949   3.114   4.492  16.694 -1.4195  1.8513  1.1096
 2830SOL    HW219950   3.262   4.508  16.696  0.4314 -0.3163  0.0107
 2831SOL     OW19951   0.570   0.271   5.325  0.3653 -0.8878  0.3661
 2831SOL    HW119952   0.557   0.271   5.230  1.7816  1.2843  0.1666
 2831SOL    HW219953   0.622   0.351   5.339 -1.4719  0.2468  0.6985
 2832SOL     OW19954   3.753   4.444   2.694  0.6926 -0.5833 -0.0471
 2832SOL    HW119955   3.706   4.527   2.702  2.5171  0.4651 -0.2438
 2832SOL    HW219956   3.685   4.378   2.684  1.2205 -1.2994  1.0601
 2833SOL     OW19957   0.506   0.335  11.849 -0.3080  0.2446 -0.3318
 2833SOL    HW119958   0.601   0.328  11.854 -0.1682  1.5305 -1.2201
 2833SOL    HW219959   0.484   0.246  11.820  0.6354 -0.8013  2.2053
 2834SOL     OW19960   1.341   3.172   4.884  0.4437 -0.0537 -0.1349
 2834SOL    HW119961   1.308   3.134   4.965 -0.1242  0.9062  0.0855
 2834SOL    HW219962   1.364   3.260   4.914 -1.3741 -0.1532  1.5504
 2835SOL     OW19963   4.160   1.220   7.097  0.1730 -0.4158 -0.0464
 2835SOL    HW119964   4.187   1.226   7.188  1.4211  0.8970 -0.4895
 2835SOL    HW219965   4.217   1.156   7.055 -0.6510 -1.2681  0.1493
 2836SOL     OW19966   1.876   1.525   9.921  0.6226 -0.6646 -0.0086
 2836SOL    HW119967   1.941   1.595   9.918 -1.2199  1.0640  0.3325
 2836SOL    HW219968   1.906   1.481  10.001  0.7342  0.1518  0.4015
 2837SOL     OW19969   1.283   3.736  14.001  0.6951  0.2808  0.3362
 2837SOL    HW119970   1.253   3.751  14.091 -2.0103  1.6679 -0.7978
 2837SOL    HW219971   1.267   3.642  14.000  1.3174  0.1578  1.3300
 2838SOL     OW19972   1.901   4.342  14.148 -0.0798  0.5583 -0.0313
 2838SOL    HW119973   1.987   4.381  14.163 -0.0367  1.3197 -2.3579
 2838SOL    HW219974   1.850   4.420  14.171  1.4156  0.8601  2.3304
 2839SOL     OW19975   3.188   0.791  12.178 -0.0614  0.2567  0.0107
 2839SOL    HW119976   3.148   0.863  12.226  0.3323  0.0736  0.6226
 2839SOL    HW219977   3.280   0.807  12.201  0.6113 -2.1041 -0.9427
 2840SOL     OW19978   1.232   0.709   1.772 -0.0992  0.4756  0.1141
 2840SOL    HW119979   1.137   0.713   1.780  0.1664  1.9485  2.5870
 2840SOL    HW219980   1.265   0.732   1.859 -2.2349 -0.1044  1.0755
 2841SOL     OW19981   3.786   4.381  16.043  0.1603 -0.0085 -0.0491
 2841SOL    HW119982   3.845   4.383  15.968 -0.2640  0.6363 -0.3585
 2841SOL    HW219983   3.769   4.474  16.057 -1.4860 -0.2015 -0.7320
 2842SOL     OW19984   3.259   3.537   9.315 -0.1403 -0.0156  0.2580
 2842SOL    HW119985   3.339   3.583   9.341  0.1163  0.1241 -0.8078
 2842SOL    HW219986   3.195   3.581   9.372 -0.1678 -0.2838  0.4322
 2843SOL     OW19987   3.426   3.058   7.245  0.1626  1.1351  0.0194
 2843SOL    HW119988   3.457   3.076   7.333  1.7520 -0.8854 -0.1095
 2843SOL    HW219989   3.339   3.099   7.243  0.4584  1.7527 -0.0111
 2844SOL     OW19990   0.104   4.470   1.083 -0.5556  0.3339 -0.0614
 2844SOL    HW119991   0.043   4.524   1.033 -1.1782  0.5598  0.9567
 2844SOL    HW219992   0.049   4.413   1.136 -0.1654 -1.6160 -1.7616
 2845SOL     OW19993   3.154   1.078   6.316 -0.3583  0.3290 -0.7087
 2845SOL    HW119994   3.080   1.121   6.357 -1.3017  0.4004 -2.4820
 2845SOL    HW219995   3.204   1.046   6.391  2.6419  4.7276 -0.8035
 2846SOL     OW19996   2.431   4.583   7.514  0.0718  0.5322  0.2844
 2846SOL    HW119997   2.341   4.598   7.544 -0.0911  1.2427 -0.5746
 2846SOL    HW219998   2.455   4.509   7.569  1.4467  1.4440  0.9115
 2847SOL     OW19999   2.286   1.902   9.645  0.0128  0.1459  0.6733
 2847SOL    HW120000   2.338   1.884   9.567  0.3692  1.4551  0.6242
 2847SOL    HW220001   2.211   1.943   9.602  0.9849  2.7628  1.4699
 2848SOL     OW20002   2.412   0.837   5.394  0.2188  0.4842 -0.0545
 2848SOL    HW120003   2.388   0.852   5.485 -3.5852  1.4377 -1.1996
 2848SOL    HW220004   2.346   0.896   5.357  0.2410  0.9617  0.6766
 2849SOL     OW20005   3.236   0.081   5.294 -0.4013  0.0283 -0.4761
 2849SOL    HW120006   3.319   0.127   5.296 -0.2801 -0.1790 -0.8428
 2849SOL    HW220007   3.237   0.010   5.229 -1.9692 -0.3820 -0.0659
 2850SOL     OW20008   0.401   4.689   8.287  0.1701  0.1280 -0.8668
 2850SOL    HW120009   0.356   0.033   8.339 -2.7338  0.0322 -3.2529
 2850SOL    HW220010   0.460   4.641   8.345  0.0285  0.1751 -0.6809
 2851SOL     OW20011   0.796   2.204  15.806 -0.0359 -0.0256 -0.0330
 2851SOL    HW120012   0.890   2.190  15.793  0.0146 -0.5708  0.8790
 2851SOL    HW220013   0.767   2.130  15.752 -2.2668  1.5781 -1.0105
 2852SOL     OW20014   3.620   1.333   2.805  0.0784  0.1137  0.1849
 2852SOL    HW120015   3.612   1.419   2.763 -0.7159  0.6269  1.3572
 2852SOL    HW220016   3.614   1.277   2.728 -1.7050  1.7574 -0.8741
 2853SOL     OW20017   0.980   3.701  15.185 -0.3712 -0.2107 -0.0988
 2853SOL    HW120018   0.920   3.746  15.127  0.5790  0.9849 -0.1524
 2853SOL    HW220019   1.000   3.771  15.248 -2.4050 -0.4783  0.8466
 2854SOL     OW20020   2.847   4.694  16.357 -0.0181 -0.8068  0.5372
 2854SOL    HW120021   2.780   0.020  16.404  1.6959 -0.5082  2.7083
 2854SOL    HW220022   2.795   4.639  16.298 -0.7627 -0.1755  0.6037
 2855SOL     OW20023   3.860   1.497   9.262  0.1816  0.2835  0.7080
 2855SOL    HW120024   3.849   1.406   9.236 -0.1887  0.4456  0.2698
 2855SOL    HW220025   3.774   1.504   9.304 -0.9172 -0.2823 -1.4283
 2856SOL     OW20026   3.558   2.483   0.169  0.2281  0.2290  0.2720
 2856SOL    HW120027   3.630   2.533   0.208  0.1459 -1.0653  2.0932
 2856SOL    HW220028   3.583   2.398   0.205 -1.0917  0.1190  0.9318
 2857SOL     OW20029   0.342   2.085   6.480 -0.1347  0.3779 -0.4763
 2857SOL    HW120030   0.346   2.169   6.433  2.7334 -0.1739 -1.1788
 2857SOL    HW220031   0.370   2.118   6.566  1.3333 -0.2247 -0.7383
 2858SOL     OW20032   4.263   2.093   9.051 -0.3147  0.2830  0.2783
 2858SOL    HW120033   4.220   2.058   9.129  0.7098  0.9610  1.1441
 2858SOL    HW220034   4.216   2.042   8.985 -1.5675 -0.6271  1.8526
 2859SOL     OW20035   1.620   1.190  16.614 -0.0252 -0.2413  0.7140
 2859SOL    HW120036   1.694   1.176  16.674  0.4542  0.0652  0.1917
 2859SOL    HW220037   1.668   1.238  16.546 -0.7303 -0.4723  0.0543
 2860SOL     OW20038   1.611   3.770   2.869 -0.1720 -0.6925 -0.0015
 2860SOL    HW120039   1.582   3.679   2.882 -1.6931  0.0815  2.0510
 2860SOL    HW220040   1.596   3.783   2.775  3.1547 -0.1228 -0.4345
 2861SOL     OW20041   2.054   1.019   2.398  0.6080 -0.0863  0.3553
 2861SOL    HW120042   1.969   0.975   2.401  0.1529  0.7105 -0.9473
 2861SOL    HW220043   2.035   1.113   2.406 -2.3182 -0.5074 -1.3248
 2862SOL     OW20044   3.096   0.406   5.948  0.2183 -0.1637  0.5776
 2862SOL    HW120045   3.005   0.403   5.919 -0.1380  1.0820  1.5915
 2862SOL    HW220046   3.117   0.496   5.925  3.3732 -1.4200 -1.4437
 2863SOL     OW20047   3.434   3.046  11.102 -0.2414 -0.6841  0.3270
 2863SOL    HW120048   3.408   3.137  11.114  1.6060 -0.3725  2.0960
 2863SOL    HW220049   3.484   3.036  11.183 -0.6545 -1.5447  0.4777
 2864SOL     OW20050   0.904   4.172   8.688 -0.2920  0.4212 -0.0815
 2864SOL    HW120051   0.914   4.135   8.601  3.1849  0.1461  0.4162
 2864SOL    HW220052   0.996   4.201   8.685 -0.0343 -0.2712  1.0257
 2865SOL     OW20053   1.818   4.496   4.756 -0.2433 -0.4095 -0.3302
 2865SOL    HW120054   1.903   4.494   4.801 -0.4068 -2.5621 -0.1055
 2865SOL    HW220055   1.789   4.405   4.753 -0.6251 -0.3638  1.7878
 2866SOL     OW20056   1.819   3.977  14.980  0.0607 -0.0359 -0.4333
 2866SOL    HW120057   1.832   3.906  15.043  0.8557  2.7717  2.5214
 2866SOL    HW220058   1.808   3.946  14.890  0.8808 -2.0466  0.1572
 2867SOL     OW20059   3.791   2.303   6.525 -0.3820  0.2218 -0.3144
 2867SOL    HW120060   3.852   2.326   6.455  1.0400  2.3481  1.6208
 2867SOL    HW220061   3.843   2.314   6.605 -0.1118 -0.8485 -0.3397
 2868SOL     OW20062   1.538   3.419   3.458  0.6036  0.1102  1.1093
 2868SOL    HW120063   1.478   3.440   3.386 -0.1750 -1.6896  1.2378
 2868SOL    HW220064   1.490   3.359   3.515 -0.6809 -0.4335 -0.5496
 2869SOL     OW20065   2.320   1.472   1.820 -0.2170  0.1871 -0.3514
 2869SOL    HW120066   2.384   1.433   1.881  0.4566  2.9751  0.7005
 2869SOL    HW220067   2.375   1.481   1.742 -0.9541 -1.6647 -1.0887
 2870SOL     OW20068   1.362   3.533   1.616  0.0868 -0.1038 -0.0311
 2870SOL    HW120069   1.294   3.485   1.663  0.9898  0.5629  1.9641
 2870SOL    HW220070   1.357   3.627   1.635  0.0628 -0.5071  1.9986
 2871SOL     OW20071   3.756   3.053   7.875 -0.2531  0.8133 -0.5773
 2871SOL    HW120072   3.835   3.048   7.930  0.1784 -1.3569 -1.3646
 2871SOL    HW220073   3.700   3.094   7.941  0.2597 -0.5090  0.6978
 2872SOL     OW20074   0.913   4.560   8.760 -0.1779 -0.1080 -0.2560
 2872SOL    HW120075   0.836   4.583   8.811  2.1972  1.3330  2.6967
 2872SOL    HW220076   0.894   4.470   8.736 -0.0148  0.1939 -1.5175
 2873SOL     OW20077   1.244   1.309  16.955  0.1805 -0.5898 -0.4062
 2873SOL    HW120078   1.304   1.236  16.970  1.7663  0.8857  0.4030
 2873SOL    HW220079   1.162   1.268  16.983  0.9550 -0.1605  2.5517
 2874SOL     OW20080   1.512   4.402   4.423 -0.6417 -0.0772  0.1408
 2874SOL    HW120081   1.567   4.465   4.470  0.1569 -0.1523 -0.6924
 2874SOL    HW220082   1.452   4.463   4.381 -0.0676  1.3817  1.3944
 2875SOL     OW20083   0.272   1.561   9.402 -0.4191 -0.6325 -0.2588
 2875SOL    HW120084   0.332   1.542   9.474 -0.7227  0.7246  0.3325
 2875SOL    HW220085   0.337   1.592   9.338  0.0903  2.1622  1.6178
 2876SOL     OW20086   2.799   1.714   6.777 -0.3389 -0.0644 -0.3227
 2876SOL    HW120087   2.828   1.767   6.703 -1.1765  2.8362  1.4658
 2876SOL    HW220088   2.738   1.776   6.816 -0.3946  0.2469 -0.9030
 2877SOL     OW20089   0.487   1.350  11.946  0.3246 -0.0060  0.1006
 2877SOL    HW120090   0.490   1.261  11.981  0.7539  0.3622  0.9805
 2877SOL    HW220091   0.393   1.340  11.928  0.7301  0.3872 -2.2979
 2878SOL     OW20092   1.997   1.395   6.445  0.2991 -0.1824  0.5817
 2878SOL    HW120093   2.056   1.328   6.479 -0.0168 -0.8462 -0.1664
 2878SOL    HW220094   1.917   1.379   6.494  0.1412 -0.2916  0.2921
 2879SOL     OW20095   4.386   1.943   2.868  0.1355  0.0237  0.5061
 2879SOL    HW120096   4.395   2.036   2.849 -2.2217  0.0314 -0.5456
 2879SOL    HW220097   4.349   1.914   2.784 -2.1849  1.8002  0.9303
 2880SOL     OW20098   0.015   1.669   2.399 -0.0404  0.0687 -0.0536
 2880SOL    HW120099   0.108   1.652   2.412  0.1163  0.7980 -0.2535
 2880SOL    HW220100   0.021   1.690   2.306 -2.8465 -0.3597 -0.3227
 2881SOL     OW20101   1.637   2.952   2.371 -0.1272  0.4360  0.5024
 2881SOL    HW120102   1.597   2.872   2.403 -0.9204  0.7977  0.4223
 2881SOL    HW220103   1.700   2.915   2.310 -0.6485 -2.0110  1.4725
 2882SOL     OW20104   2.787   3.994   8.788 -0.2963  0.4715  0.3064
 2882SOL    HW120105   2.857   3.984   8.852 -0.5614 -0.9013  0.3897
 2882SOL    HW220106   2.769   3.906   8.754 -1.9626  0.2230  1.8128
 2883SOL     OW20107   2.230   2.701   0.202 -0.1093  0.0761  0.1809
 2883SOL    HW120108   2.318   2.735   0.217  0.6584 -1.8945  0.0889
 2883SOL    HW220109   2.241   2.608   0.184 -0.0737  0.2073 -0.4693
 2884SOL     OW20110   4.069   1.690   8.226  0.3413 -0.2029 -0.6036
 2884SOL    HW120111   4.104   1.627   8.164 -0.7368 -0.5339 -0.8853
 2884SOL    HW220112   4.052   1.626   8.295 -1.6060 -0.8434 -1.6624
 2885SOL     OW20113   3.739   2.945   2.243  0.2115 -0.0961 -0.0159
 2885SOL    HW120114   3.765   3.001   2.317  0.1756 -0.6708  0.4326
 2885SOL    HW220115   3.788   2.965   2.164  0.7621 -2.1163 -0.1877
 2886SOL     OW20116   2.816   4.718   3.340 -0.5858 -0.3975  0.1497
 2886SOL    HW120117   2.849   4.637   3.378 -1.3655  0.3839  2.5063
 2886SOL    HW220118   2.728   4.712   3.377 -0.9061 -0.4705 -0.6186
 2887SOL     OW20119   3.678   3.798   7.192  0.2081  0.0443 -0.2987
 2887SOL    HW120120   3.685   3.779   7.098 -0.5542  0.4855 -0.4361
 2887SOL    HW220121   3.748   3.742   7.226  0.6015  1.4735  1.2147
 2888SOL     OW20122   2.844   0.991   7.598 -0.0103  0.1396 -0.2498
 2888SOL    HW120123   2.913   0.956   7.542 -0.0472 -1.0980  0.4683
 2888SOL    HW220124   2.838   0.919   7.662  0.6147 -0.7094 -1.1539
 2889SOL     OW20125   4.593   0.819   7.707  0.2882  0.0742  0.5891
 2889SOL    HW120126   4.554   0.849   7.789  1.6134  1.3090  0.7656
 2889SOL    HW220127   4.642   0.747   7.745  0.1642 -0.3725 -0.1045
 2890SOL     OW20128   0.621   0.869  12.736  0.0470  0.1656  0.7516
 2890SOL    HW120129   0.575   0.939  12.689  0.4110 -1.1442 -1.5304
 2890SOL    HW220130   0.644   0.919  12.815 -1.5731 -0.5718  1.7024
 2891SOL     OW20131   2.495   2.379   6.520 -0.5595  0.0071  0.8363
 2891SOL    HW120132   2.412   2.394   6.565 -0.4015  1.2327  0.7214
 2891SOL    HW220133   2.538   2.464   6.526 -0.0768 -0.2314  0.7562
 2892SOL     OW20134   0.545   3.069   4.238 -0.4860  0.5630 -0.3642
 2892SOL    HW120135   0.479   3.132   4.213 -1.0205 -0.4164 -1.3980
 2892SOL    HW220136   0.559   3.021   4.157  0.8268  0.4449 -0.0722
 2893SOL     OW20137   0.650   1.054   8.957  0.0612 -0.0199  0.1499
 2893SOL    HW120138   0.589   0.996   9.003 -0.5496  0.9333  0.5601
 2893SOL    HW220139   0.689   1.106   9.027  0.6765  1.0133 -0.9608
 2894SOL     OW20140   3.655   1.632   4.218  0.2464 -0.5671 -0.1427
 2894SOL    HW120141   3.668   1.645   4.124 -0.1568  1.3172  0.0667
 2894SOL    HW220142   3.686   1.541   4.217  0.1340 -0.5977 -1.0438
 2895SOL     OW20143   3.298   0.825  11.923 -0.1428  0.5230 -0.2771
 2895SOL    HW120144   3.226   0.822  11.986  0.4419  0.6112  0.3827
 2895SOL    HW220145   3.347   0.743  11.928 -2.1159 -0.6177  0.6664
 2896SOL     OW20146   0.967   3.450   9.194  0.6427 -0.6660  0.3023
 2896SOL    HW120147   1.040   3.416   9.246  1.5949 -0.4543 -0.8954
 2896SOL    HW220148   0.930   3.366   9.166  1.4640 -1.2413  0.9476
 2897SOL     OW20149   1.525   3.993   5.499  0.3780  0.2008 -0.3081
 2897SOL    HW120150   1.463   4.002   5.571 -0.0684 -3.7613 -0.2113
 2897SOL    HW220151   1.469   3.989   5.422  0.9399  0.3464 -0.7288
 2898SOL     OW20152   1.734   3.940  10.287  0.3794  0.7626  0.0446
 2898SOL    HW120153   1.737   3.911  10.378  0.6569 -0.4268 -0.3515
 2898SOL    HW220154   1.802   3.882  10.254 -1.2002 -1.3373  0.5197
 2899SOL     OW20155   0.663   4.209   7.565  0.4472  0.1682 -0.4737
 2899SOL    HW120156   0.571   4.219   7.587  0.6380  1.6991 -0.3685
 2899SOL    HW220157   0.683   4.298   7.537  2.1776 -0.6694 -1.8792
 2900SOL     OW20158   4.377   1.615   2.307 -0.3510 -0.5850 -0.1948
 2900SOL    HW120159   4.437   1.640   2.237  1.0467 -1.7250  0.5972
 2900SOL    HW220160   4.369   1.521   2.294 -1.0154 -0.6490  0.6576
 2901SOL     OW20161   3.362   2.597   1.215  0.2220 -0.3423 -0.4228
 2901SOL    HW120162   3.324   2.673   1.258 -1.1838 -1.3962  0.1810
 2901SOL    HW220163   3.311   2.528   1.258 -0.3631  0.4002  0.0692
 2902SOL     OW20164   0.946   3.263   8.094 -0.1178  0.1530  0.3544
 2902SOL    HW120165   1.038   3.279   8.071 -0.0256 -0.4279  0.3062
 2902SOL    HW220166   0.943   3.176   8.055  1.1686 -0.7532  2.2190
 2903SOL     OW20167   3.147   2.188  13.302 -0.4988  0.3746 -0.1458
 2903SOL    HW120168   3.242   2.195  13.300 -0.3969 -2.0081 -3.7976
 2903SOL    HW220169   3.132   2.115  13.363  0.7833 -0.1741 -0.4825
 2904SOL     OW20170   4.001   4.193   3.182 -0.1324  0.0591  0.4044
 2904SOL    HW120171   3.997   4.287   3.201  1.9061  0.0393  0.9661
 2904SOL    HW220172   3.932   4.175   3.118  1.1022  1.8085 -1.4259
 2905SOL     OW20173   1.486   0.620   5.233 -0.3008 -0.2565  0.3117
 2905SOL    HW120174   1.458   0.583   5.317 -1.2132 -3.9845 -1.6414
 2905SOL    HW220175   1.544   0.550   5.203 -0.3135 -0.0449 -0.2051
 2906SOL     OW20176   0.812   1.773  13.137 -0.2694  0.7125 -0.0270
 2906SOL    HW120177   0.777   1.802  13.221 -2.4430  1.8483 -1.3444
 2906SOL    HW220178   0.731   1.782  13.088 -0.1817 -1.9403 -0.6877
 2907SOL     OW20179   2.520   4.254   6.563 -0.7607 -0.3812 -0.0755
 2907SOL    HW120180   2.608   4.282   6.537  0.1767 -4.7442 -1.5794
 2907SOL    HW220181   2.483   4.237   6.477  2.1839  1.5674 -1.7097
 2908SOL     OW20182   2.062   4.696   3.214  0.6808  0.4265 -0.0668
 2908SOL    HW120183   2.001   4.622   3.208  2.0684 -0.6179 -1.3850
 2908SOL    HW220184   2.103   4.679   3.299 -0.5242 -2.1171  0.0118
 2909SOL     OW20185   2.646   2.494   6.902 -0.0170  0.0792  0.8123
 2909SOL    HW120186   2.636   2.433   6.974  1.9878 -1.2742 -0.0562
 2909SOL    HW220187   2.676   2.434   6.834  0.7143  1.8079 -0.3984
 2910SOL     OW20188   4.278   4.169   5.877  0.0951  0.3646  0.1756
 2910SOL    HW120189   4.260   4.171   5.783  1.2173 -1.4085 -0.0719
 2910SOL    HW220190   4.225   4.240   5.913  3.4140  2.0370  1.8045
 2911SOL     OW20191   4.002   0.216  11.363  0.4771 -0.2511 -0.5940
 2911SOL    HW120192   4.022   0.299  11.319  1.2109  0.2548  0.6896
 2911SOL    HW220193   4.082   0.209  11.416 -2.2242 -0.9309  3.3565
 2912SOL     OW20194   3.681   0.987   3.324  0.3006  0.1384  0.3076
 2912SOL    HW120195   3.644   0.945   3.246 -0.9631 -0.5970  1.3063
 2912SOL    HW220196   3.775   0.973   3.316 -0.2345 -1.3708 -3.5414
 2913SOL     OW20197   4.575   1.667  13.496 -0.1318  0.3769 -0.3772
 2913SOL    HW120198   4.488   1.676  13.457 -0.7478  0.0037  0.9071
 2913SOL    HW220199   4.563   1.687  13.589 -1.4652 -1.5863 -0.1282
 2914SOL     OW20200   2.290   2.273  14.892 -0.5146  0.3242  0.2043
 2914SOL    HW120201   2.312   2.335  14.822  2.0625 -0.0457  0.6878
 2914SOL    HW220202   2.199   2.291  14.914 -0.2842  0.9108  0.6756
 2915SOL     OW20203   4.372   4.673   4.164  0.5383 -0.6831 -0.1791
 2915SOL    HW120204   4.404   4.601   4.109  1.7942 -2.0654  2.3809
 2915SOL    HW220205   4.296   4.704   4.115 -0.2822 -1.4864  0.5886
 2916SOL     OW20206   4.223   0.044   6.002  0.4641  0.3930 -0.7392
 2916SOL    HW120207   4.128   0.030   6.002  0.4000  0.8188 -0.6338
 2916SOL    HW220208   4.230   0.124   5.949  0.0679  0.7344 -0.2758
 2917SOL     OW20209   1.342   1.355   7.173 -0.4650  0.4718 -0.3755
 2917SOL    HW120210   1.413   1.368   7.236 -0.7604  1.9462 -0.3467
 2917SOL    HW220211   1.268   1.377   7.230 -1.2717 -1.3111 -0.7320
 2918SOL     OW20212   2.608   4.586   5.485 -0.1343 -0.2290  0.7500
 2918SOL    HW120213   2.519   4.567   5.515 -0.4866 -0.8649 -0.6696
 2918SOL    HW220214   2.647   4.499   5.493 -0.2512 -0.3394  0.1266
 2919SOL     OW20215   2.193   3.245  16.093  0.5810 -0.3158  0.1191
 2919SOL    HW120216   2.133   3.201  16.153 -2.9460  0.9317 -2.4642
 2919SOL    HW220217   2.273   3.198  16.117  0.4192  0.1931  1.6147
 2920SOL     OW20218   3.081   0.518  15.202  0.0599  0.2946 -0.2947
 2920SOL    HW120219   3.165   0.494  15.163 -0.6508 -3.4877  0.4725
 2920SOL    HW220220   3.052   0.591  15.147 -0.1291 -0.4042 -1.1339
 2921SOL     OW20221   1.382   1.962   7.968  0.2989  0.2512  0.1602
 2921SOL    HW120222   1.351   1.872   7.954  0.0753  0.1501  1.2814
 2921SOL    HW220223   1.401   1.964   8.062 -0.4011 -2.6438  0.3569
 2922SOL     OW20224   3.867   3.157  12.953  0.0971  0.1669  0.3684
 2922SOL    HW120225   3.851   3.073  12.909  0.3342  0.6479 -0.6534
 2922SOL    HW220226   3.955   3.181  12.922  1.0062  0.5712  3.2823
 2923SOL     OW20227   2.127   2.824   0.594  0.7290 -0.4170 -0.3491
 2923SOL    HW120228   2.184   2.747   0.602 -0.0133 -0.8501  0.8703
 2923SOL    HW220229   2.048   2.780   0.563  0.8043  0.2657 -1.4732
 2924SOL     OW20230   0.539   2.899   3.290 -0.0595  0.0764 -0.8058
 2924SOL    HW120231   0.477   2.903   3.362  0.4824 -1.3616 -0.2557
 2924SOL    HW220232   0.557   2.806   3.305  2.1792  0.7905  0.7941
 2925SOL     OW20233   2.828   0.722  10.081  0.0853 -0.2570 -0.2102
 2925SOL    HW120234   2.736   0.706  10.062  0.0066  0.3034 -0.3039
 2925SOL    HW220235   2.842   0.654  10.147 -0.8366 -1.0486 -0.8258
 2926SOL     OW20236   4.662   0.297   5.969 -0.1263  0.0834  0.1596
 2926SOL    HW120237   4.611   0.222   6.000  3.2300 -1.4575  1.8990
 2926SOL    HW220238   4.675   0.344   6.051 -2.4546  1.8204 -0.4507
 2927SOL     OW20239   2.271   2.737   6.813 -0.3198  0.3458 -0.5512
 2927SOL    HW120240   2.280   2.729   6.908 -0.4007  2.2074 -0.3876
 2927SOL    HW220241   2.257   2.832   6.809 -2.8282  0.0356  1.0499
 2928SOL     OW20242   0.755   0.325   1.949 -0.4053  0.2012  0.1284
 2928SOL    HW120243   0.679   0.364   1.905 -0.2063  0.8479  0.3706
 2928SOL    HW220244   0.826   0.372   1.906 -0.5420 -2.5302 -3.1174
 2929SOL     OW20245   0.490   1.460   0.778  0.2539  0.5034 -0.2356
 2929SOL    HW120246   0.418   1.488   0.834 -0.1190 -3.8906  1.5014
 2929SOL    HW220247   0.530   1.541   0.746 -0.2748  0.0160 -2.1321
 2930SOL     OW20248   0.353   3.085   0.416  0.1263  0.0547  0.2359
 2930SOL    HW120249   0.330   3.177   0.408 -0.8096 -0.0406  1.9425
 2930SOL    HW220250   0.377   3.076   0.508  1.2106  1.9610  0.1379
 2931SOL     OW20251   2.212   1.439   3.186 -0.5014 -0.2539 -0.0337
 2931SOL    HW120252   2.198   1.377   3.115 -0.1265 -0.5663  0.1688
 2931SOL    HW220253   2.256   1.505   3.132  1.0281 -2.3687 -1.3334
 2932SOL     OW20254   1.931   1.598   2.283 -0.0008 -0.0756 -0.3447
 2932SOL    HW120255   2.004   1.661   2.292 -0.4464  0.1783  1.5551
 2932SOL    HW220256   1.908   1.621   2.193  0.3330  2.8062  0.2765
 2933SOL     OW20257   3.956   4.134   5.675 -0.1976  0.0566 -0.1512
 2933SOL    HW120258   3.941   4.170   5.763  0.0610 -1.0864  0.3566
 2933SOL    HW220259   3.919   4.046   5.688  1.2657 -1.0155 -3.3513
 2934SOL     OW20260   2.710   0.858  12.075  0.5115  0.3342 -0.4517
 2934SOL    HW120261   2.788   0.815  12.041 -0.5771 -1.6177 -0.4947
 2934SOL    HW220262   2.746   0.891  12.157 -2.0827  2.4900 -0.1566
 2935SOL     OW20263   4.519   0.640   3.391  0.7365  0.6090 -0.2867
 2935SOL    HW120264   4.545   0.664   3.480 -0.4290  2.5344 -0.4908
 2935SOL    HW220265   4.549   0.549   3.389 -0.1669  0.3169 -0.5616
 2936SOL     OW20266   0.036   4.318   3.433  0.2397 -0.2147  0.5895
 2936SOL    HW120267   4.721   4.403   3.412 -1.1669 -0.8632  0.5217
 2936SOL    HW220268   4.683   4.264   3.414 -0.7358  1.5813 -0.5244
 2937SOL     OW20269   3.292   4.033   9.592  0.1927 -0.0055 -0.0871
 2937SOL    HW120270   3.357   4.096   9.561 -1.3812  2.5564  1.7213
 2937SOL    HW220271   3.278   3.978   9.515  0.2407  1.8854 -1.4520
 2938SOL     OW20272   1.629   2.454  13.432  0.1057 -0.2781  0.0498
 2938SOL    HW120273   1.699   2.392  13.412  1.0428  0.4015  1.2047
 2938SOL    HW220274   1.582   2.431  13.513 -0.5502 -2.9717 -1.0996
 2939SOL     OW20275   2.477   0.495   6.932 -0.3993  0.3224  0.9039
 2939SOL    HW120276   2.502   0.550   6.858 -0.9198  0.3495  0.7501
 2939SOL    HW220277   2.439   0.566   6.984 -1.1399  1.6576 -1.4493
 2940SOL     OW20278   1.950   1.890  13.852 -0.2651  0.5075  0.3674
 2940SOL    HW120279   1.910   1.951  13.913 -4.0052  0.5066 -2.0561
 2940SOL    HW220280   1.887   1.820  13.838  2.2278 -1.5603 -0.6126
 2941SOL     OW20281   1.755   3.229   3.959 -0.0474 -0.3413  0.3068
 2941SOL    HW120282   1.665   3.244   3.986  0.4033  1.9269  0.5485
 2941SOL    HW220283   1.794   3.219   4.046  2.2013 -0.7844 -0.7507
 2942SOL     OW20284   0.299   2.899   4.472 -0.5659 -0.0442  0.0941
 2942SOL    HW120285   0.273   2.823   4.420 -0.7263  0.4379 -0.5372
 2942SOL    HW220286   0.339   2.867   4.553  0.4188  0.4145 -0.2107
 2943SOL     OW20287   0.221   2.126   2.994  0.2892 -0.2742 -0.4925
 2943SOL    HW120288   0.180   2.132   2.907 -0.6895  0.7279  0.0294
 2943SOL    HW220289   0.267   2.210   2.985 -0.1590  0.0624  0.3857
 2944SOL     OW20290   3.266   2.599  13.441  0.2399  0.3504 -0.5322
 2944SOL    HW120291   3.207   2.524  13.451  0.2984  0.3086 -0.4949
 2944SOL    HW220292   3.227   2.660  13.379 -1.2387 -0.6353 -0.5607
 2945SOL     OW20293   4.563   2.168   2.038  0.1030 -0.2525  0.8314
 2945SOL    HW120294   4.648   2.208   2.055  0.1443 -1.0214  2.4191
 2945SOL    HW220295   4.566   2.087   2.089 -2.2630  0.7753  2.6038
 2946SOL     OW20296   0.897   4.094   5.530 -0.4902 -0.0327 -0.1505
 2946SOL    HW120297   0.914   4.134   5.615  0.5566  0.6238 -0.6727
 2946SOL    HW220298   0.824   4.150   5.507 -0.1169  0.6659  0.3673
 2947SOL     OW20299   1.350   1.955   6.953 -0.5497 -0.0481  0.0466
 2947SOL    HW120300   1.439   1.987   6.971 -0.7686  0.4949  0.1558
 2947SOL    HW220301   1.306   1.982   7.033 -1.5637  0.6009 -0.7270
 2948SOL     OW20302   1.598   1.497   5.111  0.1156 -0.2489  0.1743
 2948SOL    HW120303   1.693   1.486   5.108  0.1093 -0.3754  0.5341
 2948SOL    HW220304   1.589   1.581   5.156  0.6681  1.0666 -2.1667
 2949SOL     OW20305   1.850   3.693  14.575  0.3112 -0.5737 -0.1805
 2949SOL    HW120306   1.925   3.672  14.520  1.1966  2.3667 -0.1012
 2949SOL    HW220307   1.815   3.604  14.575  0.8602 -0.7901  0.0762
 2950SOL     OW20308   3.720   3.588  10.531  0.0753 -0.3343  0.0564
 2950SOL    HW120309   3.774   3.659  10.495 -0.2503 -0.3246 -0.4239
 2950SOL    HW220310   3.747   3.583  10.622  1.6801 -1.4171 -0.4937
 2951SOL     OW20311   1.497   4.278   5.781 -0.2598  0.1249  0.1770
 2951SOL    HW120312   1.492   4.182   5.788 -0.9410  0.3358  2.4211
 2951SOL    HW220313   1.448   4.297   5.861 -1.7289  1.3529 -1.0287
 2952SOL     OW20314   2.198   3.533   7.084 -0.1227 -0.3084 -0.3087
 2952SOL    HW120315   2.185   3.468   7.154  2.7891 -1.0873 -0.4768
 2952SOL    HW220316   2.210   3.482   7.004  0.5191 -0.7425  0.0630
 2953SOL     OW20317   0.465   4.660  15.374  0.1644  0.5474  0.3084
 2953SOL    HW120318   0.531   4.668  15.443  0.4822 -2.5740  0.3647
 2953SOL    HW220319   0.408   4.613  15.435  0.6702 -1.3892 -0.7398
 2954SOL     OW20320   1.296   1.799   7.645 -0.3120  0.1408 -0.1923
 2954SOL    HW120321   1.300   1.709   7.613 -1.8487  0.2534 -0.7042
 2954SOL    HW220322   1.376   1.839   7.610  0.4889 -1.8305 -0.6433
 2955SOL     OW20323   3.391   1.551   1.678  0.3694 -0.1580  0.0851
 2955SOL    HW120324   3.450   1.520   1.609  1.1136  2.1786 -0.3246
 2955SOL    HW220325   3.404   1.481   1.742  0.6987 -0.2070 -0.0354
 2956SOL     OW20326   3.721   1.889   2.246  0.1680 -0.5953 -0.0168
 2956SOL    HW120327   3.664   1.825   2.206  2.2984 -0.9462 -2.5249
 2956SOL    HW220328   3.652   1.927   2.301  0.4263 -0.3179  0.1174
 2957SOL     OW20329   3.993   0.458   9.429  0.1734  0.0407  0.1795
 2957SOL    HW120330   4.004   0.377   9.479 -1.3946 -0.1202  0.2442
 2957SOL    HW220331   3.992   0.534   9.486  2.1740  2.1858 -2.6482
 2958SOL     OW20332   3.462   0.460  14.446  0.0987  0.0911  0.3271
 2958SOL    HW120333   3.449   0.487  14.355  2.0011 -2.1203 -0.5928
 2958SOL    HW220334   3.492   0.371  14.429  0.6371 -0.6383  5.1648
 2959SOL     OW20335   2.921   1.468   5.991  0.5484  0.3336  0.2105
 2959SOL    HW120336   2.856   1.530   6.025 -1.4505 -0.2027 -2.6358
 2959SOL    HW220337   2.980   1.471   6.066 -2.5024 -0.5254  2.6180
 2960SOL     OW20338   1.543   4.322   3.187  0.1226 -0.0091  0.1541
 2960SOL    HW120339   1.476   4.254   3.187 -0.6029  0.7126 -2.4428
 2960SOL    HW220340   1.551   4.352   3.278  0.0520 -0.5238  0.3289
 2961SOL     OW20341   3.761   2.507  10.750  0.3666 -0.0954 -0.6178
 2961SOL    HW120342   3.715   2.478  10.828 -0.2647 -0.0649 -0.9796
 2961SOL    HW220343   3.847   2.520  10.791 -0.6551  1.0457  1.1524
 2962SOL     OW20344   2.870   1.634   1.572 -0.1882 -0.2197 -0.0435
 2962SOL    HW120345   2.870   1.712   1.629  0.2294 -1.7057  1.9798
 2962SOL    HW220346   2.960   1.631   1.541 -0.2239  2.2465 -0.4311
 2963SOL     OW20347   1.346   3.657   2.728 -0.2527 -0.3262 -0.3138
 2963SOL    HW120348   1.256   3.691   2.732 -0.2329 -0.3029 -0.0741
 2963SOL    HW220349   1.348   3.599   2.805  3.0461 -0.6012 -0.6070
 2964SOL     OW20350   0.260   0.495   6.454 -0.5723  0.4282 -0.4849
 2964SOL    HW120351   0.297   0.546   6.382  0.5337 -0.7034 -0.6968
 2964SOL    HW220352   0.267   0.553   6.530 -1.3802 -0.7531  0.4933
 2965SOL     OW20353   2.775   3.781  12.664 -0.3699 -0.9435  0.4104
 2965SOL    HW120354   2.853   3.792  12.610 -2.2309  0.0672 -2.0981
 2965SOL    HW220355   2.816   3.743  12.741 -2.0837  1.0741  2.3227
 2966SOL     OW20356   0.571   1.578  13.030 -0.4067  0.1178 -0.3590
 2966SOL    HW120357   0.549   1.643  12.963 -2.8359 -0.7245 -0.3955
 2966SOL    HW220358   0.501   1.597  13.093  0.7471  0.4128  0.8320
 2967SOL     OW20359   2.954   1.653  12.031 -0.0370 -0.3239  0.7116
 2967SOL    HW120360   2.917   1.637  12.117  1.3170 -0.4128  1.2683
 2967SOL    HW220361   2.874   1.681  11.987  1.2396  0.0033 -1.4068
 2968SOL     OW20362   1.398   2.997  14.359 -0.2924 -0.5567 -0.2164
 2968SOL    HW120363   1.364   3.038  14.439  2.9752 -1.5340  1.6589
 2968SOL    HW220364   1.450   3.074  14.337  0.5739 -1.0881 -0.0200
 2969SOL     OW20365   3.405   3.945  16.179 -0.1729  0.1193 -0.0338
 2969SOL    HW120366   3.494   3.908  16.180  0.3292  1.3018 -0.8545
 2969SOL    HW220367   3.412   3.989  16.094  0.5030 -0.0705 -0.0843
 2970SOL     OW20368   1.384   1.024   7.000  0.5263 -0.8667 -0.0165
 2970SOL    HW120369   1.474   1.028   7.032  0.8977 -0.1916 -1.1726
 2970SOL    HW220370   1.371   0.931   7.018  0.1433 -1.1644 -1.8241
 2971SOL     OW20371   0.670   2.046   8.247  0.0101 -0.0842 -0.3630
 2971SOL    HW120372   0.766   2.042   8.252 -0.1376 -0.9968  2.1273
 2971SOL    HW220373   0.638   1.962   8.279 -0.7147 -0.0647 -1.0510
 2972SOL     OW20374   3.897   2.953   3.562 -0.5508 -0.3575  0.5209
 2972SOL    HW120375   3.952   2.917   3.493  1.0400  0.1508  1.5248
 2972SOL    HW220376   3.883   2.872   3.611 -1.1184  0.5973  1.9576
 2973SOL     OW20377   0.140   3.612  14.797  0.1590  0.3581  0.1118
 2973SOL    HW120378   0.101   3.684  14.847  0.1207  2.8719 -3.5746
 2973SOL    HW220379   0.099   3.536  14.838 -0.2450  2.4346  3.5381
 2974SOL     OW20380   2.148   3.811   2.929 -0.3131  0.2147 -0.2973
 2974SOL    HW120381   2.080   3.818   2.863 -1.1114  0.3496  0.5321
 2974SOL    HW220382   2.124   3.726   2.964  0.8150 -0.0150 -0.0624
 2975SOL     OW20383   1.262   3.191  15.519  0.2417  0.3938 -0.1023
 2975SOL    HW120384   1.253   3.118  15.457 -2.6395  0.3172  0.3759
 2975SOL    HW220385   1.357   3.196  15.515  0.1952  0.0389 -1.8571
 2976SOL     OW20386   2.362   1.319   6.649  0.2803 -0.0074  0.2502
 2976SOL    HW120387   2.426   1.248   6.638 -0.6318 -0.9250  0.9169
 2976SOL    HW220388   2.280   1.271   6.658 -0.2169  0.4616 -1.7139
 2977SOL     OW20389   4.125   1.932   3.591  0.1447  0.1150  0.0550
 2977SOL    HW120390   4.219   1.915   3.598  0.2866  0.7159 -0.4336
 2977SOL    HW220391   4.105   1.845   3.556  1.6811 -0.3030  0.2341
 2978SOL     OW20392   4.064   0.460  12.514  0.0353  0.0453 -0.0572
 2978SOL    HW120393   4.139   0.506  12.478  1.4544 -0.3664  2.3744
 2978SOL    HW220394   4.060   0.507  12.597  0.1654 -0.1122  0.0375
 2979SOL     OW20395   4.569   0.917  15.177 -0.2319 -0.2102  0.4575
 2979SOL    HW120396   4.522   0.835  15.168 -0.4539 -0.0442  0.1227
 2979SOL    HW220397   4.656   0.884  15.156  0.8566  1.9928  1.4791
 2980SOL     OW20398   0.875   1.997   7.795  0.2618  0.1504  0.0813
 2980SOL    HW120399   0.890   1.992   7.890 -3.6353 -2.4406  0.5533
 2980SOL    HW220400   0.961   2.019   7.760  1.2549 -1.7854  1.3018
 2981SOL     OW20401   2.562   4.468  16.444  0.5030 -0.0184 -0.0637
 2981SOL    HW120402   2.591   4.394  16.392 -0.4668 -0.0315 -0.5834
 2981SOL    HW220403   2.511   4.523  16.386  1.1451 -2.0638 -2.5565
 2982SOL     OW20404   2.654   3.840   6.072  0.3230  0.8992  0.4590
 2982SOL    HW120405   2.703   3.760   6.052 -0.9914  0.1165  0.3895
 2982SOL    HW220406   2.638   3.829   6.165 -1.8201  1.8338  0.1959
 2983SOL     OW20407   0.191   3.514   5.431  0.2385 -0.4892  0.1021
 2983SOL    HW120408   0.222   3.570   5.502 -0.4694  0.9462 -0.7365
 2983SOL    HW220409   0.118   3.569   5.405 -1.4112 -1.1807  3.3105
 2984SOL     OW20410   2.439   4.300   4.383 -0.0687 -0.3816 -0.6238
 2984SOL    HW120411   2.343   4.302   4.387  0.0321  0.3493  1.4327
 2984SOL    HW220412   2.456   4.223   4.436  0.3586 -1.5381 -2.4386
 2985SOL     OW20413   2.641   3.217   3.839  0.0527  0.2657  0.1051
 2985SOL    HW120414   2.617   3.150   3.776  1.1303  2.9079 -3.0786
 2985SOL    HW220415   2.715   3.182   3.890  0.2731  1.7643  0.8026
 2986SOL     OW20416   0.608   2.707  17.252  0.0395  0.1260 -0.1173
 2986SOL    HW120417   0.563   2.637  17.300  0.8705 -0.4343 -0.1489
 2986SOL    HW220418   0.550   2.783  17.250  1.1388  0.9577 -0.6840
 2987SOL     OW20419   2.951   2.571   3.290 -0.1569  0.4923  0.6481
 2987SOL    HW120420   2.995   2.648   3.253 -1.8409  0.6033 -1.0730
 2987SOL    HW220421   3.008   2.496   3.271 -0.5765  0.9865 -2.5285
 2988SOL     OW20422   2.961   4.092   8.329  0.0827 -0.2263 -0.1116
 2988SOL    HW120423   3.002   4.046   8.402  0.8889 -0.2739 -0.5984
 2988SOL    HW220424   2.989   4.041   8.254  2.4166 -0.4300  0.8775
 2989SOL     OW20425   4.078   0.252   0.944 -0.2912  0.2751  0.1594
 2989SOL    HW120426   4.028   0.245   1.026 -0.1046 -0.8037  0.1765
 2989SOL    HW220427   4.071   0.167   0.901 -1.5319  0.1909  0.5188
 2990SOL     OW20428   1.110   4.415  10.229  0.0147  0.3990  0.1969
 2990SOL    HW120429   1.029   4.384  10.189 -1.0304  3.0245  0.2826
 2990SOL    HW220430   1.125   4.503  10.193 -0.8507  0.6182  0.3890
 2991SOL     OW20431   2.016   3.840   3.365  0.1299 -0.2997 -0.1071
 2991SOL    HW120432   2.049   3.927   3.343 -1.0300  0.5506  1.5150
 2991SOL    HW220433   1.924   3.857   3.347 -0.3146 -1.2530  1.2391
 2992SOL     OW20434   0.572   1.310   3.985 -0.2629  0.5251 -0.1059
 2992SOL    HW120435   0.493   1.258   3.969  1.4139 -1.7299 -1.1390
 2992SOL    HW220436   0.603   1.311   3.894 -0.9475  1.4874 -0.3251
 2993SOL     OW20437   4.023   1.132  10.694  0.5195 -0.5744  0.0432
 2993SOL    HW120438   3.998   1.040  10.682 -3.9113  0.7505 -0.6892
 2993SOL    HW220439   4.031   1.169  10.607 -0.8562 -0.9340 -0.2254
 2994SOL     OW20440   1.297   4.103   7.392 -0.9172 -0.2368 -0.0670
 2994SOL    HW120441   1.367   4.039   7.396  0.0671  0.7906 -0.9875
 2994SOL    HW220442   1.349   4.166   7.442  1.5456 -1.6746 -0.8269
 2995SOL     OW20443   0.479   0.076  11.771 -0.2152  0.0792  0.0901
 2995SOL    HW120444   0.453   0.038  11.855 -0.0693 -1.2626 -0.4616
 2995SOL    HW220445   0.422   0.017  11.721  2.3069 -0.6330 -1.9498
 2996SOL     OW20446   4.255   2.271   5.097  0.2661  1.0022 -0.7475
 2996SOL    HW120447   4.321   2.319   5.046  1.9888 -0.5015  0.0827
 2996SOL    HW220448   4.307   2.244   5.172  0.3287 -0.9943 -1.5198
 2997SOL     OW20449   2.246   3.113   6.231 -0.3880 -0.5834  0.3218
 2997SOL    HW120450   2.298   3.138   6.155 -1.6825  0.2189 -0.3014
 2997SOL    HW220451   2.298   3.162   6.294  0.6047 -1.5166  0.2353
 2998SOL     OW20452   2.683   3.186   0.153 -0.3654 -0.3408 -0.6716
 2998SOL    HW120453   2.704   3.251   0.221 -0.6678 -1.1255  0.1682
 2998SOL    HW220454   2.595   3.219   0.136  0.0546  1.2079  0.1225
 2999SOL     OW20455   4.269   0.665  13.234  0.3027  0.2540  0.0919
 2999SOL    HW120456   4.326   0.606  13.284  0.6005 -1.9797 -2.9225
 2999SOL    HW220457   4.190   0.670  13.288 -0.1377 -1.6076 -0.3728
 3000SOL     OW20458   3.489   2.998   5.489  0.5284  0.2256  0.6921
 3000SOL    HW120459   3.581   2.979   5.471  0.7795  1.6614  0.4779
 3000SOL    HW220460   3.471   2.933   5.558  2.8951 -0.2368  0.8939
 3001SOL     OW20461   2.566   2.821  13.348 -0.0273  0.1472  0.7929
 3001SOL    HW120462   2.580   2.912  13.324  0.6973 -0.0572  0.4507
 3001SOL    HW220463   2.485   2.829  13.399 -1.7552  0.7716 -2.0452
 3002SOL     OW20464   2.241   3.660   6.828 -0.2499  0.8750 -0.0726
 3002SOL    HW120465   2.291   3.740   6.844 -0.2816  1.2882 -2.0465
 3002SOL    HW220466   2.203   3.655   6.915  1.6660 -2.3483  0.5965
 3003SOL     OW20467   1.885   1.652   6.548  0.4907  0.2209  0.7032
 3003SOL    HW120468   1.901   1.557   6.551 -2.1528 -0.2486 -0.0376
 3003SOL    HW220469   1.913   1.684   6.634 -2.0552  3.6204  0.2494
 3004SOL     OW20470   1.777   0.943   2.417 -0.6699  0.3657 -0.1503
 3004SOL    HW120471   1.712   0.929   2.487  0.5506 -1.4944  0.5958
 3004SOL    HW220472   1.793   0.854   2.387 -1.3928  0.1919 -0.0347
 3005SOL     OW20473   2.983   3.245  17.062 -0.3655  0.3547 -0.0970
 3005SOL    HW120474   2.899   3.291  17.068  1.8220  4.4515 -0.7618
 3005SOL    HW220475   2.953   3.160  17.029 -1.6728  1.0692 -0.7494
 3006SOL     OW20476   1.326   1.944  13.681  0.1900 -0.7335 -0.4013
 3006SOL    HW120477   1.249   2.001  13.674  0.6916  0.3094  2.4282
 3006SOL    HW220478   1.273   1.878  13.726  0.7798  0.5369  2.1888
 3007SOL     OW20479   0.614   4.377   3.473 -0.0919 -0.0251  0.3481
 3007SOL    HW120480   0.660   4.389   3.555 -0.8348  1.3638  0.5524
 3007SOL    HW220481   0.546   4.312   3.492 -1.5528  1.7477  1.1563
 3008SOL     OW20482   0.735   2.063   7.107 -0.2836  0.4083  0.1138
 3008SOL    HW120483   0.786   2.082   7.029 -0.2808 -0.7302 -0.1667
 3008SOL    HW220484   0.654   2.106   7.080  0.1885 -0.4638 -2.6730
 3009SOL     OW20485   3.284   2.618   8.480  0.6279  1.0763  0.0979
 3009SOL    HW120486   3.205   2.655   8.441 -0.3557 -0.8159  0.2429
 3009SOL    HW220487   3.239   2.546   8.525  0.5069  1.9057  1.2974
 3010SOL     OW20488   1.489   2.077   7.736  0.6924  0.2389 -0.1189
 3010SOL    HW120489   1.554   2.131   7.781  1.7901 -0.2974 -1.0637
 3010SOL    HW220490   1.468   2.007   7.798 -0.8670 -0.5095 -1.4650
 3011SOL     OW20491   2.477   1.776   9.791  0.6610  0.6186 -0.4532
 3011SOL    HW120492   2.400   1.821   9.756 -0.2335  0.4640  1.3256
 3011SOL    HW220493   2.441   1.687   9.794  0.5451  0.7514  2.0398
 3012SOL     OW20494   3.738   0.403  10.318 -0.1035  0.2430 -0.1706
 3012SOL    HW120495   3.736   0.308  10.308  1.9086  0.2711 -0.9072
 3012SOL    HW220496   3.831   0.419  10.301  0.0999 -1.2600 -0.4363
 3013SOL     OW20497   1.385   1.305   4.227  0.5775  0.1464  0.2741
 3013SOL    HW120498   1.318   1.372   4.215  0.2889 -0.2464 -0.3054
 3013SOL    HW220499   1.341   1.226   4.195  2.8844 -1.5116  1.2329
 3014SOL     OW20500   0.276   4.456  15.496 -0.6783 -0.2475 -0.1098
 3014SOL    HW120501   0.268   4.432  15.589  0.6063  0.6786  0.2312
 3014SOL    HW220502   0.230   4.385  15.452  1.1029 -1.6279  0.2429
 3015SOL     OW20503   0.885   3.543   7.342  0.2392 -0.0649  0.1351
 3015SOL    HW120504   0.887   3.606   7.414 -1.9257 -0.6669  0.7406
 3015SOL    HW220505   0.926   3.474   7.393  2.4446  1.9880  1.1563
 3016SOL     OW20506   2.042   2.465   3.519 -0.2508  0.1495  0.3276
 3016SOL    HW120507   1.989   2.391   3.548 -1.6146  0.7882 -0.5147
 3016SOL    HW220508   2.026   2.480   3.425 -1.2452  0.1735  0.5050
 3017SOL     OW20509   0.660   3.654  10.095  0.5394 -0.4347  0.1649
 3017SOL    HW120510   0.719   3.675  10.168 -0.9045 -0.2339  1.2574
 3017SOL    HW220511   0.579   3.630  10.140  0.5719 -2.1810 -0.7180
 3018SOL     OW20512   2.072   1.268   6.960 -0.3576  0.2159 -0.5213
 3018SOL    HW120513   2.003   1.215   6.999 -0.1348  0.2762 -0.0502
 3018SOL    HW220514   2.021   1.348   6.951  2.0878  1.9264  0.7908
 3019SOL     OW20515   2.971   4.071   6.087  0.7771  0.2487  0.6711
 3019SOL    HW120516   3.023   4.087   6.166  1.8279  0.7476 -0.1193
 3019SOL    HW220517   3.019   4.118   6.019  2.2412 -1.0828  0.7824
 3020SOL     OW20518   3.511   4.021   6.892  0.1000  0.2356  0.1511
 3020SOL    HW120519   3.605   4.023   6.873  0.2451 -0.7782  0.7463
 3020SOL    HW220520   3.472   3.936   6.869 -0.1916  0.4744 -0.2413
 3021SOL     OW20521   3.361   2.051   4.283 -0.7368  0.6509  0.2429
 3021SOL    HW120522   3.301   2.097   4.342  0.9696 -2.5171  4.3850
 3021SOL    HW220523   3.380   1.979   4.342  2.9394  1.0067 -0.5088
 3022SOL     OW20524   0.188   2.715   2.137 -0.0096  0.8124  0.1706
 3022SOL    HW120525   0.235   2.749   2.212 -1.2450  0.1950  1.2228
 3022SOL    HW220526   0.257   2.698   2.073 -1.1712  0.2376 -0.9426
 3023SOL     OW20527   3.636   3.026   4.495 -0.1405  0.1308 -0.2412
 3023SOL    HW120528   3.575   2.966   4.452  0.1173 -1.1337  1.1640
 3023SOL    HW220529   3.596   3.060   4.575  0.5017  0.6303 -0.1305
 3024SOL     OW20530   1.546   0.788   2.537 -0.3373 -0.6292  0.8178
 3024SOL    HW120531   1.478   0.851   2.515 -0.5938 -1.5458 -1.0408
 3024SOL    HW220532   1.511   0.703   2.508  0.3045 -1.8121  3.5375
 3025SOL     OW20533   3.131   1.793   6.771 -0.6014 -0.0761 -0.2092
 3025SOL    HW120534   3.176   1.798   6.855  1.2973  0.1690 -1.2269
 3025SOL    HW220535   3.103   1.701   6.774 -2.2651  0.4649  0.7603
 3026SOL     OW20536   1.176   1.536   8.989  0.0403 -0.3347 -0.0771
 3026SOL    HW120537   1.110   1.522   8.921  0.2587 -0.7536 -0.2069
 3026SOL    HW220538   1.217   1.618   8.962 -2.0221  1.6284  2.8140
 3027SOL     OW20539   4.556   3.370   2.833  0.4830  0.0535  0.2216
 3027SOL    HW120540   4.587   3.280   2.842 -0.1590 -0.0906  1.1031
 3027SOL    HW220541   4.470   3.338   2.807 -0.4432  0.7967  2.3092
 3028SOL     OW20542   1.406   0.152   5.502  0.0067  0.7363 -0.2751
 3028SOL    HW120543   1.353   0.202   5.564 -2.1580 -1.0110 -0.6907
 3028SOL    HW220544   1.337   0.112   5.448  1.4416 -2.0912 -0.0273
 3029SOL     OW20545   3.707   2.802  10.034  0.0275  0.3759 -0.1668
 3029SOL    HW120546   3.702   2.712  10.067 -2.7933 -0.2770 -2.3294
 3029SOL    HW220547   3.623   2.806   9.989 -0.0089  2.5382  0.1158
 3030SOL     OW20548   4.694   1.769   3.401 -0.5173  0.2101 -0.5451
 3030SOL    HW120549   4.661   1.680   3.387 -1.7831  0.5190  0.4294
 3030SOL    HW220550   0.049   1.766   3.348 -0.5356 -0.1551 -0.5527
 3031SOL     OW20551   4.555   0.876   7.983  0.8887  0.0414  0.1639
 3031SOL    HW120552   4.649   0.888   7.983  1.0521 -1.2605 -0.4601
 3031SOL    HW220553   4.527   0.961   8.018 -0.1095 -0.0695 -0.3451
 3032SOL     OW20554   1.971   2.669  15.426  0.4336  0.0441  0.6626
 3032SOL    HW120555   1.967   2.760  15.396  3.0399 -0.3703 -0.9772
 3032SOL    HW220556   1.918   2.638  15.353  0.9395  2.0824 -0.5756
 3033SOL     OW20557   3.387   4.048   1.603 -0.1981  0.1851  0.5445
 3033SOL    HW120558   3.361   3.968   1.558  0.9552 -1.1330  2.2352
 3033SOL    HW220559   3.483   4.042   1.601 -0.2776 -1.4487  1.8365
 3034SOL     OW20560   4.511   3.055   7.025 -0.2150 -0.5236  0.0255
 3034SOL    HW120561   4.550   3.066   6.939 -0.6188  2.0357  0.1685
 3034SOL    HW220562   4.581   3.074   7.088  0.5251  0.8888 -1.2521
 3035SOL     OW20563   2.985   2.521   1.480 -0.4581 -0.0789  0.1269
 3035SOL    HW120564   2.948   2.487   1.562 -3.9202  0.3139 -1.2538
 3035SOL    HW220565   2.918   2.520   1.411 -1.7648  1.1461  1.3659
 3036SOL     OW20566   3.936   0.895   5.860 -0.6653 -0.1555 -0.5045
 3036SOL    HW120567   3.935   0.839   5.938  1.1967 -0.4902 -0.7130
 3036SOL    HW220568   3.902   0.838   5.791  0.7612  0.3745 -1.6308
 3037SOL     OW20569   3.345   0.488  14.196  0.0517 -0.1527 -0.5494
 3037SOL    HW120570   3.325   0.565  14.249  1.1125 -0.2277 -0.0320
 3037SOL    HW220571   3.282   0.420  14.220 -0.2614  0.9420  1.6880
 3038SOL     OW20572   3.333   2.893   5.235  0.1622 -0.4567  0.3913
 3038SOL    HW120573   3.356   2.910   5.326  0.8386 -2.5328  0.6079
 3038SOL    HW220574   3.261   2.830   5.246 -0.4809  0.8883  3.8605
 3039SOL     OW20575   3.623   3.589   4.352  0.2250  0.5339 -0.1464
 3039SOL    HW120576   3.624   3.517   4.289  0.4774 -1.2259  1.8740
 3039SOL    HW220577   3.542   3.638   4.336  0.1793 -0.7014 -3.6079
 3040SOL     OW20578   1.516   1.906   1.889  0.0777 -0.4441  0.1114
 3040SOL    HW120579   1.593   1.896   1.833 -1.2630 -0.5293 -1.7146
 3040SOL    HW220580   1.554   1.965   1.955 -1.9141  2.6817 -1.5287
 3041SOL     OW20581   1.787   3.194   7.910  0.0713 -0.1333  0.4810
 3041SOL    HW120582   1.812   3.107   7.877  0.2900 -0.0371  0.3902
 3041SOL    HW220583   1.720   3.216   7.845  1.0428  0.2246 -0.4034
 3042SOL     OW20584   2.165   1.576  15.220  0.3419 -0.1876  0.2489
 3042SOL    HW120585   2.174   1.488  15.256 -1.2335  0.4682  2.2759
 3042SOL    HW220586   2.175   1.642  15.288  0.0757 -0.2463  0.3472
 3043SOL     OW20587   2.535   0.429   4.081  0.5460 -0.5836 -0.2636
 3043SOL    HW120588   2.522   0.464   3.993  1.6007  0.7664  0.1087
 3043SOL    HW220589   2.591   0.500   4.113 -0.1214 -0.9800  1.7933
 3044SOL     OW20590   0.400   0.654   9.305  0.4221  0.0621  0.8680
 3044SOL    HW120591   0.314   0.616   9.287  0.8581 -1.4657  1.9895
 3044SOL    HW220592   0.379   0.720   9.371 -0.6380 -0.2457  0.8336
 3045SOL     OW20593   3.208   0.251  14.251  0.3624  0.4664 -0.4528
 3045SOL    HW120594   3.130   0.198  14.237  0.1377  1.0211 -1.3577
 3045SOL    HW220595   3.276   0.191  14.281  0.6678  0.5633 -0.9340
 3046SOL     OW20596   1.216   0.136   0.749  0.3325 -0.0142 -0.1440
 3046SOL    HW120597   1.138   0.130   0.803  1.5897 -1.1161  1.5313
 3046SOL    HW220598   1.218   0.051   0.704  1.6637 -0.4145  0.6961
 3047SOL     OW20599   1.593   0.491  14.671  0.2261 -0.2027  0.1999
 3047SOL    HW120600   1.505   0.508  14.704  0.6133  0.3470  0.9652
 3047SOL    HW220601   1.637   0.565  14.713 -2.0808  0.5153  1.3459
 3048SOL     OW20602   2.129   4.089  17.408 -0.0024  0.2024 -0.3453
 3048SOL    HW120603   2.091   4.095  17.320  1.8142  0.4647 -1.1011
 3048SOL    HW220604   2.155   4.181  17.412  0.6079  0.0789 -1.7704
 3049SOL     OW20605   2.813   1.741   5.203  0.4449 -0.3741 -0.3442
 3049SOL    HW120606   2.769   1.826   5.209  1.7674  0.3737 -1.5302
 3049SOL    HW220607   2.904   1.764   5.217 -0.0247  1.4487 -0.2267
 3050SOL     OW20608   1.165   2.044   7.131  0.5247  0.0735  0.0388
 3050SOL    HW120609   1.134   2.119   7.080  1.4727  0.4653  0.0359
 3050SOL    HW220610   1.136   2.062   7.220  1.4139 -0.7723  0.4955
 3051SOL     OW20611   3.906   1.422   9.749 -0.3330  0.0145 -1.1729
 3051SOL    HW120612   3.877   1.346   9.697  0.6067 -1.9433  1.1371
 3051SOL    HW220613   3.863   1.413   9.834  1.8928 -1.0325 -0.1510
 3052SOL     OW20614   0.911   4.288   5.214 -0.4335 -0.1149 -0.1869
 3052SOL    HW120615   0.941   4.268   5.125  0.4484 -0.2347  0.1312
 3052SOL    HW220616   0.904   4.383   5.216  0.8421 -0.0203  0.0705
 3053SOL     OW20617   4.165   2.629   6.222 -0.2812  0.3584  0.1989
 3053SOL    HW120618   4.120   2.647   6.140 -0.9254  0.3503  0.5520
 3053SOL    HW220619   4.113   2.680   6.284 -2.5710 -0.9959 -0.6021
 3054SOL     OW20620   2.822   0.981   7.016 -0.0808  0.5089 -0.1489
 3054SOL    HW120621   2.739   0.941   7.043 -0.0852  0.5134 -0.1557
 3054SOL    HW220622   2.850   1.026   7.096 -2.0114 -0.1410  0.9053
 3055SOL     OW20623   1.413   0.932   6.430  0.4309  0.0088  0.1599
 3055SOL    HW120624   1.456   0.853   6.398  2.5712  0.6573  1.4190
 3055SOL    HW220625   1.407   0.923   6.525  2.5503 -1.5106  0.1535
 3056SOL     OW20626   3.812   0.665   7.147  0.2508 -0.0880 -0.0240
 3056SOL    HW120627   3.793   0.711   7.229  0.0214 -1.3602  0.6388
 3056SOL    HW220628   3.891   0.703   7.108  0.7869 -0.9367  0.2301
 3057SOL     OW20629   1.195   0.257  11.617  0.3858 -0.2845 -0.0174
 3057SOL    HW120630   1.162   0.227  11.532  0.4875  1.8415 -0.7998
 3057SOL    HW220631   1.155   0.341  11.637 -0.2221  0.1362 -3.0410
 3058SOL     OW20632   0.891   3.516   4.005 -0.0512  0.5336 -0.3603
 3058SOL    HW120633   0.885   3.600   3.961 -0.9084  0.8545  0.3657
 3058SOL    HW220634   0.875   3.541   4.096  1.1988  1.1932 -0.3241
 3059SOL     OW20635   3.017   0.454   4.763 -0.7645 -0.0728 -0.6471
 3059SOL    HW120636   2.933   0.408   4.750 -1.2808  0.1726  1.7742
 3059SOL    HW220637   3.001   0.540   4.801 -2.1024 -0.7730  0.4115
 3060SOL     OW20638   2.013   2.797   1.742  0.4958 -0.5278 -0.1208
 3060SOL    HW120639   2.025   2.763   1.653 -0.9531  0.8412 -0.8266
 3060SOL    HW220640   1.986   2.884   1.715 -0.1878 -0.5030  0.6318
 3061SOL     OW20641   2.986   4.647   4.974 -0.0496 -0.3272 -0.4019
 3061SOL    HW120642   3.013   4.561   4.941 -2.5870 -0.7945 -1.3470
 3061SOL    HW220643   2.896   4.632   5.002  0.1421  1.3834  1.0624
 3062SOL     OW20644   4.116   3.646  17.328  0.5955  0.3446  0.3456
 3062SOL    HW120645   4.075   3.725  17.292 -0.1550 -1.4023 -2.5993
 3062SOL    HW220646   4.106   3.594  17.248  1.6831  1.7358 -0.7178
 3063SOL     OW20647   1.782   0.502  10.038  0.7613 -0.1031 -0.2403
 3063SOL    HW120648   1.867   0.489  10.081  1.4713 -0.6654 -1.8225
 3063SOL    HW220649   1.725   0.451  10.095 -0.4430  0.8941 -0.5484
 3064SOL     OW20650   2.490   3.857   9.190  0.2920  0.3948 -0.3846
 3064SOL    HW120651   2.536   3.788   9.238 -0.1854  0.3581  0.0208
 3064SOL    HW220652   2.555   3.921   9.164  0.7742  0.3605  0.7574
 3065SOL     OW20653   4.466   3.943   7.765 -0.0881 -0.4697 -0.4387
 3065SOL    HW120654   4.447   3.874   7.829 -1.6797 -0.8745 -1.3340
 3065SOL    HW220655   4.504   4.015   7.815 -1.1767  0.6876 -1.2880
 3066SOL     OW20656   2.688   2.514   4.115 -0.4792 -1.1849 -0.7690
 3066SOL    HW120657   2.780   2.521   4.087 -0.0776  0.1738  0.8981
 3066SOL    HW220658   2.661   2.604   4.097 -1.4854 -1.2236  0.5509
 3067SOL     OW20659   1.409   1.482   0.292 -0.0860  0.0134 -0.0929
 3067SOL    HW120660   1.491   1.526   0.315 -0.8399  0.7114  1.2428
 3067SOL    HW220661   1.378   1.476   0.382  2.0632  0.5233  0.6779
 3068SOL     OW20662   2.992   3.577   3.255  0.3700  0.0780  0.1783
 3068SOL    HW120663   2.991   3.671   3.236 -0.0781  0.5592  2.5288
 3068SOL    HW220664   2.973   3.561   3.163  0.4263  0.4210  0.1082
 3069SOL     OW20665   2.609   0.118   8.168  0.2120  0.3279  0.2920
 3069SOL    HW120666   2.600   0.210   8.142 -1.1563  0.2595  0.4934
 3069SOL    HW220667   2.578   0.069   8.092 -0.9048 -0.3661  1.1910
 3070SOL     OW20668   0.321   3.652   3.744 -0.2682  0.0762 -0.1800
 3070SOL    HW120669   0.297   3.571   3.788  2.7464  0.0480  1.4405
 3070SOL    HW220670   0.399   3.621   3.698 -0.5390  0.5646 -0.9791
 3071SOL     OW20671   2.218   0.617   3.332  0.2896 -0.2805  0.1925
 3071SOL    HW120672   2.299   0.648   3.293  1.0016 -0.7546  1.2979
 3071SOL    HW220673   2.257   0.576   3.408 -0.2180  1.2770  1.3113
 3072SOL     OW20674   1.579   0.812   6.915 -0.2930  0.3809 -0.0822
 3072SOL    HW120675   1.616   0.743   6.970 -1.0930  0.6428  0.7800
 3072SOL    HW220676   1.617   0.780   6.833 -1.1981  1.0093 -0.7342
 3073SOL     OW20677   3.031   3.532  17.066  0.5186  0.3029 -0.0368
 3073SOL    HW120678   2.999   3.543  16.976  1.1501 -0.9475 -0.4138
 3073SOL    HW220679   2.955   3.515  17.121  0.2510  1.9558  0.0991
 3074SOL     OW20680   2.966   3.976   2.755  0.5088 -0.1296 -0.4601
 3074SOL    HW120681   2.982   3.920   2.679  2.0639  1.3336 -1.1916
 3074SOL    HW220682   2.890   4.026   2.726  0.0091 -1.2914 -1.1836
 3075SOL     OW20683   0.027   2.057   9.426  0.6880 -0.5973 -0.4955
 3075SOL    HW120684   0.084   1.997   9.378 -1.2050  0.3397 -3.9320
 3075SOL    HW220685   4.674   2.001   9.441 -0.1869  0.2783 -1.7877
 3076SOL     OW20686   3.860   2.878   4.603  0.2689  0.0386  0.7135
 3076SOL    HW120687   3.799   2.936   4.557 -1.9669 -2.3150  0.7561
 3076SOL    HW220688   3.851   2.912   4.692  0.0471 -1.0494  1.0955
 3077SOL     OW20689   4.402   0.968   9.181 -0.3167  0.3638 -1.0059
 3077SOL    HW120690   4.384   1.006   9.096 -1.1326 -1.0005 -1.4539
 3077SOL    HW220691   4.450   1.039   9.222 -0.0471 -0.1990 -0.3405
 3078SOL     OW20692   3.662   3.689   8.197 -0.4238 -0.1561 -0.1672
 3078SOL    HW120693   3.596   3.630   8.235 -2.4241  1.1441 -1.6689
 3078SOL    HW220694   3.617   3.724   8.120  0.3823  1.3535  0.0638
 3079SOL     OW20695   1.599   1.350  11.421  0.1333  0.3077 -0.2039
 3079SOL    HW120696   1.619   1.423  11.479 -0.2562 -0.3712  0.7903
 3079SOL    HW220697   1.520   1.316  11.462  0.3355 -0.3553 -0.3656
 3080SOL     OW20698   1.187   0.968   6.277  0.4013  0.3183  0.0611
 3080SOL    HW120699   1.209   1.037   6.214  0.4099  0.5767  0.3472
 3080SOL    HW220700   1.269   0.975   6.326  0.4538  1.0560 -0.1351
 3081SOL     OW20701   3.370   4.247  10.737  0.0010  0.3763  0.1871
 3081SOL    HW120702   3.356   4.153  10.725  2.2559  0.0389  0.1798
 3081SOL    HW220703   3.460   4.242  10.769 -0.2676 -0.8167  0.7930
 3082SOL     OW20704   3.860   4.007  10.217 -0.2362  0.3508  0.3404
 3082SOL    HW120705   3.818   3.941  10.273 -0.5563 -0.3397 -0.7048
 3082SOL    HW220706   3.901   3.955  10.148  1.3864 -0.3367  1.8188
 3083SOL     OW20707   3.368   1.533   6.257 -0.1675 -0.2036 -1.1326
 3083SOL    HW120708   3.322   1.557   6.176  1.3347  1.0384 -1.6325
 3083SOL    HW220709   3.375   1.622   6.293  0.4783 -0.6319 -0.2148
 3084SOL     OW20710   1.619   0.070   6.776 -0.2170 -0.3483 -0.5020
 3084SOL    HW120711   1.613   0.025   6.860  0.7382  0.1604 -0.1702
 3084SOL    HW220712   1.698   0.121   6.794 -0.2639  0.0358 -1.3673
 3085SOL     OW20713   2.853   4.669   4.284  0.3533  0.1886 -0.2894
 3085SOL    HW120714   2.811   4.605   4.342 -0.1104  1.1738  0.4650
 3085SOL    HW220715   2.895   0.006   4.345 -3.4636 -0.6706  3.1715
 3086SOL     OW20716   4.547   2.928   2.662 -0.1447  0.4928 -0.2753
 3086SOL    HW120717   4.538   2.854   2.603 -1.9081 -0.0952  0.7423
 3086SOL    HW220718   4.512   2.884   2.739  1.2845 -0.7700 -0.3400
 3087SOL     OW20719   2.307   3.028   3.392  0.0185  0.3105 -0.8747
 3087SOL    HW120720   2.333   3.022   3.300  1.3086  2.2159 -0.6267
 3087SOL    HW220721   2.366   2.956   3.418  0.9630 -0.9950 -6.5725
 3088SOL     OW20722   1.551   2.920  17.158  0.0654  0.1102  0.3721
 3088SOL    HW120723   1.593   2.835  17.174 -1.2560 -0.6101 -0.0268
 3088SOL    HW220724   1.511   2.903  17.073 -0.2581  1.0885  0.3338
 3089SOL     OW20725   2.507   1.466   1.605  0.5187 -0.0795 -0.1978
 3089SOL    HW120726   2.577   1.516   1.564 -0.9218  1.4286 -0.8376
 3089SOL    HW220727   2.499   1.380   1.562 -0.7203  1.1239 -2.3874
 3090SOL     OW20728   3.944   3.189   3.746  0.6546 -0.0240  0.1262
 3090SOL    HW120729   3.981   3.127   3.809  1.6576  0.5400  0.0915
 3090SOL    HW220730   3.975   3.267   3.794 -0.9617  1.5177 -1.3396
 3091SOL     OW20731   1.672   0.408  12.961  0.4028  0.1013  1.1532
 3091SOL    HW120732   1.670   0.496  12.924 -0.1827  0.4793  2.0877
 3091SOL    HW220733   1.618   0.415  13.040 -2.5513  0.7563 -0.9637
 3092SOL     OW20734   1.047   2.800   0.922 -0.5413  0.0064 -0.1534
 3092SOL    HW120735   1.025   2.876   0.868  0.4103 -0.7898 -1.6436
 3092SOL    HW220736   1.142   2.796   0.912 -0.6039 -0.1031 -0.6973
 3093SOL     OW20737   3.476   3.757   3.351 -0.2750  0.7204  0.4067
 3093SOL    HW120738   3.389   3.795   3.364  0.4049  2.2805  0.4309
 3093SOL    HW220739   3.478   3.700   3.427  0.0152  1.7186  1.1450
 3094SOL     OW20740   1.280   2.043   3.169 -0.0788  0.4606  0.2444
 3094SOL    HW120741   1.195   2.004   3.192  0.8414 -0.6805  1.6927
 3094SOL    HW220742   1.315   2.053   3.257 -1.0592  0.5925  0.6213
 3095SOL     OW20743   4.285   2.681  16.928  0.3364 -0.2939 -0.4871
 3095SOL    HW120744   4.249   2.731  17.001 -0.0496 -1.7338  0.3083
 3095SOL    HW220745   4.204   2.656  16.884  0.7536 -0.8007 -0.9730
 3096SOL     OW20746   3.851   1.950   3.354  0.0381  0.2870  0.4707
 3096SOL    HW120747   3.857   2.044   3.369  0.9898  0.4393 -0.9482
 3096SOL    HW220748   3.944   1.931   3.340  0.2809  0.8342  1.3306
 3097SOL     OW20749   4.474   2.392   2.534  0.5072 -0.5096 -0.1700
 3097SOL    HW120750   4.561   2.422   2.559  1.2403  0.6281 -4.1028
 3097SOL    HW220751   4.490   2.352   2.448  1.7828 -0.1452 -0.0884
 3098SOL     OW20752   1.090   0.473  17.073 -0.3804 -0.1246  0.7947
 3098SOL    HW120753   1.108   0.391  17.027 -3.1623  0.2474 -0.9439
 3098SOL    HW220754   1.115   0.538  17.007 -1.1469 -0.0736  0.5590
 3099SOL     OW20755   0.508   4.224   6.292  0.6313  0.3743  0.0225
 3099SOL    HW120756   0.511   4.318   6.271  2.0875 -0.0933 -1.8727
 3099SOL    HW220757   0.556   4.213   6.374 -0.3678  0.9615  0.6873
 3100SOL     OW20758   3.176   1.137  11.702  0.1004  0.0895 -0.3236
 3100SOL    HW120759   3.202   1.227  11.721  3.3408 -0.5185 -1.9936
 3100SOL    HW220760   3.106   1.166  11.643  0.0983  1.3044  0.2697
 3101SOL     OW20761   3.550   0.787  10.018  0.5355  0.0207  0.2973
 3101SOL    HW120762   3.495   0.711   9.995  2.3738 -1.8072  1.9400
 3101SOL    HW220763   3.538   0.788  10.113 -0.2849 -2.2601  0.2264
 3102SOL     OW20764   2.995   0.915   3.388 -0.0539 -0.4809 -0.1360
 3102SOL    HW120765   3.078   0.963   3.383  0.2991 -0.9468  1.5024
 3102SOL    HW220766   2.924   0.975   3.411  0.7326  0.0888  0.8311
 3103SOL     OW20767   2.835   4.350   7.706 -0.1544 -0.1740  0.0275
 3103SOL    HW120768   2.858   4.430   7.753 -1.3912  0.9183 -1.2448
 3103SOL    HW220769   2.843   4.283   7.773 -1.2804  0.5555  0.8872
 3104SOL     OW20770   1.386   2.924   8.723 -0.2118 -0.2397 -0.4277
 3104SOL    HW120771   1.418   2.834   8.731 -0.6684 -0.3014  0.8360
 3104SOL    HW220772   1.339   2.926   8.640  2.9230 -0.5828 -2.1892
 3105SOL     OW20773   3.306   4.235  16.083  0.3419  0.6896 -0.0538
 3105SOL    HW120774   3.331   4.176  16.012 -1.2701 -0.4653  0.3319
 3105SOL    HW220775   3.220   4.269  16.057  0.7056  0.9417 -0.9509
 3106SOL     OW20776   4.219   3.152  12.983 -0.5299 -0.0433 -0.6046
 3106SOL    HW120777   4.231   3.116  12.895  1.4331  0.6157 -0.6131
 3106SOL    HW220778   4.300   3.127  13.028  0.5128  0.7961 -2.0270
 3107SOL     OW20779   3.520   2.461   1.414  0.3439 -0.6275  0.5437
 3107SOL    HW120780   3.534   2.541   1.363  0.8027 -0.2679  1.2390
 3107SOL    HW220781   3.427   2.442   1.407  0.4613 -1.2477  0.5899
 3108SOL     OW20782   4.301   4.377   3.130 -0.3217 -0.5981 -0.6009
 3108SOL    HW120783   4.343   4.368   3.045  0.4652 -4.0334  0.1590
 3108SOL    HW220784   4.258   4.463   3.122 -0.1474 -0.5334 -0.8518
 3109SOL     OW20785   4.011   1.903  10.560  0.2511 -0.5864  0.2917
 3109SOL    HW120786   4.044   1.815  10.545  1.7398 -0.0647  0.5533
 3109SOL    HW220787   4.078   1.947  10.611 -1.6360  2.0750  0.5038
 3110SOL     OW20788   0.900   3.618   3.262 -0.1922  0.3643  0.0623
 3110SOL    HW120789   0.813   3.598   3.229 -1.2855  1.3194  2.4159
 3110SOL    HW220790   0.949   3.542   3.231  0.8711  1.8828 -1.9729
 3111SOL     OW20791   1.681   4.458   2.527  0.7720  0.2551 -0.2406
 3111SOL    HW120792   1.775   4.463   2.540  0.4217  0.6258  2.1740
 3111SOL    HW220793   1.690   4.485   2.436  1.6533  1.1263  0.1053
 3112SOL     OW20794   2.460   3.895   4.789  0.6435 -0.4703  0.4082
 3112SOL    HW120795   2.494   3.900   4.878 -0.1483  0.3802  0.6699
 3112SOL    HW220796   2.434   3.805   4.770 -0.4349 -0.0414 -0.1603
 3113SOL     OW20797   3.902   0.830   7.564  0.0915  0.0412  0.4508
 3113SOL    HW120798   3.819   0.785   7.550  1.5486 -2.1413 -1.2052
 3113SOL    HW220799   3.911   0.883   7.485 -1.6004 -0.8913 -0.3466
 3114SOL     OW20800   4.267   0.705   1.681  0.0497 -0.5485 -0.0083
 3114SOL    HW120801   4.325   0.628   1.681  1.0189  0.1778 -0.0726
 3114SOL    HW220802   4.328   0.777   1.665 -0.3622 -0.2139 -0.0746
 3115SOL     OW20803   1.431   2.468   2.513 -0.2920 -0.1427 -0.2892
 3115SOL    HW120804   1.352   2.415   2.505  0.2186 -0.8953 -0.3580
 3115SOL    HW220805   1.489   2.444   2.440  0.9684 -0.0626  0.6800
 3116SOL     OW20806   4.267   2.594   2.837 -0.0635 -0.0246  0.1030
 3116SOL    HW120807   4.362   2.582   2.833 -0.0255  0.2048  0.3008
 3116SOL    HW220808   4.272   2.688   2.857  0.3723  0.6058 -2.8375
 3117SOL     OW20809   1.558   3.146   3.182 -0.2298  0.0048  0.5098
 3117SOL    HW120810   1.630   3.208   3.195  0.1883  0.2760 -2.9309
 3117SOL    HW220811   1.562   3.107   3.094  1.2448 -0.3970  0.7678
 3118SOL     OW20812   3.558   0.803   2.409  0.0632 -0.2079  0.2894
 3118SOL    HW120813   3.580   0.751   2.332  2.1269  0.4881  0.3907
 3118SOL    HW220814   3.579   0.887   2.368 -1.6659  0.0236 -0.1152
 3119SOL     OW20815   1.907   4.286   1.048 -0.1260 -0.1477  0.0800
 3119SOL    HW120816   1.956   4.289   1.130 -0.8362  1.1584  0.4673
 3119SOL    HW220817   1.824   4.258   1.086  0.1573 -1.6330 -0.3855
 3120SOL     OW20818   4.274   4.370   7.384 -0.6144 -0.5615 -0.0256
 3120SOL    HW120819   4.199   4.428   7.372 -0.0650  0.1952  0.1947
 3120SOL    HW220820   4.312   4.405   7.464  1.2187  0.2144 -1.2231
 3121SOL     OW20821   4.413   0.232  16.892  0.7222  0.8926  0.5868
 3121SOL    HW120822   4.371   0.153  16.923  1.4070 -0.2531 -1.3736
 3121SOL    HW220823   4.474   0.237  16.965  0.2673 -1.3161  1.0898
 3122SOL     OW20824   4.403   2.127  14.479 -0.1040  0.3139 -0.3402
 3122SOL    HW120825   4.358   2.044  14.465  1.2324 -0.0677 -2.3278
 3122SOL    HW220826   4.393   2.146  14.573  0.1149  1.2439 -0.4996
 3123SOL     OW20827   3.757   1.034   1.627 -0.3770  0.3977  0.4691
 3123SOL    HW120828   3.806   1.091   1.687 -0.0256  1.5172 -0.8806
 3123SOL    HW220829   3.812   0.959   1.606 -4.9769 -2.4944 -1.1277
 3124SOL     OW20830   3.131   0.765   2.689 -0.5472  0.1970 -0.0973
 3124SOL    HW120831   3.145   0.730   2.601  0.8537  1.7478 -0.4737
 3124SOL    HW220832   3.150   0.685   2.739 -0.9489 -1.2882 -2.3308
 3125SOL     OW20833   3.980   0.981   4.954 -0.6393  0.2220  0.5533
 3125SOL    HW120834   3.946   0.930   5.028 -0.3613  0.7468  1.0443
 3125SOL    HW220835   4.054   0.933   4.918 -0.5183  0.9023 -0.0910
 3126SOL     OW20836   0.850   0.433   6.202 -0.0575  0.4644  0.8178
 3126SOL    HW120837   0.822   0.452   6.292 -0.9267  0.7671  0.4896
 3126SOL    HW220838   0.767   0.438   6.154  2.5643 -3.2327 -4.0007
 3127SOL     OW20839   0.540   1.360   2.569 -0.0700 -0.6135  0.0916
 3127SOL    HW120840   0.532   1.367   2.474 -2.6837 -2.0921  0.1824
 3127SOL    HW220841   0.521   1.268   2.590 -0.3449 -0.2175  1.5720
 3128SOL     OW20842   4.454   1.011   0.273  0.6874  0.3387 -0.0392
 3128SOL    HW120843   4.437   1.022   0.367 -2.1999 -0.3345 -0.4884
 3128SOL    HW220844   4.543   0.977   0.285 -0.1244 -1.4682  0.9534
 3129SOL     OW20845   2.175   4.652   7.594  0.4758 -0.6160  0.1105
 3129SOL    HW120846   2.168   4.588   7.664  0.1403  0.4993  1.0993
 3129SOL    HW220847   2.125   4.716   7.644  0.4942  0.0994 -0.7769
 3130SOL     OW20848   3.209   2.330  16.429  0.7106 -0.0168  0.1743
 3130SOL    HW120849   3.162   2.298  16.352 -0.2421  1.3724  0.1813
 3130SOL    HW220850   3.183   2.422  16.437  2.6918  0.4682  1.0777
 3131SOL     OW20851   2.212   4.128   5.730 -0.2003  0.0486 -0.3697
 3131SOL    HW120852   2.210   4.040   5.767  1.0625 -0.4577 -1.4977
 3131SOL    HW220853   2.126   4.129   5.689  0.6634 -0.1659 -2.1824
 3132SOL     OW20854   0.466   0.959   6.977  0.4880 -0.3153  0.3188
 3132SOL    HW120855   0.461   0.895   7.048 -1.7132  0.2897  0.7121
 3132SOL    HW220856   0.466   1.047   7.014 -1.6968 -0.7474  1.3431
 3133SOL     OW20857   2.237   1.597   8.721 -0.2899 -0.1257 -0.0530
 3133SOL    HW120858   2.236   1.548   8.639  0.6094  0.4932 -0.4363
 3133SOL    HW220859   2.331   1.604   8.735 -0.3832 -1.7062  1.3411
 3134SOL     OW20860   2.090   3.596   2.099 -0.2686  0.0689 -0.1747
 3134SOL    HW120861   2.158   3.547   2.146 -0.5761 -0.2917 -0.1044
 3134SOL    HW220862   2.010   3.551   2.127  0.3925 -0.3033  1.1219
 3135SOL     OW20863   1.473   0.239  15.474 -0.4531  0.2915 -0.2057
 3135SOL    HW120864   1.496   0.298  15.402  1.0159  0.0216  0.0325
 3135SOL    HW220865   1.381   0.263  15.479 -0.8657 -1.9018  2.8695
 3136SOL     OW20866   3.899   4.158   3.748  0.9153  0.3194  0.1091
 3136SOL    HW120867   3.845   4.083   3.725 -0.0663  0.0711  3.1976
 3136SOL    HW220868   3.938   4.173   3.662  1.5650 -3.3697 -0.2245
 3137SOL     OW20869   2.953   3.869   9.807  0.1487  0.6995 -0.0349
 3137SOL    HW120870   2.939   3.821   9.889 -3.1616  0.8371 -0.5197
 3137SOL    HW220871   2.916   3.953   9.834 -1.1729  0.1580 -0.1256
 3138SOL     OW20872   1.623   4.545   2.242 -0.3180  0.0393  0.2517
 3138SOL    HW120873   1.555   4.509   2.185 -0.3347  1.0793 -0.3848
 3138SOL    HW220874   1.610   4.638   2.221 -0.3139 -0.5655 -2.3175
 3139SOL     OW20875   0.772   3.133   4.397 -0.2240 -0.5183 -0.3309
 3139SOL    HW120876   0.689   3.122   4.351 -0.3735 -0.2309 -0.1280
 3139SOL    HW220877   0.773   3.227   4.413 -0.8274 -0.3574 -1.2374
 3140SOL     OW20878   1.292   1.979  17.282 -0.1878 -0.5864  0.0117
 3140SOL    HW120879   1.332   1.941  17.204  1.8831 -1.0297  1.2988
 3140SOL    HW220880   1.199   1.958  17.270 -0.7031  0.3544  2.3180
 3141SOL     OW20881   2.257   3.855   5.229  0.1899  0.3153  0.0409
 3141SOL    HW120882   2.178   3.811   5.198 -0.0678 -1.2084  2.8400
 3141SOL    HW220883   2.242   3.938   5.184  0.9765 -0.0206 -0.8292
 3142SOL     OW20884   0.786   1.684   2.450  0.4236 -0.6286  0.0825
 3142SOL    HW120885   0.877   1.657   2.459 -0.4058 -3.0481  0.9833
 3142SOL    HW220886   0.758   1.639   2.370 -1.2534  0.1539  0.2466
 3143SOL     OW20887   1.759   3.444  14.565 -0.3640 -0.1242  0.3670
 3143SOL    HW120888   1.703   3.366  14.570  0.0867 -0.4331  0.5840
 3143SOL    HW220889   1.823   3.421  14.632  0.0225 -3.5071 -1.1696
 3144SOL     OW20890   2.082   0.370   5.398  0.0509 -1.0196 -0.3556
 3144SOL    HW120891   2.161   0.357   5.452  0.1882  1.2056 -0.0424
 3144SOL    HW220892   2.107   0.460   5.380  0.8761 -1.3831 -1.0225
 3145SOL     OW20893   2.353   2.173   6.222  0.0467  0.0006 -0.1782
 3145SOL    HW120894   2.440   2.183   6.260  0.1482 -1.1789 -0.1017
 3145SOL    HW220895   2.332   2.265   6.207  0.6352 -0.0794 -1.4858
 3146SOL     OW20896   3.154   3.383   0.318 -0.1447  0.3998  0.0406
 3146SOL    HW120897   3.181   3.302   0.360  2.6632  0.6864 -1.2127
 3146SOL    HW220898   3.220   3.437   0.361 -1.0294  1.2181  0.3826
 3147SOL     OW20899   0.210   3.274   5.566 -0.0648  0.1663  0.5597
 3147SOL    HW120900   0.205   3.346   5.502 -1.0747  0.1156  0.5764
 3147SOL    HW220901   0.208   3.319   5.650 -0.3489 -2.1068  1.7605
 3148SOL     OW20902   1.090   3.765   9.284  0.2729  0.2109  0.5122
 3148SOL    HW120903   1.075   3.716   9.203  0.8009  0.8810  0.0112
 3148SOL    HW220904   1.004   3.769   9.325  0.7310 -0.3924  1.5525
 3149SOL     OW20905   3.837   2.527   7.122 -0.2620  0.0519 -0.0880
 3149SOL    HW120906   3.915   2.579   7.143 -3.4023  4.4054  0.8527
 3149SOL    HW220907   3.878   2.441   7.128  2.9183  1.5306 -0.7119
 3150SOL     OW20908   3.149   1.619  11.527 -0.2145  0.1460  0.5822
 3150SOL    HW120909   3.186   1.588  11.444 -3.2281  1.0028 -1.0727
 3150SOL    HW220910   3.157   1.714  11.517 -2.5530  0.1929 -0.7647
 3151SOL     OW20911   2.555   2.855   2.767  0.1642 -0.3961  0.0105
 3151SOL    HW120912   2.489   2.918   2.796  0.2771  0.0020 -0.5956
 3151SOL    HW220913   2.571   2.872   2.674  0.4059 -1.5169 -0.1556
 3152SOL     OW20914   1.177   1.505  10.783  0.0066 -0.1455 -0.7351
 3152SOL    HW120915   1.222   1.581  10.820 -0.5517  0.0599 -0.4828
 3152SOL    HW220916   1.201   1.428  10.835 -2.9220 -0.7127 -0.2213
 3153SOL     OW20917   3.793   3.161   5.683 -0.7695 -0.3402  0.4361
 3153SOL    HW120918   3.815   3.218   5.757  1.6491 -1.6944  0.7389
 3153SOL    HW220919   3.792   3.075   5.725  2.3807 -0.7432 -0.3149
 3154SOL     OW20920   2.546   2.584   2.105 -0.5141 -1.3243 -0.4565
 3154SOL    HW120921   2.601   2.652   2.066 -0.2060 -1.1585  0.2682
 3154SOL    HW220922   2.483   2.641   2.149  0.7984  0.2414 -0.6237
 3155SOL     OW20923   4.191   4.007   8.321 -0.4571  0.8756  0.0602
 3155SOL    HW120924   4.250   4.060   8.268  0.4908 -0.7900 -0.5570
 3155SOL    HW220925   4.138   4.063   8.378 -0.1751  1.5488 -0.3438
 3156SOL     OW20926   3.475   0.987   3.572  0.1383  0.0147 -0.6494
 3156SOL    HW120927   3.545   1.014   3.514 -0.6763  0.7987 -1.2786
 3156SOL    HW220928   3.443   0.912   3.521 -1.7787  0.3126  0.1140
 3157SOL     OW20929   2.395   4.574   2.755 -0.6208 -0.4832  0.1511
 3157SOL    HW120930   2.303   4.574   2.781 -0.1049  1.2157  1.9823
 3157SOL    HW220931   2.417   4.665   2.736  0.1941 -0.2835  2.0178
 3158SOL     OW20932   1.418   2.622   8.673  0.2103  0.0059 -0.4476
 3158SOL    HW120933   1.439   2.535   8.707 -2.3851 -0.7097 -0.6749
 3158SOL    HW220934   1.489   2.634   8.610  3.2974  1.4713  3.2491
 3159SOL     OW20935   3.025   1.003  11.858 -0.3362 -0.3126  0.1484
 3159SOL    HW120936   3.102   1.038  11.814 -1.3937  0.3831 -1.1351
 3159SOL    HW220937   2.987   0.960  11.782 -0.2982 -1.5226  0.8070
 3160SOL     OW20938   4.063   2.946  16.727 -0.3682 -0.0530  0.1004
 3160SOL    HW120939   4.126   3.015  16.746 -1.9001  1.3067  0.2336
 3160SOL    HW220940   4.069   2.892  16.806  0.2111  0.4867  0.4230
 3161SOL     OW20941   0.332   3.787   0.435  0.4221  0.5091 -0.3437
 3161SOL    HW120942   0.336   3.765   0.341  0.4179  2.7999 -0.8882
 3161SOL    HW220943   0.297   3.876   0.436 -1.8606 -0.3146 -2.5998
 3162SOL     OW20944   4.236   3.137   4.741  0.1581  0.2153  0.2935
 3162SOL    HW120945   4.199   3.057   4.706  0.0204  1.0886 -1.5492
 3162SOL    HW220946   4.162   3.199   4.742  2.8563  3.4152  4.3102
 3163SOL     OW20947   3.343   3.101   1.981 -0.4538  0.1416  0.3930
 3163SOL    HW120948   3.381   3.113   1.894  1.4294 -1.8278  0.9378
 3163SOL    HW220949   3.285   3.175   1.999 -0.8954  0.1419 -1.0267
 3164SOL     OW20950   0.260   2.107   2.125 -0.6137  0.1195 -0.2784
 3164SOL    HW120951   0.328   2.040   2.116  0.4086  1.1558 -0.3175
 3164SOL    HW220952   0.198   2.053   2.173 -0.0567  2.2415  2.8290
 3165SOL     OW20953   2.549   3.333   7.709  0.1649  0.1852  0.2652
 3165SOL    HW120954   2.575   3.354   7.619  0.0204 -0.5962  0.0414
 3165SOL    HW220955   2.509   3.246   7.707 -2.3807  1.3036  2.8305
 3166SOL     OW20956   3.072   0.103  16.432 -0.3508 -0.1054 -0.3149
 3166SOL    HW120957   3.022   0.126  16.511  1.1261  1.5129  0.1613
 3166SOL    HW220958   3.008   0.043  16.394  0.4493 -0.7533 -0.6632
 3167SOL     OW20959   2.323   2.201   4.919 -0.5158  0.2501 -0.2656
 3167SOL    HW120960   2.282   2.183   5.003  1.4127 -1.1986  0.3661
 3167SOL    HW220961   2.368   2.118   4.902 -1.2029  0.1424 -1.4891
 3168SOL     OW20962   2.846   3.934   3.272  0.1987 -0.1461  0.4944
 3168SOL    HW120963   2.936   3.953   3.246 -0.0791  0.0593 -0.3072
 3168SOL    HW220964   2.798   3.959   3.193  4.0450  0.8727 -1.5245
 3169SOL     OW20965   2.472   2.813   9.883  0.3295 -0.0414 -0.6708
 3169SOL    HW120966   2.520   2.762   9.817 -0.9957 -3.6033  1.0816
 3169SOL    HW220967   2.417   2.738   9.907 -1.1689  1.5925  1.0504
 3170SOL     OW20968   3.302   2.799  11.656 -0.2011  0.6711  0.3004
 3170SOL    HW120969   3.339   2.771  11.573 -0.6775  2.4143 -0.4948
 3170SOL    HW220970   3.306   2.894  11.643  1.8673  0.6645  0.8473
 3171SOL     OW20971   4.199   1.177   4.044  0.5017 -0.2281  0.0393
 3171SOL    HW120972   4.157   1.261   4.029 -1.2576 -0.6569  2.4626
 3171SOL    HW220973   4.273   1.181   3.983  0.9341  0.4745  0.6099
 3172SOL     OW20974   3.591   4.033  15.047 -0.6370  0.1689  0.6567
 3172SOL    HW120975   3.622   4.081  15.123  0.6235 -0.1384  0.3498
 3172SOL    HW220976   3.651   3.958  15.044 -1.8324 -0.7452 -0.8118
 3173SOL     OW20977   1.050   2.151  16.827  0.5239  0.1307  0.1174
 3173SOL    HW120978   0.957   2.137  16.843  0.5849 -1.0171 -0.5530
 3173SOL    HW220979   1.049   2.103  16.744 -1.1584  1.4092 -0.5935
 3174SOL     OW20980   0.182   0.044   6.871  0.1433 -0.6751  0.0390
 3174SOL    HW120981   0.132   4.688   6.893 -0.4194 -0.7122 -1.4024
 3174SOL    HW220982   0.153   0.101   6.943  1.1830 -2.1705  1.6586
 3175SOL     OW20983   0.558   2.187   6.243  0.2320 -0.3568  0.2621
 3175SOL    HW120984   0.496   2.156   6.177 -1.3492 -0.0520  1.6107
 3175SOL    HW220985   0.627   2.216   6.184  1.7399  1.4783  2.9149
 3176SOL     OW20986   4.723   4.165  11.640 -0.3835  0.4678 -0.1021
 3176SOL    HW120987   4.663   4.090  11.645  2.6326 -2.0018 -1.0702
 3176SOL    HW220988   4.718   4.191  11.548 -1.7414  1.9359  0.3911
 3177SOL     OW20989   2.294   0.569   3.600 -0.2040 -0.3773  0.5880
 3177SOL    HW120990   2.348   0.492   3.584  0.2578  0.1744 -0.5342
 3177SOL    HW220991   2.350   0.624   3.654  1.2591 -1.0655 -0.2427
 3178SOL     OW20992   1.474   3.482   2.379 -0.3576 -0.2991 -0.1572
 3178SOL    HW120993   1.408   3.549   2.362  0.2049  0.6399  1.3939
 3178SOL    HW220994   1.522   3.485   2.296  1.3819  0.6765  0.9023
 3179SOL     OW20995   0.202   2.841   8.721  0.0070  0.0450  0.2473
 3179SOL    HW120996   0.110   2.834   8.695 -1.0338  4.0175  2.8965
 3179SOL    HW220997   0.214   2.760   8.771  3.1127  0.0442 -0.5133
 3180SOL     OW20998   0.261   1.731   1.399 -0.5148 -0.6038 -0.2348
 3180SOL    HW120999   0.331   1.789   1.367 -2.0717  1.3135 -0.1579
 3180SOL    HW221000   0.268   1.763   1.489  0.0525 -1.1581 -0.0789
 3181SOL     OW21001   1.972   0.176   3.046  0.4688  0.3170 -0.1628
 3181SOL    HW121002   2.035   0.222   3.101  0.3461  0.5880 -0.2511
 3181SOL    HW221003   1.970   0.099   3.103 -0.1906 -1.4014 -2.5187
 3182SOL     OW21004   0.110   1.500   0.720  0.2415 -0.2763  0.4276
 3182SOL    HW121005   0.166   1.515   0.644  0.6114 -3.1304  0.1142
 3182SOL    HW221006   0.038   1.562   0.713  0.3205 -0.0389  1.6090
 3183SOL     OW21007   1.597   4.580   6.048  0.4042  0.6276 -0.0995
 3183SOL    HW121008   1.514   4.597   6.004 -0.7795 -1.2345  1.4242
 3183SOL    HW221009   1.559   4.516   6.108 -0.6884  1.4814  0.1113
 3184SOL     OW21010   2.727   4.607   1.349 -0.3195  0.9731 -0.3585
 3184SOL    HW121011   2.654   4.586   1.291 -0.7792  3.1075 -0.5502
 3184SOL    HW221012   2.778   4.527   1.336 -1.7385 -0.0222  0.2299
 3185SOL     OW21013   0.427   0.699   2.059  0.1522  0.5910 -0.3194
 3185SOL    HW121014   0.437   0.750   1.979 -0.1052  2.2812  0.7284
 3185SOL    HW221015   0.501   0.737   2.107 -0.2888 -0.9434  1.5708
 3186SOL     OW21016   3.048   0.144   3.270 -0.1550 -0.8339 -0.0268
 3186SOL    HW121017   3.088   0.135   3.356  0.5633 -0.0345 -0.2708
 3186SOL    HW221018   2.974   0.086   3.289 -0.2365  0.1680  2.7611
 3187SOL     OW21019   3.280   3.134  11.808  0.3425  0.7521 -0.2664
 3187SOL    HW121020   3.297   3.130  11.713 -1.0578 -0.0047 -0.4788
 3187SOL    HW221021   3.266   3.228  11.818  0.2482  0.5551  1.3905
 3188SOL     OW21022   3.581   0.769   9.058 -0.0579 -0.9509  0.3871
 3188SOL    HW121023   3.605   0.713   9.133 -1.4901 -2.4229 -0.2510
 3188SOL    HW221024   3.668   0.768   9.018  0.3404  2.5881  1.2161
 3189SOL     OW21025   1.921   2.649   9.127  0.1850 -0.1707  0.1440
 3189SOL    HW121026   1.861   2.579   9.101 -0.7439  0.3547  0.8765
 3189SOL    HW221027   1.866   2.695   9.191 -1.3666 -0.1893 -1.1548
 3190SOL     OW21028   3.134   1.444   5.272 -0.1084  0.1012  0.0468
 3190SOL    HW121029   3.137   1.488   5.187  0.9252  1.9385  1.0201
 3190SOL    HW221030   3.102   1.361   5.237 -1.6513  0.8336 -0.2671
 3191SOL     OW21031   2.309   1.463   5.261  0.4158 -0.5738  0.2259
 3191SOL    HW121032   2.340   1.379   5.226  0.5876 -1.0454  1.5219
 3191SOL    HW221033   2.359   1.483   5.340  0.8720  1.6350 -0.6216
 3192SOL     OW21034   4.628   0.166   0.311 -0.5631  0.2427  0.1116
 3192SOL    HW121035   4.674   0.124   0.238 -2.4332 -0.2581 -0.7741
 3192SOL    HW221036   4.546   0.197   0.272  0.2925  1.3707 -0.7597
 3193SOL     OW21037   3.848   0.257   2.427  0.1442  0.0566 -0.0123
 3193SOL    HW121038   3.829   0.163   2.428  0.3937  0.0107  1.1071
 3193SOL    HW221039   3.800   0.280   2.348 -1.2381  1.3521  1.2260
 3194SOL     OW21040   3.149   1.930   2.438 -0.5703 -0.0272 -0.0396
 3194SOL    HW121041   3.194   1.971   2.364  2.0879 -0.7710  1.1357
 3194SOL    HW221042   3.079   1.881   2.394  1.7819 -1.7301 -1.9070
 3195SOL     OW21043   2.400   1.769   0.938 -0.8742  0.2018 -0.0615
 3195SOL    HW121044   2.471   1.731   0.887 -0.1373  0.1911  0.9593
 3195SOL    HW221045   2.391   1.856   0.900  0.2300  1.1831  1.8930
 3196SOL     OW21046   1.509   3.910  12.404  0.0662 -0.7036  0.0836
 3196SOL    HW121047   1.592   3.905  12.450  1.1133 -0.2434 -1.7430
 3196SOL    HW221048   1.530   3.965  12.328 -1.5291  0.3339  0.3869
 3197SOL     OW21049   3.477   1.221   3.833 -0.7249  0.0326 -0.1213
 3197SOL    HW121050   3.392   1.188   3.806 -0.9536  0.3023  0.2639
 3197SOL    HW221051   3.523   1.149   3.875 -0.4714  1.1140  1.4475
 3198SOL     OW21052   3.426   0.211   5.513 -0.0765 -0.2726  0.1318
 3198SOL    HW121053   3.385   0.235   5.597 -0.3998  0.5394 -0.2635
 3198SOL    HW221054   3.381   0.278   5.462 -2.4586 -1.0892  1.1470
 3199SOL     OW21055   0.367   1.163   6.706 -0.0205 -0.2725  0.3090
 3199SOL    HW121056   0.383   1.255   6.724 -0.4475 -0.0460 -0.5097
 3199SOL    HW221057   0.280   1.164   6.665  1.4192  0.1851 -2.6876
 3200SOL     OW21058   4.701   3.748   6.254 -0.2930  0.0033  0.1685
 3200SOL    HW121059   4.611   3.720   6.269  0.4506 -2.2716  0.3505
 3200SOL    HW221060   4.697   3.807   6.179 -0.0587 -0.1000  0.0720
 3201SOL     OW21061   2.372   2.371   7.972 -0.3332 -0.4996  0.5805
 3201SOL    HW121062   2.283   2.402   7.959 -0.2432 -0.1015  0.9066
 3201SOL    HW221063   2.410   2.444   8.022  0.1433 -0.8276  0.7034
 3202SOL     OW21064   4.266   3.789  10.436  0.4168  0.1828 -0.5689
 3202SOL    HW121065   4.299   3.821  10.520 -1.2497  0.7377 -0.1305
 3202SOL    HW221066   4.331   3.722  10.415 -0.4937 -0.9243  0.1828
 3203SOL     OW21067   2.864   1.492   7.413 -0.0647 -0.0447 -0.3660
 3203SOL    HW121068   2.900   1.580   7.428  2.2253 -0.7600 -1.6021
 3203SOL    HW221069   2.916   1.466   7.337 -1.2181  1.7754 -1.7937
 3204SOL     OW21070   1.196   0.527   4.509  0.4324 -0.5003  0.3389
 3204SOL    HW121071   1.103   0.533   4.532  0.0346 -0.9471 -1.1718
 3204SOL    HW221072   1.229   0.528   4.599 -1.0355 -0.2650  0.8819
 3205SOL     OW21073   3.955   2.057  12.337  0.3494 -0.1694  0.3130
 3205SOL    HW121074   4.007   2.040  12.415 -1.2115 -0.5178  1.2567
 3205SOL    HW221075   4.002   2.126  12.289  3.4875 -1.9764  0.8276
 3206SOL     OW21076   3.042   0.950   2.135 -0.0774  0.8906 -0.2899
 3206SOL    HW121077   3.023   0.965   2.227 -1.5530 -0.3329 -0.3906
 3206SOL    HW221078   3.046   1.039   2.102  2.5233 -0.2206 -2.9779
 3207SOL     OW21079   2.155   0.617   4.627  0.5909 -0.1408  0.1952
 3207SOL    HW121080   2.232   0.632   4.572  0.4546 -0.0184  0.0402
 3207SOL    HW221081   2.133   0.531   4.593  0.2154  0.1027 -0.1691
 3208SOL     OW21082   4.229   4.636   3.300  0.1704 -0.0468 -0.1247
 3208SOL    HW121083   4.277   4.709   3.339  0.7624  1.6200 -4.0374
 3208SOL    HW221084   4.212   4.674   3.214  1.1977 -0.9498 -0.7378
 3209SOL     OW21085   0.234   4.413   8.455 -0.4705 -0.4412  0.1098
 3209SOL    HW121086   0.317   4.391   8.413 -0.2529  0.0146  0.3097
 3209SOL    HW221087   0.257   4.440   8.543 -1.7390  0.3583  0.2018
 3210SOL     OW21088   1.781   0.034   6.493 -0.3583  0.1834  0.2249
 3210SOL    HW121089   1.859   4.711   6.525  1.1212  2.1699 -0.4959
 3210SOL    HW221090   1.725   0.046   6.570 -2.9724 -0.7250 -1.5373
 3211SOL     OW21091   2.751   1.488   5.179 -0.0749 -0.5459  0.3017
 3211SOL    HW121092   2.817   1.457   5.117 -1.3171 -1.5143 -0.5218
 3211SOL    HW221093   2.782   1.579   5.185 -2.0592  0.1760 -0.3025
 3212SOL     OW21094   4.575   1.759   2.830  0.3672  0.3829 -0.4915
 3212SOL    HW121095   4.507   1.694   2.810  1.2460 -0.3726 -1.0375
 3212SOL    HW221096   4.523   1.830   2.868 -0.6885 -0.5704 -0.1621
 3213SOL     OW21097   3.808   0.725   1.888 -0.5871 -0.3709  0.0615
 3213SOL    HW121098   3.875   0.708   1.954 -0.0793 -2.2457 -0.9317
 3213SOL    HW221099   3.833   0.660   1.823  1.8481  0.2414  0.4178
 3214SOL     OW21100   2.138   1.171   8.272  0.6837 -0.7893 -0.2345
 3214SOL    HW121101   2.046   1.172   8.245  0.6555 -2.5285 -0.1496
 3214SOL    HW221102   2.133   1.238   8.340 -0.0096 -1.2416  0.1615
 3215SOL     OW21103   3.662   3.584   4.874 -0.3239  0.0885 -0.1698
 3215SOL    HW121104   3.567   3.589   4.889 -0.1506 -3.5223  2.0985
 3215SOL    HW221105   3.677   3.556   4.783  1.0053 -1.2264  0.4547
 3216SOL     OW21106   2.363   2.924  16.455 -0.0675 -0.0920  0.2615
 3216SOL    HW121107   2.397   2.835  16.461  0.6430  0.1587  0.0751
 3216SOL    HW221108   2.432   2.959  16.398  0.2757  2.1875  2.0559
 3217SOL     OW21109   2.093   2.229   2.340 -0.0990 -0.3906  0.0076
 3217SOL    HW121110   2.047   2.222   2.256 -0.2349  0.0346  0.0435
 3217SOL    HW221111   2.022   2.264   2.394 -1.1603 -1.5005 -0.6750
 3218SOL     OW21112   1.196   4.142   8.570  0.5426  0.3373  0.3228
 3218SOL    HW121113   1.267   4.083   8.595  0.4985  0.0068 -0.3499
 3218SOL    HW221114   1.239   4.205   8.513  0.7611 -0.3300 -0.2358
 3219SOL     OW21115   4.262   0.231   7.372  0.0070  0.1389  0.0764
 3219SOL    HW121116   4.253   0.221   7.277  1.0686 -1.2554  0.1341
 3219SOL    HW221117   4.171   0.246   7.398  0.2487  1.9204 -0.0757
 3220SOL     OW21118   1.735   3.925   0.183  0.0017  0.2558  0.3725
 3220SOL    HW121119   1.711   4.009   0.223  4.1999  3.1742 -3.2352
 3220SOL    HW221120   1.690   3.943   0.101 -0.0629 -2.1011 -0.1131
 3221SOL     OW21121   0.405   2.970   7.853 -0.8482  0.7343 -0.0754
 3221SOL    HW121122   0.491   2.957   7.893 -0.3035 -2.4636 -2.2546
 3221SOL    HW221123   0.371   2.881   7.842 -1.4890  0.6868  2.3854
 3222SOL     OW21124   1.468   3.578   9.916  0.1713  0.8260  0.6745
 3222SOL    HW121125   1.411   3.524   9.863  1.3807 -1.0289  1.2816
 3222SOL    HW221126   1.449   3.667   9.886 -0.5587  0.4891  0.1349
 3223SOL     OW21127   2.954   2.539   4.054  0.5101  0.3942  0.1757
 3223SOL    HW121128   2.957   2.631   4.026 -2.4108  0.5215  0.3487
 3223SOL    HW221129   3.047   2.523   4.071  0.3325  1.3981  2.1128
 3224SOL     OW21130   1.504   1.220   5.834 -0.1997  0.3834  0.0437
 3224SOL    HW121131   1.563   1.296   5.839  0.5724 -0.2885  1.2432
 3224SOL    HW221132   1.451   1.227   5.913 -0.4687 -0.7117 -0.0463
 3225SOL     OW21133   0.678   1.432   5.523 -0.2053 -0.2056  0.0298
 3225SOL    HW121134   0.650   1.347   5.557  0.4403 -0.2802  0.3758
 3225SOL    HW221135   0.765   1.408   5.493  0.2795 -0.8793  1.9699
 3226SOL     OW21136   4.457   4.701   0.683  0.4473  0.6944  0.1611
 3226SOL    HW121137   4.442   4.658   0.766  0.5080  1.8720  0.7829
 3226SOL    HW221138   4.373   4.693   0.637  0.8785 -1.0587 -0.3256
 3227SOL     OW21139   0.406   2.376   9.669  0.0003 -0.2536  0.5486
 3227SOL    HW121140   0.397   2.430   9.590  2.6124  0.9706  1.1190
 3227SOL    HW221141   0.320   2.335   9.674  0.5781 -1.4894  0.2248
 3228SOL     OW21142   2.341   1.580   4.436  0.6918  0.3493 -0.4668
 3228SOL    HW121143   2.407   1.571   4.505  0.0543  0.6273  0.1750
 3228SOL    HW221144   2.268   1.618   4.484  2.2658  0.5861  1.7802
 3229SOL     OW21145   3.301   4.150  15.686 -0.6499  0.5162  0.1635
 3229SOL    HW121146   3.251   4.226  15.656 -1.8763  0.2913  1.6095
 3229SOL    HW221147   3.307   4.104  15.602 -1.8672  2.0445 -0.7639
 3230SOL     OW21148   0.356   1.524  14.024  0.1931  0.5645 -0.1178
 3230SOL    HW121149   0.443   1.485  14.031  0.0045  0.3781  1.3745
 3230SOL    HW221150   0.330   1.524  14.117 -1.4236 -0.8528 -0.5575
 3231SOL     OW21151   1.718   0.802   6.464  0.0139 -0.2472 -0.6169
 3231SOL    HW121152   1.627   0.774   6.451 -0.9749  1.8874  1.6310
 3231SOL    HW221153   1.768   0.728   6.499 -3.4340 -1.1911  2.3917
 3232SOL     OW21154   2.011   1.653   2.867 -0.1702 -0.1872 -0.2462
 3232SOL    HW121155   2.022   1.737   2.912  0.8909 -1.1268  1.1982
 3232SOL    HW221156   2.014   1.684   2.776  0.6005  0.5886  0.0483
 3233SOL     OW21157   1.114   0.989  16.978  0.3025 -0.0335 -0.0247
 3233SOL    HW121158   1.045   1.054  16.960  0.9227  0.1078 -1.8100
 3233SOL    HW221159   1.124   1.001  17.073 -0.1877  0.2564 -0.0051
 3234SOL     OW21160   1.774   3.113   6.008 -0.0720 -0.6290 -0.0070
 3234SOL    HW121161   1.783   3.097   6.102 -1.9599  1.2617  0.4885
 3234SOL    HW221162   1.862   3.145   5.986 -0.2178  0.9692  1.6887
 3235SOL     OW21163   2.707   4.551   6.903  0.2397 -0.0822  0.3250
 3235SOL    HW121164   2.646   4.529   6.974 -0.6921  0.1303 -0.4206
 3235SOL    HW221165   2.642   4.549   6.833 -0.6206  2.2472  1.0490
 3236SOL     OW21166   4.517   3.909   4.365 -0.5065  0.2572 -0.4409
 3236SOL    HW121167   4.505   3.988   4.417 -1.1390 -0.3449  0.3226
 3236SOL    HW221168   4.579   3.951   4.305  0.2105  0.1706  0.2411
 3237SOL     OW21169   0.579   3.511   5.050 -0.4152  0.8036 -0.0672
 3237SOL    HW121170   0.550   3.601   5.063 -1.5958  0.3345  0.5307
 3237SOL    HW221171   0.506   3.476   4.998  1.1837 -1.5906 -0.7021
 3238SOL     OW21172   1.035   2.813   2.605  0.0513 -0.3810 -0.2224
 3238SOL    HW121173   1.048   2.907   2.594  0.4820 -0.3254  0.7662
 3238SOL    HW221174   1.018   2.787   2.514 -2.2946 -0.6066  0.2719
 3239SOL     OW21175   0.993   4.274   0.521 -0.5071 -0.3778 -0.2446
 3239SOL    HW121176   1.018   4.356   0.478  0.9509 -0.8989 -0.4029
 3239SOL    HW221177   0.927   4.243   0.459 -1.4521  0.8912  0.1237
 3240SOL     OW21178   3.748   1.541   5.475  0.0058 -0.7014 -0.7137
 3240SOL    HW121179   3.833   1.585   5.483 -0.9198  0.6322  1.8679
 3240SOL    HW221180   3.723   1.547   5.383 -1.7595 -0.4578 -0.2193
 3241SOL     OW21181   4.415   4.641   6.323  0.7226  0.3077  0.0072
 3241SOL    HW121182   4.465   4.722   6.312  1.7171 -0.3884 -0.6458
 3241SOL    HW221183   4.352   4.681   6.382  0.9856 -1.5503  1.5369
 3242SOL     OW21184   2.335   0.890   4.699 -0.8700  0.4511  0.0770
 3242SOL    HW121185   2.257   0.910   4.648  0.4278 -0.3856 -2.2299
 3242SOL    HW221186   2.320   0.927   4.786  1.0974 -1.2526  1.1481
 3243SOL     OW21187   1.925   3.913   5.787 -0.3716  0.2890  0.3418
 3243SOL    HW121188   1.975   3.928   5.867 -0.3742 -3.1286  0.9657
 3243SOL    HW221189   1.933   4.000   5.747 -1.7542 -0.3320 -1.2801
 3244SOL     OW21190   0.978   2.177   6.290 -0.0522 -0.1685 -0.7678
 3244SOL    HW121191   0.970   2.082   6.299  0.2427 -0.2541 -1.4418
 3244SOL    HW221192   0.902   2.189   6.233  1.1028  1.0259 -2.0304
 3245SOL     OW21193   3.946   1.196  10.958  0.0653  0.2487 -0.1696
 3245SOL    HW121194   4.035   1.229  10.969  0.8516 -1.7817 -0.3727
 3245SOL    HW221195   3.956   1.174  10.865  0.8040  0.2152 -0.0856
 3246SOL     OW21196   4.278   1.956  11.872 -0.0977 -0.5939  0.4282
 3246SOL    HW121197   4.245   2.046  11.873  0.2487 -0.4797  2.4522
 3246SOL    HW221198   4.361   1.961  11.825  1.3772 -2.0331  2.8834
 3247SOL     OW21199   1.699   3.692   1.047  0.7409  0.8280 -0.3333
 3247SOL    HW121200   1.695   3.699   0.952 -1.3534 -0.4589 -0.3489
 3247SOL    HW221201   1.789   3.666   1.069  0.5671  0.0480 -0.5471
 3248SOL     OW21202   0.312   1.427  14.308 -0.3025  0.5828  0.4370
 3248SOL    HW121203   0.242   1.365  14.325  0.0898  0.2298  0.7306
 3248SOL    HW221204   0.379   1.378  14.354  1.3407  2.5116  0.0874
 3249SOL     OW21205   3.429   2.257   5.015  0.1593 -0.1122  0.6848
 3249SOL    HW121206   3.480   2.264   5.096  2.7340 -0.7427 -0.8659
 3249SOL    HW221207   3.479   2.192   4.965 -0.3134 -0.7539  1.0509
 3250SOL     OW21208   0.684   4.416   2.568  0.1783  0.0554  0.0173
 3250SOL    HW121209   0.681   4.464   2.485 -1.3318 -0.7838 -0.4011
 3250SOL    HW221210   0.661   4.328   2.540 -3.3330  0.8813  0.2864
 3251SOL     OW21211   3.063   0.391   8.206  0.4642 -0.0544  0.2651
 3251SOL    HW121212   2.971   0.414   8.205  0.5808  0.4308  0.8414
 3251SOL    HW221213   3.083   0.405   8.298  1.2242  1.3956 -0.1136
 3252SOL     OW21214   3.292   4.005  12.471 -0.4388  0.4563  0.3642
 3252SOL    HW121215   3.311   4.098  12.478  1.0490  0.1858 -0.1478
 3252SOL    HW221216   3.241   3.993  12.551  0.8293 -1.8499  0.8230
 3253SOL     OW21217   1.378   4.106   3.201  0.1681  0.8581 -0.1039
 3253SOL    HW121218   1.368   4.032   3.141  1.5832  1.4005 -0.9870
 3253SOL    HW221219   1.289   4.110   3.239  0.0307  2.4747 -0.5826
 3254SOL     OW21220   1.441   3.588   8.185 -0.6028  0.3305  0.1287
 3254SOL    HW121221   1.427   3.662   8.127  1.6009  0.4715 -0.2285
 3254SOL    HW221222   1.383   3.606   8.258  0.0561 -1.3786  1.0782
 3255SOL     OW21223   0.782   1.438  12.203 -0.5767 -0.3256 -0.0912
 3255SOL    HW121224   0.850   1.434  12.269 -1.0549  1.7088  0.5175
 3255SOL    HW221225   0.756   1.346  12.190 -0.1382 -0.3172 -1.0287
 3256SOL     OW21226   3.717   2.847  11.286  0.1516 -0.0094  0.7266
 3256SOL    HW121227   3.640   2.888  11.325  1.1056  0.7844  1.7421
 3256SOL    HW221228   3.704   2.827  11.193 -1.5008 -1.5593  1.2860
 3257SOL     OW21229   2.781   1.616   1.111 -0.2694  0.1003 -0.4031
 3257SOL    HW121230   2.779   1.528   1.072 -1.8045 -0.9896  2.1241
 3257SOL    HW221231   2.759   1.659   1.028 -1.7549  1.0916  0.5209
 3258SOL     OW21232   0.670   2.886   9.690 -0.1378  0.0847  0.5566
 3258SOL    HW121233   0.760   2.917   9.700 -0.2975  0.5282  0.6180
 3258SOL    HW221234   0.637   2.965   9.649 -0.6367 -0.6386 -0.4490
 3259SOL     OW21235   0.320   4.182  11.152  0.3183  0.0882 -0.1831
 3259SOL    HW121236   0.401   4.163  11.200  0.1610  1.1466  0.4940
 3259SOL    HW221237   0.326   4.273  11.125  3.4102  0.0098  0.1774
 3260SOL     OW21238   1.213   0.931   7.596 -0.0749 -0.3932 -0.4647
 3260SOL    HW121239   1.297   0.926   7.643 -0.4646  1.6154  0.4415
 3260SOL    HW221240   1.241   0.942   7.505  2.2827 -0.4197  0.2322
 3261SOL     OW21241   0.600   3.371  17.109 -0.0163  0.1687  0.3139
 3261SOL    HW121242   0.599   3.280  17.079 -1.6216  0.7899 -1.5061
 3261SOL    HW221243   0.603   3.414  17.023  1.5334  0.0247  0.2848
 3262SOL     OW21244   3.974   0.332   3.529 -0.3740 -0.0384 -0.2236
 3262SOL    HW121245   4.043   0.291   3.477 -0.5912 -1.9664  0.9927
 3262SOL    HW221246   3.897   0.275   3.534 -1.9701  2.1000 -0.2508
 3263SOL     OW21247   3.041   2.539   7.135 -0.3921  0.0442  0.4081
 3263SOL    HW121248   3.003   2.537   7.223  0.0297 -0.3962  0.5767
 3263SOL    HW221249   3.130   2.571   7.150  0.4376 -1.1150 -2.0020
 3264SOL     OW21250   1.188   2.287   5.021  0.1278 -0.0637 -0.7619
 3264SOL    HW121251   1.200   2.380   4.999  1.7130 -0.7163 -2.6084
 3264SOL    HW221252   1.093   2.272   5.019 -0.1800  1.8212 -0.5565
 3265SOL     OW21253   1.399   1.964   6.332  0.3169  0.1084 -0.3134
 3265SOL    HW121254   1.399   2.044   6.278  1.1979 -0.1236 -0.6564
 3265SOL    HW221255   1.442   1.896   6.280 -3.3598 -2.1296 -0.4018
 3266SOL     OW21256   2.712   1.927   6.923 -0.2977 -0.2845  0.1223
 3266SOL    HW121257   2.779   1.991   6.947  0.0278  0.4016 -2.6451
 3266SOL    HW221258   2.673   1.915   7.009  1.7719 -1.5160  0.9006
 3267SOL     OW21259   4.078   1.024   2.204  0.4131 -0.3598 -0.6547
 3267SOL    HW121260   4.029   1.098   2.169 -0.9924 -1.0678 -0.2087
 3267SOL    HW221261   4.022   0.996   2.277 -0.4267  1.1630 -0.7125
 3268SOL     OW21262   3.912   1.807   5.856 -0.3662  0.1365  0.4209
 3268SOL    HW121263   3.867   1.726   5.831 -1.0676  0.5298  0.3979
 3268SOL    HW221264   4.001   1.802   5.821  0.4247  2.1523  2.1847
 3269SOL     OW21265   1.645   0.702  15.115  0.3846  0.4561  0.2314
 3269SOL    HW121266   1.674   0.793  15.116  0.3823  0.4556  0.3658
 3269SOL    HW221267   1.672   0.672  15.202  0.3717 -3.5409 -1.1384
 3270SOL     OW21268   3.562   3.428  10.404 -0.3550  0.0153 -0.0330
 3270SOL    HW121269   3.524   3.506  10.365 -2.9064 -1.6458 -0.8678
 3270SOL    HW221270   3.627   3.474  10.457  1.7476 -0.4499 -2.2083
 3271SOL     OW21271   0.994   1.121   2.174 -0.6604 -0.1398 -0.3303
 3271SOL    HW121272   1.087   1.131   2.197 -1.1920 -0.7414  2.0629
 3271SOL    HW221273   0.961   1.209   2.194 -1.4002 -0.2955 -0.8867
 3272SOL     OW21274   2.809   0.562   6.957  0.2409  0.3369 -0.2081
 3272SOL    HW121275   2.765   0.604   7.031  1.1692 -0.2990  0.7034
 3272SOL    HW221276   2.770   0.475   6.966 -0.4628  0.6182 -0.5859
 3273SOL     OW21277   2.104   2.701   4.375  0.1243  0.4514 -0.4440
 3273SOL    HW121278   2.166   2.692   4.447  0.4999 -3.3288 -1.2405
 3273SOL    HW221279   2.075   2.613   4.352  0.5577  0.0395  0.6036
 3274SOL     OW21280   4.719   4.256  11.375 -0.2714 -0.2893 -0.4486
 3274SOL    HW121281   0.009   4.344  11.340 -4.7347  0.6228  0.1168
 3274SOL    HW221282   0.089   4.241  11.382  0.2683  2.7141 -1.1281
 3275SOL     OW21283   1.786   0.970   5.082  0.5865  0.8035  0.6092
 3275SOL    HW121284   1.820   0.971   5.172  0.1597  2.4460  0.7570
 3275SOL    HW221285   1.851   1.021   5.034 -0.3553  0.5569 -0.9172
 3276SOL     OW21286   2.190   0.544  13.253 -0.5564 -0.0721  0.6051
 3276SOL    HW121287   2.121   0.512  13.312 -1.1161 -0.0428 -0.0353
 3276SOL    HW221288   2.255   0.576  13.315  1.1116 -0.5112 -0.9297
 3277SOL     OW21289   4.592   1.932   7.689  0.0719  0.4737  0.1204
 3277SOL    HW121290   4.612   1.922   7.782  0.7051 -1.1201 -0.1909
 3277SOL    HW221291   4.682   1.921   7.658 -0.2418  0.7115 -0.8844
 3278SOL     OW21292   2.267   1.712  16.078  0.4649 -0.0778 -0.1313
 3278SOL    HW121293   2.175   1.686  16.071  1.2662 -2.8804 -0.0501
 3278SOL    HW221294   2.303   1.709  15.990  1.0538  2.0978  0.0328
 3279SOL     OW21295   2.962   0.453   1.313 -0.3469 -0.5499 -0.4246
 3279SOL    HW121296   2.949   0.457   1.408 -0.9600 -0.5226 -0.5089
 3279SOL    HW221297   3.052   0.420   1.313 -0.3146 -0.4925  0.9250
 3280SOL     OW21298   2.069   4.552   1.167 -0.1032 -0.0679 -0.4046
 3280SOL    HW121299   2.100   4.468   1.200 -1.0216 -0.3238 -0.1895
 3280SOL    HW221300   2.116   4.550   1.084 -0.9349 -1.5104 -0.8486
 3281SOL     OW21301   1.099   2.496  11.874 -0.2951 -0.0162 -0.0802
 3281SOL    HW121302   1.155   2.419  11.868  0.6244  0.7760 -1.8577
 3281SOL    HW221303   1.011   2.459  11.879  0.2497 -1.2013  0.6795
 3282SOL     OW21304   1.177   4.492   4.320 -0.2637  0.1001  0.1710
 3282SOL    HW121305   1.222   4.419   4.277  0.0227  1.6209 -2.0972
 3282SOL    HW221306   1.243   4.562   4.326  1.1123 -1.2021  0.1337
 3283SOL     OW21307   2.815   4.369   5.957  0.3141 -0.2859 -0.3937
 3283SOL    HW121308   2.881   4.367   6.026  0.2222  0.2655 -0.2865
 3283SOL    HW221309   2.746   4.322   6.004  0.3492  2.0380  2.0132
 3284SOL     OW21310   3.560   4.079   1.254  0.0205  0.4273  0.3786
 3284SOL    HW121311   3.534   3.987   1.250  0.4466  0.3046  0.4959
 3284SOL    HW221312   3.583   4.089   1.162  1.3062 -1.4819  0.5074
 3285SOL     OW21313   0.925   2.369   5.707 -0.1070 -0.4416 -0.1832
 3285SOL    HW121314   0.890   2.286   5.675  1.9870 -0.3355 -2.8414
 3285SOL    HW221315   0.847   2.400   5.752  1.2932 -0.4174  2.2281
 3286SOL     OW21316   4.321   0.035   8.422  0.0835  0.0551 -0.3223
 3286SOL    HW121317   4.367   0.119   8.416 -1.2513  0.8453  0.3822
 3286SOL    HW221318   4.254   0.049   8.355  1.2552  2.2871 -1.0063
 3287SOL     OW21319   4.462   3.928  15.616  0.1182 -0.3498  0.0046
 3287SOL    HW121320   4.401   3.965  15.552  0.9265 -0.9765 -1.1421
 3287SOL    HW221321   4.538   3.903  15.564  0.4272 -2.8154  1.6316
 3288SOL     OW21322   1.704   3.242   7.371 -0.3223  0.3513 -0.4294
 3288SOL    HW121323   1.703   3.229   7.276 -2.6750  0.9127 -0.4605
 3288SOL    HW221324   1.752   3.324   7.378  2.9469 -1.6753  1.0268
 3289SOL     OW21325   1.330   0.562   4.744  0.2446  0.3980  0.2670
 3289SOL    HW121326   1.323   0.626   4.815  0.1859 -0.2554  0.8571
 3289SOL    HW221327   1.424   0.562   4.727  0.2463 -0.4339  0.2812
 3290SOL     OW21328   1.026   1.513   0.426 -0.1103  0.5336 -0.1074
 3290SOL    HW121329   1.084   1.582   0.458  0.9230  0.6342 -2.2143
 3290SOL    HW221330   0.990   1.473   0.505  3.3291  0.5083  1.4657
 3291SOL     OW21331   3.402   3.295   6.841 -0.2354 -0.0665  0.4493
 3291SOL    HW121332   3.424   3.261   6.755 -0.5350  2.7785 -0.7699
 3291SOL    HW221333   3.328   3.354   6.826 -0.6728 -0.8018 -0.2546
 3292SOL     OW21334   0.373   0.289  16.380  0.1462 -0.0931  0.1907
 3292SOL    HW121335   0.441   0.340  16.423  0.8661 -1.3586  0.5523
 3292SOL    HW221336   0.425   0.220  16.338 -2.0814 -1.1674 -0.8227
 3293SOL     OW21337   3.908   3.094   0.757  0.4072 -0.2507  0.3411
 3293SOL    HW121338   3.929   3.163   0.820 -0.4305  0.7543 -0.4770
 3293SOL    HW221339   3.971   3.116   0.688 -1.5166 -0.0721 -1.3500
 3294SOL     OW21340   0.610   3.499   3.267  0.2383 -0.5083 -0.2685
 3294SOL    HW121341   0.571   3.577   3.228 -2.5996 -0.9270  1.7431
 3294SOL    HW221342   0.557   3.431   3.224 -1.5728  0.6623  0.1110
 3295SOL     OW21343   4.662   2.597   1.847  0.2934 -0.4202 -0.5777
 3295SOL    HW121344   4.586   2.546   1.875  0.5660 -0.2909  0.3974
 3295SOL    HW221345   4.617   2.678   1.821 -0.1572  0.2131  2.1373
 3296SOL     OW21346   4.631   3.078   6.753 -0.3060  0.2393  0.0756
 3296SOL    HW121347   4.646   3.025   6.675  1.5205  0.8836  0.0103
 3296SOL    HW221348   4.680   3.026   6.817  1.3850  1.4108 -0.2617
 3297SOL     OW21349   2.496   3.302   1.270 -0.0010 -0.5965 -0.1467
 3297SOL    HW121350   2.571   3.283   1.214  0.4016 -1.6801  0.7794
 3297SOL    HW221351   2.534   3.360   1.337  0.0642  0.9330 -1.5017
 3298SOL     OW21352   3.134   0.503   8.949  0.6246  0.0373  0.1331
 3298SOL    HW121353   3.150   0.569   9.016 -0.2620 -0.9911  1.3574
 3298SOL    HW221354   3.049   0.474   8.981 -0.1173  2.8878  0.6806
 3299SOL     OW21355   4.401   0.359   3.883 -0.4348  0.2563  0.0277
 3299SOL    HW121356   4.353   0.277   3.875 -1.6250  0.8719  0.8166
 3299SOL    HW221357   4.329   0.422   3.875 -0.4833 -0.1058 -2.6787
 3300SOL     OW21358   2.535   1.087  13.975  0.1484  0.0208  0.0107
 3300SOL    HW121359   2.592   1.142  13.921  0.8129 -0.9524 -0.2848
 3300SOL    HW221360   2.589   1.009  13.988 -1.4587 -1.0702  0.1350
 3301SOL     OW21361   1.147   0.698  12.127 -0.0001  0.2367  0.3302
 3301SOL    HW121362   1.128   0.623  12.183  0.9644 -1.0734 -1.0711
 3301SOL    HW221363   1.228   0.672  12.083  0.1114 -0.3411  0.8684
 3302SOL     OW21364   0.874   0.932   4.387 -0.3438 -0.5122  0.1452
 3302SOL    HW121365   0.870   0.859   4.325  0.1799 -0.3713 -0.0549
 3302SOL    HW221366   0.782   0.956   4.376 -0.7840 -0.9554  2.9401
 3303SOL     OW21367   2.379   4.622   7.238 -0.1547 -0.2947  0.9812
 3303SOL    HW121368   2.302   4.567   7.229 -0.0827 -0.3862  0.9261
 3303SOL    HW221369   2.412   4.604   7.327 -1.2221  1.0213  1.6483
 3304SOL     OW21370   1.326   2.827   9.701  0.0877  0.1843  0.0929
 3304SOL    HW121371   1.325   2.835   9.796  0.7319  0.4754  0.0707
 3304SOL    HW221372   1.314   2.918   9.675 -0.2569 -0.1627 -0.9650
 3305SOL     OW21373   1.694   3.157   5.408 -0.0247 -0.2824 -0.1924
 3305SOL    HW121374   1.650   3.237   5.379  0.6658  0.4995  0.8901
 3305SOL    HW221375   1.788   3.176   5.396 -0.0099 -0.5013 -0.4158
 3306SOL     OW21376   3.604   2.029  12.060 -0.1800  0.1966 -0.1990
 3306SOL    HW121377   3.599   2.006  11.967 -0.2739 -2.5726  0.4937
 3306SOL    HW221378   3.680   1.978  12.088 -2.4983 -2.7279  0.7207
 3307SOL     OW21379   2.281   0.808   1.913  0.6569 -0.3951  0.3552
 3307SOL    HW121380   2.201   0.756   1.921  0.4952 -0.0904  0.6992
 3307SOL    HW221381   2.357   0.758   1.942  0.3690 -0.7702  0.4577
 3308SOL     OW21382   1.440   4.658   6.621  1.1025  0.1680 -0.5754
 3308SOL    HW121383   1.508   4.714   6.659  0.0109  2.3559 -1.8199
 3308SOL    HW221384   1.400   4.721   6.561  1.4383  1.1072  0.1637
 3309SOL     OW21385   1.123   1.911   4.305 -0.8219 -0.3599  0.2840
 3309SOL    HW121386   1.088   1.991   4.264 -1.1239 -0.1964  0.8590
 3309SOL    HW221387   1.122   1.841   4.239  0.4290 -0.0577 -0.0721
 3310SOL     OW21388   4.660   2.461   6.840  0.4521 -0.2137  0.3781
 3310SOL    HW121389   4.603   2.397   6.796 -1.9648  0.9604  1.7672
 3310SOL    HW221390   4.600   2.535   6.850  1.6001  0.9499 -1.4989
 3311SOL     OW21391   4.517   1.898   8.897 -0.2899 -0.4356  0.1955
 3311SOL    HW121392   4.505   1.914   8.990 -0.1660  0.6628  0.0203
 3311SOL    HW221393   4.528   1.983   8.856 -0.5705  0.8501  2.7999
 3312SOL     OW21394   1.393   1.740   2.703 -0.3562 -0.6447  0.2019
 3312SOL    HW121395   1.443   1.661   2.724  0.0020 -0.0407  1.6380
 3312SOL    HW221396   1.469   1.799   2.707 -0.3028 -0.7230  0.3733
 3313SOL     OW21397   3.418   2.315   5.284  0.1521  0.2323 -0.3902
 3313SOL    HW121398   3.336   2.290   5.328  0.7219 -0.3220  0.3561
 3313SOL    HW221399   3.380   2.388   5.235 -1.2239 -0.1442  0.1016
 3314SOL     OW21400   1.452   2.199   6.142 -0.1347  0.6662 -0.2200
 3314SOL    HW121401   1.518   2.268   6.147  0.8195 -0.1691 -1.4295
 3314SOL    HW221402   1.491   2.144   6.074 -0.8990 -0.9959  0.6607
 3315SOL     OW21403   4.357   4.352   4.940  0.0504  0.3825 -0.2674
 3315SOL    HW121404   4.274   4.318   4.906 -0.0166  1.0970 -0.8332
 3315SOL    HW221405   4.327   4.439   4.965  1.9543  0.1927  2.6445
 3316SOL     OW21406   0.175   2.166   8.818  0.0507 -0.1444 -0.4262
 3316SOL    HW121407   0.130   2.163   8.733  0.1729 -0.0038 -0.4956
 3316SOL    HW221408   0.261   2.191   8.786  0.1277 -1.8699 -1.5688
 3317SOL     OW21409   3.985   2.519   7.765  0.3432 -0.4536  0.1141
 3317SOL    HW121410   3.933   2.514   7.685  0.1898 -0.0399  0.1894
 3317SOL    HW221411   4.033   2.439   7.743  0.1021 -0.9334  1.3105
 3318SOL     OW21412   0.733   2.672   8.072 -0.0415 -0.3138 -0.4442
 3318SOL    HW121413   0.701   2.604   8.131 -0.8006 -0.8408 -1.4670
 3318SOL    HW221414   0.651   2.709   8.037 -0.3768 -0.1528  0.5080
 3319SOL     OW21415   3.654   2.333   8.902 -0.2026  0.5287  0.0704
 3319SOL    HW121416   3.648   2.424   8.872  1.2402  1.4429  2.5263
 3319SOL    HW221417   3.601   2.286   8.838  0.1344  3.8058 -2.6057
 3320SOL     OW21418   1.262   1.666   4.611  0.0801 -0.5991 -0.5829
 3320SOL    HW121419   1.354   1.647   4.589  0.1903 -3.1623  2.1168
 3320SOL    HW221420   1.263   1.705   4.699 -1.7564 -0.9023 -0.4280
 3321SOL     OW21421   2.706   2.581   0.149  0.0775  0.2532 -0.2121
 3321SOL    HW121422   2.783   2.634   0.170 -0.2736  1.0867 -1.0216
 3321SOL    HW221423   2.712   2.524   0.226  0.9115  1.1155  0.3636
 3322SOL     OW21424   2.745   0.197   2.349 -0.1490 -0.5856 -0.7166
 3322SOL    HW121425   2.744   0.102   2.343  1.7448 -0.5857 -1.1488
 3322SOL    HW221426   2.657   0.229   2.329 -0.9392 -2.3716 -0.0690
 3323SOL     OW21427   3.484   1.136  11.501  0.8937  0.5909 -0.2581
 3323SOL    HW121428   3.458   1.097  11.585  1.8466 -2.4349 -1.4017
 3323SOL    HW221429   3.407   1.116  11.448  0.8493  0.4912 -0.1579
 3324SOL     OW21430   1.820   1.155   2.157 -0.2711 -0.1069 -0.3840
 3324SOL    HW121431   1.877   1.231   2.144 -0.5696  0.6441  2.5613
 3324SOL    HW221432   1.786   1.192   2.239 -0.2593 -1.6172  0.3088
 3325SOL     OW21433   0.103   0.715   9.402 -0.2685  0.0320 -0.2902
 3325SOL    HW121434   0.098   0.746   9.312  0.1929  0.3733 -0.1976
 3325SOL    HW221435   0.009   0.714   9.423 -0.0536  1.0817  0.7532
 3326SOL     OW21436   0.624   2.700  12.805  0.0868  0.0824  0.3437
 3326SOL    HW121437   0.698   2.640  12.810  0.1922  0.2606  0.9635
 3326SOL    HW221438   0.567   2.666  12.737  0.2915  0.1013  0.1607
 3327SOL     OW21439   1.152   2.906   3.723 -0.0039 -0.1052  0.1180
 3327SOL    HW121440   1.237   2.928   3.762  0.6655 -2.0517 -0.2712
 3327SOL    HW221441   1.184   2.890   3.634  2.1310 -2.5901  1.3444
 3328SOL     OW21442   2.163   1.292   5.869 -0.9317 -0.1977 -0.2307
 3328SOL    HW121443   2.177   1.328   5.957  3.1494 -2.8520  0.2012
 3328SOL    HW221444   2.068   1.283   5.876 -1.0993  1.0233 -0.9233
 3329SOL     OW21445   2.731   0.976   5.629  0.2841 -0.5900  0.0979
 3329SOL    HW121446   2.734   1.041   5.699 -0.5426 -0.4706  0.0178
 3329SOL    HW221447   2.722   1.042   5.561  0.4014 -0.4005  0.2660
 3330SOL     OW21448   3.355   4.222  12.792  0.0271  0.2004  0.3236
 3330SOL    HW121449   3.368   4.249  12.701  2.2252 -3.3511 -0.4056
 3330SOL    HW221450   3.291   4.286  12.823 -1.0303 -0.5771 -0.2085
 3331SOL     OW21451   4.674   1.769  10.938  0.2456 -0.5067 -0.5332
 3331SOL    HW121452   4.696   1.698  10.878  0.7146  0.1583 -1.1519
 3331SOL    HW221453   4.699   1.737  11.024 -0.7463 -0.3668 -0.1950
 3332SOL     OW21454   2.550   0.714   6.746  0.4478 -0.7242  0.2084
 3332SOL    HW121455   2.579   0.779   6.809  0.3602  0.2297 -0.7250
 3332SOL    HW221456   2.625   0.702   6.687  0.2227 -3.2324  0.4250
 3333SOL     OW21457   2.559   0.592   3.830  0.2965 -0.4608  0.2898
 3333SOL    HW121458   2.524   0.654   3.767  1.8570  1.6035  1.4499
 3333SOL    HW221459   2.599   0.641   3.901  0.7640 -1.2832  0.6020
 3334SOL     OW21460   2.787   1.907   7.579  0.1452 -0.8384  0.1643
 3334SOL    HW121461   2.711   1.964   7.586  0.1115 -0.6993 -1.3346
 3334SOL    HW221462   2.844   1.952   7.641  1.2611 -4.0128  1.4498
 3335SOL     OW21463   2.731   4.022   7.003  0.1872  0.5886 -0.1666
 3335SOL    HW121464   2.814   4.065   7.026  1.2682 -0.8366 -1.4626
 3335SOL    HW221465   2.688   4.099   6.965 -1.1651  0.3324  0.8363
 3336SOL     OW21466   0.778   4.175   7.945  0.2250  0.1621  0.0303
 3336SOL    HW121467   0.847   4.180   7.879 -0.5592  2.4296 -0.6095
 3336SOL    HW221468   0.718   4.248   7.927 -1.2525 -0.7413  1.2602
 3337SOL     OW21469   3.322   4.678   2.412 -0.2608  0.0644  0.2278
 3337SOL    HW121470   3.234   4.681   2.373 -0.1283 -3.7677 -0.3704
 3337SOL    HW221471   3.347   0.047   2.420  0.0467  0.1502 -1.6369
 3338SOL     OW21472   2.438   0.525   5.790  0.2763 -0.5913  0.4792
 3338SOL    HW121473   2.442   0.621   5.798  0.1998 -0.7629  2.5376
 3338SOL    HW221474   2.503   0.512   5.859  1.5763  3.0142 -0.0538
 3339SOL     OW21475   2.151   0.783   5.151  0.0167 -0.3558  0.6767
 3339SOL    HW121476   2.058   0.768   5.133  0.1622  0.1250 -0.4652
 3339SOL    HW221477   2.191   0.776   5.065 -0.4549 -0.8273  0.4986
 3340SOL     OW21478   4.537   3.386   3.663 -0.1164 -0.4933 -0.0761
 3340SOL    HW121479   4.477   3.328   3.711 -1.7969  1.9938  0.8229
 3340SOL    HW221480   4.607   3.322   3.653 -1.0632 -1.5957  0.2982
 3341SOL     OW21481   0.297   3.436   3.176  0.5685  0.4314 -0.1877
 3341SOL    HW121482   0.272   3.516   3.221  2.3827  0.0721  1.4585
 3341SOL    HW221483   0.228   3.436   3.110 -1.1676 -1.3944  1.6390
 3342SOL     OW21484   4.070   0.575   1.530  0.8693  0.1161 -0.1768
 3342SOL    HW121485   4.165   0.571   1.540  1.0021 -0.6300 -1.8074
 3342SOL    HW221486   4.045   0.592   1.621  0.7881  1.6325 -0.4825
 3343SOL     OW21487   0.309   4.043  14.867  0.5635  0.3491  0.0783
 3343SOL    HW121488   0.335   4.076  14.953  2.0370  0.9844 -0.6058
 3343SOL    HW221489   0.217   4.066  14.856  1.0865  2.2784 -0.1940
 3344SOL     OW21490   2.163   3.083   7.258  0.1730 -0.0918  0.3037
 3344SOL    HW121491   2.205   3.167   7.276 -1.5290  0.9706 -0.8023
 3344SOL    HW221492   2.172   3.083   7.163  0.3099  0.4049  0.3160
 3345SOL     OW21493   0.952   1.358   2.880 -0.1786 -0.8495 -0.3240
 3345SOL    HW121494   0.955   1.274   2.925 -0.6121 -0.6400  0.0937
 3345SOL    HW221495   1.033   1.398   2.914 -0.9591 -0.2386  0.8311
 3346SOL     OW21496   3.922   4.710   6.811  0.2410 -0.9362 -0.1188
 3346SOL    HW121497   3.843   4.722   6.864 -0.0096  0.2102 -0.7759
 3346SOL    HW221498   3.910   0.046   6.737  1.6999  1.0104  1.2040
 3347SOL     OW21499   0.623   3.429  10.947 -0.0964  0.5341  0.3766
 3347SOL    HW121500   0.634   3.335  10.965  2.8660  0.3639 -2.3036
 3347SOL    HW221501   0.561   3.436  10.874  2.1372  0.3758 -1.5571
 3348SOL     OW21502   4.045   4.273  14.209 -0.6119 -0.1635 -0.1239
 3348SOL    HW121503   3.983   4.324  14.262 -0.1552  2.4871 -2.1674
 3348SOL    HW221504   4.028   4.180  14.222  2.6244 -0.5669  1.2305
 3349SOL     OW21505   2.479   2.055  12.856  0.3843 -0.0301  0.4610
 3349SOL    HW121506   2.511   1.976  12.812  0.2676  0.3315 -0.2828
 3349SOL    HW221507   2.413   2.086  12.793 -1.2995  0.4922  2.4941
 3350SOL     OW21508   0.475   0.348   6.707  0.1770 -0.4244  0.1445
 3350SOL    HW121509   0.482   0.329   6.800 -1.4663  0.7489  0.4969
 3350SOL    HW221510   0.451   0.440   6.707  0.1565 -0.4242 -2.1447
 3351SOL     OW21511   2.643   4.196   8.663  0.3435 -0.1622  1.0315
 3351SOL    HW121512   2.687   4.125   8.710  1.4532  1.2094  2.0617
 3351SOL    HW221513   2.711   4.228   8.605  0.4680 -3.0889 -0.4324
 3352SOL     OW21514   0.814   0.980   7.220 -0.0839  0.5366  0.5480
 3352SOL    HW121515   0.811   1.035   7.298  0.8495 -1.9668  2.3537
 3352SOL    HW221516   0.762   0.909   7.256 -1.3429  1.3028  0.2466
 3353SOL     OW21517   0.734   1.369   0.844  0.2962 -0.0773  0.0457
 3353SOL    HW121518   0.702   1.353   0.933 -1.5758  1.1703 -0.3942
 3353SOL    HW221519   0.654   1.403   0.803 -0.0547 -0.6665  0.2412
 3354SOL     OW21520   0.363   4.145   9.677  0.6143 -0.0769 -0.1432
 3354SOL    HW121521   0.454   4.170   9.688  0.8989 -0.4973 -1.5850
 3354SOL    HW221522   0.319   4.227   9.653  0.0799  0.0622  1.2953
 3355SOL     OW21523   3.583   4.059  12.012  0.2364 -0.0162  0.2662
 3355SOL    HW121524   3.580   4.151  11.987 -0.9615  0.3306  1.6796
 3355SOL    HW221525   3.563   4.010  11.932 -1.3938  0.5323  0.3415
 3356SOL     OW21526   2.463   3.117   2.751 -0.3655 -0.5919 -0.3985
 3356SOL    HW121527   2.458   3.111   2.846 -5.4726 -0.8999 -0.6931
 3356SOL    HW221528   2.544   3.169   2.749 -0.3615 -0.4735  3.2764
 3357SOL     OW21529   1.258   3.342   7.627  0.4753  0.7908  0.1581
 3357SOL    HW121530   1.320   3.387   7.570  2.2433 -1.6454  0.2035
 3357SOL    HW221531   1.270   3.251   7.602 -0.8325  0.5656  0.3549
 3358SOL     OW21532   0.959   2.086   3.276  0.6588  0.2202 -0.0287
 3358SOL    HW121533   0.943   2.133   3.194  0.0690 -1.6548 -1.0042
 3358SOL    HW221534   1.006   2.154   3.324 -0.8244  1.2198  0.0152
 3359SOL     OW21535   1.101   4.686   6.367  0.6804 -0.3839  0.3222
 3359SOL    HW121536   1.177   0.013   6.398  0.8175  0.1553 -0.9202
 3359SOL    HW221537   1.082   4.631   6.443  1.1919  1.6368  1.9193
 3360SOL     OW21538   3.391   2.957   6.845  0.2171 -0.5959 -0.1551
 3360SOL    HW121539   3.465   2.973   6.787  0.8451  0.3525  0.8977
 3360SOL    HW221540   3.433   2.914   6.919  0.2455  1.2753  0.9091
 3361SOL     OW21541   2.944   3.068   0.094 -0.6877  0.4216  0.3187
 3361SOL    HW121542   2.854   3.091   0.116 -0.3934  0.8058  1.1060
 3361SOL    HW221543   2.984   3.151   0.068  0.9985 -0.1428  1.1259
 3362SOL     OW21544   3.445   2.849   7.072  0.1973 -1.0231  0.4916
 3362SOL    HW121545   3.442   2.927   7.128  1.4894 -0.6936  0.1073
 3362SOL    HW221546   3.381   2.791   7.113 -0.9959  0.8215  1.2458
 3363SOL     OW21547   2.681   1.980   3.013 -0.2944  0.0873  0.4521
 3363SOL    HW121548   2.747   2.039   3.049  1.6493 -2.1571  0.6232
 3363SOL    HW221549   2.714   1.970   2.923 -0.3322 -1.5492  0.6115
 3364SOL     OW21550   0.422   0.209   1.539 -0.2282  0.2553  0.2758
 3364SOL    HW121551   0.368   0.285   1.560  1.1443  0.8908  1.5057
 3364SOL    HW221552   0.360   0.153   1.491  0.6270 -1.0227  0.6549
 3365SOL     OW21553   3.112   2.310  10.257 -0.3193  1.0050  0.3555
 3365SOL    HW121554   3.129   2.404  10.264 -2.2815  1.5812 -2.4112
 3365SOL    HW221555   3.201   2.297  10.226 -0.1331 -0.1849  1.4000
 3366SOL     OW21556   0.860   4.082   8.192  0.0355  0.0329 -0.2788
 3366SOL    HW121557   0.864   4.155   8.130 -1.9119  0.0903 -0.3148
 3366SOL    HW221558   0.833   4.002   8.145  0.5631  0.4250 -1.2525
 3367SOL     OW21559   0.504   3.432   6.875  0.6720  0.9792  0.5074
 3367SOL    HW121560   0.560   3.411   6.799 -1.2098 -2.4606  0.0477
 3367SOL    HW221561   0.565   3.439   6.948  1.1982 -0.9377  0.2608
 3368SOL     OW21562   2.375   1.278   8.612 -0.2510 -0.0934  0.0403
 3368SOL    HW121563   2.371   1.351   8.550 -0.8823  0.4557  0.7292
 3368SOL    HW221564   2.418   1.320   8.687 -0.6933  0.9864 -0.3054
 3369SOL     OW21565   0.459   2.694  12.583 -0.1005  0.4484 -0.2251
 3369SOL    HW121566   0.501   2.764  12.533  0.5335 -1.2351 -2.0842
 3369SOL    HW221567   0.394   2.664  12.519  1.0708 -1.1935 -0.6585
 3370SOL     OW21568   0.834   4.442  10.160 -0.2756 -0.0094  0.1364
 3370SOL    HW121569   0.806   4.367  10.213  0.8823 -1.0026 -0.6462
 3370SOL    HW221570   0.848   4.395  10.078 -0.2455 -1.1958  0.8185
 3371SOL     OW21571   2.380   0.679   4.249 -0.3898  0.0447  0.1601
 3371SOL    HW121572   2.377   0.723   4.165  1.2329  1.2966  0.7740
 3371SOL    HW221573   2.374   0.756   4.306 -0.5602 -0.5196  0.9114
 3372SOL     OW21574   3.430   1.514  14.782 -0.7370 -0.2999 -0.2570
 3372SOL    HW121575   3.461   1.598  14.748 -3.1083  0.6803 -0.0083
 3372SOL    HW221576   3.392   1.476  14.703  2.5943 -0.6993 -1.6651
 3373SOL     OW21577   1.601   1.136   5.423 -0.1186 -0.0924 -0.1110
 3373SOL    HW121578   1.598   1.084   5.503  0.7310  1.1596  0.7104
 3373SOL    HW221579   1.652   1.216   5.430 -2.1804  1.0935  1.2673
 3374SOL     OW21580   3.317   2.606   7.501  0.1799  0.2297  0.1599
 3374SOL    HW121581   3.386   2.654   7.547 -0.4136 -1.1223  2.4991
 3374SOL    HW221582   3.259   2.682   7.497  0.6432  0.5880  0.2986
 3375SOL     OW21583   4.723   1.344   8.610 -0.5988 -0.3082 -0.1919
 3375SOL    HW121584   0.054   1.381   8.680 -0.1128 -0.8007 -0.3097
 3375SOL    HW221585   4.682   1.425   8.581  1.6859  0.5324 -1.0272
 3376SOL     OW21586   1.880   1.186   6.260  0.0826  0.0769  0.1348
 3376SOL    HW121587   1.966   1.221   6.280  0.7704 -2.6662  1.9704
 3376SOL    HW221588   1.916   1.116   6.205 -2.6388 -0.9690 -0.3368
 3377SOL     OW21589   4.175   4.615   6.840 -0.5317  0.3893 -0.0788
 3377SOL    HW121590   4.088   4.617   6.801 -0.4981 -2.4646 -0.3025
 3377SOL    HW221591   4.212   4.703   6.847  0.4300 -0.1349  1.4315
 3378SOL     OW21592   1.354   3.085  11.921  0.0727  0.0556  0.1700
 3378SOL    HW121593   1.320   3.069  11.833  2.0171 -0.5835 -0.4681
 3378SOL    HW221594   1.412   3.159  11.902  1.6894 -0.2797  3.7776
 3379SOL     OW21595   2.592   3.015   0.373 -0.1958 -0.0559 -0.0735
 3379SOL    HW121596   2.555   2.929   0.352 -2.8483  1.1905 -0.5805
 3379SOL    HW221597   2.631   3.042   0.290 -0.9626 -1.1495 -0.7942
 3380SOL     OW21598   3.375   4.610   8.860 -0.2525  0.3091 -0.2131
 3380SOL    HW121599   3.414   4.693   8.886 -2.2803  1.8621 -2.1187
 3380SOL    HW221600   3.331   4.643   8.781 -1.5636  1.6667  1.0853
 3381SOL     OW21601   0.088   2.509   5.896  0.1953  0.1343 -0.0096
 3381SOL    HW121602   0.072   2.574   5.965  0.6238 -1.0925  1.2580
 3381SOL    HW221603   0.044   2.555   5.825 -1.2207 -0.3480  0.5451
 3382SOL     OW21604   3.428   0.682  16.665 -0.1160 -0.1391  0.2462
 3382SOL    HW121605   3.479   0.655  16.741  0.1930 -0.4428 -0.0703
 3382SOL    HW221606   3.386   0.765  16.689 -5.3125 -2.7175 -0.0855
 3383SOL     OW21607   0.802   3.260   2.966  0.1032  0.2784 -0.4162
 3383SOL    HW121608   0.780   3.352   2.953  0.4539  0.7222  2.0647
 3383SOL    HW221609   0.863   3.265   3.040 -0.9136  2.7561  0.2505
 3384SOL     OW21610   3.824   4.140  11.200  0.7246  0.1073 -0.7697
 3384SOL    HW121611   3.773   4.189  11.137  0.3171 -0.0541 -0.5647
 3384SOL    HW221612   3.804   4.199  11.272 -0.2002 -0.6452 -0.4018
 3385SOL     OW21613   1.969   3.251   7.548 -0.6579 -0.0401  0.2809
 3385SOL    HW121614   2.007   3.306   7.617  1.9078 -1.5831  0.0771
 3385SOL    HW221615   1.925   3.319   7.496 -0.4667 -1.4087 -1.6276
 3386SOL     OW21616   3.563   3.788  16.612  0.2611 -0.2256 -0.5849
 3386SOL    HW121617   3.637   3.737  16.646 -2.6594 -3.6444  0.6530
 3386SOL    HW221618   3.506   3.783  16.689 -2.7505  0.2416 -2.8052
 3387SOL     OW21619   3.861   3.918   4.616 -0.2917  0.3649  0.1688
 3387SOL    HW121620   3.772   3.885   4.628 -0.4113  0.1238 -1.3805
 3387SOL    HW221621   3.866   3.909   4.521  1.2045 -1.2845  0.3976
 3388SOL     OW21622   3.024   4.499  16.540  0.2054 -0.1302 -1.0386
 3388SOL    HW121623   2.991   4.566  16.480 -2.3191  0.1264  0.6009
 3388SOL    HW221624   3.082   4.445  16.486  0.9172  0.3017 -0.6950
 3389SOL     OW21625   2.565   1.569   7.469 -0.2105 -0.0924  0.1786
 3389SOL    HW121626   2.592   1.641   7.526  0.1520 -0.5040  0.5245
 3389SOL    HW221627   2.651   1.536   7.443  0.2859  1.5622 -0.2399
 3390SOL     OW21628   0.490   4.686   3.175 -0.7016  0.4561 -0.6224
 3390SOL    HW121629   0.403   4.676   3.213 -1.1788 -2.8557 -2.5637
 3390SOL    HW221630   0.481   0.052   3.140 -1.7493 -0.7835 -3.5489
 3391SOL     OW21631   4.152   3.981  10.278  0.2667  0.0134  0.2071
 3391SOL    HW121632   4.086   4.010  10.342 -0.3683 -2.7042  0.7521
 3391SOL    HW221633   4.194   3.906  10.320 -2.0932  0.6794  3.7494
 3392SOL     OW21634   4.376   3.549  13.547  0.0153 -0.0038  0.3568
 3392SOL    HW121635   4.434   3.510  13.612  0.5730  0.8800  0.3805
 3392SOL    HW221636   4.394   3.642  13.557 -0.1236  0.1873 -1.2190
 3393SOL     OW21637   2.078   4.381   4.765  0.3259  0.4776 -0.0637
 3393SOL    HW121638   2.091   4.451   4.701 -1.1338  1.0386  0.2675
 3393SOL    HW221639   2.159   4.391   4.817 -0.6098  1.2084  1.2458
 3394SOL     OW21640   4.539   2.091   8.695  0.2631 -0.0373 -0.3037
 3394SOL    HW121641   4.523   2.037   8.618 -1.1095  0.4901 -0.3895
 3394SOL    HW221642   4.622   2.127   8.665  0.4232 -0.4752 -0.3934
 3395SOL     OW21643   0.575   4.061  15.061 -0.2664  0.0929 -0.3461
 3395SOL    HW121644   0.663   4.024  15.047 -0.3239  0.7624 -2.5223
 3395SOL    HW221645   0.576   4.132  14.997 -0.7600  1.0281  0.6931
 3396SOL     OW21646   4.678   0.392   0.845 -0.1355  0.5104  0.1732
 3396SOL    HW121647   4.670   0.473   0.895  1.8135 -0.4484  2.0360
 3396SOL    HW221648   4.591   0.353   0.858 -0.4072  0.2129 -2.6038
 3397SOL     OW21649   1.560   1.048   4.042  0.1043 -0.2572  0.0710
 3397SOL    HW121650   1.611   1.112   4.090  1.0404  1.3635 -3.0515
 3397SOL    HW221651   1.621   1.009   3.979 -2.1268 -0.9282 -1.6871
 3398SOL     OW21652   3.577   1.515   9.298 -0.3132 -0.4576  0.1331
 3398SOL    HW121653   3.579   1.478   9.386  0.8456  0.1276  0.3584
 3398SOL    HW221654   3.513   1.467   9.246  0.7697 -1.8771  0.1212
 3399SOL     OW21655   1.414   1.233   9.363 -0.2067 -0.7972  0.8281
 3399SOL    HW121656   1.424   1.323   9.333 -0.8788 -0.8674  0.3927
 3399SOL    HW221657   1.349   1.200   9.301  0.5127 -1.1136  0.2294
 3400SOL     OW21658   3.057   0.177   2.153  0.2106 -0.0269 -0.1588
 3400SOL    HW121659   3.026   0.260   2.190 -0.2217 -0.0558 -0.4562
 3400SOL    HW221660   3.115   0.213   2.086 -1.6031  0.7154 -1.3154
 3401SOL     OW21661   4.381   3.615   5.003 -0.1448  0.0029  0.8976
 3401SOL    HW121662   4.443   3.579   5.067  2.1367  0.2842 -1.1675
 3401SOL    HW221663   4.385   3.540   4.944  1.3226  1.8585 -1.3738
 3402SOL     OW21664   4.005   3.239   5.493  0.2277  0.0101 -0.8452
 3402SOL    HW121665   3.961   3.290   5.425 -0.8205  0.4125  0.1471
 3402SOL    HW221666   3.925   3.208   5.534 -0.4072  2.6411 -0.1330
 3403SOL     OW21667   0.541   1.807  17.157 -0.4772  0.2182  0.0828
 3403SOL    HW121668   0.552   1.879  17.219  0.6495  1.1347 -1.1948
 3403SOL    HW221669   0.526   1.850  17.073 -0.3797  0.8530  0.3890
 3404SOL     OW21670   1.503   2.099   2.930  0.5204 -0.4347  0.0100
 3404SOL    HW121671   1.438   2.029   2.932  1.1114 -0.9548  0.6188
 3404SOL    HW221672   1.457   2.159   2.871  1.6820  1.5583  1.1314
 3405SOL     OW21673   2.528   3.965  11.195 -0.1579 -0.5891 -0.0777
 3405SOL    HW121674   2.463   3.938  11.130 -1.3378  1.1895  0.3546
 3405SOL    HW221675   2.606   3.950  11.141 -1.2842  0.1712 -1.9400
 3406SOL     OW21676   0.246   2.227   5.663 -0.1592 -0.1298 -0.2474
 3406SOL    HW121677   0.260   2.231   5.758 -1.0575 -1.0589 -0.0776
 3406SOL    HW221678   0.337   2.246   5.639 -0.0386 -0.4903 -0.0791
 3407SOL     OW21679   2.347   2.203  13.429  0.1182 -0.1610  0.1954
 3407SOL    HW121680   2.340   2.272  13.363 -2.0150 -0.2714  0.3184
 3407SOL    HW221681   2.441   2.184  13.426  0.3814  0.6990  2.3922
 3408SOL     OW21682   2.127   0.929   0.450 -0.1260  0.3638  0.3531
 3408SOL    HW121683   2.036   0.950   0.472 -0.3516 -0.1507 -0.1109
 3408SOL    HW221684   2.160   1.018   0.436 -0.8925  0.5429 -0.2950
 3409SOL     OW21685   2.416   2.715   3.696  0.8731  0.2047 -0.2133
 3409SOL    HW121686   2.487   2.665   3.734  0.2185 -0.4368  0.1688
 3409SOL    HW221687   2.345   2.654   3.712 -1.0958  2.2548 -1.0324
 3410SOL     OW21688   2.983   2.797  12.243 -0.6751  0.0105  0.3338
 3410SOL    HW121689   2.960   2.739  12.316  0.2685 -0.0682  0.5658
 3410SOL    HW221690   2.927   2.760  12.175 -1.0730 -0.4936  0.9415
 3411SOL     OW21691   2.978   3.146   9.681  0.3822 -0.5986 -0.6325
 3411SOL    HW121692   3.028   3.194   9.747 -2.8581  0.1533  1.2545
 3411SOL    HW221693   2.902   3.116   9.729  0.0644  0.8785 -0.1975
 3412SOL     OW21694   1.445   4.502  16.971 -0.2584  0.3356  0.0748
 3412SOL    HW121695   1.510   4.567  16.943  0.5832 -0.5389 -0.0393
 3412SOL    HW221696   1.437   4.452  16.890  0.8622 -0.0687  0.2083
 3413SOL     OW21697   4.065   2.796   5.165 -0.2255  0.0389  0.1788
 3413SOL    HW121698   4.080   2.888   5.187  0.2560  0.1152 -0.4811
 3413SOL    HW221699   3.993   2.811   5.104  0.2385  2.5254  0.2451
 3414SOL     OW21700   4.441   3.746   9.549  0.3334 -0.0459 -0.5819
 3414SOL    HW121701   4.370   3.807   9.528  1.3018  0.6599 -1.8536
 3414SOL    HW221702   4.404   3.687   9.615  3.1110  0.8688  1.7830
 3415SOL     OW21703   0.127   3.686   3.131  0.2267 -0.0436 -0.0366
 3415SOL    HW121704   0.065   3.622   3.097  0.3231  1.2169 -2.5881
 3415SOL    HW221705   0.187   3.704   3.058  1.4193  0.2417  1.0007
 3416SOL     OW21706   2.786   3.069   9.466 -0.4529  0.6270  0.0117
 3416SOL    HW121707   2.869   3.093   9.507  1.4011 -1.8533 -2.2969
 3416SOL    HW221708   2.765   2.993   9.520 -0.9673  0.7878  0.0373
 3417SOL     OW21709   3.462   4.524   1.603  0.0814 -0.0944  0.1927
 3417SOL    HW121710   3.438   4.447   1.654  2.5440 -0.9557  0.0963
 3417SOL    HW221711   3.519   4.486   1.536  2.4959 -0.1835  2.2932
 3418SOL     OW21712   4.603   1.799   7.196  0.0882  0.0013 -0.1584
 3418SOL    HW121713   4.537   1.732   7.175 -1.8020  1.9853 -0.5540
 3418SOL    HW221714   4.648   1.761   7.272 -0.2106  1.9444  0.9643
 3419SOL     OW21715   3.568   4.195   7.742 -0.0749 -0.0537 -0.2259
 3419SOL    HW121716   3.473   4.204   7.732  0.4196  3.0712 -2.3687
 3419SOL    HW221717   3.606   4.236   7.664 -1.5001  2.1092  0.2290
 3420SOL     OW21718   0.544   0.254  16.632  0.3443  0.4809 -0.9007
 3420SOL    HW121719   0.630   0.270  16.669 -1.0264 -1.6457  3.2569
 3420SOL    HW221720   0.495   0.335  16.646 -0.8168 -0.3106 -0.3334
 3421SOL     OW21721   1.694   4.182  14.189  0.3222  0.3235  0.2250
 3421SOL    HW121722   1.611   4.224  14.168 -0.1781 -0.6496  0.2685
 3421SOL    HW221723   1.758   4.248  14.160  1.4210 -1.1886 -0.7825
 3422SOL     OW21724   4.284   4.559   1.261 -0.4139  0.2153 -0.5573
 3422SOL    HW121725   4.364   4.602   1.230  1.0417 -0.9368  1.6049
 3422SOL    HW221726   4.269   4.605   1.343 -2.5331  0.5504 -1.1426
 3423SOL     OW21727   4.132   2.824   6.560  0.2616 -0.1633 -0.2037
 3423SOL    HW121728   4.072   2.749   6.555  0.0322  0.1396 -2.0349
 3423SOL    HW221729   4.065   2.891   6.541  1.3285  1.2355  1.0089
 3424SOL     OW21730   0.543   1.813   2.492  0.0250 -0.1240 -0.0816
 3424SOL    HW121731   0.550   1.878   2.423  1.0276  0.0732  0.2074
 3424SOL    HW221732   0.626   1.767   2.479 -0.5936 -1.2982  0.0526
 3425SOL     OW21733   3.890   0.399  10.705  0.4811 -0.4016 -0.2752
 3425SOL    HW121734   3.917   0.359  10.622  0.0937 -2.9001  0.8225
 3425SOL    HW221735   3.956   0.357  10.761  1.4988 -2.2096 -2.8247
 3426SOL     OW21736   2.860   2.938   2.650  0.5594  0.1284 -0.2426
 3426SOL    HW121737   2.896   2.969   2.734 -2.8233 -0.4092  1.3920
 3426SOL    HW221738   2.926   2.964   2.586  0.0673  2.1217  0.0439
 3427SOL     OW21739   1.658   2.332   3.055  0.2951 -0.0275  0.3100
 3427SOL    HW121740   1.617   2.252   3.024 -2.3281  1.0213  1.0996
 3427SOL    HW221741   1.699   2.373   2.979  1.8748 -0.0921  1.1081
 3428SOL     OW21742   2.662   3.609  14.636 -0.0111 -0.4584  0.1755
 3428SOL    HW121743   2.611   3.616  14.555  1.1027 -0.1615 -0.5072
 3428SOL    HW221744   2.603   3.581  14.706 -1.3438  0.7475 -0.4602
 3429SOL     OW21745   2.345   0.314   0.806 -0.2367  0.1842 -0.1330
 3429SOL    HW121746   2.369   0.407   0.810  1.8145 -0.3296 -0.6649
 3429SOL    HW221747   2.252   0.305   0.782  0.0744 -0.5843 -1.0647
 3430SOL     OW21748   2.935   4.643  15.981  0.3806  0.0874  0.1238
 3430SOL    HW121749   2.904   4.647  15.891  1.6705 -0.3147 -0.3457
 3430SOL    HW221750   2.869   4.597  16.033  0.7966 -0.1553  0.4340
 3431SOL     OW21751   4.444   2.784   7.551  0.4239 -1.0447 -0.0830
 3431SOL    HW121752   4.538   2.769   7.549  0.7200  0.7444  0.3823
 3431SOL    HW221753   4.423   2.758   7.641 -1.0142 -1.0046 -0.3965
 3432SOL     OW21754   4.332   2.233   2.710  0.5253 -0.0882  0.5773
 3432SOL    HW121755   4.349   2.164   2.646 -1.0043  0.0935 -0.0103
 3432SOL    HW221756   4.385   2.302   2.672  3.9621 -0.8780  3.8924
 3433SOL     OW21757   1.838   3.062   0.397 -0.3423 -0.1183  0.2739
 3433SOL    HW121758   1.888   2.994   0.351 -2.3567 -0.2081 -1.7878
 3433SOL    HW221759   1.746   3.040   0.382 -0.2483 -0.6350  0.4804
 3434SOL     OW21760   4.014   1.195   2.701 -0.6257  0.1315  0.0139
 3434SOL    HW121761   3.975   1.246   2.772 -0.4750  0.3674 -0.0730
 3434SOL    HW221762   4.105   1.224   2.704 -0.6091  0.0216  0.6272
 3435SOL     OW21763   1.291   4.109  13.679 -0.6243  0.3004 -0.4303
 3435SOL    HW121764   1.357   4.093  13.611  1.8880 -1.8942  2.5269
 3435SOL    HW221765   1.336   4.167  13.740 -2.3228 -0.4805  1.5410
 3436SOL     OW21766   2.388   3.316   3.633 -0.0393 -0.7458 -0.3050
 3436SOL    HW121767   2.465   3.364   3.665 -1.1631  1.1442 -0.3919
 3436SOL    HW221768   2.427   3.229   3.624 -0.9779 -1.1078 -0.8106
 3437SOL     OW21769   0.009   3.289   6.974 -0.0021  0.3645 -0.2936
 3437SOL    HW121770   0.101   3.302   6.993 -0.0802 -1.0380  1.0637
 3437SOL    HW221771   4.716   3.243   6.892  2.4251 -0.8727 -0.0660
 3438SOL     OW21772   0.900   4.476  12.906  0.2578  0.6220 -0.0374
 3438SOL    HW121773   0.837   4.512  12.968 -0.9662 -1.4805 -0.0304
 3438SOL    HW221774   0.841   4.457  12.833 -0.9395 -1.8300  1.5558
 3439SOL     OW21775   0.355   2.845  14.606  0.0387 -0.0919 -1.1044
 3439SOL    HW121776   0.356   2.926  14.553  0.0334  0.8587  0.3565
 3439SOL    HW221777   0.363   2.883  14.693  0.4902  0.4446 -1.3781
 3440SOL     OW21778   3.942   1.307   5.651 -0.2570 -0.4205  0.3021
 3440SOL    HW121779   3.960   1.271   5.737  3.7734  1.9753  0.4852
 3440SOL    HW221780   4.025   1.294   5.604 -0.1391  3.4945 -0.6546
 3441SOL     OW21781   1.753   4.372   5.943 -0.4470 -0.3428  0.0766
 3441SOL    HW121782   1.679   4.337   5.894 -1.1502  1.1128  0.1285
 3441SOL    HW221783   1.715   4.456   5.968  0.5774  0.1139  0.0969
 3442SOL     OW21784   0.391   2.106  12.570 -0.6033 -0.3403  0.2841
 3442SOL    HW121785   0.452   2.148  12.509 -1.2226 -1.4140 -1.0579
 3442SOL    HW221786   0.308   2.144  12.541 -2.5755 -1.8799  3.9903
 3443SOL     OW21787   3.733   4.566   4.026 -0.0107 -0.1307  0.1152
 3443SOL    HW121788   3.787   4.496   3.990 -0.8947 -0.7102 -0.1020
 3443SOL    HW221789   3.767   4.575   4.115 -1.0902 -0.7372  0.5944
 3444SOL     OW21790   1.639   2.889   5.417  0.2753 -0.2834  0.2967
 3444SOL    HW121791   1.661   2.889   5.324 -0.3473 -2.4921  0.1555
 3444SOL    HW221792   1.655   2.984   5.425  0.7950 -0.6057  3.1039
 3445SOL     OW21793   3.376   3.731   9.844  0.1281  0.0475 -0.2085
 3445SOL    HW121794   3.461   3.711   9.804 -0.3219 -0.8993 -0.6946
 3445SOL    HW221795   3.381   3.825   9.827  0.2642  0.1266  0.2812
 3446SOL     OW21796   4.159   0.375  15.194 -0.2619  0.0711  0.3177
 3446SOL    HW121797   4.104   0.329  15.258  1.0716  0.4125  1.7225
 3446SOL    HW221798   4.191   0.446  15.249 -2.6271  2.8849 -1.9962
 3447SOL     OW21799   3.143   3.422  15.396 -0.2869  0.6846 -0.2100
 3447SOL    HW121800   3.056   3.382  15.394  0.1996 -0.2359 -2.6696
 3447SOL    HW221801   3.138   3.485  15.325 -0.3053 -0.3239 -1.1093
 3448SOL     OW21802   0.267   4.124   8.132 -0.2383  0.0697 -0.2147
 3448SOL    HW121803   0.196   4.095   8.074 -1.0040 -2.1141  1.8140
 3448SOL    HW221804   0.274   4.046   8.188 -1.2669 -1.2375 -1.9117
 3449SOL     OW21805   1.012   3.923  14.582  0.2852 -0.1990  0.5987
 3449SOL    HW121806   0.943   3.865  14.615 -0.0000  0.7616  1.6895
 3449SOL    HW221807   0.980   3.926  14.492  0.7504 -0.1386  0.4349
 3450SOL     OW21808   1.021   0.885  16.665  0.9128 -0.4197  1.0036
 3450SOL    HW121809   1.069   0.850  16.740  1.9477  3.3983  2.1006
 3450SOL    HW221810   1.087   0.943  16.627 -1.8823  1.2485 -1.3228
 3451SOL     OW21811   4.507   3.645   4.295 -0.4616 -0.1671  0.2954
 3451SOL    HW121812   4.498   3.639   4.200 -2.4628 -2.6264  0.6224
 3451SOL    HW221813   4.505   3.739   4.311 -0.5531  0.0456 -0.9614
 3452SOL     OW21814   3.504   3.607  11.535  0.3407 -0.5177 -0.3340
 3452SOL    HW121815   3.574   3.653  11.488  1.6441 -0.4042  1.7304
 3452SOL    HW221816   3.523   3.516  11.515  0.9672 -1.0007  2.5292
 3453SOL     OW21817   3.096   3.925  10.883  0.7747 -0.0769 -0.2848
 3453SOL    HW121818   3.168   3.938  10.822 -2.0663 -0.6426 -3.7735
 3453SOL    HW221819   3.081   3.832  10.863  3.3010 -0.3061 -1.1139
 3454SOL     OW21820   0.050   1.637   5.110 -0.2422 -0.2603 -0.0832
 3454SOL    HW121821   0.067   1.543   5.121 -1.7005 -0.3843  1.1394
 3454SOL    HW221822   0.106   1.650   5.034  0.3144  2.9574  0.9032
 3455SOL     OW21823   3.183   2.674   5.376  0.1639  0.0001  0.0333
 3455SOL    HW121824   3.167   2.587   5.339  0.1719  0.0673 -0.1298
 3455SOL    HW221825   3.107   2.690   5.431  0.3720 -0.5508  0.4781
 3456SOL     OW21826   0.486   0.885   5.383 -0.3913 -1.0096 -0.4745
 3456SOL    HW121827   0.481   0.857   5.474 -0.4559  0.5281 -0.0108
 3456SOL    HW221828   0.468   0.797   5.349 -0.9848 -0.7577 -0.8008
 3457SOL     OW21829   1.779   4.627   5.366  0.0619  0.1541  0.1805
 3457SOL    HW121830   1.779   4.718   5.394 -2.9911  0.4605 -0.7736
 3457SOL    HW221831   1.760   4.578   5.447 -1.5124  0.7490  0.1863
 3458SOL     OW21832   2.621   1.650   7.153 -0.5053 -0.4465 -0.2818
 3458SOL    HW121833   2.654   1.561   7.141  0.0205 -0.5489  1.8779
 3458SOL    HW221834   2.703   1.701   7.151 -2.0456  2.1274  1.3581
 3459SOL     OW21835   1.529   3.138  15.528 -0.3537  0.1553 -0.1188
 3459SOL    HW121836   1.553   3.065  15.586 -2.6706  1.1768  2.0966
 3459SOL    HW221837   1.600   3.148  15.464 -0.8425 -1.0433 -0.8376
 3460SOL     OW21838   4.664   3.886   8.049 -0.6017  0.6030 -0.1309
 3460SOL    HW121839   4.714   3.966   8.064 -1.6662  1.2856 -0.2467
 3460SOL    HW221840   4.722   3.840   7.988 -2.0758 -4.4824  2.2514
 3461SOL     OW21841   3.806   4.590   7.175  0.0058  0.1232 -0.1398
 3461SOL    HW121842   3.778   4.670   7.131  1.5456  0.1926 -1.0048
 3461SOL    HW221843   3.722   4.570   7.216 -0.0655  1.9539  0.6117
 3462SOL     OW21844   4.426   3.630  17.402 -0.0083 -0.1418 -0.4297
 3462SOL    HW121845   4.408   3.724  17.414 -2.5074 -0.3910 -2.2463
 3462SOL    HW221846   4.395   3.591  17.484  0.1943 -1.2503 -0.8839
 3463SOL     OW21847   4.032   3.874   6.306 -0.5794 -0.0760 -0.5867
 3463SOL    HW121848   4.036   3.786   6.269  3.1070 -0.4429  0.6767
 3463SOL    HW221849   3.962   3.919   6.259 -1.7974  2.9643  4.1567
 3464SOL     OW21850   2.486   2.759   0.227  0.0449  0.1044 -0.1761
 3464SOL    HW121851   2.507   2.708   0.304  0.5522  1.0426  0.3086
 3464SOL    HW221852   2.558   2.734   0.170  1.2365  0.2921  1.2613
 3465SOL     OW21853   3.408   0.364  16.090  0.4118  0.2905 -0.1519
 3465SOL    HW121854   3.424   0.457  16.078 -0.3339  0.6254  1.4713
 3465SOL    HW221855   3.330   0.370  16.146  1.0624 -0.6705  0.8752
 3466SOL     OW21856   1.677   4.079   0.651  0.0867  0.0516  0.3042
 3466SOL    HW121857   1.732   4.052   0.725  1.7305 -1.7588 -1.5565
 3466SOL    HW221858   1.622   4.002   0.641  2.4005 -1.1897 -3.0699
 3467SOL     OW21859   1.232   0.569  16.775  0.3094 -0.7519 -0.6702
 3467SOL    HW121860   1.176   0.638  16.811 -0.2350 -0.8973 -1.2376
 3467SOL    HW221861   1.287   0.630  16.726 -2.1208 -1.1033 -3.8212
 3468SOL     OW21862   1.409   0.758   0.745 -0.2869  0.4169 -0.5472
 3468SOL    HW121863   1.395   0.795   0.658 -2.0874  0.2247 -0.3487
 3468SOL    HW221864   1.377   0.669   0.730 -2.8648  1.3648 -0.6532
 3469SOL     OW21865   1.468   2.007   0.871  0.2354 -0.0535 -0.3128
 3469SOL    HW121866   1.459   2.101   0.881 -2.3420 -0.5281  2.0009
 3469SOL    HW221867   1.526   1.979   0.942  1.9574 -0.0841 -1.7301
 3470SOL     OW21868   4.267   3.436  10.325  0.4473  0.1632  0.6712
 3470SOL    HW121869   4.190   3.402  10.370  0.0660  0.8798  0.5646
 3470SOL    HW221870   4.334   3.416  10.390  0.9805 -0.2794 -0.0169
 3471SOL     OW21871   3.599   2.553   2.011 -0.2098 -0.1499  0.4449
 3471SOL    HW121872   3.523   2.522   2.059 -0.1643 -0.9695 -0.0107
 3471SOL    HW221873   3.557   2.607   1.944  0.6511  0.2884  0.2473
 3472SOL     OW21874   0.962   3.250   0.250 -0.5373  0.1592 -0.5782
 3472SOL    HW121875   0.958   3.307   0.326 -0.1260 -1.8242  0.9304
 3472SOL    HW221876   1.050   3.214   0.265  0.1814  2.0198 -0.3455
 3473SOL     OW21877   0.533   0.417  12.912  0.6254 -0.3466  0.0236
 3473SOL    HW121878   0.476   0.478  12.866  0.9017 -1.7109 -2.1101
 3473SOL    HW221879   0.498   0.417  13.001  1.7285  0.7569  0.4712
 3474SOL     OW21880   1.313   2.459  11.033  0.2531  0.1223 -0.3811
 3474SOL    HW121881   1.256   2.403  11.086 -1.1738  1.1720 -0.8047
 3474SOL    HW221882   1.312   2.546  11.072  2.3214 -0.0030 -0.0725
 3475SOL     OW21883   2.766   2.691   4.501 -0.1061 -0.1739 -0.1428
 3475SOL    HW121884   2.837   2.730   4.450 -0.7550 -0.3563 -1.1995
 3475SOL    HW221885   2.770   2.603   4.465 -1.6650  0.0727 -0.9068
 3476SOL     OW21886   2.983   0.221   3.898 -0.5541  0.0794  0.1906
 3476SOL    HW121887   3.069   0.264   3.898 -0.9502  0.8713 -0.4832
 3476SOL    HW221888   2.970   0.239   3.805 -2.7393  1.6774  0.8164
 3477SOL     OW21889   4.009   2.567  17.495  0.1002  0.2520  0.2157
 3477SOL    HW121890   4.060   2.534  17.569  0.1182 -0.9946 -0.3574
 3477SOL    HW221891   3.958   2.493  17.462 -1.9918  0.9266  1.9814
 3478SOL     OW21892   1.373   4.538   2.078  0.9117  0.5912 -0.1113
 3478SOL    HW121893   1.331   4.586   2.149  1.3917  1.6171 -0.5034
 3478SOL    HW221894   1.377   4.603   2.007 -1.1762 -1.9229 -2.4945
 3479SOL     OW21895   3.989   0.142   5.149 -0.1526  0.6878 -0.5035
 3479SOL    HW121896   3.986   0.158   5.055 -1.0459  3.4981  0.0171
 3479SOL    HW221897   4.084   0.142   5.162 -0.3569  1.0015  0.9980
 3480SOL     OW21898   1.968   2.832  12.762 -0.3267  0.0420  0.1668
 3480SOL    HW121899   1.999   2.922  12.749  2.3663 -0.6753  1.6493
 3480SOL    HW221900   2.049   2.782  12.754 -1.7995 -1.9398 -2.2417
 3481SOL     OW21901   3.632   3.031   5.042  0.4169 -0.2819 -0.7169
 3481SOL    HW121902   3.635   2.939   5.069 -1.6298 -0.2975 -0.5150
 3481SOL    HW221903   3.585   3.078   5.111 -0.3576 -1.3099 -0.5529
 3482SOL     OW21904   3.628   0.332   5.749 -0.5754 -0.1665 -0.0015
 3482SOL    HW121905   3.709   0.314   5.702 -0.1683 -0.5536  0.8318
 3482SOL    HW221906   3.582   0.393   5.692  0.0718 -0.7410 -1.1451
 3483SOL     OW21907   3.828   3.898   2.192 -0.1562 -0.3054 -0.1629
 3483SOL    HW121908   3.783   3.840   2.254  0.8867 -0.1269  0.7547
 3483SOL    HW221909   3.768   3.886   2.118  0.3990 -1.4864 -0.4275
 3484SOL     OW21910   3.860   2.134   8.574 -0.0996  0.1229  0.1547
 3484SOL    HW121911   3.924   2.189   8.620  0.5880 -0.6978  0.1808
 3484SOL    HW221912   3.800   2.105   8.643  0.0203 -3.4629 -1.2425
 3485SOL     OW21913   0.823   0.578   3.255  0.1359  0.0388  0.1815
 3485SOL    HW121914   0.765   0.513   3.293  1.2726 -0.0255  1.8127
 3485SOL    HW221915   0.765   0.615   3.188 -0.2436 -0.7107  0.0991
 3486SOL     OW21916   2.770   0.310   6.161 -0.2544 -0.4220  0.3870
 3486SOL    HW121917   2.850   0.354   6.187 -1.2133  3.0014 -2.4635
 3486SOL    HW221918   2.787   0.220   6.187  0.8405 -0.2435  0.2682
 3487SOL     OW21919   1.519   2.055  10.988 -0.7398 -0.3678  0.3137
 3487SOL    HW121920   1.578   2.113  11.036 -0.9123  0.4947 -0.5143
 3487SOL    HW221921   1.494   1.999  11.061 -0.7280  0.4067  0.9116
 3488SOL     OW21922   4.279   2.024  15.650  0.3311  0.4087 -0.6492
 3488SOL    HW121923   4.240   1.980  15.574  0.1824  1.7543 -1.3399
 3488SOL    HW221924   4.315   2.099  15.602  0.5486 -0.6422 -2.1327
 3489SOL     OW21925   3.590   1.310  15.958 -0.1689  0.1405 -0.2635
 3489SOL    HW121926   3.535   1.333  15.883  3.8966  1.8048 -2.7032
 3489SOL    HW221927   3.627   1.234  15.912 -1.4006  0.2287 -1.3980
 3490SOL     OW21928   3.844   1.913   3.635  0.0312 -0.2190 -0.0985
 3490SOL    HW121929   3.936   1.929   3.654  0.4350 -2.9441  0.1185
 3490SOL    HW221930   3.844   1.890   3.542 -0.6054 -2.8331  0.5586
 3491SOL     OW21931   0.441   1.707   5.915 -0.3632 -0.4240  0.3763
 3491SOL    HW121932   0.477   1.711   6.003  1.8048  0.8368 -0.5477
 3491SOL    HW221933   0.486   1.777   5.868 -1.6634  0.1255 -0.0506
 3492SOL     OW21934   0.742   0.160   9.781 -0.0066  0.6030  0.3540
 3492SOL    HW121935   0.838   0.163   9.781 -0.0409  1.6957  0.0947
 3492SOL    HW221936   0.727   0.105   9.857 -0.0741  0.6924  0.4051
 3493SOL     OW21937   4.452   4.401  14.037  0.2003  0.1250 -0.1747
 3493SOL    HW121938   4.358   4.409  14.024 -0.3081 -2.7766  1.7977
 3493SOL    HW221939   4.472   4.478  14.091  0.6046 -0.4862  0.5514
 3494SOL     OW21940   2.479   1.154   1.500 -0.2232  0.5690  0.1901
 3494SOL    HW121941   2.384   1.164   1.495 -0.3415  0.5514  2.4047
 3494SOL    HW221942   2.498   1.066   1.467 -2.5076 -0.4540  1.5880
 3495SOL     OW21943   4.136   3.482   8.489  0.3524 -0.5295  0.0988
 3495SOL    HW121944   4.143   3.563   8.438 -0.3018  0.1885  1.1433
 3495SOL    HW221945   4.047   3.478   8.524  0.6828 -4.7595  0.4441
 3496SOL     OW21946   3.585   4.144   0.677  0.2672 -0.7294 -0.1582
 3496SOL    HW121947   3.567   4.232   0.646  0.8754 -0.9709 -1.1930
 3496SOL    HW221948   3.530   4.099   0.614  1.1739 -0.0455 -1.4343
 3497SOL     OW21949   0.286   1.563   3.747  0.4402  0.5029  0.0681
 3497SOL    HW121950   0.221   1.627   3.718 -2.7478 -3.3178 -1.1930
 3497SOL    HW221951   0.319   1.613   3.822 -0.7610 -0.3159  1.1364
 3498SOL     OW21952   0.221   2.975   4.050  0.2792  0.3773 -0.1527
 3498SOL    HW121953   0.290   3.012   3.996 -0.3641 -0.9547 -1.8676
 3498SOL    HW221954   0.215   3.034   4.126 -0.1566  1.5286 -1.0804
 3499SOL     OW21955   0.898   2.560   9.320 -0.1041  0.2712 -0.0856
 3499SOL    HW121956   0.858   2.642   9.291 -0.3037 -0.0690 -0.7810
 3499SOL    HW221957   0.969   2.583   9.381 -1.6613  0.4719  1.6367
 3500SOL     OW21958   0.355   3.297   0.075  0.4273  0.2206 -0.6681
 3500SOL    HW121959   0.279   3.355   0.064  1.7324  1.8526 -1.1425
 3500SOL    HW221960   0.367   3.275  17.678  1.1789  5.3662 -1.8348
 3501SOL     OW21961   1.682   3.916   3.624  0.2932  0.2114 -0.5002
 3501SOL    HW121962   1.644   3.944   3.707 -0.1247  1.9472 -1.2692
 3501SOL    HW221963   1.611   3.938   3.564  1.0457  1.6506 -0.8606
 3502SOL     OW21964   1.102   2.541   3.242  0.3362  0.1351 -0.5041
 3502SOL    HW121965   1.078   2.566   3.332  1.5043  0.4247 -0.2781
 3502SOL    HW221966   1.026   2.491   3.211 -0.4631  1.2517 -0.3561
 3503SOL     OW21967   0.229   4.441   9.917  0.2402 -0.4843  0.0440
 3503SOL    HW121968   0.298   4.507   9.923  0.6400 -1.1089  2.2691
 3503SOL    HW221969   0.227   4.421   9.823  1.5219  1.1604 -0.3317
 3504SOL     OW21970   4.267   2.746  13.852  0.4658  0.3357 -0.0666
 3504SOL    HW121971   4.277   2.679  13.919 -0.0692 -0.0060 -0.3266
 3504SOL    HW221972   4.257   2.693  13.773  2.5072  0.0043 -0.1049
 3505SOL     OW21973   0.657   1.534   4.535  0.2537 -0.2986 -0.0262
 3505SOL    HW121974   0.612   1.538   4.620  0.9354 -1.0937  0.3700
 3505SOL    HW221975   0.727   1.598   4.547 -0.9429  1.1789 -0.9444
 3506SOL     OW21976   1.145   3.463   1.807  0.0089 -0.7619  0.1209
 3506SOL    HW121977   1.164   3.524   1.879 -0.4515  0.0421 -0.4357
 3506SOL    HW221978   1.160   3.381   1.853  0.2218  0.9518  3.1385
 3507SOL     OW21979   1.826   4.449   6.791  0.5574 -0.4153  0.9768
 3507SOL    HW121980   1.779   4.383   6.741  0.7091 -1.2369  1.9160
 3507SOL    HW221981   1.753   4.507   6.813  0.0416 -1.4420  2.0184
 3508SOL     OW21982   3.207   2.482   4.083  0.6087  0.4061  0.0848
 3508SOL    HW121983   3.287   2.448   4.121  0.7245  1.3603  0.6811
 3508SOL    HW221984   3.206   2.430   4.002  1.5122  0.8572 -0.2080
 3509SOL     OW21985   0.757   4.463   4.765 -0.3171  0.5986 -0.0141
 3509SOL    HW121986   0.772   4.461   4.671 -0.5534  2.0345 -0.0746
 3509SOL    HW221987   0.670   4.503   4.769 -1.3736 -1.8504  1.3775
 3510SOL     OW21988   4.423   0.178   7.939 -0.0238  0.4062 -0.5751
 3510SOL    HW121989   4.338   0.216   7.958 -0.5890 -0.9052 -0.5246
 3510SOL    HW221990   4.454   0.259   7.897 -0.6403  1.4763  1.0458
 3511SOL     OW21991   0.872   3.268   3.901  0.3760  0.0177 -0.6648
 3511SOL    HW121992   0.881   3.352   3.946  0.6843 -0.2474 -0.2407
 3511SOL    HW221993   0.905   3.304   3.818  0.1927 -0.4126 -0.9220
 3512SOL     OW21994   2.481   0.179   4.607  0.0486 -0.3561 -0.3906
 3512SOL    HW121995   2.475   0.142   4.519  0.3613  0.6473 -0.8288
 3512SOL    HW221996   2.485   0.106   4.669 -1.5842  0.3283  0.5234
 3513SOL     OW21997   4.632   1.569  10.112 -0.2555 -0.1174 -0.0450
 3513SOL    HW121998   4.674   1.495  10.157  0.7573  1.3255  1.3711
 3513SOL    HW221999   4.643   1.628  10.186  0.3454  0.8216 -0.8814
 3514SOL     OW22000   2.697   1.206  13.807 -0.4720  0.4538  0.4990
 3514SOL    HW122001   2.636   1.227  13.737 -0.1396 -0.9576 -0.2147
 3514SOL    HW222002   2.756   1.142  13.765  0.3025  1.3832  0.1684
 3515SOL     OW22003   2.417   1.642   3.429 -0.2497  0.6707  0.3491
 3515SOL    HW122004   2.454   1.716   3.382 -0.3993  1.7558  1.9540
 3515SOL    HW222005   2.328   1.643   3.393 -0.6720 -1.6326  1.3252
 3516SOL     OW22006   1.077   0.231   4.702 -0.0449 -0.6187  0.3200
 3516SOL    HW122007   1.163   0.222   4.742  1.6238  0.4927 -2.9464
 3516SOL    HW222008   1.100   0.198   4.615 -0.7828 -0.3579  0.0250
 3517SOL     OW22009   1.049   2.290   7.034 -0.2618  0.4003  0.3510
 3517SOL    HW122010   1.117   2.339   6.988 -0.2369 -0.9970 -1.1245
 3517SOL    HW222011   1.054   2.337   7.117 -2.7499  0.0405  0.7118
 3518SOL     OW22012   0.794   0.600   2.774  0.6954  0.0784 -0.0025
 3518SOL    HW122013   0.865   0.659   2.752  0.3675  0.7895  0.8330
 3518SOL    HW222014   0.820   0.519   2.731 -2.3078 -0.5314 -0.7078
 3519SOL     OW22015   4.346   1.791   1.258  0.0674 -0.0674 -0.4258
 3519SOL    HW122016   4.386   1.780   1.344  0.5542  3.5020 -0.2009
 3519SOL    HW222017   4.291   1.713   1.259  0.0435 -0.0727 -1.7259
 3520SOL     OW22018   0.418   3.937   4.970 -0.2784 -0.1506 -0.1525
 3520SOL    HW122019   0.396   3.988   5.048  1.9221  1.0712 -0.3105
 3520SOL    HW222020   0.336   3.931   4.922 -0.3978 -0.2558  0.0642
 3521SOL     OW22021   1.172   4.083   1.911  0.0717  0.9500  0.0110
 3521SOL    HW122022   1.208   4.003   1.872 -2.2227 -0.2356  0.3202
 3521SOL    HW222023   1.191   4.140   1.837 -0.3506  0.3152 -0.5975
 3522SOL     OW22024   2.210   4.001  16.145 -0.0979  0.4010 -0.5326
 3522SOL    HW122025   2.119   3.986  16.118 -0.3329  0.2445  0.3416
 3522SOL    HW222026   2.256   4.002  16.061 -0.6349  0.5481 -0.8246
 3523SOL     OW22027   2.710   0.735   0.061  0.0398 -0.6521 -0.3748
 3523SOL    HW122028   2.787   0.792   0.061 -0.4147 -0.0518 -1.0722
 3523SOL    HW222029   2.639   0.781   0.016  0.5594  0.9448  0.4334
 3524SOL     OW22030   2.173   0.409  14.676  0.3787 -0.4030 -0.0363
 3524SOL    HW122031   2.153   0.501  14.657 -0.8961 -0.6386  0.1445
 3524SOL    HW222032   2.195   0.408  14.769  1.2205 -1.4365 -0.2500
 3525SOL     OW22033   2.169   2.438   9.189  0.1741 -0.0854  0.0732
 3525SOL    HW122034   2.111   2.504   9.228 -0.0896  0.0399 -0.5217
 3525SOL    HW222035   2.253   2.463   9.226  0.3463 -2.5342  1.3037
 3526SOL     OW22036   0.023   1.378   5.650  0.0859 -0.2851  0.4403
 3526SOL    HW122037   4.687   1.340   5.714 -1.0297  1.5395  0.4818
 3526SOL    HW222038   4.716   1.468   5.655 -0.1377 -0.2802 -0.9511
 3527SOL     OW22039   3.556   0.131   4.986 -0.8188 -0.3414  0.1057
 3527SOL    HW122040   3.466   0.149   4.959 -1.1827 -1.1430  0.8007
 3527SOL    HW222041   3.548   0.124   5.081 -0.5932  0.2130  0.1682
 3528SOL     OW22042   4.126   1.992  13.035  0.4425  0.3514 -0.3593
 3528SOL    HW122043   4.112   1.944  12.954 -2.4950 -1.0734  0.9653
 3528SOL    HW222044   4.144   1.921  13.096 -1.8676  1.4912  1.6871
 3529SOL     OW22045   1.698   1.703   9.161  0.5895  0.2840 -0.2205
 3529SOL    HW122046   1.761   1.662   9.220 -0.7940  1.0648  1.7687
 3529SOL    HW222047   1.687   1.634   9.095  0.3509 -0.7670  0.9257
 3530SOL     OW22048   4.092   4.088  12.662  0.0205 -0.2879 -0.0597
 3530SOL    HW122049   4.041   4.026  12.714  0.6756 -0.8256 -0.0473
 3530SOL    HW222050   4.107   4.158  12.726  1.8948  0.3790 -1.2165
 3531SOL     OW22051   3.060   1.429   6.231  0.5961 -0.0351 -0.3793
 3531SOL    HW122052   3.126   1.364   6.206  0.8004  0.3571 -0.8470
 3531SOL    HW222053   3.048   1.415   6.325 -2.8598  3.6816 -0.2869
 3532SOL     OW22054   4.654   0.700   5.628 -0.2200  0.5089 -0.5673
 3532SOL    HW122055   4.678   0.691   5.536  0.9715 -0.4681 -0.1580
 3532SOL    HW222056   4.659   0.612   5.666  1.6655  0.4322 -1.0125
 3533SOL     OW22057   1.170   2.682   1.752  0.2059  0.9540  0.5058
 3533SOL    HW122058   1.108   2.662   1.821 -2.0767 -1.2658 -2.1501
 3533SOL    HW222059   1.132   2.748   1.694 -1.3765 -0.0965  0.3361
 3534SOL     OW22060   3.563   4.254  15.929 -0.2555 -0.2419 -0.0060
 3534SOL    HW122061   3.511   4.274  16.007  0.2369  1.0032 -0.0029
 3534SOL    HW222062   3.651   4.263  15.965 -0.5925  4.1802 -0.3334
 3535SOL     OW22063   2.216   2.188   5.433  0.1405  0.3485  0.2781
 3535SOL    HW122064   2.123   2.181   5.455 -0.1371 -0.5359 -1.2247
 3535SOL    HW222065   2.248   2.138   5.508 -1.2459 -0.2025  0.5139
 3536SOL     OW22066   2.881   1.267  16.982 -0.0620  0.1142  0.2448
 3536SOL    HW122067   2.792   1.241  17.007 -0.4378  0.0593 -1.0951
 3536SOL    HW222068   2.861   1.312  16.899 -0.6552 -0.0341  0.3046
 3537SOL     OW22069   2.794   2.265   7.356  0.6349  0.2461 -0.0580
 3537SOL    HW122070   2.817   2.332   7.419 -0.9479  1.7947 -1.1111
 3537SOL    HW222071   2.878   2.262   7.311 -0.2867 -1.2054 -1.7006
 3538SOL     OW22072   2.128   2.475   3.075 -0.2298  0.7529 -0.0116
 3538SOL    HW122073   2.144   2.554   3.127  1.4521  1.0475 -0.9694
 3538SOL    HW222074   2.166   2.504   2.992  0.8639  0.4456  0.3860
 3539SOL     OW22075   0.010   1.430   2.231  0.2034 -0.0673  0.5321
 3539SOL    HW122076   4.660   1.396   2.281 -1.1072  0.6562 -0.9012
 3539SOL    HW222077   4.694   1.483   2.161  2.2001 -0.2353 -0.7310
 3540SOL     OW22078   1.209   2.646   9.334  0.2982 -0.0753  0.2112
 3540SOL    HW122079   1.188   2.739   9.329 -1.8232 -0.4878  1.5380
 3540SOL    HW222080   1.256   2.655   9.416  1.9691 -0.1010 -0.7293
 3541SOL     OW22081   4.221   3.913   9.406 -0.0749 -0.1467 -0.0308
 3541SOL    HW122082   4.218   3.850   9.334  1.0655 -0.7817  0.4692
 3541SOL    HW222083   4.129   3.907   9.430  0.4206  0.7594  2.0994
 3542SOL     OW22084   4.713   0.150   2.733  0.1630  0.6601  0.2378
 3542SOL    HW122085   4.662   0.229   2.749 -1.2953 -0.4257  1.0283
 3542SOL    HW222086   4.642   0.090   2.758  0.1460  0.8390  0.6124
 3543SOL     OW22087   1.555   1.417   7.320  0.0988 -0.4870  0.1155
 3543SOL    HW122088   1.613   1.414   7.244 -0.2843 -0.0565 -0.1939
 3543SOL    HW222089   1.615   1.439   7.391  1.1283 -1.2152 -0.5161
 3544SOL     OW22090   2.138   4.284   4.400  0.0383  0.0299  0.0827
 3544SOL    HW122091   2.081   4.361   4.408 -2.0051 -1.4614 -0.2244
 3544SOL    HW222092   2.101   4.252   4.318  0.6118  0.3686 -0.3097
 3545SOL     OW22093   4.465   1.495   9.496  0.1990  0.1387  0.0693
 3545SOL    HW122094   4.547   1.497   9.447  0.9355  1.9630  1.3790
 3545SOL    HW222095   4.490   1.462   9.582 -1.9192 -0.8319  0.3270
 3546SOL     OW22096   4.029   0.815  10.690 -0.5020 -0.1543 -1.0806
 3546SOL    HW122097   3.972   0.817  10.767  2.3622  0.1521  0.9914
 3546SOL    HW222098   4.111   0.799  10.735 -1.3716 -0.8730  0.2586
 3547SOL     OW22099   4.496   3.740  17.662  0.6723 -0.7059  0.5814
 3547SOL    HW122100   4.481   3.823  17.617  0.2907  0.3403  2.6531
 3547SOL    HW222101   4.411   3.726   0.010  1.7274 -0.2885  2.7619
 3548SOL     OW22102   3.960   2.927  12.802  0.0121 -0.7835  0.0673
 3548SOL    HW122103   4.007   2.986  12.744 -0.8535 -1.6774 -1.5436
 3548SOL    HW222104   4.027   2.861  12.821 -0.9894 -1.1823  2.2525
 3549SOL     OW22105   3.526   4.163  13.954  0.1096 -0.7788 -0.1260
 3549SOL    HW122106   3.610   4.194  13.919  0.5061 -0.1771  1.3201
 3549SOL    HW222107   3.554   4.160  14.046 -1.3745  1.6374  0.4093
 3550SOL     OW22108   2.944   0.559  13.858 -0.0583  0.0606 -0.3703
 3550SOL    HW122109   3.010   0.502  13.896  0.9211  2.1425  1.0434
 3550SOL    HW222110   2.990   0.600  13.784  2.5720  0.4591  1.4979
 3551SOL     OW22111   2.129   3.543   3.049 -0.1413  0.5040  0.2677
 3551SOL    HW122112   2.211   3.495   3.044  0.1143  1.2479 -2.3182
 3551SOL    HW222113   2.150   3.587   3.132 -0.9286  0.2205  0.6216
 3552SOL     OW22114   0.647   1.898   5.953 -0.1132  0.2833  0.3346
 3552SOL    HW122115   0.742   1.899   5.958 -0.0549  1.9041 -0.8951
 3552SOL    HW222116   0.629   1.892   6.047 -0.9457  0.7692  0.2117
 3553SOL     OW22117   2.834   1.926  16.676 -0.3422  0.1679  0.1699
 3553SOL    HW122118   2.906   1.976  16.715  0.2438  0.0586 -0.7883
 3553SOL    HW222119   2.871   1.839  16.687 -1.3771 -0.2894  0.0888
 3554SOL     OW22120   3.538   1.723   4.739 -0.2079 -0.1393 -0.4757
 3554SOL    HW122121   3.609   1.780   4.708  0.4182 -1.6804 -1.8835
 3554SOL    HW222122   3.591   1.651   4.773  1.1649  0.6179 -1.0117
 3555SOL     OW22123   2.042   3.544   9.094  0.5572  0.1332 -0.0311
 3555SOL    HW122124   2.074   3.464   9.052  0.1738  0.4101 -0.8404
 3555SOL    HW222125   2.114   3.562   9.155  1.5002 -0.5530 -0.9426
 3556SOL     OW22126   2.370   1.367   7.434  0.5216  0.4227  0.4232
 3556SOL    HW122127   2.438   1.432   7.449  2.5964 -1.9505  1.2118
 3556SOL    HW222128   2.386   1.345   7.342 -2.5390 -0.8345  0.1816
 3557SOL     OW22129   0.374   4.144   8.586 -0.1911  0.0044  0.1308
 3557SOL    HW122130   0.408   4.063   8.549 -0.6364 -0.6994  1.2749
 3557SOL    HW222131   0.374   4.189   8.502 -1.0513 -0.2244  0.0109
 3558SOL     OW22132   3.136   4.326  15.562 -0.0941  0.3380 -0.3098
 3558SOL    HW122133   3.116   4.385  15.635  2.2598  0.5457  0.1536
 3558SOL    HW222134   3.076   4.354  15.492 -0.7955 -1.0305 -0.2355
 3559SOL     OW22135   1.519   4.367   7.962 -0.3743 -0.6115 -0.4400
 3559SOL    HW122136   1.610   4.360   7.935 -0.5303 -1.8223 -0.6202
 3559SOL    HW222137   1.528   4.345   8.055  1.9037 -0.1454 -0.5495
 3560SOL     OW22138   3.252   2.469  11.448 -0.3995 -0.0616 -0.0884
 3560SOL    HW122139   3.176   2.488  11.503  0.5752  2.7145  0.2897
 3560SOL    HW222140   3.297   2.414  11.512 -0.1821 -0.7482 -0.8147
 3561SOL     OW22141   4.342   4.195  12.833  0.4005  0.1666 -0.1539
 3561SOL    HW122142   4.354   4.108  12.871 -1.5413  0.9938  2.3887
 3561SOL    HW222143   4.262   4.224  12.879 -0.7208 -0.9720 -1.3862
 3562SOL     OW22144   3.760   0.326  14.640 -0.2672 -0.2336 -0.5593
 3562SOL    HW122145   3.839   0.308  14.691  0.1689 -0.8305 -1.4527
 3562SOL    HW222146   3.731   0.237  14.622  2.1860 -1.5506  1.9731
 3563SOL     OW22147   1.458   0.716   8.332 -0.0458  0.0941 -0.3667
 3563SOL    HW122148   1.460   0.632   8.378 -1.7613 -0.5436 -1.5028
 3563SOL    HW222149   1.541   0.761   8.351  0.6832 -1.1439 -0.6196
 3564SOL     OW22150   1.494   2.133   8.888  0.2474 -0.3203 -0.2385
 3564SOL    HW122151   1.585   2.161   8.875 -0.1996 -0.0626 -2.8211
 3564SOL    HW222152   1.505   2.038   8.882 -0.4804 -0.3648 -0.9959
 3565SOL     OW22153   0.351   3.984   2.593 -0.2972 -0.0599 -0.0340
 3565SOL    HW122154   0.357   4.043   2.668 -0.6927  1.7224 -1.3990
 3565SOL    HW222155   0.323   3.901   2.631 -1.2392 -0.4000 -1.4739
 3566SOL     OW22156   2.110   0.469   2.810 -0.2949  0.9195 -0.7413
 3566SOL    HW122157   2.148   0.546   2.854  1.0303  0.2523 -0.7067
 3566SOL    HW222158   2.186   0.442   2.758 -0.5180 -0.7819 -0.1630
 3567SOL     OW22159   0.510   3.272   3.164  1.0537  0.2036  0.0354
 3567SOL    HW122160   0.430   3.322   3.148  1.0393 -0.1893 -1.0817
 3567SOL    HW222161   0.475   3.183   3.159  1.0774  0.3628 -2.6868
 3568SOL     OW22162   2.393   3.618   6.450 -0.2231 -0.0245 -0.5773
 3568SOL    HW122163   2.455   3.611   6.522 -0.8754 -1.8058 -0.1690
 3568SOL    HW222164   2.461   3.652   6.393  1.3060 -0.3030  1.0729
 3569SOL     OW22165   0.982   2.716   5.102  0.0977 -0.2025  0.1921
 3569SOL    HW122166   0.910   2.770   5.068 -0.4375 -1.6767 -1.0021
 3569SOL    HW222167   0.926   2.667   5.162 -0.0264 -1.8030 -1.2546
 3570SOL     OW22168   1.193   3.061   9.750 -0.6526 -0.9079 -0.5167
 3570SOL    HW122169   1.098   3.060   9.736 -0.8101 -2.2941  0.6764
 3570SOL    HW222170   1.194   3.132   9.815 -2.3487 -0.7771 -0.6291
 3571SOL     OW22171   1.431   0.424   6.355  0.6545 -0.3497 -0.2583
 3571SOL    HW122172   1.475   0.350   6.313 -1.0580 -0.3478 -2.0479
 3571SOL    HW222173   1.359   0.414   6.293 -1.8754 -0.3238  2.7069
 3572SOL     OW22174   1.456   3.504   6.983 -0.2406 -0.0573 -0.3944
 3572SOL    HW122175   1.404   3.584   6.974  1.0330  1.0031  1.7953
 3572SOL    HW222176   1.465   3.493   6.888 -1.3201 -0.5983 -0.4349
 3573SOL     OW22177   0.965   3.588  14.609 -0.5319 -0.2036 -0.6385
 3573SOL    HW122178   1.012   3.586  14.526 -0.5894 -2.0387 -0.6378
 3573SOL    HW222179   0.892   3.646  14.590 -1.5031 -0.4784  2.1815
 3574SOL     OW22180   1.362   2.330  13.157  0.3918 -0.5446  0.1718
 3574SOL    HW122181   1.449   2.307  13.190  0.4361  0.1288  0.5332
 3574SOL    HW222182   1.318   2.354  13.239 -1.1824 -2.2615 -0.1748
 3575SOL     OW22183   3.989   0.398   4.982 -0.5016  0.4811  0.7302
 3575SOL    HW122184   3.972   0.452   4.905 -2.4363  0.1377  0.9020
 3575SOL    HW222185   3.900   0.394   5.017 -0.7649  1.3805  0.1761
 3576SOL     OW22186   0.151   0.179   2.981 -0.1664 -0.2324  0.0692
 3576SOL    HW122187   0.064   0.195   3.016  0.3151  0.7441  0.8199
 3576SOL    HW222188   0.123   0.174   2.889 -0.1955 -1.9423  0.1682
 3577SOL     OW22189   1.638   3.813  14.377 -0.0679 -0.1013  0.2862
 3577SOL    HW122190   1.563   3.754  14.372  2.7014 -3.4812 -1.0057
 3577SOL    HW222191   1.697   3.762  14.433 -1.9398  0.6802  2.9465
 3578SOL     OW22192   2.593   1.626   3.960 -0.1797  0.6107  0.1892
 3578SOL    HW122193   2.507   1.605   3.923  0.7842 -1.8625 -0.6156
 3578SOL    HW222194   2.577   1.646   4.052  1.7743  1.6636  0.2968
 3579SOL     OW22195   1.230   3.096   5.123  0.1561 -0.3893  0.1715
 3579SOL    HW122196   1.247   3.143   5.205 -2.5535  2.3592 -0.8222
 3579SOL    HW222197   1.236   3.005   5.151  0.4774 -1.0014 -1.8723
 3580SOL     OW22198   1.365   4.087   2.407  0.1710 -0.2879  0.7577
 3580SOL    HW122199   1.363   4.042   2.322  1.9597 -0.7439  0.9530
 3580SOL    HW222200   1.270   4.099   2.408  0.2215  0.1917  0.0009
 3581SOL     OW22201   0.964   2.486  11.031 -0.5411  0.4197  0.5392
 3581SOL    HW122202   0.927   2.435  11.103 -0.0434 -0.6210  0.0549
 3581SOL    HW222203   1.022   2.424  10.988 -0.4255  1.4666 -0.8314
 3582SOL     OW22204   1.841   2.061  13.570  0.0864  0.3976 -0.2273
 3582SOL    HW122205   1.748   2.046  13.583  0.5599 -0.8937  1.6532
 3582SOL    HW222206   1.888   2.025  13.645 -0.5725 -0.2298 -0.1133
 3583SOL     OW22207   2.200   4.680   0.271 -0.5905  0.4040  0.2480
 3583SOL    HW122208   2.132   0.017   0.301 -0.8754  0.1590  0.0935
 3583SOL    HW222209   2.205   4.708   0.180  0.0245 -1.8606 -0.4276
 3584SOL     OW22210   0.339   0.427   1.296 -0.0990 -0.3858 -0.1673
 3584SOL    HW122211   0.293   0.439   1.379  1.6388  0.9013  0.6063
 3584SOL    HW222212   0.307   0.501   1.244  0.8273  1.3089  1.6846
 3585SOL     OW22213   1.903   2.957   7.828  0.0384  0.3714 -0.0854
 3585SOL    HW122214   1.998   2.964   7.838  0.0168 -1.3278  1.2969
 3585SOL    HW222215   1.908   2.929   7.737 -0.1234  0.4097 -0.1061
 3586SOL     OW22216   4.384   2.213   7.418 -0.0073  0.0086 -0.0793
 3586SOL    HW122217   4.353   2.123   7.410  0.8915 -0.4868  1.8854
 3586SOL    HW222218   4.434   2.228   7.338  2.2109  1.0544  1.4844
 3587SOL     OW22219   3.457   4.161   6.271 -0.4739 -0.3782 -0.1885
 3587SOL    HW122220   3.519   4.089   6.278  1.0963  1.1537  1.7005
 3587SOL    HW222221   3.380   4.107   6.290  0.0179 -0.9158  0.2626
 3588SOL     OW22222   0.440   3.856   8.101 -0.3669  0.6054 -0.1380
 3588SOL    HW122223   0.534   3.872   8.088 -0.4280  0.0587 -1.2355
 3588SOL    HW222224   0.424   3.788   8.167  0.5244 -0.9444 -1.5183
 3589SOL     OW22225   0.523   1.400   8.517  0.9823 -0.0493 -0.4733
 3589SOL    HW122226   0.568   1.465   8.463  0.6905 -0.8020 -1.6278
 3589SOL    HW222227   0.457   1.453   8.563  1.2830  0.2849 -0.4282
 3590SOL     OW22228   2.712   4.048   7.518  0.0931  0.1249  0.2963
 3590SOL    HW122229   2.691   4.016   7.430 -0.3437  0.5405  0.2497
 3590SOL    HW222230   2.806   4.034   7.524  0.2152  1.2279  0.9375
 3591SOL     OW22231   4.620   3.868   4.613  0.4695 -0.5472 -0.6613
 3591SOL    HW122232   4.601   3.866   4.519  1.3170  0.2913 -0.8502
 3591SOL    HW222233   4.589   3.782   4.642 -0.4309 -0.1930 -0.5751
 3592SOL     OW22234   2.367   1.586   3.780 -0.1810  0.0379  0.5284
 3592SOL    HW122235   2.338   1.669   3.740  1.3494  0.6030  0.5721
 3592SOL    HW222236   2.367   1.526   3.705 -1.4789 -1.2007  1.5494
 3593SOL     OW22237   0.897   1.152   4.858 -0.1482  0.6981 -0.3890
 3593SOL    HW122238   0.820   1.206   4.877 -0.5406  0.1462 -0.4073
 3593SOL    HW222239   0.857   1.086   4.802 -1.8387  0.5540  0.9849
 3594SOL     OW22240   1.594   2.602   9.811  0.2875 -0.4084 -0.5274
 3594SOL    HW122241   1.637   2.610   9.896  1.4495 -0.4727 -1.0966
 3594SOL    HW222242   1.503   2.580   9.829  1.3584 -2.2465  2.7425
 3595SOL     OW22243   1.584   1.969  13.573 -0.6624  0.2394 -0.2803
 3595SOL    HW122244   1.515   1.982  13.639 -0.6209 -0.7900 -0.0442
 3595SOL    HW222245   1.527   1.969  13.496 -1.3720  0.8334  0.2350
 3596SOL     OW22246   4.350   3.858   3.211 -0.2169 -0.2723  0.3913
 3596SOL    HW122247   4.335   3.832   3.301  2.1447  0.8665  1.1131
 3596SOL    HW222248   4.329   3.951   3.220 -1.3109 -0.3902 -0.8948
 3597SOL     OW22249   4.579   1.832   9.394 -0.3431 -0.3904  0.1074
 3597SOL    HW122250   4.524   1.779   9.451 -0.7068 -1.1221 -0.9204
 3597SOL    HW222251   4.654   1.772   9.394 -0.5455 -0.6427 -0.0829
 3598SOL     OW22252   1.973   1.652  13.464 -0.2880 -0.1178  0.2133
 3598SOL    HW122253   1.896   1.705  13.447 -1.1457 -1.1190  0.9265
 3598SOL    HW222254   1.945   1.565  13.435 -1.0587 -0.0881  0.8890
 3599SOL     OW22255   0.208   3.091   1.991  0.6985 -0.6012 -0.3208
 3599SOL    HW122256   0.171   3.171   2.028  1.7370  0.2204 -1.0519
 3599SOL    HW222257   0.283   3.082   2.049  0.7478  1.4318 -0.0587
 3600SOL     OW22258   2.771   4.077   2.568  0.2962  0.0401 -0.1370
 3600SOL    HW122259   2.826   4.151   2.544 -0.3064  0.1467 -1.1861
 3600SOL    HW222260   2.684   4.117   2.564  1.3436  2.7026  3.6777
 3601SOL     OW22261   3.087   3.422  12.669  0.0515  0.4163 -0.3596
 3601SOL    HW122262   3.110   3.389  12.582 -0.6305  0.4063 -0.5341
 3601SOL    HW222263   3.121   3.511  12.660  0.5791 -0.0198 -2.6972
 3602SOL     OW22264   0.448   3.742  11.379  0.5079  0.1530  0.0250
 3602SOL    HW122265   0.524   3.706  11.425 -1.4787 -1.2354  2.2242
 3602SOL    HW222266   0.447   3.703  11.292  3.0520  1.5471 -0.6175
 3603SOL     OW22267   1.772   3.906  14.141  0.2453  0.3551 -0.3744
 3603SOL    HW122268   1.733   3.991  14.163  0.8498  0.5495 -0.0604
 3603SOL    HW222269   1.747   3.855  14.218 -0.1570  2.1880  0.7140
 3604SOL     OW22270   4.473   0.346   3.252  0.2649  0.2199  0.0181
 3604SOL    HW122271   4.392   0.319   3.295  1.5772 -2.3001  0.9034
 3604SOL    HW222272   4.521   0.359   3.334 -0.1333  0.2502  0.2429
 3605SOL     OW22273   1.474   3.988  17.363 -0.0306  0.1978  0.5780
 3605SOL    HW122274   1.511   4.003  17.275  2.5001  1.2688  1.8182
 3605SOL    HW222275   1.381   3.983  17.344  0.4641 -2.9534 -1.1121
 3606SOL     OW22276   2.778   0.678   6.583  0.5798 -0.2337  0.4667
 3606SOL    HW122277   2.780   0.582   6.582 -0.5611 -0.2507  0.2368
 3606SOL    HW222278   2.868   0.704   6.603  0.1204  0.8393  1.1781
 3607SOL     OW22279   0.170   0.709   6.904 -0.4356  0.2872  0.1655
 3607SOL    HW122280   0.172   0.803   6.886 -0.7843  0.0263 -1.2454
 3607SOL    HW222281   0.077   0.691   6.886 -0.1460 -0.0661 -0.9345
 3608SOL     OW22282   1.568   2.167   4.948 -0.0144  0.3402 -0.0016
 3608SOL    HW122283   1.565   2.156   4.853  2.0269  1.0302 -0.1451
 3608SOL    HW222284   1.492   2.114   4.975  0.6659 -0.7565 -0.2610
 3609SOL     OW22285   3.451   4.576   8.209  0.0906  0.6526 -0.3317
 3609SOL    HW122286   3.382   4.520   8.244 -0.6214  1.0050 -1.1830
 3609SOL    HW222287   3.521   4.514   8.229 -0.8313  0.5356  2.4364
 3610SOL     OW22288   2.228   0.343  14.419  0.3622  0.2459  0.0744
 3610SOL    HW122289   2.213   0.372  14.509 -1.4844 -0.2908 -0.0664
 3610SOL    HW222290   2.216   0.250  14.438 -4.4759  1.1210  1.4283
 3611SOL     OW22291   3.082   2.306   2.809  0.1515  0.1510 -0.1623
 3611SOL    HW122292   3.104   2.382   2.756 -0.3512  1.9153  2.1393
 3611SOL    HW222293   2.986   2.305   2.798  0.2885 -1.5440 -1.2282
 3612SOL     OW22294   3.659   0.588   3.178  0.1145 -0.5451 -0.2446
 3612SOL    HW122295   3.748   0.622   3.165  0.1626  0.3805  2.5259
 3612SOL    HW222296   3.612   0.668   3.200  0.3380 -0.8018  1.2319
 3613SOL     OW22297   2.402   2.861   7.290 -0.0652  0.0689 -0.7969
 3613SOL    HW122298   2.346   2.936   7.313  1.3658  0.8088  0.2490
 3613SOL    HW222299   2.342   2.791   7.266 -1.4092  0.7976  0.4034
 3614SOL     OW22300   3.723   3.716  11.415  0.4147 -0.0176  0.2465
 3614SOL    HW122301   3.782   3.642  11.400  2.1376  1.6715 -1.2180
 3614SOL    HW222302   3.738   3.742  11.506  1.1938 -0.3349  0.2099
 3615SOL     OW22303   3.607   0.316   2.267  0.8028 -0.0441 -0.1674
 3615SOL    HW122304   3.605   0.398   2.315  0.3124 -0.1791  0.0423
 3615SOL    HW222305   3.566   0.324   2.181 -0.7458  0.1161  0.5918
 3616SOL     OW22306   3.673   4.113   4.780  0.4187 -0.0409 -0.4319
 3616SOL    HW122307   3.608   4.090   4.713  2.5321 -0.1614 -2.4461
 3616SOL    HW222308   3.719   4.030   4.791 -0.0891 -0.2012  0.4622
 3617SOL     OW22309   2.748   0.171   5.343  0.1022 -0.3126 -0.6782
 3617SOL    HW122310   2.685   0.178   5.271 -1.0015  0.9723  0.4198
 3617SOL    HW222311   2.835   0.149   5.308 -0.7758 -3.6417 -0.7855
 3618SOL     OW22312   3.989   1.168   5.901  0.2890 -0.4188 -0.1564
 3618SOL    HW122313   3.949   1.087   5.868 -1.7794 -0.7917  3.3247
 3618SOL    HW222314   3.977   1.165   5.995 -0.4181 -0.0851 -0.2344
 3619SOL     OW22315   1.402   0.515   7.030  0.2773 -0.6632 -0.5237
 3619SOL    HW122316   1.470   0.519   6.963  1.3970 -0.3082  0.6448
 3619SOL    HW222317   1.359   0.432   7.007  1.1549 -1.7352  1.6558
 3620SOL     OW22318   4.250   1.289   0.131  0.4279 -0.4527 -0.4030
 3620SOL    HW122319   4.222   1.318   0.044 -1.4825  0.2949  0.4555
 3620SOL    HW222320   4.161   1.285   0.168  0.0557 -1.6856 -1.4267
 3621SOL     OW22321   4.256   3.190   6.604  0.0425 -0.0706  0.2604
 3621SOL    HW122322   4.322   3.170   6.538 -0.6509 -1.2737 -0.0734
 3621SOL    HW222323   4.180   3.149   6.563 -0.8409  1.7188  0.1065
 3622SOL     OW22324   3.574   2.627   8.045 -0.0861  0.5206  0.5210
 3622SOL    HW122325   3.641   2.569   8.011  1.9440  1.4658  2.8968
 3622SOL    HW222326   3.565   2.601   8.137 -1.8021 -0.4797  0.0654
 3623SOL     OW22327   3.052   2.437   4.774  0.4433  0.3720  0.1225
 3623SOL    HW122328   2.969   2.389   4.784 -0.9145  2.3717 -1.3198
 3623SOL    HW222329   3.098   2.387   4.841  0.4034 -0.3039 -0.3445
 3624SOL     OW22330   2.750   4.651   2.284 -0.4013 -0.1849  0.3068
 3624SOL    HW122331   2.773   4.567   2.246  0.8803 -0.3432  1.4185
 3624SOL    HW222332   2.701   4.620   2.360 -0.7156 -0.2626  0.0705
 3625SOL     OW22333   4.643   3.019   4.349 -0.5538 -0.2082 -0.2316
 3625SOL    HW122334   4.643   3.020   4.444 -0.0453 -0.5259 -0.2289
 3625SOL    HW222335   0.013   3.032   4.330 -0.7915 -0.0402 -1.3062
 3626SOL     OW22336   2.724   1.079   4.363  0.3418 -0.3959 -0.4636
 3626SOL    HW122337   2.712   1.165   4.404  1.5412 -0.4561  0.0164
 3626SOL    HW222338   2.662   1.031   4.418 -1.3564  0.9453 -1.2205
 3627SOL     OW22339   0.144   2.813   6.485  0.6327  0.8226  0.3365
 3627SOL    HW122340   0.080   2.767   6.539  1.5937 -2.3650 -1.2088
 3627SOL    HW222341   0.107   2.900   6.497  0.0027  0.3307  1.8484
 3628SOL     OW22342   1.347   2.556   0.847  0.0583 -0.1296  0.6818
 3628SOL    HW122343   1.268   2.520   0.886 -0.4049  0.0572 -0.0808
 3628SOL    HW222344   1.352   2.642   0.889  2.4613  0.4056 -0.6856
 3629SOL     OW22345   2.759   0.851   8.840  0.3898 -0.3204 -0.1430
 3629SOL    HW122346   2.707   0.771   8.845 -0.2018  0.1747  1.5115
 3629SOL    HW222347   2.787   0.831   8.751  1.2316 -0.3889  0.1374
 3630SOL     OW22348   3.962   1.131   6.864  0.0116  0.1783  0.3091
 3630SOL    HW122349   4.055   1.142   6.844 -0.2774 -1.6114 -2.0191
 3630SOL    HW222350   3.930   1.215   6.830 -1.2999 -0.7890 -0.8613
 3631SOL     OW22351   4.119   0.160   8.239  0.1609  0.1466  0.0501
 3631SOL    HW122352   4.031   0.146   8.275  1.0471 -2.6384  1.1851
 3631SOL    HW222353   4.132   0.254   8.228 -0.3261  0.1037 -0.9061
 3632SOL     OW22354   1.191   4.659  16.975  0.4604  0.5750  0.1099
 3632SOL    HW122355   1.214   4.673  17.067  2.0503 -0.2576 -0.1706
 3632SOL    HW222356   1.262   4.701  16.927  0.1714 -0.0703 -0.8716
 3633SOL     OW22357   2.054   4.531   6.936 -0.4232 -0.0543  0.9043
 3633SOL    HW122358   1.980   4.502   6.883 -0.0157 -0.8590  0.7957
 3633SOL    HW222359   2.003   4.605   6.970  0.9140 -0.0537  2.9195
 3634SOL     OW22360   3.715   3.696   6.295  0.3705 -0.8252  0.7170
 3634SOL    HW122361   3.661   3.665   6.367  1.7507 -2.3147  1.1061
 3634SOL    HW222362   3.715   3.789   6.316 -0.3343 -0.9178  1.1047
 3635SOL     OW22363   3.060   3.705   1.002  0.4232 -0.5067 -0.0435
 3635SOL    HW122364   2.970   3.737   1.014 -0.0849 -2.4578  1.4493
 3635SOL    HW222365   3.046   3.612   0.983 -0.1692 -0.4651  0.1797
 3636SOL     OW22366   2.442   0.810   3.703 -0.0489 -0.4876  0.7962
 3636SOL    HW122367   2.401   0.890   3.735 -0.8897 -0.1987 -0.9991
 3636SOL    HW222368   2.444   0.833   3.610  0.9486  0.8143  1.1403
 3637SOL     OW22369   2.966   3.686  15.031 -0.1491 -0.1496 -0.4125
 3637SOL    HW122370   2.897   3.751  15.018  1.7770  2.0783  0.2914
 3637SOL    HW222371   2.990   3.672  14.940 -0.0192  1.0520 -0.5683
 3638SOL     OW22372   1.680   3.804   7.932  0.1713 -0.2851 -0.0365
 3638SOL    HW122373   1.587   3.821   7.917  0.2290  0.5844  0.5519
 3638SOL    HW222374   1.717   3.887   7.901  0.5125 -0.1408  0.7508
 3639SOL     OW22375   4.412   4.489   3.442 -0.3217  0.1646  0.5653
 3639SOL    HW122376   4.322   4.517   3.425 -0.0048  0.4505 -0.7196
 3639SOL    HW222377   4.411   4.415   3.382 -1.4147  0.4011  0.3022
 3640SOL     OW22378   1.230   0.914   1.553  0.1070  0.4131  0.0987
 3640SOL    HW122379   1.308   0.969   1.546  1.4241 -1.5813 -1.0046
 3640SOL    HW222380   1.229   0.893   1.647 -0.0711 -0.0034  0.0016
 3641SOL     OW22381   2.835   2.236   0.196 -0.1257  0.0086 -0.1425
 3641SOL    HW122382   2.845   2.143   0.214 -0.8104  0.0140  0.2434
 3641SOL    HW222383   2.783   2.278   0.265 -0.1561 -1.2117  0.5780
 3642SOL     OW22384   3.853   3.967   7.343 -0.1023  0.3505  0.0398
 3642SOL    HW122385   3.939   3.928   7.330  0.0980  0.7498  0.1512
 3642SOL    HW222386   3.814   3.897   7.395  1.6144 -0.6072  0.0230
 3643SOL     OW22387   1.020   3.430   0.060  0.1605  0.1118 -0.2181
 3643SOL    HW122388   1.000   3.362   0.124  1.1126  1.0652  1.0828
 3643SOL    HW222389   1.109   3.402   0.038  0.3060  0.5843 -0.2267
 3644SOL     OW22390   1.516   2.428   7.674 -0.0745 -0.2514  0.3185
 3644SOL    HW122391   1.475   2.345   7.650  0.5446 -0.1113 -1.2045
 3644SOL    HW222392   1.529   2.406   7.767  0.8326 -0.7544  0.0741
 3645SOL     OW22393   4.302   3.034  16.857  0.1974  0.1990  0.2929
 3645SOL    HW122394   4.291   2.956  16.911  1.5202  0.8815  1.5540
 3645SOL    HW222395   4.368   3.001  16.796 -0.6973 -0.7715 -0.1530
 3646SOL     OW22396   3.489   0.300  14.818 -0.1884  0.3697  0.5350
 3646SOL    HW122397   3.513   0.349  14.740  0.6759 -0.0081  0.5689
 3646SOL    HW222398   3.461   0.215  14.785  0.0579  0.8784 -0.9531
 3647SOL     OW22399   3.082   0.028  13.988 -0.0977  0.2266 -0.0993
 3647SOL    HW122400   3.013   0.072  13.939 -2.8319 -2.5941  1.2312
 3647SOL    HW222401   3.153   0.028  13.924 -1.2045  0.7958 -1.3212
 3648SOL     OW22402   2.848   3.259   2.921 -0.5277 -0.0463  0.3813
 3648SOL    HW122403   2.875   3.168   2.923 -0.3184 -0.0078 -0.8529
 3648SOL    HW222404   2.798   3.248   2.840  2.6035 -1.7108 -1.3028
 3649SOL     OW22405   2.120   0.170   4.647  0.2337  0.2619 -0.0730
 3649SOL    HW122406   2.111   0.256   4.606 -2.9767 -0.3995 -0.6843
 3649SOL    HW222407   2.209   0.175   4.683  0.1062 -0.0717  0.2928
 3650SOL     OW22408   2.894   0.770   4.460  0.2787  0.3759 -0.4245
 3650SOL    HW122409   2.837   0.745   4.532 -1.2242 -1.2282 -2.1839
 3650SOL    HW222410   2.878   0.864   4.454  1.6219  0.7096  1.1241
 3651SOL     OW22411   0.843   3.319   2.346 -0.0373 -0.1988 -0.3817
 3651SOL    HW122412   0.922   3.335   2.397 -0.0274  0.3188 -0.5559
 3651SOL    HW222413   0.786   3.276   2.410 -1.9903  1.1806 -1.1868
 3652SOL     OW22414   3.041   3.004   5.364 -0.3331  0.4647 -0.1334
 3652SOL    HW122415   3.014   3.059   5.291  0.5787 -0.0720 -0.8741
 3652SOL    HW222416   3.009   2.919   5.334 -1.4611  0.5518  0.8042
 3653SOL     OW22417   0.594   3.287   0.182 -0.2644 -0.6036 -0.4151
 3653SOL    HW122418   0.586   3.317   0.272 -0.5774 -1.0761 -0.2829
 3653SOL    HW222419   0.506   3.269   0.151 -0.7016 -1.9750  1.5999
 3654SOL     OW22420   1.361   2.612  12.462 -0.1239 -0.4552 -0.7413
 3654SOL    HW122421   1.269   2.590  12.482 -0.0949  0.6102  0.5542
 3654SOL    HW222422   1.395   2.615  12.552  0.1891 -0.2931 -0.8681
 3655SOL     OW22423   3.039   1.051   4.661 -0.0519  0.1249  0.0536
 3655SOL    HW122424   3.097   0.975   4.649 -0.5678  0.0443 -1.7652
 3655SOL    HW222425   3.082   1.114   4.603  0.3008 -0.8321 -0.7178
 3656SOL     OW22426   2.875   0.785   8.508  0.5642  0.0522 -0.2363
 3656SOL    HW122427   2.926   0.736   8.573 -0.7242 -2.9784 -1.5210
 3656SOL    HW222428   2.943   0.844   8.476  1.5349 -0.8389  0.1524
 3657SOL     OW22429   4.719   3.618  17.477 -0.0927  0.3188 -0.0448
 3657SOL    HW122430   4.646   3.666  17.438  1.2852  2.4431 -0.0324
 3657SOL    HW222431   4.675   3.580  17.553 -0.9444 -1.4168 -1.4012
 3658SOL     OW22432   1.641   2.983   4.888 -0.6523  0.0034 -0.2054
 3658SOL    HW122433   1.646   3.001   4.794  1.2548 -0.0244 -0.0906
 3658SOL    HW222434   1.630   3.069   4.930 -0.8241  0.6163 -1.4979
 3659SOL     OW22435   2.352   3.786  11.689  0.2492  0.2092 -0.1613
 3659SOL    HW122436   2.361   3.870  11.644 -1.8139  0.6474  0.2511
 3659SOL    HW222437   2.310   3.737  11.618  0.1976  1.9300 -1.3044
 3660SOL     OW22438   2.199   2.900   2.868  0.5928  0.6937  0.3160
 3660SOL    HW122439   2.214   2.924   2.777 -2.3843  0.5962 -0.1879
 3660SOL    HW222440   2.112   2.860   2.859  0.9134 -0.2443  1.4147
 3661SOL     OW22441   3.527   1.338  15.220  0.2847  0.2219 -0.2629
 3661SOL    HW122442   3.611   1.348  15.266 -0.9211  1.3479  1.6932
 3661SOL    HW222443   3.556   1.352  15.130 -0.7312  1.7912 -0.3326
 3662SOL     OW22444   1.488   3.874  10.576 -0.4134 -0.2129  0.4107
 3662SOL    HW122445   1.427   3.887  10.648 -0.2405  0.9044  0.3437
 3662SOL    HW222446   1.441   3.922  10.508 -1.2848  0.9234  1.8296
 3663SOL     OW22447   4.192   2.997   7.140 -0.1645  0.5495 -0.3377
 3663SOL    HW122448   4.253   2.993   7.214 -0.3652 -1.2581 -0.2826
 3663SOL    HW222449   4.246   3.033   7.069  2.0687 -0.8182  0.6601
 3664SOL     OW22450   1.150   1.561   8.439 -0.2089  0.7826  0.2600
 3664SOL    HW122451   1.177   1.576   8.530 -1.4049 -1.0141  0.8995
 3664SOL    HW222452   1.181   1.473   8.419 -3.6912 -0.5187  0.5384
 3665SOL     OW22453   4.087   1.447   2.342 -0.5728 -0.5371  0.0765
 3665SOL    HW122454   4.085   1.471   2.435  2.3247  2.0027 -0.5527
 3665SOL    HW222455   4.180   1.426   2.340 -0.0986  1.7336 -1.5588
 3666SOL     OW22456   2.094   2.313   7.319 -0.5208  0.2016 -0.5014
 3666SOL    HW122457   2.071   2.220   7.320  1.7448 -0.3670 -1.6040
 3666SOL    HW222458   2.063   2.339   7.406 -1.6592  0.2341 -0.9113
 3667SOL     OW22459   4.523   1.129   9.393  0.4730  0.3196 -0.4780
 3667SOL    HW122460   4.446   1.182   9.373  0.1981  0.5146  1.1261
 3667SOL    HW222461   4.591   1.184   9.354  0.1564 -0.1536 -1.7012
 3668SOL     OW22462   3.335   4.522  14.289  0.6008 -0.2766  0.4201
 3668SOL    HW122463   3.294   4.449  14.244 -0.3274  0.4856  0.0275
 3668SOL    HW222464   3.284   4.529  14.370  0.7371 -1.7222  0.6230
 3669SOL     OW22465   1.588   1.722   0.629 -0.2881 -0.4006  0.3237
 3669SOL    HW122466   1.664   1.774   0.652  0.6053 -0.9902 -1.3213
 3669SOL    HW222467   1.616   1.631   0.644 -1.9959 -0.6676  1.9116
 3670SOL     OW22468   2.710   3.204   2.691  0.0721 -0.5052 -0.3678
 3670SOL    HW122469   2.648   3.253   2.637  0.2238 -0.3839 -0.4321
 3670SOL    HW222470   2.765   3.168   2.622  0.8781  2.0762 -1.0567
 3671SOL     OW22471   0.450   1.706   6.668 -0.3050  0.3447 -0.5806
 3671SOL    HW122472   0.488   1.762   6.600 -0.5437 -0.5854 -1.4738
 3671SOL    HW222473   0.476   1.767   6.737 -0.6299 -0.3198  0.1246
 3672SOL     OW22474   3.246   0.507  10.510 -0.5001 -0.3018  0.0654
 3672SOL    HW122475   3.205   0.509  10.597  3.9300 -0.8947  2.1751
 3672SOL    HW222476   3.170   0.538  10.461 -0.1928  1.8989  0.9512
 3673SOL     OW22477   3.372   3.825   1.968  0.1470  0.3428 -0.3928
 3673SOL    HW122478   3.387   3.919   1.976  0.0669  0.4388 -1.3579
 3673SOL    HW222479   3.278   3.813   1.952  0.4004 -2.1331 -0.1254
 3674SOL     OW22480   3.142   2.876   2.563 -0.3687  0.2854 -0.4510
 3674SOL    HW122481   3.237   2.867   2.550 -0.1966 -0.6413  1.5126
 3674SOL    HW222482   3.139   2.970   2.545  0.4303  0.2100 -0.9813
 3675SOL     OW22483   0.607   1.875  12.988  0.8238 -0.0802  0.3586
 3675SOL    HW122484   0.587   1.960  13.026  0.7857  0.0669  0.0159
 3675SOL    HW222485   0.580   1.898  12.899 -0.0672  1.4142  1.0193
 3676SOL     OW22486   4.445   0.107  12.043 -0.2252  0.1212 -0.2130
 3676SOL    HW122487   4.532   0.138  12.019  0.4847 -1.2116  0.6568
 3676SOL    HW222488   4.457   0.012  12.039 -1.1076 -0.0157  0.4025
 3677SOL     OW22489   3.812   0.749   9.304  1.1031  0.0321  0.5762
 3677SOL    HW122490   3.896   0.715   9.334  1.3540 -0.4157 -0.6270
 3677SOL    HW222491   3.808   0.834   9.348 -0.0016 -0.9899  2.4403
 3678SOL     OW22492   2.428   3.911  11.467 -0.1559 -0.0535 -0.2733
 3678SOL    HW122493   2.499   3.857  11.502 -1.9414 -0.9203  2.0036
 3678SOL    HW222494   2.460   3.930  11.379  0.6026  1.9997  0.4524
 3679SOL     OW22495   2.895   0.163   1.468 -0.3661 -0.6604  0.2673
 3679SOL    HW122496   2.988   0.169   1.487 -0.1877 -1.1054 -0.5011
 3679SOL    HW222497   2.866   0.247   1.504 -0.8052 -0.5424 -0.3596
 3680SOL     OW22498   2.764   3.236   4.387 -1.1031  0.0457  0.5948
 3680SOL    HW122499   2.778   3.170   4.455  1.9729  0.9115  0.7974
 3680SOL    HW222500   2.743   3.175   4.316 -0.2624 -0.1773  0.5367
 3681SOL     OW22501   1.388   2.625   9.540  0.0139  0.2114  0.0416
 3681SOL    HW122502   1.379   2.548   9.596 -0.6112 -0.4469 -0.9511
 3681SOL    HW222503   1.385   2.704   9.594  0.4642  0.1740  0.1171
 3682SOL     OW22504   3.272   1.252  12.501 -0.6974  0.0114 -0.4035
 3682SOL    HW122505   3.307   1.316  12.563 -1.9107 -0.7466  1.0585
 3682SOL    HW222506   3.334   1.284  12.435  1.4142  0.5234  1.8255
 3683SOL     OW22507   2.788   2.397   1.283 -0.4163  0.0342  0.8107
 3683SOL    HW122508   2.714   2.342   1.258  0.4144  0.2674 -2.0514
 3683SOL    HW222509   2.756   2.448   1.358 -1.5319  0.8324 -0.2243
 3684SOL     OW22510   3.675   4.411   3.216  0.7140  0.5401 -0.6753
 3684SOL    HW122511   3.647   4.323   3.239 -0.6000  0.8339 -1.1241
 3684SOL    HW222512   3.765   4.406   3.183  1.1512  0.3139  0.5609
 3685SOL     OW22513   2.892   4.330   2.527  0.0370 -0.1493 -0.4827
 3685SOL    HW122514   2.900   4.390   2.601 -0.4865 -0.3752 -0.2413
 3685SOL    HW222515   2.861   4.390   2.460  0.7911 -0.1508 -0.8295
 3686SOL     OW22516   3.459   3.522   3.530  0.6098 -0.7247  0.0570
 3686SOL    HW122517   3.380   3.515   3.476  1.5348  0.3236 -1.4443
 3686SOL    HW222518   3.524   3.458   3.499  2.3380  0.6531  0.8185
 3687SOL     OW22519   4.306   4.502  12.003 -0.3301  0.0317 -0.1960
 3687SOL    HW122520   4.398   4.508  11.979  0.4574 -3.9794  1.7518
 3687SOL    HW222521   4.309   4.421  12.055 -0.5120  0.9210  1.2208
 3688SOL     OW22522   2.032   2.844   7.212 -0.3558  0.0588  0.3282
 3688SOL    HW122523   1.939   2.851   7.190 -0.5252  0.0617  1.0659
 3688SOL    HW222524   2.059   2.934   7.225  1.6005 -0.0858 -2.6244
 3689SOL     OW22525   2.307   1.164   7.067 -0.2572  0.2228 -0.3683
 3689SOL    HW122526   2.301   1.100   7.137 -0.1036  1.5353  0.8460
 3689SOL    HW222527   2.216   1.190   7.051  0.0671  0.3475 -2.0165
 3690SOL     OW22528   2.571   3.185  14.780  0.1672  0.0486 -0.0500
 3690SOL    HW122529   2.621   3.224  14.708  1.0733  0.2778  0.6919
 3690SOL    HW222530   2.540   3.103  14.740  0.2077  0.4012 -0.8063
 3691SOL     OW22531   3.706   0.072   8.209  0.2412  0.0641  0.2124
 3691SOL    HW122532   3.629   0.016   8.202  0.9150 -0.7048 -1.1488
 3691SOL    HW222533   3.658   0.154   8.215 -1.5391 -0.9305 -0.6214
 3692SOL     OW22534   2.132   2.991   4.010  0.0793 -0.0769  0.4426
 3692SOL    HW122535   2.157   3.003   3.918  0.0373  1.4492  0.6211
 3692SOL    HW222536   2.143   3.081   4.041  0.5098  0.3441 -0.9114
 3693SOL     OW22537   0.084   1.781  17.116  0.1030  0.3242  0.3275
 3693SOL    HW122538   0.008   1.748  17.163 -0.1958  0.4113 -0.0933
 3693SOL    HW222539   0.068   1.780  17.022 -1.3111  0.1547  0.5760
 3694SOL     OW22540   4.408   2.431   3.555 -0.1775 -0.5775  0.3783
 3694SOL    HW122541   4.347   2.362   3.532  0.8681 -1.1465 -0.6833
 3694SOL    HW222542   4.451   2.442   3.470  0.6599  0.0641  0.8850
 3695SOL     OW22543   2.343   2.210  10.392 -0.3810  0.0279  0.1784
 3695SOL    HW122544   2.415   2.212  10.456 -0.2843 -2.3032  0.1499
 3695SOL    HW222545   2.372   2.145  10.328  2.2894  0.0101  1.3676
 3696SOL     OW22546   4.488   4.107   0.180 -0.6644  0.3764 -0.5404
 3696SOL    HW122547   4.487   4.162   0.258 -2.0978 -0.0234 -0.2715
 3696SOL    HW222548   4.564   4.140   0.134  1.5742 -4.0182 -0.0429
 3697SOL     OW22549   4.119   1.530   2.590  0.4983 -0.6218  0.2028
 3697SOL    HW122550   4.055   1.564   2.652  0.2426 -3.2512  1.3682
 3697SOL    HW222551   4.190   1.496   2.644 -0.0597 -1.1887  0.5700
 3698SOL     OW22552   4.234   0.332   1.771 -0.4350  0.0417  0.2158
 3698SOL    HW122553   4.242   0.248   1.817 -0.7625 -0.3577 -0.4537
 3698SOL    HW222554   4.172   0.314   1.701  0.0674 -1.7284  0.2242
 3699SOL     OW22555   4.024   3.865   8.741  0.1795  0.1293  0.1273
 3699SOL    HW122556   3.995   3.950   8.774 -1.5605  1.0584 -3.7277
 3699SOL    HW222557   3.941   3.818   8.753  0.3185 -0.3328 -0.6503
 3700SOL     OW22558   0.922   3.786   8.451  0.3079  0.3630  0.0362
 3700SOL    HW122559   0.965   3.789   8.537 -1.5102  2.2422  0.8828
 3700SOL    HW222560   0.962   3.862   8.409  0.3120 -0.5580 -1.6317
 3701SOL     OW22561   1.414   3.499   2.931  0.3437  0.1558 -0.0803
 3701SOL    HW122562   1.456   3.511   3.016  0.3525  1.7184 -0.3035
 3701SOL    HW222563   1.411   3.403   2.920 -0.9406  0.0795  1.0387
 3702SOL     OW22564   2.337   0.860   5.849 -0.2215  0.0937 -0.4334
 3702SOL    HW122565   2.317   0.821   5.764 -1.8369  3.3816 -1.5495
 3702SOL    HW222566   2.386   0.934   5.815 -2.1771  1.1059 -1.0660
 3703SOL     OW22567   2.267   3.352   2.132  0.2055  0.0572  0.2750
 3703SOL    HW122568   2.292   3.361   2.224 -0.9950 -1.8619  0.7803
 3703SOL    HW222569   2.327   3.282   2.108  0.0459  0.0492 -0.1042
 3704SOL     OW22570   0.592   3.573   2.173  0.5472  0.3760 -0.2946
 3704SOL    HW122571   0.601   3.662   2.139 -1.0266 -0.0669 -1.8658
 3704SOL    HW222572   0.516   3.588   2.229  0.6525 -0.1790 -0.0041
 3705SOL     OW22573   3.612   0.957   7.678 -0.2627 -1.1246  0.4633
 3705SOL    HW122574   3.644   1.045   7.659  0.5125 -1.2752  1.0554
 3705SOL    HW222575   3.657   0.907   7.610  0.8732 -0.4265  0.6944
 3706SOL     OW22576   3.436   2.311  13.550  0.3295 -0.4364 -0.0556
 3706SOL    HW122577   3.347   2.347  13.542  0.4094  0.2987  2.5250
 3706SOL    HW222578   3.448   2.253  13.475 -0.5964  0.8881 -1.2398
 3707SOL     OW22579   0.737   1.839   4.924 -0.6655 -0.0425  0.0284
 3707SOL    HW122580   0.731   1.752   4.885 -1.0364 -0.3524  0.7737
 3707SOL    HW222581   0.777   1.816   5.007 -1.1448 -0.6582  0.0914
 3708SOL     OW22582   0.356   1.972   3.365  0.1103  0.8603 -0.1977
 3708SOL    HW122583   0.385   1.913   3.434 -1.5203  1.7507  1.2484
 3708SOL    HW222584   0.422   2.042   3.369  1.5270 -0.5675  1.6166
 3709SOL     OW22585   0.145   4.712  10.371  0.3217 -0.2271 -0.6239
 3709SOL    HW122586   0.188   4.669  10.445  0.5856  1.7010  0.3277
 3709SOL    HW222587   0.166   4.670  10.287  0.5450 -1.5205  0.0834
 3710SOL     OW22588   0.375   0.953   7.599 -0.1035 -0.1926  0.0117
 3710SOL    HW122589   0.449   1.002   7.634 -0.3843  0.5395 -0.4015
 3710SOL    HW222590   0.395   0.962   7.506 -0.6506  0.8170 -0.0132
 3711SOL     OW22591   0.510   2.209   3.381 -0.6182  0.4534  0.5343
 3711SOL    HW122592   0.478   2.244   3.298  1.0774  1.6931  0.3842
 3711SOL    HW222593   0.600   2.189   3.354 -0.9504  3.0763 -2.5566
 3712SOL     OW22594   2.003   2.694  13.889 -0.5694 -0.5218  0.2257
 3712SOL    HW122595   2.035   2.780  13.915 -0.7769  0.1410 -1.6998
 3712SOL    HW222596   1.965   2.713  13.803 -0.6409 -1.8723 -0.0433
 3713SOL     OW22597   4.590   2.493   3.716  0.1773  0.1148 -0.1350
 3713SOL    HW122598   4.513   2.484   3.659  1.2647 -1.1657 -1.3996
 3713SOL    HW222599   4.663   2.467   3.661 -2.0435  1.2529 -3.6899
 3714SOL     OW22600   3.163   4.230   9.866  0.5210  0.7570 -0.1610
 3714SOL    HW122601   3.132   4.235   9.776  0.1700 -0.3643 -0.1017
 3714SOL    HW222602   3.251   4.266   9.855 -1.2213  4.6575 -1.2551
 3715SOL     OW22603   0.756   2.939   5.582 -0.4534  0.1498  0.3700
 3715SOL    HW122604   0.815   3.011   5.607 -0.1616  0.0005  0.1083
 3715SOL    HW222605   0.694   2.983   5.523  0.4268  0.0782 -0.6142
 3716SOL     OW22606   3.446   4.294   1.732  0.0190  0.1712 -0.0140
 3716SOL    HW122607   3.404   4.230   1.674 -1.0411  2.1775 -1.4883
 3716SOL    HW222608   3.387   4.291   1.807  0.3253 -1.6002  0.1476
 3717SOL     OW22609   4.636   4.396  13.255  0.7306 -0.1265 -0.0583
 3717SOL    HW122610   4.616   4.306  13.229  0.6152 -1.1265  3.4036
 3717SOL    HW222611   0.006   4.396  13.239  1.2861  2.3582  3.0964
 3718SOL     OW22612   3.946   2.718  11.378  0.2319 -0.4546  0.1499
 3718SOL    HW122613   3.869   2.760  11.339 -0.6999 -0.8044  1.6335
 3718SOL    HW222614   4.014   2.746  11.317 -0.7087  0.1469 -0.6386
 3719SOL     OW22615   2.677   4.381  10.563 -0.4001  0.3577  0.1261
 3719SOL    HW122616   2.712   4.335  10.639  0.2762 -0.6793 -0.8099
 3719SOL    HW222617   2.754   4.433  10.540  0.8893 -1.5395  0.1316
 3720SOL     OW22618   1.395   4.366  17.226  0.1360 -0.1654  0.1852
 3720SOL    HW122619   1.478   4.391  17.265 -0.4690 -0.4708  1.6498
 3720SOL    HW222620   1.404   4.410  17.141 -1.7198 -0.3294 -0.1037
 3721SOL     OW22621   1.470   4.068   8.360 -0.2944  1.0890 -0.2650
 3721SOL    HW122622   1.560   4.098   8.375 -0.2481 -0.1663  2.0649
 3721SOL    HW222623   1.459   4.020   8.443  0.4275  0.2735 -0.6342
 3722SOL     OW22624   1.160   0.717   6.383  0.1327 -0.5618 -0.0586
 3722SOL    HW122625   1.131   0.808   6.378 -1.1770 -0.9546  0.5071
 3722SOL    HW222626   1.246   0.720   6.340  0.0040  0.0385 -0.2703
 3723SOL     OW22627   4.441   4.616   5.956  0.0273  0.1074 -0.1313
 3723SOL    HW122628   4.447   4.567   6.038 -0.3130 -0.0151 -0.1752
 3723SOL    HW222629   4.353   4.648   5.975 -1.3685 -3.3400 -0.7413
 3724SOL     OW22630   1.056   4.188   1.205 -0.0296 -0.1974 -0.2991
 3724SOL    HW122631   1.143   4.173   1.243 -0.0229 -1.2408 -0.7066
 3724SOL    HW222632   1.070   4.225   1.118 -2.9887 -0.9200 -1.0770
 3725SOL     OW22633   1.423   1.877  11.190 -0.2437  0.4969 -0.3742
 3725SOL    HW122634   1.328   1.870  11.181  0.0042 -0.1178 -2.4984
 3725SOL    HW222635   1.439   1.860  11.283  1.0398  5.4620  0.3281
 3726SOL     OW22636   4.442   2.054   4.759 -0.4350 -0.3716  0.3489
 3726SOL    HW122637   4.374   2.003   4.715  0.1657  0.0173 -1.0406
 3726SOL    HW222638   4.490   2.076   4.679  1.3104  0.0468  1.4965
 3727SOL     OW22639   4.263   4.336  17.605 -0.3948  0.1667  0.6524
 3727SOL    HW122640   4.291   4.250  17.636  0.5298  0.4781  0.6743
 3727SOL    HW222641   4.312   4.356  17.525 -1.2778 -3.2120 -0.7358
 3728SOL     OW22642   3.493   1.259   8.924  0.3944  0.1047 -0.1002
 3728SOL    HW122643   3.561   1.200   8.894  0.4174  0.0769  0.0105
 3728SOL    HW222644   3.526   1.348   8.908 -1.6222  0.8566 -0.1396
 3729SOL     OW22645   2.058   3.728  10.504 -0.2939 -0.0505 -0.0903
 3729SOL    HW122646   1.978   3.757  10.460 -0.1977  0.4017  0.0341
 3729SOL    HW222647   2.033   3.635  10.498  3.1805 -1.1446  2.3215
 3730SOL     OW22648   3.292   4.625  13.811  0.3219  0.6564 -0.4484
 3730SOL    HW122649   3.222   4.572  13.771  0.7863 -0.2815  0.0019
 3730SOL    HW222650   3.337   4.550  13.851  0.0275  2.4370  3.1624
 3731SOL     OW22651   0.083   4.105   7.894 -0.1273  0.1700 -0.2690
 3731SOL    HW122652   0.011   4.166   7.908 -1.4926 -0.7903 -3.0532
 3731SOL    HW222653   0.074   4.113   7.799 -2.2967  0.4575 -0.0408
 3732SOL     OW22654   1.083   0.004   4.506 -0.2140 -0.4343  0.0488
 3732SOL    HW122655   1.169   4.710   4.468  0.9028  0.6579  2.1206
 3732SOL    HW222656   1.047   4.640   4.524  1.5161 -1.4333 -1.2831
 3733SOL     OW22657   3.440   0.463   6.384 -0.0493  0.7856  0.3652
 3733SOL    HW122658   3.410   0.434   6.298  1.5831 -2.4788  0.9146
 3733SOL    HW222659   3.398   0.549   6.383 -0.9961  0.3378  1.0560
 3734SOL     OW22660   3.598   1.225   4.757  0.3061  0.0624 -0.3238
 3734SOL    HW122661   3.522   1.242   4.813  1.3844 -0.7592  1.3842
 3734SOL    HW222662   3.562   1.244   4.670  1.3220 -0.9612 -0.9729
 3735SOL     OW22663   2.275   4.456   3.183 -0.3011  0.2694 -0.5916
 3735SOL    HW122664   2.216   4.478   3.255  1.0988 -1.7956  1.1775
 3735SOL    HW222665   2.352   4.462   3.240 -0.2577  0.5892 -0.6834
 3736SOL     OW22666   4.117   0.433   2.194 -0.4435  0.2028 -0.2596
 3736SOL    HW122667   4.135   0.402   2.106  1.7515  0.4545  0.1063
 3736SOL    HW222668   4.035   0.387   2.210 -0.8914  0.6446 -1.2892
 3737SOL     OW22669   1.864   3.973   2.481  0.3974 -0.2918 -0.0704
 3737SOL    HW122670   1.908   4.056   2.467 -0.4390 -0.0053 -0.9244
 3737SOL    HW222671   1.788   3.989   2.426  1.7405 -3.7520 -2.9913
 3738SOL     OW22672   4.408   3.236   3.346  0.2174  0.1480 -0.3158
 3738SOL    HW122673   4.334   3.269   3.397  0.8094  0.1173  0.5660
 3738SOL    HW222674   4.384   3.144   3.335  0.5667 -0.2245  1.8990
 3739SOL     OW22675   0.579   0.442   4.132  0.0486  0.2237 -0.1839
 3739SOL    HW122676   0.650   0.404   4.184 -1.7917 -2.0837  0.6251
 3739SOL    HW222677   0.623   0.511   4.082 -0.8839  1.2381  0.3976
 3740SOL     OW22678   4.352   1.103   8.967 -0.2357 -0.0493  0.5455
 3740SOL    HW122679   4.309   1.164   8.907  3.5560  3.8459  1.8125
 3740SOL    HW222680   4.431   1.155   8.984 -0.5804  0.6023  0.1582
 3741SOL     OW22681   3.629   1.770   7.857 -0.2811 -0.0338  0.2337
 3741SOL    HW122682   3.544   1.792   7.895  0.1391 -1.2196  1.9043
 3741SOL    HW222683   3.694   1.761   7.927 -0.2453  0.3203  0.2454
 3742SOL     OW22684   0.512   3.501   0.812  0.2318 -0.3192  0.6967
 3742SOL    HW122685   0.593   3.512   0.762  1.4272 -2.7728  2.0961
 3742SOL    HW222686   0.455   3.564   0.767  1.3747  0.3623  0.2062
 3743SOL     OW22687   4.574   2.227   7.991 -0.1276 -0.0418  0.4543
 3743SOL    HW122688   4.619   2.285   7.930 -0.4240 -0.5648 -0.2606
 3743SOL    HW222689   4.497   2.200   7.942  0.1198  1.3243 -0.6507
 3744SOL     OW22690   0.183   3.184   7.342  0.2409 -0.1325  0.2148
 3744SOL    HW122691   0.198   3.268   7.299 -0.4718  1.3437  2.8463
 3744SOL    HW222692   0.163   3.220   7.428 -0.8988 -1.0143  0.3190
 3745SOL     OW22693   3.859   0.049   8.452  0.0933 -1.2843 -0.1481
 3745SOL    HW122694   3.883   4.682   8.471  0.0128 -1.7691 -2.4407
 3745SOL    HW222695   3.836   0.043   8.360  2.0451 -2.1144 -0.5821
 3746SOL     OW22696   2.405   2.068   6.788  0.0090  0.2068  0.5565
 3746SOL    HW122697   2.480   2.095   6.736 -1.6268 -0.5903 -2.1782
 3746SOL    HW222698   2.405   2.140   6.851  1.4364  2.9036 -2.5451
 3747SOL     OW22699   4.653   3.086   2.329  1.0057 -0.0585 -0.0426
 3747SOL    HW122700   4.566   3.057   2.355  0.8120  1.6145  1.2099
 3747SOL    HW222701   4.679   3.003   2.289  0.5567 -0.3900  0.3651
 3748SOL     OW22702   2.476   2.118  10.643  0.2054  0.3661 -0.0887
 3748SOL    HW122703   2.513   2.031  10.626 -0.5249 -0.4801  2.6272
 3748SOL    HW222704   2.548   2.173  10.610  0.7573 -0.4312 -0.2085
 3749SOL     OW22705   3.609   4.493  14.292 -0.1733 -0.3353  0.1056
 3749SOL    HW122706   3.626   4.562  14.227  0.1121 -0.8054 -0.3220
 3749SOL    HW222707   3.520   4.520  14.315  0.0911  0.4363  0.2520
 3750SOL     OW22708   4.720   4.423  10.355  0.2205  0.0946 -0.0549
 3750SOL    HW122709   0.005   4.500  10.300  1.0274  0.4091  0.5090
 3750SOL    HW222710   0.078   4.373  10.347  1.0736  1.4506  0.2187
 3751SOL     OW22711   3.623   4.491  11.167 -0.1178 -0.7170  0.6584
 3751SOL    HW122712   3.700   4.532  11.207  1.3605 -1.2395 -1.6436
 3751SOL    HW222713   3.661   4.416  11.120  0.2036 -1.0701  1.4739
 3752SOL     OW22714   3.692   1.233   3.482 -1.0028 -0.1455  0.0326
 3752SOL    HW122715   3.710   1.201   3.394  1.2096 -1.1091  0.8140
 3752SOL    HW222716   3.734   1.168   3.539 -0.0262  2.0724  1.8662
 3753SOL     OW22717   1.041   0.517   3.074 -0.2059  0.1145 -0.2552
 3753SOL    HW122718   1.031   0.484   3.163  1.3736  1.7847  0.5489
 3753SOL    HW222719   0.989   0.456   3.022  1.4944 -0.6686 -1.0085
 3754SOL     OW22720   3.137   1.758   3.341 -0.4556 -0.5992  0.1281
 3754SOL    HW122721   3.069   1.699   3.373 -1.3585  0.6867  0.6279
 3754SOL    HW222722   3.164   1.717   3.260 -0.0621 -0.0520 -0.0178
 3755SOL     OW22723   4.164   1.259   5.025  0.0424 -0.4258  0.5389
 3755SOL    HW122724   4.190   1.180   4.977 -1.0779 -0.9350  0.7807
 3755SOL    HW222725   4.239   1.314   5.001 -1.9783  1.8231 -0.6200
 3756SOL     OW22726   3.540   4.001   3.010  0.0458 -0.1086  0.1273
 3756SOL    HW122727   3.582   3.986   2.925 -2.5065  1.3909 -1.3779
 3756SOL    HW222728   3.458   3.956   2.992  0.1644 -0.3853  0.2699
 3757SOL     OW22729   4.630   0.545   4.289 -0.2698  0.3371 -0.1025
 3757SOL    HW122730   4.698   0.524   4.226 -1.0429  0.4624 -0.9816
 3757SOL    HW222731   4.550   0.563   4.239 -0.6695  0.2605  0.4968
 3758SOL     OW22732   0.294   1.319   3.624 -0.6268  0.2339  0.0620
 3758SOL    HW122733   0.357   1.322   3.552 -0.1363 -0.9026  0.4430
 3758SOL    HW222734   0.308   1.407   3.659 -1.7965  0.4303  0.0249
 3759SOL     OW22735   3.269   0.306   5.740  0.2212  0.5067 -0.3318
 3759SOL    HW122736   3.193   0.333   5.688  1.1078 -0.9446 -2.3926
 3759SOL    HW222737   3.235   0.320   5.828 -1.2991  2.7864 -1.2776
 3760SOL     OW22738   0.751   0.899  16.777  1.0413  1.0014 -0.5448
 3760SOL    HW122739   0.738   0.992  16.799 -2.8718  0.2606  0.4002
 3760SOL    HW222740   0.836   0.910  16.736  0.9864  0.8865 -0.6908
 3761SOL     OW22741   2.590   3.551   2.931 -0.1717  0.0033 -0.1815
 3761SOL    HW122742   2.586   3.492   2.856  1.2267  0.3868 -0.5472
 3761SOL    HW222743   2.519   3.510   2.980  0.2108  0.4267  0.7250
 3762SOL     OW22744   4.010   1.485   8.658  0.5796 -0.4713  0.0453
 3762SOL    HW122745   3.921   1.454   8.676  0.6590  0.5838  2.2374
 3762SOL    HW222746   3.990   1.576   8.638 -1.8076 -0.5352  2.0902
 3763SOL     OW22747   3.676   3.744   5.496  0.6335  0.2253 -0.0180
 3763SOL    HW122748   3.696   3.798   5.420 -2.2445 -0.2171 -1.0791
 3763SOL    HW222749   3.621   3.797   5.553 -0.2425 -2.1766  1.3677
 3764SOL     OW22750   4.103   4.068  10.682  0.0613  0.0623 -0.1947
 3764SOL    HW122751   4.164   4.131  10.642 -0.7354  0.6764 -0.4445
 3764SOL    HW222752   4.021   4.118  10.685 -0.5701 -1.0477  1.0171
 3765SOL     OW22753   1.548   2.012   3.765  0.3274  0.4759 -0.0491
 3765SOL    HW122754   1.592   2.022   3.849  2.1648 -0.2535 -0.9414
 3765SOL    HW222755   1.617   1.964   3.719 -0.1755  1.5508 -1.9031
 3766SOL     OW22756   0.033   0.792  10.276  0.2423  0.5704 -0.1885
 3766SOL    HW122757   0.038   0.823  10.367  1.0366 -2.7938  0.9018
 3766SOL    HW222758   4.705   0.712  10.282 -1.2476  1.5679  0.4020
 3767SOL     OW22759   4.442   1.526  17.284  0.0973  0.2596 -0.2310
 3767SOL    HW122760   4.461   1.433  17.268 -2.1521 -0.2621  0.1207
 3767SOL    HW222761   4.431   1.529  17.379 -1.0019 -1.9333 -0.2822
 3768SOL     OW22762   4.594   0.211  10.178 -0.5525  0.3665 -0.2456
 3768SOL    HW122763   4.664   0.197  10.242 -2.3471  3.8533  2.4633
 3768SOL    HW222764   4.643   0.260  10.112  0.8183  0.8820  1.1440
 3769SOL     OW22765   4.151   0.792   9.863 -0.2215  0.0251 -0.2605
 3769SOL    HW122766   4.197   0.709   9.849  1.4308  0.7585  0.7858
 3769SOL    HW222767   4.229   0.846   9.872  0.4384 -0.7670 -1.1951
 3770SOL     OW22768   1.599   0.553   4.680  0.2569  0.4664 -0.3832
 3770SOL    HW122769   1.637   0.465   4.679  1.3561  0.9383  0.9305
 3770SOL    HW222770   1.672   0.595   4.726  2.5673 -1.6319 -2.1062
 3771SOL     OW22771   3.376   0.310   9.887 -0.0059  0.4701  0.0941
 3771SOL    HW122772   3.300   0.253   9.880  0.8992 -0.8117  0.7857
 3771SOL    HW222773   3.410   0.310   9.798 -0.8083 -0.0882 -0.2092
 3772SOL     OW22774   0.683   2.817   3.789 -0.2252  0.3612  0.3835
 3772SOL    HW122775   0.749   2.748   3.786  1.6249  2.1759 -0.2092
 3772SOL    HW222776   0.729   2.880   3.845 -1.1491  1.3052  0.0774
 3773SOL     OW22777   0.017   4.230   3.069 -0.1937  0.2173 -0.1164
 3773SOL    HW122778   0.052   4.319   3.068  0.3030  0.0277  0.3877
 3773SOL    HW222779   0.051   4.196   3.152  0.8789 -0.8700 -1.0165
 3774SOL     OW22780   1.167   4.507  15.422 -0.2964 -0.0420  0.1579
 3774SOL    HW122781   1.077   4.538  15.435 -0.6938 -1.3995  0.5458
 3774SOL    HW222782   1.154   4.473  15.333  0.8295 -1.3364  0.4959
 3775SOL     OW22783   3.504   0.965  17.369 -0.1390  0.1535  0.5162
 3775SOL    HW122784   3.436   1.000  17.427 -1.1672  0.5313 -0.9052
 3775SOL    HW222785   3.568   1.031  17.394 -0.5843  0.7116  0.1996
 3776SOL     OW22786   3.365   0.722  10.591 -0.4054 -0.7870 -0.6173
 3776SOL    HW122787   3.300   0.672  10.641 -0.5948 -1.5487 -1.6259
 3776SOL    HW222788   3.432   0.654  10.587  0.2140 -0.1476 -1.1399
 3777SOL     OW22789   0.996   1.123   2.709 -0.0278 -0.1018 -0.1712
 3777SOL    HW122790   1.001   1.097   2.801 -0.1835 -0.0808 -0.1566
 3777SOL    HW222791   0.999   1.219   2.713  0.9260 -0.2755  3.2421
 3778SOL     OW22792   0.320   0.165   5.000  0.4139  0.5194 -0.0556
 3778SOL    HW122793   0.333   0.158   4.906  1.7722 -0.2884  0.2066
 3778SOL    HW222794   0.272   0.084   5.019 -0.5801  1.0594 -0.2635
 3779SOL     OW22795   0.933   4.165  16.116  0.3078 -0.3169 -0.2635
 3779SOL    HW122796   0.990   4.214  16.057  0.4303  2.9512  2.5649
 3779SOL    HW222797   0.896   4.102  16.054 -2.0913  1.0825 -0.2532
 3780SOL     OW22798   3.751   1.296   4.978 -0.4243 -0.1247  0.1661
 3780SOL    HW122799   3.750   1.241   4.900 -1.7652  2.0455 -1.3357
 3780SOL    HW222800   3.715   1.378   4.943  1.6155  0.7179  0.0342
 3781SOL     OW22801   4.087   2.834   0.378 -0.0223  0.3821 -0.5662
 3781SOL    HW122802   4.005   2.840   0.428  0.0884  1.8345 -0.5835
 3781SOL    HW222803   4.145   2.776   0.429 -0.0234 -0.0971 -1.1087
 3782SOL     OW22804   3.838   4.329   0.806 -0.3388 -0.3620 -0.4058
 3782SOL    HW122805   3.754   4.373   0.824 -0.0111  0.7039 -1.5248
 3782SOL    HW222806   3.871   4.374   0.728  1.1473 -0.5597  0.1112
 3783SOL     OW22807   3.357   0.063   3.142  0.3282 -0.6024  0.1283
 3783SOL    HW122808   3.319   4.700   3.123 -1.1067  0.5023 -1.9697
 3783SOL    HW222809   3.396   0.040   3.227 -1.0594 -0.3918  0.8197
 3784SOL     OW22810   3.436   1.186   7.095 -0.2898  0.0325 -0.5185
 3784SOL    HW122811   3.473   1.164   7.010  0.8876 -2.6068  0.6684
 3784SOL    HW222812   3.512   1.198   7.153 -0.4277  1.7687 -0.6913
 3785SOL     OW22813   2.835   1.877   4.936 -0.3471 -0.3628  0.0137
 3785SOL    HW122814   2.904   1.876   4.869  0.7760 -2.1499  1.1775
 3785SOL    HW222815   2.858   1.956   4.984 -1.1602 -0.0728 -0.0755
 3786SOL     OW22816   1.307   3.613   3.324 -0.4237  0.0863  0.4056
 3786SOL    HW122817   1.234   3.662   3.362 -0.2413  1.3705 -0.8864
 3786SOL    HW222818   1.268   3.526   3.318  1.0754 -0.4258 -1.8175
 3787SOL     OW22819   3.024   0.707   5.668  0.2777  0.2621 -0.0027
 3787SOL    HW122820   3.055   0.756   5.744 -0.6405 -0.1488  0.6414
 3787SOL    HW222821   2.962   0.652   5.715  1.3947 -1.5166 -0.6230
 3788SOL     OW22822   3.109   0.446   5.569  0.1425  0.2307 -0.6338
 3788SOL    HW122823   3.030   0.394   5.580  0.9764 -0.5800  1.6521
 3788SOL    HW222824   3.072   0.534   5.564  0.2288  0.3609  0.8320
 3789SOL     OW22825   3.839   3.761   7.950 -0.2061 -0.1243 -0.3145
 3789SOL    HW122826   3.849   3.836   7.892  0.0829  0.1964  0.1514
 3789SOL    HW222827   3.923   3.755   7.996  0.1267  1.1595 -0.7396
 3790SOL     OW22828   0.162   1.000   4.777 -0.1108 -0.1138  0.4702
 3790SOL    HW122829   0.108   0.921   4.782 -0.9498  0.1147 -5.0403
 3790SOL    HW222830   0.097   1.059   4.815  1.0851  2.3600 -1.3216
 3791SOL     OW22831   1.917   1.412   8.236 -0.6848  0.2071 -0.0863
 3791SOL    HW122832   1.933   1.467   8.312 -2.4083 -0.1535  0.5547
 3791SOL    HW222833   1.843   1.359   8.267 -0.8131  2.1396  2.8243
 3792SOL     OW22834   2.935   1.161   6.472 -0.5255  0.3270  0.0608
 3792SOL    HW122835   2.890   1.119   6.546  0.9780 -0.0476  0.7632
 3792SOL    HW222836   2.878   1.136   6.399 -0.2777  0.8629 -0.3101
 3793SOL     OW22837   3.887   0.110   6.532  0.4772  0.4422 -0.1277
 3793SOL    HW122838   3.892   0.202   6.509 -1.6200  0.1148 -1.8616
 3793SOL    HW222839   3.798   0.091   6.502  1.3375 -1.3037 -1.6169
 3794SOL     OW22840   2.479   3.398  14.962  0.0709  0.5634  0.0300
 3794SOL    HW122841   2.545   3.359  14.903 -1.1757 -0.5030 -0.6657
 3794SOL    HW222842   2.455   3.477  14.914 -1.6285 -2.0125 -3.3277
 3795SOL     OW22843   4.389   2.537   5.132  0.3782  0.4433  0.0697
 3795SOL    HW122844   4.434   2.619   5.149 -2.3157  2.1587 -0.9881
 3795SOL    HW222845   4.459   2.473   5.123 -0.1319 -0.2687  1.1287
 3796SOL     OW22846   0.726   0.443   6.454  0.5546 -0.1272 -0.0472
 3796SOL    HW122847   0.735   0.538   6.462  1.5418 -0.2034 -0.2751
 3796SOL    HW222848   0.650   0.427   6.511  0.2838 -2.1066 -0.9616
 3797SOL     OW22849   3.258   1.138   5.475 -0.2649 -0.0194  0.8566
 3797SOL    HW122850   3.247   1.229   5.503  0.7358  0.2888  0.2358
 3797SOL    HW222851   3.319   1.148   5.402 -0.3948 -1.6824  0.5106
 3798SOL     OW22852   4.564   2.280   2.316  0.1264 -0.0659 -0.0440
 3798SOL    HW122853   4.585   2.317   2.230  1.1283 -0.6146 -0.0318
 3798SOL    HW222854   4.481   2.250   2.278 -0.1515  0.4386  0.1721
 3799SOL     OW22855   0.013   4.538   7.761 -0.4048 -0.4832 -0.2723
 3799SOL    HW122856   4.709   4.498   7.844  0.5859  0.0904  0.3388
 3799SOL    HW222857   4.666   4.512   7.702  0.0366 -1.6637 -0.2741
 3800SOL     OW22858   0.224   0.448   9.236  0.4178 -0.1517  0.0657
 3800SOL    HW122859   0.245   0.449   9.143  1.0582  0.1478  0.2116
 3800SOL    HW222860   0.185   0.362   9.246  3.6753 -1.7572 -1.1132
 3801SOL     OW22861   3.346   0.893   4.854  0.3628 -0.2468 -0.5123
 3801SOL    HW122862   3.379   0.815   4.899 -0.4902  0.1675  0.8315
 3801SOL    HW222863   3.261   0.857   4.830  1.2356 -0.0001 -3.9485
 3802SOL     OW22864   4.525   0.268   1.498 -0.0525 -0.6328 -0.2392
 3802SOL    HW122865   4.535   0.258   1.593 -2.7963 -3.2635 -0.2194
 3802SOL    HW222866   4.603   0.320   1.478  1.2977 -1.9556  1.6168
 3803SOL     OW22867   1.011   2.227   8.887  0.6336 -0.8665 -0.4043
 3803SOL    HW122868   0.917   2.248   8.890  1.1763  1.5395 -0.9471
 3803SOL    HW222869   1.027   2.269   8.803  1.5631 -1.5678 -0.5757
 3804SOL     OW22870   1.605   2.211  13.218 -0.0838  0.0353  0.0274
 3804SOL    HW122871   1.682   2.247  13.264  0.2182 -0.8896  0.2396
 3804SOL    HW222872   1.572   2.153  13.285 -0.0018  1.8109  1.6151
 3805SOL     OW22873   2.461   0.693  14.842  0.4913 -0.1129 -0.0882
 3805SOL    HW122874   2.375   0.722  14.813 -0.7176 -0.6174  2.9517
 3805SOL    HW222875   2.476   0.605  14.806  0.2833 -0.9552  1.8699
 3806SOL     OW22876   0.200   2.849   5.016 -0.6538 -0.2173 -0.2831
 3806SOL    HW122877   0.210   2.929   5.067  1.5336 -1.2698  0.9517
 3806SOL    HW222878   0.147   2.791   5.070 -1.5780 -0.2413 -1.2169
 3807SOL     OW22879   3.294   2.610   2.124  0.6348  1.1430 -0.0394
 3807SOL    HW122880   3.322   2.694   2.087 -0.4955  0.0789 -3.3063
 3807SOL    HW222881   3.271   2.631   2.215  1.2154  2.7214 -0.2537
 3808SOL     OW22882   4.044   4.146   0.758 -0.3168  0.2014 -0.3281
 3808SOL    HW122883   4.106   4.130   0.829 -0.5067 -0.6714 -0.3614
 3808SOL    HW222884   3.988   4.206   0.808  0.6373 -0.3563  1.4178
 3809SOL     OW22885   2.614   1.387   5.385 -0.3140 -0.8268  0.4135
 3809SOL    HW122886   2.665   1.433   5.318 -0.5126  1.2674  1.6919
 3809SOL    HW222887   2.650   1.298   5.382 -0.4888 -0.9393  1.6871
 3810SOL     OW22888   3.276   1.054   5.064  0.3724  0.2641 -0.2561
 3810SOL    HW122889   3.309   0.995   5.131  0.4213  1.3822  0.7027
 3810SOL    HW222890   3.305   1.009   4.984  0.3338  1.5462 -0.9888
 3811SOL     OW22891   0.249   3.608  17.431  0.2313  0.2653 -0.4576
 3811SOL    HW122892   0.288   3.616  17.343 -1.2920  0.4391 -1.1139
 3811SOL    HW222893   0.158   3.631  17.414 -0.0348 -1.2793 -1.1575
 3812SOL     OW22894   3.312   2.631  12.941 -0.1832 -0.0421 -0.1421
 3812SOL    HW122895   3.399   2.595  12.923  0.8519  1.8836  1.0109
 3812SOL    HW222896   3.306   2.689  12.865  0.5867 -2.1505 -1.8230
 3813SOL     OW22897   2.479   3.960   2.402  0.3324 -0.0108 -0.5682
 3813SOL    HW122898   2.408   4.011   2.362  0.3269 -0.7180 -1.4561
 3813SOL    HW222899   2.449   3.943   2.491  1.8531  0.1875 -0.0215
 3814SOL     OW22900   1.887   1.737   3.972  0.1820  0.1179 -0.0277
 3814SOL    HW122901   1.966   1.786   3.950 -0.4675  0.5890 -1.3046
 3814SOL    HW222902   1.902   1.664   3.912 -0.5930  0.6827 -0.9035
 3815SOL     OW22903   4.291   1.909   6.474 -0.2282 -0.2755  0.1006
 3815SOL    HW122904   4.353   1.918   6.546  0.6572  0.9322 -0.8100
 3815SOL    HW222905   4.210   1.953   6.501  0.3933  0.7906  0.2178
 3816SOL     OW22906   0.100   4.438   6.550 -0.0603  0.0606 -0.1339
 3816SOL    HW122907   0.039   4.497   6.594  1.2355  0.9039  0.5379
 3816SOL    HW222908   0.076   4.357   6.595 -0.1286  0.8404  1.2307
 3817SOL     OW22909   2.232   1.250   1.522  0.2327  0.3591  0.2939
 3817SOL    HW122910   2.174   1.299   1.463  0.3506  2.6477  2.1092
 3817SOL    HW222911   2.253   1.317   1.586 -1.3863  0.2737  0.9296
 3818SOL     OW22912   3.503   3.908   5.655  0.5379  0.2764  0.5564
 3818SOL    HW122913   3.461   3.955   5.583  1.7576  0.2837 -0.1566
 3818SOL    HW222914   3.451   3.939   5.729  0.8436 -0.4370  1.0604
 3819SOL     OW22915   3.186   1.433   7.997 -0.2348 -0.3909  0.4581
 3819SOL    HW122916   3.218   1.345   7.976  0.5556  0.5098 -2.1303
 3819SOL    HW222917   3.203   1.439   8.091  1.3595 -0.8942  0.2047
 3820SOL     OW22918   3.944   0.667   6.016 -0.7705  0.4268 -0.0193
 3820SOL    HW122919   4.032   0.644   6.043 -0.7349  1.1005  0.4373
 3820SOL    HW222920   3.937   0.614   5.936 -0.1781  1.4229 -0.7264
 3821SOL     OW22921   1.045   1.204   6.544  0.0252  0.0354  0.3381
 3821SOL    HW122922   1.134   1.233   6.522 -0.3423  0.5943 -0.4077
 3821SOL    HW222923   1.023   1.137   6.480  2.1369  0.2644 -0.6372
 3822SOL     OW22924   2.475   1.059   5.725  0.2080 -0.4539  0.5238
 3822SOL    HW122925   2.554   1.066   5.671  0.7451 -1.9369  1.1091
 3822SOL    HW222926   2.454   1.153   5.728 -1.3281 -0.7678 -0.7616
 3823SOL     OW22927   2.353   2.287   6.956  0.1030  0.3177 -0.6960
 3823SOL    HW122928   2.267   2.323   6.979  0.3598  2.0777 -2.5281
 3823SOL    HW222929   2.410   2.356   6.990  0.8001 -0.7185  0.2426
 3824SOL     OW22930   1.008   4.051   2.119 -0.7045 -0.4088 -0.1276
 3824SOL    HW122931   1.053   4.035   2.036 -3.1557  0.5259 -1.6217
 3824SOL    HW222932   0.959   3.969   2.128  0.7097 -1.3333 -0.7397
 3825SOL     OW22933   1.572   0.067   3.141  0.4901 -0.2487  0.1997
 3825SOL    HW122934   1.661   0.081   3.173  0.0613  0.4585  1.0986
 3825SOL    HW222935   1.556   0.149   3.095  2.2074 -0.8499 -1.4614
 3826SOL     OW22936   3.823   3.306   5.905  0.3191  0.0989  0.4599
 3826SOL    HW122937   3.822   3.377   5.969  1.2834  0.9260 -0.4402
 3826SOL    HW222938   3.874   3.238   5.950  0.6544  0.6135  0.8545
 3827SOL     OW22939   3.154   4.292  17.693 -0.2725  0.0247 -0.2502
 3827SOL    HW122940   3.154   4.387  17.677  1.0414  0.0878  0.0589
 3827SOL    HW222941   3.070   4.272  17.652 -0.1276 -0.0664 -0.5029
 3828SOL     OW22942   0.160   1.855   8.578 -0.3458 -0.5015 -0.1503
 3828SOL    HW122943   0.254   1.873   8.576 -0.2564 -0.8635  0.6822
 3828SOL    HW222944   0.138   1.855   8.671 -0.5485  0.8551 -0.1989
 3829SOL     OW22945   1.006   0.861   7.767 -0.0821 -0.1418 -0.2316
 3829SOL    HW122946   1.074   0.820   7.820  1.0516 -0.4380 -1.8799
 3829SOL    HW222947   1.064   0.895   7.699 -1.1861 -1.1128 -1.6598
 3830SOL     OW22948   4.178   1.549   6.768 -0.2191  0.0906 -0.0572
 3830SOL    HW122949   4.146   1.636   6.741 -1.5639  0.5805  3.1807
 3830SOL    HW222950   4.166   1.555   6.862 -0.9209  0.9303 -0.1928
 3831SOL     OW22951   1.925   4.211   4.964 -0.3489  0.1170  0.5834
 3831SOL    HW122952   1.976   4.264   4.903  0.5938 -0.4262  0.8895
 3831SOL    HW222953   1.855   4.185   4.905 -0.0832  1.8228 -0.4662
 3832SOL     OW22954   1.305   2.665  12.207  0.1693  0.5625 -0.1938
 3832SOL    HW122955   1.329   2.643  12.297  1.5604 -1.3000 -1.0198
 3832SOL    HW222956   1.273   2.754  12.219 -0.1679  0.6778 -2.0591
 3833SOL     OW22957   3.115   0.033   9.275  0.2963  0.1369  0.2173
 3833SOL    HW122958   3.047   0.097   9.255 -0.6355 -0.9106  0.0292
 3833SOL    HW222959   3.057   4.688   9.311  0.5972  0.0969  0.6322
 3834SOL     OW22960   0.497   0.346   3.650  0.2209  0.1680 -0.2795
 3834SOL    HW122961   0.407   0.330   3.677  0.3055 -2.1974 -1.4208
 3834SOL    HW222962   0.511   0.269   3.596  1.2962  0.8519 -0.9646
 3835SOL     OW22963   1.353   2.162   2.710  0.2787 -0.5495  0.0856
 3835SOL    HW122964   1.298   2.085   2.723  0.8299 -0.7630  1.0937
 3835SOL    HW222965   1.354   2.181   2.616 -0.1937  1.3455  0.4609
 3836SOL     OW22966   2.168   4.123  10.210  0.3944  0.1007  0.3745
 3836SOL    HW122967   2.072   4.125  10.216  0.4733 -0.6066  2.0807
 3836SOL    HW222968   2.194   4.213  10.228  2.4969 -0.1894 -1.3294
 3837SOL     OW22969   0.561   1.435  14.824  0.5562 -0.0807  0.0136
 3837SOL    HW122970   0.632   1.472  14.771  2.7189  0.2240  3.1297
 3837SOL    HW222971   0.568   1.339  14.826 -0.4974 -0.1477  0.4368
 3838SOL     OW22972   0.168   3.880  16.225  0.3783  0.4393  0.1553
 3838SOL    HW122973   0.180   3.959  16.172  0.9294  0.6323  0.5696
 3838SOL    HW222974   0.177   3.931  16.306 -2.0706  2.3524 -0.7897
 3839SOL     OW22975   0.655   1.245  14.152  0.2857 -0.4624 -0.2241
 3839SOL    HW122976   0.600   1.237  14.231 -0.0980  0.6914 -0.3700
 3839SOL    HW222977   0.735   1.204  14.184  0.7355  1.3445  0.9327
 3840SOL     OW22978   2.725   1.129   5.405 -0.0691 -0.5114 -0.5446
 3840SOL    HW122979   2.820   1.124   5.411 -0.1277 -1.5173 -0.5509
 3840SOL    HW222980   2.715   1.070   5.330  1.5467 -0.0525 -1.1264
 3841SOL     OW22981   1.803   3.538   8.920  0.1832  0.0699  0.5011
 3841SOL    HW122982   1.895   3.540   8.948  0.0588 -1.4775  0.9804
 3841SOL    HW222983   1.806   3.623   8.875  0.9526  0.4771  1.3034
 3842SOL     OW22984   1.338   2.532   7.975  0.0016  0.0016  0.1458
 3842SOL    HW122985   1.242   2.531   7.971  0.0597 -0.4186 -1.1319
 3842SOL    HW222986   1.347   2.437   7.980  2.6184  0.3915  2.5537
 3843SOL     OW22987   2.852   1.947  12.580 -0.0151  0.3100 -0.5770
 3843SOL    HW122988   2.840   1.961  12.486  1.2249  1.9100 -0.5018
 3843SOL    HW222989   2.769   1.908  12.608  0.4277 -0.2965 -0.0864
 3844SOL     OW22990   4.607   2.935   1.087  0.4067 -0.3419 -0.1659
 3844SOL    HW122991   4.620   3.024   1.053  0.5906 -0.4902 -0.4955
 3844SOL    HW222992   4.598   2.949   1.181 -1.3099  0.9000 -0.5275
 3845SOL     OW22993   3.219   4.215   4.856  0.0067 -0.1002  0.3697
 3845SOL    HW122994   3.139   4.163   4.856 -0.3986  0.5114 -1.2828
 3845SOL    HW222995   3.249   4.190   4.943  1.9297 -0.2546 -0.3302
 3846SOL     OW22996   0.546   1.406   6.039  0.3880  0.1703 -0.3890
 3846SOL    HW122997   0.469   1.460   6.024 -0.1622 -0.1784  1.1327
 3846SOL    HW222998   0.618   1.461   6.011 -1.1397  0.2404 -4.1601
 3847SOL     OW22999   1.409   1.701  11.689 -0.3288 -0.5090 -0.1096
 3847SOL    HW123000   1.386   1.746  11.771  0.4643 -0.5859  0.1594
 3847SOL    HW223001   1.443   1.621  11.729 -0.1787 -0.5819 -0.3852
 3848SOL     OW23002   1.210   2.081   0.962  0.1505 -0.0486  0.5631
 3848SOL    HW123003   1.267   2.006   0.978 -0.9915 -1.0892 -0.2571
 3848SOL    HW223004   1.270   2.152   0.985 -1.3998  0.8992  1.6397
 3849SOL     OW23005   4.451   0.139  14.896 -0.2567 -0.5681  0.0105
 3849SOL    HW123006   4.537   0.167  14.864 -0.9094 -0.9087 -2.0254
 3849SOL    HW223007   4.409   0.087  14.827 -1.3615  0.1389  0.1491
 3850SOL     OW23008   0.426   2.338   3.121  0.5142  0.5189  0.1820
 3850SOL    HW123009   0.517   2.341   3.092 -0.1222  0.1522 -1.8534
 3850SOL    HW223010   0.381   2.359   3.039 -2.3701 -2.6656  0.9650
 3851SOL     OW23011   4.292   1.633   3.982 -0.1866 -0.5406  0.1460
 3851SOL    HW123012   4.308   1.699   3.915 -0.8476  0.7183  1.2202
 3851SOL    HW223013   4.353   1.656   4.052  0.5958 -2.1073 -0.0210
 3852SOL     OW23014   3.346   2.499   2.546 -0.1239 -0.1954 -0.0281
 3852SOL    HW123015   3.332   2.466   2.635 -1.4025 -1.3616 -0.6552
 3852SOL    HW223016   3.285   2.435   2.509  1.4327 -1.7934  0.1850
 3853SOL     OW23017   3.782   0.133   6.209  0.0521  0.3657  0.0013
 3853SOL    HW123018   3.873   0.141   6.238  0.1452 -0.3306 -0.0919
 3853SOL    HW223019   3.740   0.140   6.295 -1.5395 -0.5240 -0.7123
 3854SOL     OW23020   0.308   2.326   5.939  0.1668  0.1351  0.1598
 3854SOL    HW123021   0.227   2.377   5.947 -0.1876 -0.4904  0.4851
 3854SOL    HW223022   0.380   2.390   5.941 -1.2137  1.6358  1.5976
 3855SOL     OW23023   4.161   0.221  10.199  0.7502 -0.2844 -0.2220
 3855SOL    HW123024   4.224   0.188  10.134  1.2281 -1.7085  0.9508
 3855SOL    HW223025   4.131   0.136  10.232 -1.9903 -0.4894 -3.2909
 3856SOL     OW23026   3.050   2.304  11.621  0.3086  0.5831  0.4401
 3856SOL    HW123027   3.145   2.312  11.626  0.3949 -0.7766  1.1568
 3856SOL    HW223028   3.041   2.284  11.715  0.0161  3.0896  0.9455
 3857SOL     OW23029   3.894   3.630  12.951  0.1705 -0.1533 -0.5597
 3857SOL    HW123030   3.937   3.546  12.970  2.3003  0.5123 -2.4862
 3857SOL    HW223031   3.909   3.646  12.858  0.7162  0.7216 -0.3117
 3858SOL     OW23032   3.322   0.168   9.006 -0.5424  0.3271 -0.5433
 3858SOL    HW123033   3.231   0.154   8.981 -0.6777 -2.4228  1.4426
 3858SOL    HW223034   3.303   0.256   9.040 -1.2827 -0.0330 -0.0300
 3859SOL     OW23035   2.969   1.086   7.240  0.2410 -0.4234  0.0617
 3859SOL    HW123036   3.062   1.104   7.253  0.3517  0.4800 -1.8841
 3859SOL    HW223037   2.958   0.993   7.258  1.7393 -0.8641 -1.2808
 3860SOL     OW23038   0.087   0.521  12.485  0.2416  0.0705  0.4551
 3860SOL    HW123039   0.143   0.536  12.409  1.7012  2.6369  2.0452
 3860SOL    HW223040   0.157   0.526  12.549  1.5876  0.1581 -1.0343
 3861SOL     OW23041   3.997   3.530  11.846 -0.4172  0.0669 -0.2999
 3861SOL    HW123042   4.092   3.528  11.839 -0.2066 -0.7787  2.8961
 3861SOL    HW223043   3.974   3.440  11.866  0.0486 -0.2729 -1.2868
 3862SOL     OW23044   0.650   2.919   7.931 -0.1206  0.4426 -0.1972
 3862SOL    HW123045   0.706   2.879   7.865 -0.9267 -0.4068 -0.3630
 3862SOL    HW223046   0.686   3.007   7.943  2.0302 -0.5508  0.4184
 3863SOL     OW23047   2.711   2.889   6.340 -0.2421 -0.0957 -0.3108
 3863SOL    HW123048   2.788   2.857   6.294 -0.0178 -0.7224  0.4950
 3863SOL    HW223049   2.744   2.957   6.398 -1.1690  0.7118 -0.7287
 3864SOL     OW23050   0.601   3.128  12.661 -0.2473  0.4790  0.4461
 3864SOL    HW123051   0.584   3.222  12.661  0.3064  0.5931 -1.4956
 3864SOL    HW223052   0.627   3.116  12.752 -3.1826  2.1228  1.4769
 3865SOL     OW23053   1.011   2.143   9.911  0.3302  0.3828  0.1425
 3865SOL    HW123054   1.027   2.086   9.986 -0.4091 -1.7734 -1.3192
 3865SOL    HW223055   0.917   2.140   9.892  0.2105 -3.5242  1.2870
 3866SOL     OW23056   1.279   1.495  14.973  0.0142  0.1436  0.4548
 3866SOL    HW123057   1.367   1.512  14.937  0.4057  1.1363  1.9016
 3866SOL    HW223058   1.288   1.433  15.045  0.1869 -0.8453 -0.4215
 3867SOL     OW23059   1.575   3.998   3.850 -0.5663 -0.0810 -0.6436
 3867SOL    HW123060   1.592   4.075   3.905  3.2420 -1.8478  0.5805
 3867SOL    HW223061   1.494   3.963   3.888 -0.6299  0.0921 -0.6154
 3868SOL     OW23062   3.695   2.238  15.550  0.2856 -0.3926  0.0010
 3868SOL    HW123063   3.720   2.305  15.614  2.0528 -0.8632 -0.1877
 3868SOL    HW223064   3.765   2.247  15.486 -0.3803 -0.4498 -0.7332
 3869SOL     OW23065   3.911   3.422  13.483 -0.4854 -0.0701 -0.3913
 3869SOL    HW123066   3.889   3.471  13.403 -0.2290  0.7115  0.0102
 3869SOL    HW223067   3.840   3.455  13.539 -0.6538 -0.7743 -0.2014
 3870SOL     OW23068   3.680   1.698   7.086  0.4914  0.4805  0.0858
 3870SOL    HW123069   3.743   1.739   7.145 -0.2842  1.2262  0.3871
 3870SOL    HW223070   3.664   1.771   7.027  1.8278  1.4792  0.9488
 3871SOL     OW23071   0.656   3.290   0.919  0.0634 -0.2944 -0.4461
 3871SOL    HW123072   0.608   3.224   0.969  2.2032 -1.7661 -0.3107
 3871SOL    HW223073   0.589   3.355   0.900 -0.1327 -0.0543  1.0192
 3872SOL     OW23074   0.156   3.494  16.715 -0.7087  0.2368  0.1096
 3872SOL    HW123075   0.210   3.568  16.745  0.0790 -1.0806  1.9640
 3872SOL    HW223076   0.089   3.545  16.671 -0.0673  1.6344  0.7392
 3873SOL     OW23077   0.079   3.419   2.989 -0.2296 -0.0607 -0.1235
 3873SOL    HW123078   4.722   3.416   2.936  0.1369  0.5325 -0.6987
 3873SOL    HW223079   0.137   3.357   2.947 -4.0641 -1.2475 -3.6873
 3874SOL     OW23080   3.195   4.446   5.641  0.0153 -0.1785 -0.2787
 3874SOL    HW123081   3.161   4.519   5.590 -1.0526  0.0859  0.8161
 3874SOL    HW223082   3.117   4.401   5.672  0.6305 -1.2338 -0.2461
 3875SOL     OW23083   3.248   3.042  13.598 -0.3755 -0.4643  0.1669
 3875SOL    HW123084   3.335   3.005  13.581  0.6476  1.7179  0.6392
 3875SOL    HW223085   3.231   3.071  13.508 -0.3426 -1.6794 -0.2415
 3876SOL     OW23086   0.645   3.549  17.308 -0.1618 -0.4730  0.4268
 3876SOL    HW123087   0.637   3.467  17.260 -1.4675  0.1602 -0.4220
 3876SOL    HW223088   0.728   3.543  17.355  1.2133  2.1363 -1.7068
 3877SOL     OW23089   0.009   0.664   3.118  0.4592 -0.3119 -0.0680
 3877SOL    HW123090   0.101   0.687   3.135  0.4255 -0.5654  0.4497
 3877SOL    HW223091   0.023   0.599   3.050  0.0163 -1.6373  1.1126
 3878SOL     OW23092   3.737   1.565  15.459  0.3208 -0.5805 -0.8379
 3878SOL    HW123093   3.832   1.560  15.469  0.0961 -4.9890 -0.8894
 3878SOL    HW223094   3.711   1.565  15.551  2.7663  4.0508 -0.1231
 3879SOL     OW23095   0.522   0.446   1.782 -0.1806  0.3429  0.0700
 3879SOL    HW123096   0.460   0.517   1.797  0.9643  1.6873 -1.5274
 3879SOL    HW223097   0.560   0.465   1.696  1.0027 -2.5918 -0.0674
 3880SOL     OW23098   0.893   2.558   3.421 -0.3737  0.2039  0.0624
 3880SOL    HW123099   0.938   2.622   3.477 -1.4573  0.8291  0.2277
 3880SOL    HW223100   0.801   2.585   3.431 -0.7307 -1.4690  1.1875
 3881SOL     OW23101   4.682   2.242   6.172 -0.4054  0.1966  0.3039
 3881SOL    HW123102   4.683   2.190   6.092 -1.4493 -0.8078  0.9512
 3881SOL    HW223103   4.618   2.312   6.158  0.4011  0.9347  0.3021
 3882SOL     OW23104   1.832   3.742   4.756 -0.2493  0.0932 -0.6864
 3882SOL    HW123105   1.870   3.677   4.696  3.0677  0.0471  1.4628
 3882SOL    HW223106   1.903   3.771   4.813 -0.7163 -2.0070  0.9981
 3883SOL     OW23107   2.512   0.890  11.876 -0.3210  0.4162 -0.0217
 3883SOL    HW123108   2.575   0.856  11.939 -1.8321  1.0363  1.8320
 3883SOL    HW223109   2.429   0.892  11.925 -1.7780  1.0042 -2.5193
 3884SOL     OW23110   0.462   1.646  13.769  0.2397 -0.4718 -0.2699
 3884SOL    HW123111   0.426   1.597  13.843  1.7176 -0.3637  0.5200
 3884SOL    HW223112   0.419   1.600  13.697 -0.6164  2.2507 -1.5408
 3885SOL     OW23113   4.057   0.492   1.255  0.0224  0.2963  0.2313
 3885SOL    HW123114   4.140   0.475   1.211  0.7207  2.0128  0.9037
 3885SOL    HW223115   4.076   0.526   1.342  1.6762  1.0462 -0.4344
 3886SOL     OW23116   0.671   3.404   6.671  0.9015 -0.7736 -0.8045
 3886SOL    HW123117   0.759   3.365   6.668  0.8929 -0.9281  0.8167
 3886SOL    HW223118   0.676   3.452   6.588  1.4068  1.1999  0.3715
 3887SOL     OW23119   2.302   4.303  14.478 -0.3578  0.3827  0.3407
 3887SOL    HW123120   2.327   4.322  14.388  1.6763  1.3168  1.0943
 3887SOL    HW223121   2.365   4.358  14.525 -0.5076  0.9519 -0.1323
 3888SOL     OW23122   1.785   2.067  13.039  0.6643 -0.0451 -0.0070
 3888SOL    HW123123   1.851   2.047  13.106  2.7817 -0.5967 -2.2592
 3888SOL    HW223124   1.727   2.113  13.099  0.9371  0.5752 -0.2193
 3889SOL     OW23125   0.498   2.719   5.078  0.0339 -0.6711  0.3177
 3889SOL    HW123126   0.432   2.725   5.147 -0.3626  2.1649 -0.3066
 3889SOL    HW223127   0.582   2.720   5.124  1.0551 -1.9562 -1.5071
 3890SOL     OW23128   2.413   0.290  10.058 -0.6328 -0.9134  0.1559
 3890SOL    HW123129   2.338   0.334  10.019 -0.2948 -1.2238 -0.8228
 3890SOL    HW223130   2.440   0.350  10.128 -1.2538  1.8230 -1.9650
 3891SOL     OW23131   3.043   2.724   3.060  0.3276 -0.1021 -0.2417
 3891SOL    HW123132   3.095   2.804   3.061 -0.2370  0.3077 -3.1758
 3891SOL    HW223133   3.109   2.661   3.032  0.5128 -0.1305  0.2610
 3892SOL     OW23134   2.270   0.620  12.566  0.0360  0.1191  0.4163
 3892SOL    HW123135   2.199   0.662  12.616  0.8042  1.0042  0.7650
 3892SOL    HW223136   2.271   0.676  12.489 -0.7804 -0.6572 -0.1570
 3893SOL     OW23137   3.109   1.881   4.447 -0.1380 -0.1278 -0.4999
 3893SOL    HW123138   3.044   1.861   4.380 -0.2072 -0.4273 -0.3380
 3893SOL    HW223139   3.123   1.976   4.448 -0.4908 -0.0782 -0.3592
 3894SOL     OW23140   4.555   4.223   8.667 -0.0669 -0.2207 -0.4308
 3894SOL    HW123141   4.589   4.278   8.737  1.8847 -0.8683 -0.8394
 3894SOL    HW223142   4.638   4.200   8.624  0.9438 -1.3824  2.1186
 3895SOL     OW23143   1.645   4.040   4.207  0.7548  0.2103 -0.4267
 3895SOL    HW123144   1.689   4.028   4.291 -2.9736  0.9992  1.6698
 3895SOL    HW223145   1.695   4.110   4.164 -0.6237  1.6060  0.2506
 3896SOL     OW23146   2.178   1.175   2.009 -0.0491  0.5613 -0.3928
 3896SOL    HW123147   2.182   1.102   2.071  1.9329  0.3596 -0.7864
 3896SOL    HW223148   2.229   1.140   1.936  0.0356 -1.1361  0.4610
 3897SOL     OW23149   3.693   3.816  17.499  1.0617  0.2461 -0.1562
 3897SOL    HW123150   3.724   3.825  17.590  0.5898  0.5491 -0.0265
 3897SOL    HW223151   3.600   3.837  17.507  0.2304 -3.9179  1.3778
 3898SOL     OW23152   4.244   4.493   9.805 -0.3440 -0.1859  0.2642
 3898SOL    HW123153   4.189   4.417   9.824 -1.1319  0.6042  1.0858
 3898SOL    HW223154   4.316   4.479   9.867 -0.7680  1.3483  1.0949
 3899SOL     OW23155   3.217   3.218  15.594  0.5113  0.9198  0.0904
 3899SOL    HW123156   3.258   3.273  15.527  1.1666 -0.0496 -0.3031
 3899SOL    HW223157   3.130   3.207  15.556  0.2069  2.7635  0.2899
 3900SOL     OW23158   2.941   2.501  11.427  0.2797 -0.4691  0.3546
 3900SOL    HW123159   2.973   2.423  11.470 -1.2699 -1.1688  0.2571
 3900SOL    HW223160   2.940   2.480  11.333  1.1600  1.2609 -0.0411
 3901SOL     OW23161   2.949   1.427   8.939  0.0896 -0.3698  0.1179
 3901SOL    HW123162   2.921   1.336   8.940  0.6188 -0.5213  2.9037
 3901SOL    HW223163   3.021   1.425   9.003 -0.4695  0.1066  0.7682
 3902SOL     OW23164   0.979   4.330   6.776  0.0234 -0.2161 -0.1688
 3902SOL    HW123165   0.898   4.281   6.789 -1.8526  2.7571 -0.6700
 3902SOL    HW223166   1.042   4.258   6.779 -1.4688 -1.5996 -1.5434
 3903SOL     OW23167   0.004   4.390   1.890 -0.0514  0.1601 -0.3658
 3903SOL    HW123168   4.636   4.375   1.868 -0.5768  2.9756 -0.0887
 3903SOL    HW223169   4.716   4.460   1.953 -1.8103 -0.2884 -0.1920
 3904SOL     OW23170   3.147   3.515   7.438  0.4954  0.0413  0.7326
 3904SOL    HW123171   3.223   3.517   7.380 -0.1536  0.3990 -0.0957
 3904SOL    HW223172   3.157   3.429   7.479  1.9704  0.5816  1.5389
 3905SOL     OW23173   0.093   2.319   7.021 -0.4456 -0.2517 -0.5689
 3905SOL    HW123174   0.107   2.239   6.969  1.1765 -0.8068  0.7442
 3905SOL    HW223175   0.035   2.369   6.963 -2.8624 -0.2181  1.9062
 3906SOL     OW23176   3.376   0.318  15.403  0.0256  0.0701  0.8158
 3906SOL    HW123177   3.366   0.384  15.334 -2.7652 -2.2501 -0.9774
 3906SOL    HW223178   3.460   0.349  15.438  1.5948 -0.7059 -2.3242
 3907SOL     OW23179   4.609   2.210   2.914 -0.6556  0.0969 -0.2387
 3907SOL    HW123180   4.606   2.184   3.006 -0.2507  2.0957  0.3355
 3907SOL    HW223181   4.667   2.145   2.872  0.0012 -0.6418  1.8134
 3908SOL     OW23182   0.147   3.153  13.545  0.1014 -0.0487 -0.3375
 3908SOL    HW123183   0.216   3.154  13.479 -1.0487  1.8167 -1.5258
 3908SOL    HW223184   0.149   3.248  13.556 -2.6071  0.1131 -1.4004
 3909SOL     OW23185   4.383   1.571   2.792  0.3570  0.2699 -0.0421
 3909SOL    HW123186   4.430   1.569   2.709  1.2916 -2.7310  0.5765
 3909SOL    HW223187   4.354   1.480   2.798 -2.9310  1.1943 -1.9068
 3910SOL     OW23188   4.051   2.435  15.659  0.3446  0.0309 -0.0248
 3910SOL    HW123189   4.069   2.527  15.643 -0.3867  0.4619  1.6605
 3910SOL    HW223190   3.968   2.442  15.707  1.0618  0.1602  1.2030
 3911SOL     OW23191   1.815   4.012   0.884 -0.2099  0.3691  0.0090
 3911SOL    HW123192   1.886   4.075   0.872  0.4439 -0.3313  0.2211
 3911SOL    HW223193   1.784   4.035   0.971 -2.3004 -1.9631 -0.1251
 3912SOL     OW23194   1.101   2.264   1.734 -0.2719 -0.6023  0.0488
 3912SOL    HW123195   1.007   2.258   1.718 -0.5930  0.4592  1.5753
 3912SOL    HW223196   1.102   2.212   1.814 -1.0946 -0.6239  0.0371
 3913SOL     OW23197   0.136   0.614   7.623 -0.2435  0.4107  0.0481
 3913SOL    HW123198   0.191   0.537   7.610  0.3869  0.9579 -0.5780
 3913SOL    HW223199   0.109   0.622   7.531  0.1140 -1.2283 -0.1922
 3914SOL     OW23200   0.033   3.611   7.343  0.1159 -0.7663 -0.3082
 3914SOL    HW123201   0.052   3.618   7.437 -0.3751  0.6566 -0.3188
 3914SOL    HW223202   0.047   3.702   7.317 -1.7397  0.1386  1.8250
 3915SOL     OW23203   2.822   3.322   6.073  0.0101 -0.2214  0.1307
 3915SOL    HW123204   2.746   3.341   6.019 -0.3606 -1.1074  0.3389
 3915SOL    HW223205   2.777   3.276   6.144  0.7146 -1.9599 -0.5348
 3916SOL     OW23206   0.910   4.054   3.560  0.0923  0.2772  0.0054
 3916SOL    HW123207   0.860   4.007   3.493  0.4797 -0.6570  0.3716
 3916SOL    HW223208   0.917   4.143   3.526  1.8169  0.3106  0.4754
 3917SOL     OW23209   3.292   2.614   7.220  0.8537  0.5165  0.1816
 3917SOL    HW123210   3.336   2.529   7.218 -4.6494 -2.3400  0.5380
 3917SOL    HW223211   3.289   2.636   7.313  0.9950  2.2681 -0.2238
 3918SOL     OW23212   2.881   1.639  12.344  0.0609  0.0102 -0.0699
 3918SOL    HW123213   2.898   1.563  12.399 -2.7788 -1.7767 -1.7016
 3918SOL    HW223214   2.821   1.596  12.284  1.1535 -1.2169 -0.2731
 3919SOL     OW23215   3.069   1.233   5.115  0.2593  0.1558 -0.3238
 3919SOL    HW123216   3.017   1.158   5.146 -0.2067  0.9778  0.8859
 3919SOL    HW223217   3.146   1.182   5.089 -0.0422 -0.1908 -0.5287
 3920SOL     OW23218   3.618   1.302   3.111  0.3418  0.3529 -0.2461
 3920SOL    HW123219   3.591   1.325   3.022  2.5215 -1.3257 -1.3704
 3920SOL    HW223220   3.573   1.375   3.153  0.0704  0.0514 -0.0130
 3921SOL     OW23221   4.528   0.999  10.578 -0.2566 -0.4935 -0.1294
 3921SOL    HW123222   4.488   0.912  10.576 -1.1940 -0.0336 -0.9169
 3921SOL    HW223223   4.615   0.961  10.561  0.3200  0.8369 -0.1815
 3922SOL     OW23224   4.068   4.718   5.482  0.5510  0.2142 -0.1214
 3922SOL    HW123225   3.978   0.022   5.468  0.7508  0.6427 -0.5952
 3922SOL    HW223226   4.092   0.068   5.539  2.0460  0.1050 -0.6138
 3923SOL     OW23227   4.063   3.075  14.062  0.2573  0.1820 -0.0760
 3923SOL    HW123228   4.025   3.009  14.120  2.6718 -2.4289 -1.4505
 3923SOL    HW223229   4.068   3.161  14.104 -0.1649  1.7601 -3.2213
 3924SOL     OW23230   0.576   0.427   7.718 -0.2645  0.0131 -0.3689
 3924SOL    HW123231   0.617   0.503   7.760 -1.4392  1.3816 -1.7148
 3924SOL    HW223232   0.484   0.451   7.728 -0.0450  0.6820  0.0783
 3925SOL     OW23233   1.603   3.660   7.159  0.5380 -0.1212 -0.5157
 3925SOL    HW123234   1.544   3.609   7.104 -0.5413  0.2395  0.2927
 3925SOL    HW223235   1.684   3.635   7.114  1.4422  2.8661 -0.5291
 3926SOL     OW23236   3.449   2.697   6.010  0.3120 -0.6651  0.0693
 3926SOL    HW123237   3.462   2.787   5.982  0.5325 -1.5921 -2.7485
 3926SOL    HW223238   3.427   2.658   5.926 -1.9227  1.5615 -0.3799
 3927SOL     OW23239   2.165   2.522   5.497 -0.4855 -0.0586 -0.3891
 3927SOL    HW123240   2.123   2.452   5.547  0.7156 -0.5613 -0.0874
 3927SOL    HW223241   2.084   2.557   5.459 -1.0668 -2.2235 -1.1050
 3928SOL     OW23242   0.993   2.126  14.040  0.7239 -0.3545 -0.2729
 3928SOL    HW123243   0.985   2.085  13.954 -0.1732 -0.3016 -0.2115
 3928SOL    HW223244   1.055   2.198  14.030  1.0370 -0.6346 -0.3322
 3929SOL     OW23245   0.475   1.895   2.141 -0.0727  0.7253 -0.1526
 3929SOL    HW123246   0.494   1.951   2.216 -2.4038  1.9427 -0.4810
 3929SOL    HW223247   0.562   1.865   2.114 -0.4759 -0.3178 -0.3150
 3930SOL     OW23248   1.981   4.466  15.229  0.7491  0.3387  0.1824
 3930SOL    HW123249   1.961   4.537  15.290  0.0454 -0.9692  1.4712
 3930SOL    HW223250   1.898   4.423  15.209  1.5303 -0.2095 -1.8920
 3931SOL     OW23251   0.446   0.378   9.495  0.1398 -0.2049  0.1953
 3931SOL    HW123252   0.399   0.443   9.548 -1.5712  0.9704 -2.7483
 3931SOL    HW223253   0.433   0.416   9.408  2.6039  2.8420  1.1580
 3932SOL     OW23254   0.128   4.411   8.815 -0.0356  0.4892 -0.0530
 3932SOL    HW123255   0.036   4.431   8.832 -0.0156  0.4238  0.1356
 3932SOL    HW223256   0.155   4.484   8.759 -1.7612  1.3795  0.2646
 3933SOL     OW23257   3.534   1.705   2.107 -0.2057  0.2139  0.1944
 3933SOL    HW123258   3.481   1.645   2.159  1.6372 -0.5623  1.2156
 3933SOL    HW223259   3.555   1.651   2.031  2.0839 -1.4200  1.9658
 3934SOL     OW23260   4.017   4.206  10.981 -0.5633 -0.6863 -0.3332
 3934SOL    HW123261   3.958   4.209  11.057 -0.5625 -0.1342 -0.3513
 3934SOL    HW223262   3.986   4.286  10.938 -1.1330 -1.0608 -0.6131
 3935SOL     OW23263   2.203   4.506   8.585  0.0772  0.6307 -0.4066
 3935SOL    HW123264   2.274   4.460   8.630 -0.2402 -1.4782 -2.0550
 3935SOL    HW223265   2.232   4.597   8.578  0.5733  0.8096  3.8473
 3936SOL     OW23266   2.403   1.005   7.828  0.6631 -0.1779 -0.2782
 3936SOL    HW123267   2.343   1.036   7.895  0.1702 -0.1595 -0.7214
 3936SOL    HW223268   2.424   1.090   7.788 -1.0855  0.6923  0.6131
 3937SOL     OW23269   1.069   2.032   2.318  0.1662 -0.1219  0.2036
 3937SOL    HW123270   1.111   2.109   2.279 -0.3397 -0.4413 -0.9569
 3937SOL    HW223271   1.138   1.972   2.346 -0.8940 -2.8402 -2.9530
 3938SOL     OW23272   0.003   4.027   9.441  0.0141  0.1396  0.1976
 3938SOL    HW123273   4.695   4.114   9.416 -2.1528 -1.1794 -1.5932
 3938SOL    HW223274   4.661   3.975   9.394 -2.3217  2.9109  0.3839
 3939SOL     OW23275   2.121   0.971   1.606  0.2603  0.1124 -0.6064
 3939SOL    HW123276   2.065   1.012   1.672  0.4260  1.2128 -1.1484
 3939SOL    HW223277   2.166   1.046   1.567 -1.4283  1.9743  1.0095
 3940SOL     OW23278   3.576   1.506   8.915 -0.5492  0.2206  0.1560
 3940SOL    HW123279   3.517   1.568   8.957 -0.0233  0.6764  0.2214
 3940SOL    HW223280   3.662   1.546   8.930  0.4613 -1.8181 -0.1582
 3941SOL     OW23281   0.085   0.769   9.744 -0.0783 -0.3147 -0.2235
 3941SOL    HW123282   0.089   0.767   9.840 -3.7748 -0.4573 -0.0615
 3941SOL    HW223283   0.177   0.771   9.721  0.4616 -1.8531  1.7934
 3942SOL     OW23284   1.308   1.396  11.310  0.3870 -0.1465  0.5916
 3942SOL    HW123285   1.294   1.370  11.401 -0.0460 -0.6119  0.3915
 3942SOL    HW223286   1.312   1.491  11.324 -0.2852  0.4319 -3.2910
 3943SOL     OW23287   3.047   4.132   2.325 -0.2596 -0.3806 -0.1492
 3943SOL    HW123288   3.087   4.194   2.264 -1.0761  0.3681  0.0727
 3943SOL    HW223289   2.983   4.177   2.381  0.7131  2.1615 -1.0639
 3944SOL     OW23290   2.581   3.842   6.867  0.0034  0.5154 -0.0426
 3944SOL    HW123291   2.643   3.886   6.926  1.4514  1.2463 -2.1017
 3944SOL    HW223292   2.498   3.858   6.911 -1.0132 -2.2873 -0.9276
 3945SOL     OW23293   2.747   2.407  17.439  0.5992  0.0511  0.1424
 3945SOL    HW123294   2.782   2.399  17.528  1.0759  4.3157  0.3463
 3945SOL    HW223295   2.756   2.312  17.428  0.9948  0.5404 -3.5762
 3946SOL     OW23296   0.681   3.244  14.589 -0.3878  0.1756  0.7131
 3946SOL    HW123297   0.764   3.239  14.638  0.0478 -0.2726 -0.0792
 3946SOL    HW223298   0.700   3.328  14.548 -0.6540  0.8929  2.0504
 3947SOL     OW23299   0.849   1.407  17.403  0.2340  0.2979 -0.5901
 3947SOL    HW123300   0.851   1.462  17.325 -2.2944 -1.2536 -1.7430
 3947SOL    HW223301   0.944   1.396  17.405  0.2990  0.5884 -2.9123
 3948SOL     OW23302   1.195   4.032  17.442  0.1266  0.0051  0.5298
 3948SOL    HW123303   1.251   4.000  17.513  1.3608 -3.3172 -1.8928
 3948SOL    HW223304   1.120   3.977  17.463 -0.4094  1.5823  2.6795
 3949SOL     OW23305   1.302   4.504   7.007  0.1542  0.1434 -0.2885
 3949SOL    HW123306   1.247   4.547   6.942  1.3293 -1.2355 -2.1915
 3949SOL    HW223307   1.378   4.471   6.959 -0.3213 -2.0462  0.5033
 3950SOL     OW23308   2.196   1.186  12.616 -0.0473  0.2600 -0.3505
 3950SOL    HW123309   2.128   1.242  12.655 -1.9019 -1.4252 -1.1977
 3950SOL    HW223310   2.276   1.238  12.630  0.6191 -0.7232 -0.5249
 3951SOL     OW23311   3.955   0.293   7.104 -0.6474  0.0583 -0.0451
 3951SOL    HW123312   3.943   0.241   7.184  4.8549 -1.6640 -0.3585
 3951SOL    HW223313   3.991   0.219   7.055 -2.9712 -1.5250  0.6215
 3952SOL     OW23314   4.632   2.435   5.209  0.5726 -0.3587 -0.0731
 3952SOL    HW123315   4.640   2.344   5.237 -1.9730 -0.0650  1.6083
 3952SOL    HW223316   4.710   2.451   5.156 -0.6510  2.6139 -1.0065
 3953SOL     OW23317   4.719   3.329  11.927  0.4032 -0.4679  0.0426
 3953SOL    HW123318   0.014   3.275  12.003  1.5935 -1.5301 -0.9982
 3953SOL    HW223319   0.003   3.257  11.865  0.6556  0.8402 -1.4685
 3954SOL     OW23320   0.143   3.432   3.486 -0.1194  0.2231 -0.2932
 3954SOL    HW123321   0.053   3.411   3.458 -0.3453 -0.1009  0.6699
 3954SOL    HW223322   0.167   3.503   3.426 -0.1754  0.0701 -0.5006
 3955SOL     OW23323   4.664   3.388   8.991  0.0194  1.1450 -0.3193
 3955SOL    HW123324   4.668   3.483   8.978  1.1561  1.3002  1.1284
 3955SOL    HW223325   4.625   3.393   9.079  1.7334  1.0860  0.4462
 3956SOL     OW23326   1.205   1.131  11.781  0.4024 -0.1721 -0.2587
 3956SOL    HW123327   1.156   1.210  11.803  0.4434 -0.5493  1.1856
 3956SOL    HW223328   1.256   1.137  11.862  0.4654 -1.1239 -0.2167
 3957SOL     OW23329   3.038   2.310   1.231  0.3392  0.0178  0.1559
 3957SOL    HW123330   2.957   2.353   1.259  1.2918  2.0689 -0.2042
 3957SOL    HW223331   3.017   2.218   1.249 -0.5636  0.5327  1.7021
 3958SOL     OW23332   0.899   3.784   5.356 -0.1198  0.3049  0.1419
 3958SOL    HW123333   0.930   3.769   5.446  1.7851  2.2312 -0.2137
 3958SOL    HW223334   0.936   3.704   5.319 -0.7495  0.0843 -0.0194
 3959SOL     OW23335   2.773   3.754   7.673  0.0692  0.4010  0.0539
 3959SOL    HW123336   2.801   3.666   7.650 -2.4930 -0.2449 -0.6027
 3959SOL    HW223337   2.757   3.797   7.590  0.0702  0.1756 -0.0622
 3960SOL     OW23338   0.961   3.434  15.273 -0.2783  0.2882  0.0761
 3960SOL    HW123339   0.968   3.530  15.269 -2.2105  0.4940  1.5266
 3960SOL    HW223340   1.000   3.406  15.190  0.9960  1.7271  0.1955
 3961SOL     OW23341   2.069   2.182   6.286 -0.2143 -0.0772  0.0663
 3961SOL    HW123342   2.162   2.203   6.296  0.0205 -1.5938  1.0135
 3961SOL    HW223343   2.072   2.165   6.192 -2.3717 -1.8701  0.3475
 3962SOL     OW23344   1.008   1.601  10.277 -0.3067  0.5661 -0.3873
 3962SOL    HW123345   1.025   1.687  10.316  0.4963  0.7464 -1.1393
 3962SOL    HW223346   0.936   1.570  10.332  0.2842  1.2378  0.7609
 3963SOL     OW23347   3.500   0.569   8.832  0.2339  0.2526  0.0462
 3963SOL    HW123348   3.543   0.495   8.875  1.6834  0.0662 -1.7450
 3963SOL    HW223349   3.500   0.635   8.901 -0.3671  0.1045  0.1899
 3964SOL     OW23350   1.921   4.397   1.490  0.2031 -0.1570  0.2125
 3964SOL    HW123351   1.876   4.481   1.493 -1.5055 -1.0775  0.9445
 3964SOL    HW223352   1.984   4.399   1.562 -0.2091 -1.2776  0.6177
 3965SOL     OW23353   4.523   0.995   8.323  0.3525  0.6759 -0.3311
 3965SOL    HW123354   4.531   1.041   8.240  0.7600 -0.8076 -1.1256
 3965SOL    HW223355   4.539   1.076   8.371 -0.9247  0.7848 -0.1100
 3966SOL     OW23356   2.590   4.068   3.325  0.1853 -0.3993 -0.4618
 3966SOL    HW123357   2.601   4.133   3.395  1.5007 -3.1554  1.8858
 3966SOL    HW223358   2.680   4.064   3.292  0.6062 -3.2102  1.0304
 3967SOL     OW23359   0.233   3.522   8.588  0.3470  0.1033  0.5045
 3967SOL    HW123360   0.291   3.459   8.630  1.6329  2.5090  2.3497
 3967SOL    HW223361   0.265   3.603   8.626  0.7548  1.0363 -1.8386
 3968SOL     OW23362   4.153   0.809  10.448  0.0443  0.5165  0.2102
 3968SOL    HW123363   4.184   0.720  10.467 -1.7102  0.2230  1.7672
 3968SOL    HW223364   4.100   0.809  10.528  0.6659  0.8120  0.6216
 3969SOL     OW23365   4.301   2.507   8.727 -0.2936 -0.1240 -0.1978
 3969SOL    HW123366   4.319   2.415   8.708 -3.7261 -1.4928  3.1452
 3969SOL    HW223367   4.208   2.502   8.749  0.3583  1.0990  2.8889
 3970SOL     OW23368   1.639   3.823  11.760  0.1786 -0.6548 -0.0233
 3970SOL    HW123369   1.584   3.833  11.837 -0.0837 -0.6342 -0.2153
 3970SOL    HW223370   1.727   3.837  11.795  0.5442 -2.5842 -0.1455
 3971SOL     OW23371   2.153   0.001  14.104  0.1142 -0.1431  0.1224
 3971SOL    HW123372   2.178   0.035  14.190 -1.1379 -0.7861  0.7297
 3971SOL    HW223373   2.166   4.633  14.131  1.0286 -0.4410 -1.3155
 3972SOL     OW23374   3.046   0.009   5.970 -0.1518 -0.1475 -0.0823
 3972SOL    HW123375   3.059   4.720   5.876 -2.6535 -0.3737 -0.4161
 3972SOL    HW223376   3.084   0.095   5.984 -0.0919 -0.0769 -0.6773
 3973SOL     OW23377   2.508   1.907   8.258  0.1676  0.2668  0.0117
 3973SOL    HW123378   2.552   1.901   8.173 -1.1012 -0.2299 -0.6265
 3973SOL    HW223379   2.540   1.825   8.296 -0.5805  0.6530  1.4424
 3974SOL     OW23380   2.730   2.666  11.965  0.0341 -0.7621  0.0199
 3974SOL    HW123381   2.698   2.678  12.055  0.2263 -0.7290  0.0828
 3974SOL    HW223382   2.676   2.590  11.941  0.0966 -0.2111 -1.8302
 3975SOL     OW23383   2.967   1.516   3.234  0.0152 -0.2907  0.3365
 3975SOL    HW123384   2.917   1.591   3.201 -0.2257 -0.1138  1.1084
 3975SOL    HW223385   2.995   1.480   3.150 -1.9803  0.0641 -0.4786
 3976SOL     OW23386   0.190   0.980   6.841  0.2899  0.1399 -0.1413
 3976SOL    HW123387   0.130   1.050   6.867  0.2049  0.6678 -1.7619
 3976SOL    HW223388   0.275   1.023   6.851 -0.3573  1.2188  0.7187
 3977SOL     OW23389   4.317   4.372   0.672  0.3431  0.1507 -0.1133
 3977SOL    HW123390   4.257   4.391   0.600  1.2577 -0.1762 -0.9741
 3977SOL    HW223391   4.336   4.281   0.648  2.0381  0.3382  0.4989
 3978SOL     OW23392   2.365   0.534   2.156 -0.3670 -0.6544  0.2558
 3978SOL    HW123393   2.421   0.598   2.112 -1.5793 -0.0217 -0.3936
 3978SOL    HW223394   2.282   0.556   2.113 -0.6085 -0.9952  0.5511
 3979SOL     OW23395   3.876   0.321   8.150  0.1633 -0.3994 -0.6815
 3979SOL    HW123396   3.816   0.277   8.091 -1.8337  2.0466 -0.4514
 3979SOL    HW223397   3.832   0.388   8.202 -1.1919 -1.4191 -0.5250
 3980SOL     OW23398   0.038   2.006  12.179  0.0636 -0.8978  0.2618
 3980SOL    HW123399   0.083   2.062  12.116 -0.5355 -0.9165 -0.1751
 3980SOL    HW223400   4.686   1.970  12.134 -2.0574  2.2510  1.3110
 3981SOL     OW23401   1.008   4.487   6.534  0.0060  0.0907  0.3813
 3981SOL    HW123402   0.988   4.441   6.616 -0.5790 -1.2682 -0.5216
 3981SOL    HW223403   0.929   4.465   6.484  1.3879 -1.8329 -0.9414
 3982SOL     OW23404   1.993   1.354   2.100  0.0545  0.5010 -0.1962
 3982SOL    HW123405   2.061   1.294   2.070 -1.7708 -1.2697 -0.7684
 3982SOL    HW223406   2.043   1.436   2.112 -0.0960  0.7713 -1.4188
 3983SOL     OW23407   4.076   1.471   1.056 -0.3143  0.1722 -0.3882
 3983SOL    HW123408   4.003   1.413   1.037  0.2053 -0.4699 -0.4376
 3983SOL    HW223409   4.135   1.412   1.103  0.3130 -0.4901 -2.0062
 3984SOL     OW23410   2.996   2.859  10.008  0.9083 -0.0704 -0.6524
 3984SOL    HW123411   3.031   2.909  10.081  0.5902 -0.2083 -0.4054
 3984SOL    HW223412   2.931   2.810  10.060  0.8551 -0.2044 -0.8436
 3985SOL     OW23413   2.127   2.709  11.115 -0.1382 -0.3349  0.3895
 3985SOL    HW123414   2.043   2.666  11.130 -0.8421  1.0951  0.5430
 3985SOL    HW223415   2.157   2.659  11.039  2.8760  0.0218  1.3643
 3986SOL     OW23416   2.581   2.325  15.996  0.5169  0.9406  0.3679
 3986SOL    HW123417   2.598   2.330  15.902 -1.0484  0.5443  0.0642
 3986SOL    HW223418   2.517   2.253  15.994 -0.1263  1.4472  3.0410
 3987SOL     OW23419   2.266   2.015   3.257 -0.1867 -0.5953  0.2530
 3987SOL    HW123420   2.237   2.102   3.231 -0.7526 -1.7013 -2.8071
 3987SOL    HW223421   2.354   2.035   3.290 -0.8108 -0.5202  1.8603
 3988SOL     OW23422   0.623   1.303  10.264 -0.0090  0.8724 -0.3729
 3988SOL    HW123423   0.680   1.227  10.276 -0.1806  0.4668 -2.0589
 3988SOL    HW223424   0.534   1.269  10.251  0.6592 -0.5040 -1.3917
 3989SOL     OW23425   3.333   2.017  10.865  0.4941 -1.0451  0.0085
 3989SOL    HW123426   3.358   1.937  10.911  0.9252 -1.9036 -1.7203
 3989SOL    HW223427   3.386   2.014  10.786 -0.2882  0.6500 -0.5720
 3990SOL     OW23428   4.159   1.620   5.635  0.0296  0.6029  0.0946
 3990SOL    HW123429   4.242   1.603   5.591  0.9385 -2.0547  2.7955
 3990SOL    HW223430   4.106   1.642   5.559  1.9282 -1.8096 -1.9086
 3991SOL     OW23431   4.571   4.135  15.767 -0.1022 -0.1026  0.1216
 3991SOL    HW123432   4.522   4.060  15.734  0.0466 -0.9134  1.7415
 3991SOL    HW223433   4.544   4.200  15.702 -0.2858  0.7552  1.0620
 3992SOL     OW23434   0.538   3.738   7.000  0.0599  0.0175 -0.3630
 3992SOL    HW123435   0.574   3.824   7.023  0.3874 -0.4415  0.8340
 3992SOL    HW223436   0.545   3.731   6.905  0.7398 -1.7247 -0.1849
 3993SOL     OW23437   0.118   1.006   3.881  0.7481 -0.1307 -0.3460
 3993SOL    HW123438   0.161   0.994   3.797 -1.2026 -1.9337 -1.0852
 3993SOL    HW223439   0.157   1.092   3.897  1.4371 -0.8040  1.6386
 3994SOL     OW23440   3.113   1.091   2.809  0.0315  0.1795  0.4418
 3994SOL    HW123441   3.157   1.174   2.826  3.1413 -1.9032  2.6439
 3994SOL    HW223442   3.076   1.057   2.891 -1.5607  0.0504 -0.3404
 3995SOL     OW23443   0.045   3.413  14.418 -0.1485  0.4860  0.0840
 3995SOL    HW123444   0.014   3.503  14.411 -1.4480 -0.2458 -3.4383
 3995SOL    HW223445   0.135   3.425  14.448 -0.6681  1.3769  1.2889
 3996SOL     OW23446   0.504   3.990   7.807 -0.0114 -0.4619 -0.2167
 3996SOL    HW123447   0.487   4.080   7.834 -0.0223 -0.4527 -0.2539
 3996SOL    HW223448   0.428   3.974   7.751  0.8688 -2.8159 -0.7644
 3997SOL     OW23449   2.138   1.043   6.358  0.1038  0.1352 -0.1116
 3997SOL    HW123450   2.207   0.997   6.406  0.1882  2.7992  2.3016
 3997SOL    HW223451   2.066   1.048   6.421 -1.0217  0.4927 -1.4275
 3998SOL     OW23452   2.836   3.538   5.809 -0.5011 -0.5878 -0.0224
 3998SOL    HW123453   2.882   3.462   5.847  0.5793  1.3261  2.4983
 3998SOL    HW223454   2.880   3.614   5.848 -1.3534  1.1816 -2.5379
 3999SOL     OW23455   3.509   1.068   6.003 -0.1839  0.5584  0.3219
 3999SOL    HW123456   3.543   1.105   5.922  0.9593  1.6161  1.2783
 3999SOL    HW223457   3.498   1.143   6.061  2.8559  1.5230 -0.3403
 4000SOL     OW23458   4.586   2.357   0.958  0.8259  0.5291  0.4019
 4000SOL    HW123459   4.619   2.438   0.997  2.2771  0.7533 -1.2628
 4000SOL    HW223460   4.639   2.302   1.016 -0.1523 -2.1032 -1.2187
 4001SOL     OW23461   2.605   2.166   5.587  0.0070 -0.2482 -0.4434
 4001SOL    HW123462   2.582   2.107   5.515  0.1188 -0.4174 -0.3390
 4001SOL    HW223463   2.552   2.122   5.653  0.4007 -0.1336 -0.0520
 4002SOL     OW23464   0.292   3.955  13.367 -0.1121  0.2908 -0.1132
 4002SOL    HW123465   0.248   4.040  13.376 -0.6950 -0.2088  1.8095
 4002SOL    HW223466   0.369   3.959  13.424 -0.7006  1.4236  0.6019
 4003SOL     OW23467   3.952   2.825   6.303 -0.2316  0.8857 -0.1733
 4003SOL    HW123468   3.860   2.803   6.313 -0.1764  0.2531 -1.0846
 4003SOL    HW223469   3.941   2.911   6.261  0.0863 -0.1180 -2.3281
 4004SOL     OW23470   2.727   4.185   6.176  0.5369 -0.1514 -0.3031
 4004SOL    HW123471   2.811   4.145   6.155  1.2164  0.2406  1.6014
 4004SOL    HW223472   2.731   4.183   6.272  0.2756 -1.1489 -0.3140
 4005SOL     OW23473   0.593   3.125   9.576  0.2206 -0.1008  0.1155
 4005SOL    HW123474   0.650   3.155   9.506 -0.2193  0.3499 -0.0468
 4005SOL    HW223475   0.508   3.165   9.558 -0.3735 -1.8549 -1.0208
 4006SOL     OW23476   2.800   3.121   7.927 -0.3230 -0.1293 -0.4628
 4006SOL    HW123477   2.770   3.078   8.008 -1.6209 -0.3916 -1.0910
 4006SOL    HW223478   2.740   3.082   7.864  1.0843  0.0619 -1.9237
 4007SOL     OW23479   4.138   4.365   8.214  0.1331  0.3167 -0.0109
 4007SOL    HW123480   4.052   4.334   8.188  0.0452 -2.8716  4.0514
 4007SOL    HW223481   4.120   4.393   8.304  0.4123  2.5439 -0.6513
 4008SOL     OW23482   3.512   2.473   4.391 -0.4148  0.0510 -0.2911
 4008SOL    HW123483   3.483   2.409   4.326 -0.9787 -0.9362  0.9369
 4008SOL    HW223484   3.439   2.464   4.452 -1.5977 -2.4513 -2.0563
 4009SOL     OW23485   1.023   2.770   6.411  0.1477  0.2828  0.1104
 4009SOL    HW123486   1.078   2.781   6.489  0.9098 -0.9574 -0.2566
 4009SOL    HW223487   1.076   2.724   6.347  0.6742 -0.2021  0.8906
 4010SOL     OW23488   3.855   1.739   8.042  0.0885 -0.1762  0.0571
 4010SOL    HW123489   3.807   1.662   8.072  2.5769 -0.0819  4.3107
 4010SOL    HW223490   3.917   1.733   8.115 -0.5093 -0.7859  0.5128
 4011SOL     OW23491   4.624   4.433   5.593 -0.2040 -0.6718  0.0268
 4011SOL    HW123492   4.638   4.409   5.685  1.1975  0.9764  0.2441
 4011SOL    HW223493   4.555   4.499   5.607  0.1994 -0.1225 -0.5858
 4012SOL     OW23494   4.439   0.675  15.071 -0.3175  0.5371  0.4243
 4012SOL    HW123495   4.421   0.586  15.040  1.5963 -0.2273  1.4630
 4012SOL    HW223496   4.500   0.706  15.004  0.0284 -0.2317  0.3808
 4013SOL     OW23497   3.074   0.054  17.549 -0.1980  0.0579 -0.1467
 4013SOL    HW123498   2.993   0.097  17.576  0.0623 -0.2808  1.1520
 4013SOL    HW223499   3.099   0.104  17.471 -1.6788  1.3225  0.1974
 4014SOL     OW23500   3.522   3.468   6.456 -0.0645  0.5431  0.2382
 4014SOL    HW123501   3.502   3.553   6.494  1.7254 -1.0255  4.6295
 4014SOL    HW223502   3.439   3.420   6.467  1.7491 -2.7533 -0.5008
 4015SOL     OW23503   3.790   4.592   4.299 -0.5107  0.3121  0.0938
 4015SOL    HW123504   3.774   4.532   4.372 -0.7229 -0.0818 -0.2737
 4015SOL    HW223505   3.742   4.671   4.322  1.2514  1.3365  0.3067
 4016SOL     OW23506   3.815   4.711   2.392  0.5072 -0.2180 -0.0354
 4016SOL    HW123507   3.737   4.657   2.381 -0.3885  0.4916  2.8523
 4016SOL    HW223508   3.847   4.695   2.303  1.0442 -0.9098  0.2871
 4017SOL     OW23509   0.422   1.762   3.536  0.0620  0.2504  0.2368
 4017SOL    HW123510   0.374   1.694   3.583  0.3767 -1.2511 -1.6436
 4017SOL    HW223511   0.430   1.817   3.615  1.2536 -0.3957  0.5614
 4018SOL     OW23512   1.587   4.075   8.103  0.5303 -0.3010  0.3138
 4018SOL    HW123513   1.514   4.059   8.163  1.6536  0.1256  1.8093
 4018SOL    HW223514   1.655   4.022   8.145  0.9711 -0.7532 -0.9668
 4019SOL     OW23515   1.366   2.820   7.478  0.3758 -0.4759 -0.3143
 4019SOL    HW123516   1.460   2.807   7.486  0.1962 -0.8409  1.2454
 4019SOL    HW223517   1.331   2.755   7.540  2.2188 -0.0537  1.1549
 4020SOL     OW23518   0.450   0.041  14.856 -0.2793  0.0356  0.2285
 4020SOL    HW123519   0.359   0.066  14.841 -0.7816 -1.6575  0.4648
 4020SOL    HW223520   0.449   0.035  14.951  1.1611 -1.9526  0.1231
 4021SOL     OW23521   1.894   2.249   9.030 -0.2029  0.0545 -0.0247
 4021SOL    HW123522   1.985   2.267   9.053 -0.4481 -1.2486  1.9928
 4021SOL    HW223523   1.883   2.173   9.087  1.4787  0.7801  1.2566
 4022SOL     OW23524   1.745   1.906   1.746 -0.3197  0.6003  0.2488
 4022SOL    HW123525   1.821   1.848   1.737 -1.1356 -0.2059 -1.6414
 4022SOL    HW223526   1.761   1.982   1.690 -0.6309  0.9842  0.6855
 4023SOL     OW23527   2.163   3.333   4.869 -0.5437  0.5358 -0.4052
 4023SOL    HW123528   2.093   3.283   4.910  0.0035  0.6334  0.6595
 4023SOL    HW223529   2.220   3.267   4.829 -2.8737 -0.6892 -1.6486
 4024SOL     OW23530   4.713   0.611   3.685  0.0929 -0.1381  0.6439
 4024SOL    HW123531   4.692   0.518   3.690 -0.8947 -0.0127 -1.0261
 4024SOL    HW223532   4.627   0.652   3.689 -0.0035 -0.5796  2.8586
 4025SOL     OW23533   4.663   4.568   2.102  0.1862 -0.5574  0.4894
 4025SOL    HW123534   4.647   4.486   2.150 -2.7720  0.0501  0.5744
 4025SOL    HW223535   0.022   4.600   2.138  1.0373 -2.8176  0.5734
 4026SOL     OW23536   1.606   4.537   9.989  0.0561 -0.4743  0.5309
 4026SOL    HW123537   1.660   4.472   9.944  0.7719  0.4219  0.0928
 4026SOL    HW223538   1.550   4.475  10.036  0.4969 -1.4973 -0.2969
 4027SOL     OW23539   0.363   1.344   5.376  0.2590 -0.0603 -0.1331
 4027SOL    HW123540   0.368   1.376   5.286  0.5651 -2.6568 -1.0463
 4027SOL    HW223541   0.427   1.273   5.373  1.0964  0.6343  1.4105
 4028SOL     OW23542   0.317   4.035   9.919 -0.2457 -0.0746 -0.3798
 4028SOL    HW123543   0.328   4.076   9.834  1.1526 -1.0447 -0.6716
 4028SOL    HW223544   0.345   3.945   9.906 -0.1167  0.0256 -0.7986
 4029SOL     OW23545   0.829   0.394   4.859  0.7297 -0.8560  0.2710
 4029SOL    HW123546   0.809   0.318   4.804 -1.7305 -0.5861  0.8209
 4029SOL    HW223547   0.750   0.408   4.910  0.1326 -0.1603 -0.8576
 4030SOL     OW23548   2.916   2.330   0.860 -0.2326  0.2811  0.3152
 4030SOL    HW123549   2.961   2.260   0.813 -0.4039 -0.0581  0.6597
 4030SOL    HW223550   2.950   2.405   0.811 -0.3177 -0.2402 -0.5565
 4031SOL     OW23551   0.895   4.379   0.772  0.5490  0.2363  0.3963
 4031SOL    HW123552   0.875   4.328   0.694  0.4054 -0.6178  0.9844
 4031SOL    HW223553   0.880   4.469   0.745 -0.3412  0.2156  0.8193
 4032SOL     OW23554   4.579   1.315   6.817  0.3358 -0.4373  0.5354
 4032SOL    HW123555   4.492   1.305   6.780 -0.4578 -1.7310  2.7256
 4032SOL    HW223556   4.563   1.348   6.906  1.0336  0.3831  0.3557
 4033SOL     OW23557   2.388   2.544   8.269  0.0142  0.4410 -0.0481
 4033SOL    HW123558   2.370   2.585   8.353  0.4073  1.0705 -0.2635
 4033SOL    HW223559   2.483   2.548   8.258  0.1470 -1.6437  0.3552
 4034SOL     OW23560   1.140   0.681  11.814 -0.6487 -0.1854 -0.7164
 4034SOL    HW123561   1.074   0.698  11.881  0.0221 -1.6048  0.3047
 4034SOL    HW223562   1.131   0.762  11.765 -1.2228  1.6471  2.3862
 4035SOL     OW23563   4.713   3.960   2.597  0.5066  0.5642 -0.0321
 4035SOL    HW123564   4.649   4.020   2.637  1.7371  1.2928  0.8344
 4035SOL    HW223565   4.722   3.888   2.659  1.6162 -0.8389 -1.8448
 4036SOL     OW23566   0.520   3.824   4.235  0.2201 -0.4519 -0.2344
 4036SOL    HW123567   0.464   3.847   4.309 -0.5955 -1.8898 -0.4040
 4036SOL    HW223568   0.483   3.745   4.197  0.5602 -0.1769 -1.1307
 4037SOL     OW23569   2.824   0.987  12.317 -0.0812  0.2302 -0.6067
 4037SOL    HW123570   2.857   1.007  12.404  1.7141  0.2423 -1.2874
 4037SOL    HW223571   2.739   1.030  12.305 -1.7105 -2.8706 -0.0344
 4038SOL     OW23572   3.377   0.797  15.274  0.1796 -0.5328  0.6296
 4038SOL    HW123573   3.442   0.866  15.286 -1.1556  0.9553 -0.8121
 4038SOL    HW223574   3.319   0.810  15.349 -1.9687 -3.0760 -0.6123
 4039SOL     OW23575   0.790   3.591  12.146  0.0052 -0.0488  0.2976
 4039SOL    HW123576   0.751   3.610  12.231 -1.6852 -2.7893  0.1337
 4039SOL    HW223577   0.732   3.632  12.083 -0.7633 -0.8476  0.4869
 4040SOL     OW23578   1.075   1.557   5.343  0.2066  0.1961 -0.2405
 4040SOL    HW123579   1.034   1.501   5.409 -0.4534  0.7426 -0.1955
 4040SOL    HW223580   1.030   1.517   5.268 -0.8058 -0.6928  0.8443
 4041SOL     OW23581   0.041   0.453  13.194  0.2270  1.0425 -0.2662
 4041SOL    HW123582   0.036   0.496  13.280  0.5994  1.5982 -0.5201
 4041SOL    HW223583   4.682   0.465  13.147 -0.7285 -2.2903  0.5561
 4042SOL     OW23584   3.320   0.521  14.939  0.3572  0.3118 -0.2607
 4042SOL    HW123585   3.367   0.448  14.898  0.0064  0.2351 -0.5226
 4042SOL    HW223586   3.277   0.556  14.861  0.2546  2.5396  0.7864
 4043SOL     OW23587   3.831   3.753   7.507 -0.1720  0.2797 -0.2998
 4043SOL    HW123588   3.822   3.703   7.426  1.5592 -0.7660  0.1577
 4043SOL    HW223589   3.925   3.760   7.522 -0.8199  0.8040  3.6308
 4044SOL     OW23590   3.451   1.855   4.448  0.1420 -0.1650 -0.0009
 4044SOL    HW123591   3.472   1.786   4.385  1.4080  1.1327 -0.9788
 4044SOL    HW223592   3.440   1.800   4.526 -2.3027  0.4622  0.0842
 4045SOL     OW23593   3.211   1.819   7.027  0.6824 -1.0445 -0.4233
 4045SOL    HW123594   3.286   1.793   7.081  2.0970  1.2029 -1.3193
 4045SOL    HW223595   3.147   1.782   7.089  1.8093 -2.7991 -0.3085
 4046SOL     OW23596   4.300   1.855   1.930 -0.0605  0.2009  0.3898
 4046SOL    HW123597   4.253   1.932   1.962 -1.2267 -0.0428 -0.7804
 4046SOL    HW223598   4.385   1.872   1.971 -0.0021  3.3022 -1.0294
 4047SOL     OW23599   3.180   4.098   8.547 -0.0554 -0.3529  0.9269
 4047SOL    HW123600   3.178   4.006   8.571 -1.4549 -0.5927 -0.1222
 4047SOL    HW223601   3.244   4.094   8.477  0.3822  0.3633  1.2845
 4048SOL     OW23602   3.344   3.520   1.924 -0.7059 -0.3937  0.0284
 4048SOL    HW123603   3.272   3.497   1.865 -1.5814 -0.6248  1.1991
 4048SOL    HW223604   3.321   3.612   1.932 -0.6572 -0.3587 -0.2277
 4049SOL     OW23605   4.130   0.526   4.360  0.1815 -0.5187 -0.1599
 4049SOL    HW123606   4.185   0.459   4.401 -1.3844 -2.9861 -2.0737
 4049SOL    HW223607   4.174   0.542   4.277 -0.4955  2.6757  0.1202
 4050SOL     OW23608   1.265   0.675   8.981 -0.1123  0.1442  0.3890
 4050SOL    HW123609   1.298   0.756   9.019 -1.1389  0.8695 -0.2405
 4050SOL    HW223610   1.215   0.716   8.910 -0.5789 -1.3100 -0.1450
 4051SOL     OW23611   1.299   3.765   4.427  0.0068  0.2990  0.3803
 4051SOL    HW123612   1.297   3.788   4.520  0.0533  1.5851  0.0692
 4051SOL    HW223613   1.239   3.692   4.414  0.4781  0.3662 -2.1451
 4052SOL     OW23614   2.022   3.986  14.236  0.2496 -0.5187 -0.4985
 4052SOL    HW123615   1.948   3.949  14.188 -0.4443 -0.7791  0.7641
 4052SOL    HW223616   2.060   3.914  14.287 -2.3504 -1.1093  0.5789
 4053SOL     OW23617   1.578   4.414   7.404 -0.1248 -0.7931 -0.0767
 4053SOL    HW123618   1.487   4.384   7.408  0.3399 -2.1669  0.2614
 4053SOL    HW223619   1.622   4.329   7.409  1.1515 -0.1854 -1.0789
 4054SOL     OW23620   1.790   3.401   8.555  0.0071  0.6093  0.1668
 4054SOL    HW123621   1.878   3.400   8.520  0.8358  2.2553  2.2031
 4054SOL    HW223622   1.734   3.410   8.478  0.3374 -1.0072 -0.2562
 4055SOL     OW23623   1.555   0.275   7.945 -0.3758 -0.4579  0.1603
 4055SOL    HW123624   1.553   0.303   7.854  1.5685  1.7167  0.7870
 4055SOL    HW223625   1.464   0.282   7.971  0.1800  1.8514  1.4758
 4056SOL     OW23626   3.676   3.146   8.269 -0.0344  0.6050 -0.2659
 4056SOL    HW123627   3.727   3.099   8.335 -0.8321  1.2816  0.8166
 4056SOL    HW223628   3.643   3.077   8.210 -0.6036 -1.4806  2.5072
 4057SOL     OW23629   3.271   2.837   1.349  0.5433  0.4334 -0.7415
 4057SOL    HW123630   3.186   2.831   1.307  1.0482  2.3138 -2.0220
 4057SOL    HW223631   3.247   2.873   1.434 -1.5111  1.3718 -1.7224
 4058SOL     OW23632   2.752   3.084   5.794  0.3124 -0.3054  0.0151
 4058SOL    HW123633   2.788   3.092   5.705 -0.2469  0.7251 -0.1175
 4058SOL    HW223634   2.695   3.161   5.794 -1.1953 -1.4294  0.6300
 4059SOL     OW23635   4.699   2.284   5.726  0.1013 -0.3428  0.1853
 4059SOL    HW123636   4.721   2.361   5.778 -2.7511  0.2265  0.5862
 4059SOL    HW223637   0.061   2.269   5.687  0.0908 -2.0428  0.8269
 4060SOL     OW23638   0.255   2.178   9.485 -0.0765 -0.0267  0.0842
 4060SOL    HW123639   0.258   2.107   9.549 -0.6125 -0.2599 -0.1525
 4060SOL    HW223640   0.161   2.182   9.468 -0.3539  1.1999  1.8505
 4061SOL     OW23641   1.806   2.064   6.397 -0.3377  0.6423  0.5990
 4061SOL    HW123642   1.897   2.090   6.381  0.6053 -2.9562  0.0762
 4061SOL    HW223643   1.759   2.119   6.335 -0.3959 -1.1482 -0.9452
 4062SOL     OW23644   2.965   4.651   8.820 -0.1001  0.2060 -0.2646
 4062SOL    HW123645   2.966   4.565   8.862  0.7437  1.0988  1.5690
 4062SOL    HW223646   2.870   4.656   8.814 -0.0606  0.3274 -0.8475
 4063SOL     OW23647   2.819   0.972   6.035  0.5763  0.1533  0.2125
 4063SOL    HW123648   2.787   0.882   6.039  2.7868 -0.6417  0.1797
 4063SOL    HW223649   2.797   1.008   6.121  0.9222  2.8378 -0.8066
 4064SOL     OW23650   4.151   0.778   8.831 -0.0146 -0.4931  0.0016
 4064SOL    HW123651   4.245   0.785   8.817  0.0851 -1.7634  0.0633
 4064SOL    HW223652   4.118   0.760   8.743 -0.1116 -1.1529  0.1766
 4065SOL     OW23653   1.539   0.289   2.945 -0.5605 -0.7866 -0.2609
 4065SOL    HW123654   1.538   0.374   2.900  2.5511 -1.2583 -1.2397
 4065SOL    HW223655   1.611   0.242   2.903 -1.4994 -1.1582 -1.4506
 4066SOL     OW23656   1.420   4.493   3.838  0.1946  0.2407  0.5717
 4066SOL    HW123657   1.328   4.490   3.864  0.1390  1.7424  0.5769
 4066SOL    HW223658   1.418   4.503   3.743 -1.3486  2.1089  0.8029
 4067SOL     OW23659   1.198   0.680   6.702  0.4490  0.5778 -0.3125
 4067SOL    HW123660   1.160   0.635   6.627  0.6143  0.8970 -0.5854
 4067SOL    HW223661   1.173   0.634   6.783  1.6053 -0.4451 -0.5289
 4068SOL     OW23662   2.098   0.456   7.473 -0.1838 -0.1505 -0.1820
 4068SOL    HW123663   2.080   0.545   7.501 -0.1069  0.1884 -1.2348
 4068SOL    HW223664   2.032   0.406   7.521 -0.4482  1.3455  0.9991
 4069SOL     OW23665   0.300   0.501  12.671  0.4955 -0.1874 -0.0169
 4069SOL    HW123666   0.341   0.574  12.717 -1.7900  1.2809 -0.3262
 4069SOL    HW223667   0.325   0.436  12.737  1.3664  1.5091  1.3080
 4070SOL     OW23668   0.772   2.537   6.601 -0.7460  0.1555  0.5755
 4070SOL    HW123669   0.727   2.458   6.572 -0.4471  0.2895 -0.2343
 4070SOL    HW223670   0.704   2.569   6.662 -0.9061 -0.1365  0.5467
 4071SOL     OW23671   3.351   2.081   9.690  0.3971 -0.3539  0.2359
 4071SOL    HW123672   3.305   1.998   9.680 -1.2980  0.5753  0.3858
 4071SOL    HW223673   3.339   2.101   9.783  1.5280 -0.6530  0.4428
 4072SOL     OW23674   3.344   0.503   7.736  0.1156 -0.4983 -0.0881
 4072SOL    HW123675   3.269   0.446   7.717 -0.6450  0.2055  0.8692
 4072SOL    HW223676   3.415   0.441   7.753  0.8604 -0.0693 -1.6266
 4073SOL     OW23677   2.005   3.701   5.612 -0.0514 -0.0072  0.2094
 4073SOL    HW123678   1.936   3.767   5.608 -0.1099  0.0992  2.4675
 4073SOL    HW223679   2.076   3.758   5.640  1.5126 -0.9676 -1.8582
 4074SOL     OW23680   0.420   3.076   2.167  0.8041 -0.2550  0.0761
 4074SOL    HW123681   0.408   3.010   2.236  0.3505 -0.0829  0.1611
 4074SOL    HW223682   0.507   3.102   2.196  0.6110 -0.1694  0.5824
 4075SOL     OW23683   3.432   0.524   4.042  0.4473  0.0794 -0.3006
 4075SOL    HW123684   3.518   0.563   4.027 -0.0827  0.8254 -1.4370
 4075SOL    HW223685   3.404   0.491   3.957 -1.9249 -0.7138  0.7686
 4076SOL     OW23686   1.003   4.080   4.366  0.3299  0.2480  0.0049
 4076SOL    HW123687   0.927   4.069   4.423  0.0404  0.6358 -0.3088
 4076SOL    HW223688   0.977   4.077   4.274  0.7760  1.1154 -0.1551
 4077SOL     OW23689   3.126   0.460  11.174 -0.1172 -0.0376  0.1362
 4077SOL    HW123690   3.197   0.410  11.215 -0.0514 -0.1472 -0.1154
 4077SOL    HW223691   3.052   0.409  11.207  1.0139 -1.4129  0.5769
 4078SOL     OW23692   0.123   4.253   4.830  0.4966 -0.2528  0.0863
 4078SOL    HW123693   0.030   4.251   4.805 -0.3548 -1.2572  3.3009
 4078SOL    HW223694   0.108   4.246   4.924  0.1114 -0.4226  0.0166
 4079SOL     OW23695   2.449   2.375   3.074  0.5989 -0.1003 -0.4286
 4079SOL    HW123696   2.423   2.421   3.154 -1.4408  1.0384 -1.7424
 4079SOL    HW223697   2.522   2.326   3.110  1.5803  2.4566  1.1004
 4080SOL     OW23698   2.068   0.543   9.158  0.3874 -0.4955  0.0157
 4080SOL    HW123699   1.997   0.557   9.220 -1.4535 -3.7031 -1.3477
 4080SOL    HW223700   2.056   0.628   9.117  2.5368 -1.3275 -2.3112
 4081SOL     OW23701   2.148   4.144  16.587 -0.0452  0.3667 -0.3021
 4081SOL    HW123702   2.106   4.058  16.582  2.0606 -0.6062 -0.9563
 4081SOL    HW223703   2.231   4.117  16.625 -0.5556 -0.5180  0.1994
 4082SOL     OW23704   2.275   2.450   6.248  0.0040 -0.7484 -0.1226
 4082SOL    HW123705   2.189   2.490   6.260  0.2516 -0.7298  1.6516
 4082SOL    HW223706   2.333   2.489   6.313  0.4331  0.2232 -1.0963
 4083SOL     OW23707   1.880   0.725   6.207  0.1255 -0.3459  0.1110
 4083SOL    HW123708   1.907   0.815   6.191 -0.9754 -0.1876 -0.8243
 4083SOL    HW223709   1.966   0.691   6.233  0.0579 -1.4283 -1.1074
 4084SOL     OW23710   1.994   1.136   1.788 -0.0777  0.5800 -0.4592
 4084SOL    HW123711   2.037   1.158   1.870 -1.8252  0.1681  0.5487
 4084SOL    HW223712   1.901   1.136   1.810  0.3534  1.3413  1.3153
 4085SOL     OW23713   1.801   4.673   4.975  0.2777  0.0787  0.5862
 4085SOL    HW123714   1.807   4.619   4.896  1.0714  0.4223  0.4163
 4085SOL    HW223715   1.730   4.629   5.022  0.2406  1.2807  1.6375
 4086SOL     OW23716   0.612   2.956  12.909  0.0612 -0.1373  0.0870
 4086SOL    HW123717   0.692   2.912  12.879  0.5910  0.9584 -0.1036
 4086SOL    HW223718   0.546   2.892  12.882  1.2485 -0.4885 -1.9970
 4087SOL     OW23719   1.318   0.454   4.283 -0.1965  0.5106  0.4506
 4087SOL    HW123720   1.280   0.487   4.364  0.5022 -0.2606  1.0898
 4087SOL    HW223721   1.250   0.391   4.260  0.1891  0.3680 -0.2907
 4088SOL     OW23722   3.876   0.169   0.081 -0.1487 -0.2404 -0.1103
 4088SOL    HW123723   3.824   0.106   0.032  0.3344  0.0700 -1.0195
 4088SOL    HW223724   3.808   0.224   0.121 -1.4109 -1.4881 -0.5245
 4089SOL     OW23725   3.049   1.412  13.259  0.0996  0.1599 -0.3482
 4089SOL    HW123726   3.100   1.493  13.258 -0.5409  0.5587 -0.6151
 4089SOL    HW223727   3.095   1.339  13.218 -2.0112 -0.7464 -1.1176
 4090SOL     OW23728   0.269   0.802   2.275 -0.2753 -0.2348 -0.1364
 4090SOL    HW123729   0.348   0.794   2.222 -0.2998  0.5956 -0.2988
 4090SOL    HW223730   0.280   0.740   2.347 -1.8602 -0.0720  0.2587
 4091SOL     OW23731   4.562   2.385   7.578  0.5149  0.2565 -0.0069
 4091SOL    HW123732   4.606   2.305   7.547  1.7092  0.9992 -0.2081
 4091SOL    HW223733   4.487   2.369   7.520 -1.0954  3.6907  1.1729
 4092SOL     OW23734   0.249   2.399   7.974  0.1565 -0.3358 -0.4181
 4092SOL    HW123735   0.239   2.306   7.997 -0.6970 -0.7829 -2.5771
 4092SOL    HW223736   0.163   2.436   7.994  0.0228  0.6570 -2.7735
 4093SOL     OW23737   3.005   0.273   6.431 -0.0253 -0.3288  0.6864
 4093SOL    HW123738   3.021   0.320   6.350 -2.1274 -0.2608  0.2967
 4093SOL    HW223739   3.043   0.186   6.419  0.3669 -0.0397 -0.1118
 4094SOL     OW23740   0.463   1.578  15.034  0.4096  1.0695 -0.0234
 4094SOL    HW123741   0.450   1.650  14.972 -1.3439 -0.8123 -1.8468
 4094SOL    HW223742   0.510   1.517  14.976  1.0589  1.2850  0.2793
 4095SOL     OW23743   2.294   3.267  15.566  0.1807  0.0366 -0.0001
 4095SOL    HW123744   2.268   3.268  15.659  2.2917  1.4680  0.5670
 4095SOL    HW223745   2.384   3.297  15.575 -0.2454  2.2032 -3.2427
 4096SOL     OW23746   1.104   2.301  10.887 -0.0772  0.3525  0.3998
 4096SOL    HW123747   1.038   2.266  10.828 -1.9483  1.5465  1.7864
 4096SOL    HW223748   1.153   2.225  10.918  1.8878  2.0433  1.4236
 4097SOL     OW23749   3.278   3.381  13.523 -0.5410  0.8915  0.2597
 4097SOL    HW123750   3.288   3.351  13.613  0.3266  0.9327  0.1795
 4097SOL    HW223751   3.362   3.419  13.498 -0.3538  1.1653  1.3276
 4098SOL     OW23752   3.100   2.817  10.426 -0.0128  0.0725  0.0140
 4098SOL    HW123753   3.141   2.866  10.356  0.9659 -0.4700  0.2118
 4098SOL    HW223754   3.009   2.836  10.404 -0.5235 -0.9559  1.1923
 4099SOL     OW23755   4.114   0.469   8.664  0.0684  0.0635  0.3130
 4099SOL    HW123756   4.210   0.478   8.663  0.0112  0.1730 -3.6849
 4099SOL    HW223757   4.110   0.374   8.674 -0.9517 -0.1398 -2.1497
 4100SOL     OW23758   2.458   4.519  17.232  0.0394  0.3273 -0.2080
 4100SOL    HW123759   2.501   4.488  17.312 -0.8989 -0.6904 -0.0818
 4100SOL    HW223760   2.387   4.577  17.259 -0.3682 -1.1359  1.8432
 4101SOL     OW23761   1.892   0.551   4.742  0.2968 -0.1602 -0.0363
 4101SOL    HW123762   1.862   0.557   4.833 -0.1605 -1.4143 -0.1082
 4101SOL    HW223763   1.924   0.640   4.725  0.6056  0.0019  1.3517
 4102SOL     OW23764   3.092   1.621   5.020 -0.1275 -0.0503 -0.0502
 4102SOL    HW123765   3.111   1.692   5.081  1.5669 -0.7943  0.2928
 4102SOL    HW223766   3.122   1.672   4.945  2.1907 -1.6781 -0.2339
 4103SOL     OW23767   2.563   3.806   6.358 -0.0548  0.1913 -0.5333
 4103SOL    HW123768   2.569   3.856   6.440  1.8377 -0.5319 -0.2468
 4103SOL    HW223769   2.527   3.869   6.296 -2.9357  0.0623  0.9775
 4104SOL     OW23770   4.645   2.951  14.517  0.0079  0.1854  0.2049
 4104SOL    HW123771   0.000   2.898  14.529  1.0907  1.5805 -0.7857
 4104SOL    HW223772   4.630   2.925  14.426  1.7691  0.4100 -0.1409
 4105SOL     OW23773   3.282   1.115   8.801  0.3100  0.1456 -0.4110
 4105SOL    HW123774   3.287   1.043   8.864  0.4119  0.2431 -0.3078
 4105SOL    HW223775   3.356   1.160   8.842  0.9040 -1.6033  0.4741
 4106SOL     OW23776   1.528   2.205   8.134  0.0166 -0.4243  0.5667
 4106SOL    HW123777   1.508   2.142   8.203 -2.2149 -0.1713  0.1500
 4106SOL    HW223778   1.559   2.277   8.188  1.7103  0.7514 -1.9715
 4107SOL     OW23779   2.968   0.229   1.137  0.1742 -0.0162 -0.2817
 4107SOL    HW123780   3.035   0.254   1.072  0.0932 -0.7029 -0.6313
 4107SOL    HW223781   2.969   0.309   1.190 -1.6288 -0.8276  0.9434
 4108SOL     OW23782   0.912   2.322   9.132  0.7005 -0.3786 -0.3352
 4108SOL    HW123783   0.959   2.394   9.174  2.6805 -2.1841  0.5148
 4108SOL    HW223784   0.970   2.270   9.077  1.3471 -0.5837  0.5307
 4109SOL     OW23785   3.281   4.603   3.851  0.0614 -0.2364 -0.4424
 4109SOL    HW123786   3.319   4.690   3.861 -0.4491 -0.2351  1.5139
 4109SOL    HW223787   3.332   4.549   3.912 -0.2379  0.6577  0.5890
 4110SOL     OW23788   0.788   3.794   3.650  0.1361 -0.5186 -0.5132
 4110SOL    HW123789   0.838   3.868   3.618 -0.3528  0.3531  0.7159
 4110SOL    HW223790   0.699   3.831   3.651 -0.4473 -1.8934 -0.4577
 4111SOL     OW23791   0.768   1.382  16.939 -0.4151 -0.0032  0.0030
 4111SOL    HW123792   0.760   1.438  16.862  0.8145  0.6198  0.3284
 4111SOL    HW223793   0.716   1.440  16.996 -0.2128  0.5810 -0.4054
 4112SOL     OW23794   3.546   1.070   1.806 -0.5809  0.0182  0.1867
 4112SOL    HW123795   3.595   1.035   1.731 -0.4196  1.9274 -0.6032
 4112SOL    HW223796   3.593   1.152   1.820 -0.6159  0.0297  0.2343
 4113SOL     OW23797   3.731   2.210   4.092 -0.1488  0.5850 -0.1189
 4113SOL    HW123798   3.779   2.233   4.012  1.6831  1.8731  1.3405
 4113SOL    HW223799   3.712   2.118   4.075  0.4207  0.2378  1.0779
 4114SOL     OW23800   1.974   3.944   2.742 -0.0214 -0.0220  0.2459
 4114SOL    HW123801   1.933   4.025   2.773  1.0986  0.7860 -0.4366
 4114SOL    HW223802   1.947   3.938   2.651  1.4098 -2.9503 -0.0015
 4115SOL     OW23803   0.187   4.271   1.404  0.6182 -0.2865 -0.1939
 4115SOL    HW123804   0.188   4.365   1.423  0.3959 -0.5060  0.8983
 4115SOL    HW223805   0.232   4.248   1.486 -1.3171 -1.6088  0.4946
 4116SOL     OW23806   2.049   2.631   8.171  0.0406  0.4150  0.5861
 4116SOL    HW123807   2.100   2.706   8.141 -1.3624  1.6988  1.4771
 4116SOL    HW223808   1.966   2.671   8.195 -0.3225  1.2182 -2.0290
 4117SOL     OW23809   4.154   4.104   1.242  0.4711  0.2209 -0.2352
 4117SOL    HW123810   4.216   4.176   1.227  1.8636 -1.3065 -1.8287
 4117SOL    HW223811   4.196   4.069   1.321 -0.2818 -0.5583 -0.1822
 4118SOL     OW23812   2.017   0.394  13.565 -0.2024  0.2111 -0.2137
 4118SOL    HW123813   1.987   0.305  13.582  0.7740 -0.2726 -1.0191
 4118SOL    HW223814   2.112   0.381  13.568 -0.1364  0.6153 -0.7030
 4119SOL     OW23815   2.548   1.828   3.284 -0.2774  0.3713  0.0490
 4119SOL    HW123816   2.632   1.820   3.329 -1.6888 -1.1511  2.4197
 4119SOL    HW223817   2.539   1.920   3.309 -0.5668  0.2115  0.5563
 4120SOL     OW23818   0.179   4.415  16.482  0.3355 -0.4782  0.0342
 4120SOL    HW123819   0.089   4.390  16.461 -0.4203  1.4894  0.9408
 4120SOL    HW223820   0.172   4.482  16.550 -0.3368 -0.9813  0.4698
 4121SOL     OW23821   0.827   0.659   7.677 -0.1484  0.0915 -0.1284
 4121SOL    HW123822   0.891   0.728   7.698  0.8161  0.0047 -2.7772
 4121SOL    HW223823   0.842   0.648   7.584 -1.7610 -1.6308 -0.1734
 4122SOL     OW23824   1.970   0.088   0.379 -0.0205 -0.0161 -0.2384
 4122SOL    HW123825   1.892   0.141   0.366  1.1565  2.1335  1.4788
 4122SOL    HW223826   1.925   0.014   0.419  0.4450 -0.4557 -0.5219
 4123SOL     OW23827   4.506   1.595  12.099  0.3854 -0.8433  0.2774
 4123SOL    HW123828   4.502   1.595  12.003  1.0648 -0.6995  0.2514
 4123SOL    HW223829   4.471   1.683  12.115  3.2554 -0.4427  4.2339
 4124SOL     OW23830   4.302   2.556   9.052 -0.5506  0.2584  0.9003
 4124SOL    HW123831   4.350   2.473   9.044  2.1041  1.8543  0.1979
 4124SOL    HW223832   4.280   2.580   8.962  1.1118 -1.4001  0.0483
 4125SOL     OW23833   0.761   1.088  15.496 -0.6631 -0.3215  0.0320
 4125SOL    HW123834   0.812   1.162  15.531 -0.0705  0.2080 -1.9888
 4125SOL    HW223835   0.735   1.124  15.412  1.4131 -0.2116 -0.5640
 4126SOL     OW23836   0.776   3.033   3.212 -0.0196  0.0337  0.3241
 4126SOL    HW123837   0.704   2.970   3.220 -1.1211  1.6776  3.3748
 4126SOL    HW223838   0.755   3.102   3.274 -0.7646 -0.4076  0.5697
 4127SOL     OW23839   0.436   4.315   5.546 -0.6574  0.0494 -0.2305
 4127SOL    HW123840   0.450   4.359   5.630  0.0105 -0.1632 -0.2338
 4127SOL    HW223841   0.343   4.294   5.553 -0.8515  0.3187 -2.1668
 4128SOL     OW23842   4.162   4.229   9.781 -1.0543  0.3458  0.3113
 4128SOL    HW123843   4.139   4.159   9.843  1.5146 -1.4176 -0.7323
 4128SOL    HW223844   4.229   4.182   9.732  0.1838  0.6810  1.7022
 4129SOL     OW23845   3.327   0.129   4.607 -0.4861 -0.0373  0.7141
 4129SOL    HW123846   3.384   0.179   4.550  1.0124 -2.8717 -0.2646
 4129SOL    HW223847   3.242   0.165   4.584 -0.0857 -2.0633 -3.8170
 4130SOL     OW23848   0.958   4.710  17.493 -0.2286  0.4600  0.2930
 4130SOL    HW123849   0.997   0.068  17.526 -1.7690  2.0448 -1.8772
 4130SOL    HW223850   0.998   4.711  17.406 -1.5212 -0.0784 -0.3078
 4131SOL     OW23851   2.254   0.616   4.893  0.7364  0.2281 -0.3988
 4131SOL    HW123852   2.343   0.609   4.858  0.2243 -0.5891 -1.5453
 4131SOL    HW223853   2.205   0.595   4.813  1.0763 -0.0633 -0.5291
 4132SOL     OW23854   2.616   2.054   0.917  0.6156 -0.3560  0.4916
 4132SOL    HW123855   2.590   2.109   0.991 -0.2783 -0.4980  0.2880
 4132SOL    HW223856   2.667   2.121   0.872 -1.9941  0.8718 -0.6876
 4133SOL     OW23857   4.076   0.761   6.373 -0.3066  0.2783  0.0230
 4133SOL    HW123858   4.038   0.834   6.423 -0.1003  0.1443  0.3783
 4133SOL    HW223859   4.023   0.768   6.294  0.1686 -0.1633 -0.3305
 4134SOL     OW23860   1.735   1.746   4.557 -0.1916  0.0489  0.0162
 4134SOL    HW123861   1.735   1.841   4.550 -0.7533  0.1547  1.2934
 4134SOL    HW223862   1.803   1.719   4.496 -1.7884 -0.3569 -1.5667
 4135SOL     OW23863   0.838   2.552   8.911  0.3927  0.2435  0.6849
 4135SOL    HW123864   0.811   2.526   9.000 -0.0201  0.4058  0.6049
 4135SOL    HW223865   0.926   2.585   8.929  0.3450  0.9052 -0.3401
 4136SOL     OW23866   2.548   0.722   2.000  0.0367 -0.4310  0.6200
 4136SOL    HW123867   2.610   0.756   2.064  0.3483 -1.5618  0.9173
 4136SOL    HW223868   2.608   0.697   1.930  1.6172  0.6692  1.5803
 4137SOL     OW23869   2.303   2.731  13.682 -0.4800 -0.5019  0.3921
 4137SOL    HW123870   2.317   2.777  13.764  1.8119  0.0800 -0.2973
 4137SOL    HW223871   2.366   2.659  13.695 -0.8201 -0.4786  2.0583
 4138SOL     OW23872   2.880   2.159   5.198 -0.0951 -0.4344 -0.3477
 4138SOL    HW123873   2.905   2.237   5.247  1.6699 -1.0261 -0.3201
 4138SOL    HW223874   2.963   2.132   5.159  0.9163  0.3441  1.2832
 4139SOL     OW23875   1.287   0.489   0.849  0.2695 -0.4398 -0.1490
 4139SOL    HW123876   1.307   0.419   0.787  3.1283 -1.8107  2.3231
 4139SOL    HW223877   1.219   0.535   0.799 -0.7006 -0.0357  1.5138
 4140SOL     OW23878   3.896   4.707   0.638 -0.3417 -0.0728 -0.4777
 4140SOL    HW123879   3.816   0.015   0.594  0.9387  0.6358 -2.2980
 4140SOL    HW223880   3.932   0.071   0.654 -1.3283 -0.4463  3.6842
 4141SOL     OW23881   1.443   4.041  15.444  0.9721  0.4627  0.3923
 4141SOL    HW123882   1.480   3.986  15.375  2.0168  1.9161 -0.2110
 4141SOL    HW223883   1.478   3.993  15.520  0.5993 -3.7409 -2.0884
 4142SOL     OW23884   1.819   3.326   6.740 -0.0445 -0.1791 -0.0146
 4142SOL    HW123885   1.790   3.414   6.717  0.7499  0.2603  0.6307
 4142SOL    HW223886   1.827   3.318   6.835 -0.5579  0.6383  0.0990
 4143SOL     OW23887   1.471   0.708   8.006  0.7335  0.5834  0.6033
 4143SOL    HW123888   1.502   0.797   8.025 -1.0398  1.4598 -0.6409
 4143SOL    HW223889   1.532   0.662   8.065 -0.0218  0.4527  1.2833
 4144SOL     OW23890   4.485   1.755  16.065  0.3259 -0.5561 -0.4451
 4144SOL    HW123891   4.415   1.736  16.002 -0.2221  0.4446 -0.1344
 4144SOL    HW223892   4.564   1.717  16.026  1.2180  1.8792 -1.0264
 4145SOL     OW23893   2.928   0.095   2.789  0.0503  0.1862  0.3487
 4145SOL    HW123894   3.013   0.109   2.830  0.0971 -2.9341  1.2900
 4145SOL    HW223895   2.874   0.111   2.866 -1.4584 -0.1475 -0.6388
 4146SOL     OW23896   2.891   3.599   9.433 -0.3369  0.9499 -0.6075
 4146SOL    HW123897   2.927   3.553   9.357 -0.4310  0.4512 -0.3531
 4146SOL    HW223898   2.878   3.525   9.493  0.9678  0.7418 -0.5706
 4147SOL     OW23899   1.816   2.255  10.968  0.0182 -0.0451  0.1983
 4147SOL    HW123900   1.880   2.193  10.934 -1.3051 -0.9427 -0.6724
 4147SOL    HW223901   1.796   2.207  11.049 -0.1558  1.1838  0.8828
 4148SOL     OW23902   3.393   4.293   5.473 -0.0218  0.0188 -0.2822
 4148SOL    HW123903   3.310   4.311   5.518  0.8640  2.2829  0.4290
 4148SOL    HW223904   3.395   4.198   5.458  0.3268 -0.1012  0.5056
 4149SOL     OW23905   2.877   0.185   7.647 -0.1482  0.0276 -0.2824
 4149SOL    HW123906   2.828   0.212   7.725  0.9465  0.9149  0.0895
 4149SOL    HW223907   2.934   0.118   7.685  2.7508  1.9340 -1.3107
 4150SOL     OW23908   3.326   0.743   3.466 -0.0389  0.1322 -0.2274
 4150SOL    HW123909   3.235   0.772   3.458  0.7655  2.7233  0.1492
 4150SOL    HW223910   3.310   0.650   3.446 -0.5365 -0.1706  1.5123
 4151SOL     OW23911   2.815   0.659   3.526 -0.6272 -0.0847  0.5842
 4151SOL    HW123912   2.792   0.734   3.580 -1.4198  0.6188 -0.7467
 4151SOL    HW223913   2.856   0.692   3.446 -1.2413  0.4795  0.5029
 4152SOL     OW23914   4.591   3.667  11.488  0.7199 -0.3995  0.9297
 4152SOL    HW123915   4.643   3.715  11.553  0.5332  1.8647 -0.5536
 4152SOL    HW223916   4.549   3.736  11.436  1.5613 -0.9062 -0.4354
 4153SOL     OW23917   2.728   3.891   4.094 -0.0821  0.1892 -0.0538
 4153SOL    HW123918   2.707   3.936   4.013  0.9017  1.6313  0.5062
 4153SOL    HW223919   2.783   3.819   4.063 -0.9958 -0.4595 -0.1934
 4154SOL     OW23920   3.571   4.334  15.665 -0.5771 -0.5840 -0.3231
 4154SOL    HW123921   3.525   4.271  15.609 -0.4831 -0.3672 -0.6449
 4154SOL    HW223922   3.569   4.299  15.754  1.6407  0.7141  0.2355
 4155SOL     OW23923   1.642   2.317  10.628  0.3447  0.0800 -0.4068
 4155SOL    HW123924   1.592   2.333  10.707  1.6533  0.0772  0.4137
 4155SOL    HW223925   1.587   2.362  10.564  1.1386  0.6520 -0.6840
 4156SOL     OW23926   2.750   3.378   7.920 -0.0349 -0.4540 -0.6507
 4156SOL    HW123927   2.784   3.289   7.931  0.3077 -0.3297 -0.6858
 4156SOL    HW223928   2.683   3.369   7.853 -2.2091 -1.7576  1.7027
 4157SOL     OW23929   0.453   1.267   7.702 -0.2874  0.8528  0.2290
 4157SOL    HW123930   0.501   1.187   7.724 -1.8906 -0.1067  0.2396
 4157SOL    HW223931   0.520   1.323   7.741 -0.7168  1.6085 -0.1074
 4158SOL     OW23932   1.630   0.940   0.645 -0.0048 -0.2013  0.2957
 4158SOL    HW123933   1.593   0.863   0.689  0.6543 -0.3638  0.5728
 4158SOL    HW223934   1.555   0.998   0.639 -0.3524 -0.8513 -1.7795
 4159SOL     OW23935   0.992   2.882   3.341  0.4918  0.0115 -0.1214
 4159SOL    HW123936   1.020   2.871   3.250  2.6413  2.7779  0.2033
 4159SOL    HW223937   0.917   2.939   3.320  0.4534 -0.2655 -0.7207
 4160SOL     OW23938   0.337   1.547   8.066  0.4144  0.0942 -0.5257
 4160SOL    HW123939   0.365   1.589   7.985  0.6612 -0.4822 -0.7379
 4160SOL    HW223940   0.426   1.525   8.094 -0.4269 -0.1347  1.9283
 4161SOL     OW23941   2.765   0.009   3.029  0.3661  0.1611 -0.1027
 4161SOL    HW123942   2.796   4.646   3.003  0.7083 -0.1782  1.4032
 4161SOL    HW223943   2.777   0.005   3.124 -1.7321  1.5784  0.2047
 4162SOL     OW23944   0.871   4.056   2.907 -0.4102 -0.1464 -0.2982
 4162SOL    HW123945   0.909   4.022   2.988 -2.4172  0.8937  1.0533
 4162SOL    HW223946   0.898   4.148   2.905 -0.6671 -0.0467  1.4246
 4163SOL     OW23947   2.517   1.388   6.372 -0.5755  0.0307  0.7864
 4163SOL    HW123948   2.473   1.363   6.453 -1.0807 -1.0488  0.1728
 4163SOL    HW223949   2.582   1.453   6.398 -1.2819  0.7917  0.6446
 4164SOL     OW23950   0.040   1.550   2.760 -0.1400 -0.4419  0.2323
 4164SOL    HW123951   4.695   1.483   2.763 -0.1122 -0.5093 -0.6797
 4164SOL    HW223952   4.722   1.625   2.803 -1.1863  0.2619 -1.9864
 4165SOL     OW23953   1.536   3.072  13.248 -0.0066  0.0248  0.3359
 4165SOL    HW123954   1.446   3.082  13.216  0.8379  3.4498 -1.0229
 4165SOL    HW223955   1.572   3.004  13.192  2.4291  1.9875 -0.4772
 4166SOL     OW23956   1.440   2.734   9.240  0.1282 -0.2867 -0.5140
 4166SOL    HW123957   1.375   2.680   9.284 -2.8824  4.3472  0.7049
 4166SOL    HW223958   1.432   2.810   9.298  0.8475 -0.8350  0.2958
 4167SOL     OW23959   3.754   2.320   1.938 -0.0540 -0.8038 -0.0634
 4167SOL    HW123960   3.722   2.376   1.867 -2.4225 -3.0197 -0.7433
 4167SOL    HW223961   3.763   2.396   1.995 -3.0832 -1.0599  0.7342
 4168SOL     OW23962   3.766   0.683   6.622  0.4742  0.5909  0.1818
 4168SOL    HW123963   3.729   0.624   6.688  1.5928  0.0361  0.3162
 4168SOL    HW223964   3.853   0.682   6.662  0.8512 -2.2114 -0.6764
 4169SOL     OW23965   2.642   0.114   9.675 -0.3560  0.0664  0.0118
 4169SOL    HW123966   2.719   0.063   9.648 -0.9931 -2.7306  3.4084
 4169SOL    HW223967   2.632   0.165   9.595  0.6442  0.0862 -0.0948
 4170SOL     OW23968   0.503   1.477   4.310 -0.7537 -0.1940 -0.0779
 4170SOL    HW123969   0.552   1.499   4.388 -1.2365 -2.1759  0.7947
 4170SOL    HW223970   0.564   1.494   4.238 -1.7775 -1.5554 -1.2782
 4171SOL     OW23971   0.514   4.419  13.818 -0.6675  0.1278 -0.2965
 4171SOL    HW123972   0.607   4.437  13.807 -0.2748  0.1356  3.0525
 4171SOL    HW223973   0.515   4.417  13.914  1.4860 -1.9062 -0.3544
 4172SOL     OW23974   1.242   4.222   2.133  0.2917  0.0404  0.5896
 4172SOL    HW123975   1.208   4.157   2.072  0.6065 -0.3577  0.8342
 4172SOL    HW223976   1.323   4.248   2.089 -0.0874 -1.3051 -0.8975
 4173SOL     OW23977   0.203   0.798   6.156 -0.0400 -0.0106  0.2890
 4173SOL    HW123978   0.171   0.747   6.082 -1.1285 -0.0896  0.8165
 4173SOL    HW223979   0.282   0.750   6.178  0.0650 -0.0322 -0.1469
 4174SOL     OW23980   2.508   1.380   9.488  0.1459  0.0877 -0.4957
 4174SOL    HW123981   2.496   1.324   9.565 -0.3034 -1.3621 -1.6387
 4174SOL    HW223982   2.417   1.386   9.460  0.3608  2.7988 -0.6234
 4175SOL     OW23983   0.578   3.514   9.344  0.2955 -0.5597 -0.1603
 4175SOL    HW123984   0.502   3.555   9.386  1.6144  2.1621 -0.4371
 4175SOL    HW223985   0.570   3.532   9.250  2.2397 -0.7983 -0.3729
 4176SOL     OW23986   1.535   3.534   3.165  0.3880  0.0482  0.0279
 4176SOL    HW123987   1.607   3.559   3.222 -0.9243 -0.3781  1.8491
 4176SOL    HW223988   1.469   3.582   3.216 -0.4584 -0.6516 -0.4016
 4177SOL     OW23989   1.286   1.504   6.602 -0.3923  0.1464  0.1257
 4177SOL    HW123990   1.348   1.573   6.626  1.0098 -0.9765 -0.2759
 4177SOL    HW223991   1.218   1.564   6.570 -0.8239  1.4564  3.4273
 4178SOL     OW23992   0.680   1.488  10.071 -0.3526 -0.7736 -0.3177
 4178SOL    HW123993   0.769   1.451  10.074 -0.5943 -1.2966  0.6145
 4178SOL    HW223994   0.644   1.446  10.150  0.5465 -1.7524 -0.4192
 4179SOL     OW23995   3.585   0.380  10.699 -0.6901 -0.4069 -0.4089
 4179SOL    HW123996   3.545   0.418  10.777 -1.0093 -1.8749  0.1234
 4179SOL    HW223997   3.656   0.327  10.735 -2.3649 -0.7263  2.4248
 4180SOL     OW23998   3.584   2.064  17.583  0.8742  0.1306  0.1870
 4180SOL    HW123999   3.633   2.146  17.578 -1.3183  1.5497  2.1524
 4180SOL    HW224000   3.499   2.100  17.609  0.5576 -0.0956 -0.5179
 4181SOL     OW24001   0.058   0.385   5.736 -0.5992 -0.1168  0.1193
 4181SOL    HW124002   4.706   0.412   5.683 -0.6908 -0.4943  0.0566
 4181SOL    HW224003   0.015   0.352   5.815  1.8545  0.8759  1.8647
 4182SOL     OW24004   4.025   0.736   4.486  0.1643 -0.0964  0.0338
 4182SOL    HW124005   4.048   0.652   4.446 -0.8360  0.0764 -0.8857
 4182SOL    HW224006   4.103   0.784   4.462 -0.4648  1.0623  0.3147
 4183SOL     OW24007   2.653   1.976  13.060  0.5115  0.4715  0.2974
 4183SOL    HW124008   2.589   1.911  13.087  0.5280  0.9276  1.4477
 4183SOL    HW224009   2.611   2.032  12.995  2.2921  0.8362 -0.5507
 4184SOL     OW24010   2.522   3.809  12.674  0.2679 -0.4870 -0.3256
 4184SOL    HW124011   2.616   3.826  12.665 -0.1388  1.6302 -0.3486
 4184SOL    HW224012   2.504   3.844  12.762 -1.3978  0.7378 -1.1522
 4185SOL     OW24013   1.019   1.720   8.274  0.3457 -0.1628  0.7782
 4185SOL    HW124014   1.071   1.659   8.326 -0.6210 -0.1078  1.7959
 4185SOL    HW224015   1.011   1.660   8.199  1.1235 -3.1187  3.0548
 4186SOL     OW24016   3.261   4.025   6.396  0.1141 -0.1557 -0.5812
 4186SOL    HW124017   3.295   4.029   6.485 -0.6892  2.1903 -0.3640
 4186SOL    HW224018   3.272   3.938   6.358  0.6347  0.1009 -1.0342
 4187SOL     OW24019   3.357   2.335   6.816  0.1434 -0.5507  0.1665
 4187SOL    HW124020   3.378   2.428   6.811  2.4638 -1.0588  0.5268
 4187SOL    HW224021   3.270   2.347   6.853 -0.9994  0.0531 -2.7215
 4188SOL     OW24022   3.874   1.340   7.729  0.5587 -0.1555  0.4386
 4188SOL    HW124023   3.819   1.418   7.728  0.9528  0.1316  1.7269
 4188SOL    HW224024   3.908   1.340   7.819 -1.0665 -1.2831  1.0706
 4189SOL     OW24025   2.213   0.712   0.330  0.3479  0.4182 -0.4158
 4189SOL    HW124026   2.242   0.659   0.404 -1.8582  1.9424  1.5635
 4189SOL    HW224027   2.186   0.796   0.367  1.8553  0.4711  0.5543
 4190SOL     OW24028   2.803   0.747   5.468 -0.7359  0.1636 -0.8882
 4190SOL    HW124029   2.760   0.670   5.504 -0.2315 -0.0903 -0.8328
 4190SOL    HW224030   2.832   0.784   5.552  0.7602  0.4017 -1.5153
 4191SOL     OW24031   3.323   1.501   3.716 -0.3728  0.0585  0.2970
 4191SOL    HW124032   3.340   1.550   3.797 -0.8521 -1.1345  1.1275
 4191SOL    HW224033   3.413   1.472   3.700 -0.2027  1.2949 -0.9377
 4192SOL     OW24034   4.717   0.404   6.885  0.1626  0.3648 -0.7755
 4192SOL    HW124035   4.692   0.417   6.977 -1.4025 -0.0961 -1.1337
 4192SOL    HW224036   0.041   0.322   6.899 -0.7066 -0.5826 -3.3784
 4193SOL     OW24037   3.650   4.006  16.470  0.0416 -0.6823 -0.0727
 4193SOL    HW124038   3.621   3.929  16.518 -0.4503 -0.5613 -0.1795
 4193SOL    HW224039   3.674   3.965  16.386 -1.9375 -1.3231 -0.3167
 4194SOL     OW24040   1.137   4.398   2.356 -0.0474  0.2914 -1.0301
 4194SOL    HW124041   1.116   4.490   2.372 -1.9970 -0.1911 -0.7565
 4194SOL    HW224042   1.228   4.401   2.327  1.3940 -1.0778  3.2126
 4195SOL     OW24043   2.459   2.838  16.163 -0.7701 -0.4173 -0.1258
 4195SOL    HW124044   2.510   2.840  16.245  0.9583 -1.1144 -1.1803
 4195SOL    HW224045   2.502   2.768  16.113  0.8060  1.2877 -1.1737
 4196SOL     OW24046   1.318   2.015   4.462 -0.3337  0.2563  0.1181
 4196SOL    HW124047   1.263   1.964   4.403  0.6991  0.7374 -1.2675
 4196SOL    HW224048   1.311   2.108   4.441 -2.5023 -0.3670 -1.9660
 4197SOL     OW24049   0.538   4.094   1.673  0.2996  0.3068  0.1204
 4197SOL    HW124050   0.549   4.061   1.583  2.2912  0.4462  0.3058
 4197SOL    HW224051   0.620   4.135   1.700  0.7658  1.5310 -3.1481
 4198SOL     OW24052   4.516   2.442   4.402 -0.1938  0.2461 -0.2663
 4198SOL    HW124053   4.564   2.505   4.455  0.8472 -1.4456  0.8124
 4198SOL    HW224054   4.589   2.386   4.375 -1.0131 -0.4069 -1.1222
 4199SOL     OW24055   1.327   0.731   2.250  0.0998 -0.2108  0.1753
 4199SOL    HW124056   1.370   0.660   2.298  0.1486  0.0514  0.5195
 4199SOL    HW224057   1.289   0.786   2.318  2.2254  0.6533  0.6529
 4200SOL     OW24058   0.248   0.555   9.551 -0.5274  0.2883  0.1826
 4200SOL    HW124059   0.256   0.630   9.611  2.4980  0.7416 -0.7883
 4200SOL    HW224060   0.194   0.589   9.480  1.5545  1.6754 -0.7307
 4201SOL     OW24061   2.992   0.145   5.203  0.2270 -0.7590  0.5104
 4201SOL    HW124062   3.078   0.130   5.243  1.1617 -0.5753 -1.4082
 4201SOL    HW224063   2.978   0.069   5.147 -1.3842 -0.3436  0.3490
 4202SOL     OW24064   3.465   0.613   5.927  0.0650  0.3736 -0.2505
 4202SOL    HW124065   3.492   0.523   5.950 -3.5409 -0.1809  1.8090
 4202SOL    HW224066   3.524   0.663   5.984 -0.0071 -1.4382  1.4482
 4203SOL     OW24067   2.662   1.135  10.709 -0.1852 -0.2205 -0.3493
 4203SOL    HW124068   2.680   1.229  10.714 -0.4794 -0.3403  2.8467
 4203SOL    HW224069   2.572   1.142  10.742 -0.4031 -0.0396 -0.9685
 4204SOL     OW24070   2.909   0.281  13.104 -0.0043 -0.7697  0.6633
 4204SOL    HW124071   2.858   0.253  13.181 -0.8555 -1.6409 -0.2186
 4204SOL    HW224072   2.939   0.198  13.067  0.0802  0.4116 -1.8601
 4205SOL     OW24073   2.521   4.039   4.502  0.2752  0.6436  0.6167
 4205SOL    HW124074   2.509   3.949   4.532  2.5219  0.6681  1.5582
 4205SOL    HW224075   2.462   4.096   4.551  0.8063  0.9380  0.9119
 4206SOL     OW24076   2.182   4.092  11.620  0.0322  0.2848  0.1772
 4206SOL    HW124077   2.156   4.172  11.576  0.2670  0.2250 -0.0683
 4206SOL    HW224078   2.274   4.106  11.644  0.1980 -0.5706  0.0560
 4207SOL     OW24079   3.494   4.173  11.217  0.3687 -0.1252 -0.1628
 4207SOL    HW124080   3.532   4.089  11.240 -0.4685 -1.2724 -3.0444
 4207SOL    HW224081   3.556   4.222  11.163  0.5431  0.2346  0.3588
 4208SOL     OW24082   1.989   3.112  11.238  0.1412 -0.5358  0.3866
 4208SOL    HW124083   2.082   3.091  11.251  0.3137  1.0860  1.7699
 4208SOL    HW224084   1.951   3.036  11.281 -0.9024 -1.2038 -1.7568
 4209SOL     OW24085   0.773   0.211   7.827  0.0674 -0.3560 -0.5994
 4209SOL    HW124086   0.797   0.278   7.892 -1.2218  0.9019 -1.4163
 4209SOL    HW224087   0.707   0.257   7.775  0.5307  1.5623  0.4742
 4210SOL     OW24088   2.069   4.572   4.175  0.1279  0.0208 -0.2771
 4210SOL    HW124089   2.133   4.606   4.237  0.3283 -0.3355 -0.2852
 4210SOL    HW224090   2.088   4.628   4.100  1.3428  0.8251  0.6383
 4211SOL     OW24091   3.325   2.307  11.685  0.0307  0.4690  0.1551
 4211SOL    HW124092   3.328   2.268  11.772  1.5161  1.5842  0.6019
 4211SOL    HW224093   3.419   2.323  11.677 -0.3183  2.0205 -0.9405
 4212SOL     OW24094   1.231   1.447   6.856 -0.3808 -0.2640 -0.1505
 4212SOL    HW124095   1.257   1.532   6.892 -0.3606 -0.7540  0.9937
 4212SOL    HW224096   1.243   1.463   6.763  0.5468 -3.8510 -0.6461
 4213SOL     OW24097   1.978   1.881   4.303 -0.7126  0.4545  0.1022
 4213SOL    HW124098   1.925   1.802   4.311  0.7000 -0.6058 -1.0091
 4213SOL    HW224099   2.037   1.865   4.229 -1.3048 -1.5522  0.0578
 4214SOL     OW24100   1.815   2.324   7.092 -0.5040  0.1877  0.2170
 4214SOL    HW124101   1.871   2.287   7.160  0.8941  2.1489  0.1281
 4214SOL    HW224102   1.809   2.416   7.117  1.1235  0.3823 -0.1234
 4215SOL     OW24103   0.941   4.192   1.468  0.2519  0.2346  0.2588
 4215SOL    HW124104   0.975   4.226   1.385  0.1467 -2.2852 -0.8194
 4215SOL    HW224105   0.980   4.259   1.523 -1.5555  0.3443  1.3982
 4216SOL     OW24106   0.147   4.061   6.658  0.3874 -0.1511 -1.1574
 4216SOL    HW124107   0.082   4.061   6.728  1.9709  1.2987  0.3054
 4216SOL    HW224108   0.187   3.974   6.655 -1.3488 -0.9311 -1.4073
 4217SOL     OW24109   4.107   1.463   8.399  0.4273  0.1337  0.0055
 4217SOL    HW124110   4.078   1.461   8.490  3.0781  0.7317  0.8470
 4217SOL    HW224111   4.158   1.382   8.394  1.1987  0.4978  2.3419
 4218SOL     OW24112   0.481   1.226   7.097 -0.7185 -0.0846 -0.2630
 4218SOL    HW124113   0.394   1.258   7.071 -0.2879  1.9583  0.8132
 4218SOL    HW224114   0.486   1.234   7.192  1.4099 -1.1345 -0.2913
 4219SOL     OW24115   0.960   3.939  11.120 -0.4330 -0.7610  0.4185
 4219SOL    HW124116   0.940   3.942  11.213  0.0119  0.1058  0.4805
 4219SOL    HW224117   1.002   4.023  11.101  0.3428 -1.0143  0.9998
 4220SOL     OW24118   3.728   0.801  11.184  0.2605  0.0205  0.2137
 4220SOL    HW124119   3.718   0.706  11.182  1.9208 -0.1138 -2.5991
 4220SOL    HW224120   3.713   0.819  11.091  0.2198 -0.9568  0.0262
 4221SOL     OW24121   2.497   1.195  10.429  0.2620 -0.2603 -0.1828
 4221SOL    HW124122   2.535   1.212  10.515  0.1072  0.4067 -0.2433
 4221SOL    HW224123   2.574   1.182  10.373 -0.6436 -1.9981 -1.0309
 4222SOL     OW24124   1.192   3.202  14.225 -0.0768  0.8272 -0.2802
 4222SOL    HW124125   1.168   3.116  14.191 -0.5761  1.2593 -1.0221
 4222SOL    HW224126   1.283   3.210  14.195  0.4119 -0.8623  0.7577
 4223SOL     OW24127   0.019   2.601  16.785  0.1476  0.5248 -0.1486
 4223SOL    HW124128   4.679   2.534  16.811  2.0394 -1.2816 -0.2496
 4223SOL    HW224129   0.057   2.610  16.873 -1.6128  1.7306  0.4867
 4224SOL     OW24130   0.242   4.602   0.437 -0.1519  0.2303  0.3060
 4224SOL    HW124131   0.223   4.563   0.522  0.5738 -0.0667  0.3346
 4224SOL    HW224132   0.338   4.608   0.438 -0.1115 -0.1779 -1.6778
 4225SOL     OW24133   3.694   4.443   8.268 -0.4360  0.7394  0.0058
 4225SOL    HW124134   3.748   4.364   8.274 -2.5120 -0.5921  1.1622
 4225SOL    HW224135   3.668   4.450   8.360  1.6796  0.5010  0.6190
 4226SOL     OW24136   1.723   0.923   3.814  0.2898 -0.0084 -0.0782
 4226SOL    HW124137   1.741   0.962   3.729 -0.8176  0.4805 -0.0913
 4226SOL    HW224138   1.641   0.878   3.793  0.9263 -1.3789  0.3411
 4227SOL     OW24139   2.107   4.637   6.095  0.1731  0.6833 -0.4583
 4227SOL    HW124140   2.061   4.698   6.037 -1.3052 -0.6385 -0.6646
 4227SOL    HW224141   2.093   4.554   6.050 -2.1271  0.2896  0.9935
 4228SOL     OW24142   3.767   2.918   2.629 -0.2772  0.1909 -0.0870
 4228SOL    HW124143   3.836   2.936   2.565 -0.2246  0.3563  0.0156
 4228SOL    HW224144   3.724   2.846   2.583 -0.1009 -0.3314  0.5669
 4229SOL     OW24145   0.961   3.990   3.157 -0.1257  0.2222  0.5302
 4229SOL    HW124146   1.021   4.046   3.207 -1.9551  0.6056  2.3213
 4229SOL    HW224147   0.884   3.983   3.213  2.2135 -0.9720  3.5781
 4230SOL     OW24148   3.617   4.415   0.600 -0.0091 -0.0955  0.0799
 4230SOL    HW124149   3.631   4.436   0.692 -1.3748  3.6038 -0.5339
 4230SOL    HW224150   3.534   4.462   0.598  0.5583  0.8965 -0.6835
 4231SOL     OW24151   1.103   1.061   4.449  0.2148 -0.3939  0.0574
 4231SOL    HW124152   1.021   1.032   4.410  0.3877 -0.0583 -0.5548
 4231SOL    HW224153   1.138   0.991   4.504 -3.7634 -0.4528  2.5295
 4232SOL     OW24154   3.757   2.814   7.706  0.6343 -0.0310  0.5502
 4232SOL    HW124155   3.814   2.821   7.630  0.9734 -1.2094  0.6939
 4232SOL    HW224156   3.770   2.893   7.758  0.0986  0.7679 -0.5588
 4233SOL     OW24157   0.820   2.498  13.071 -0.3815 -0.0174 -0.1746
 4233SOL    HW124158   0.755   2.553  13.114 -1.1818 -0.5293 -0.7298
 4233SOL    HW224159   0.817   2.411  13.112 -1.9427  0.2448  0.2568
 4234SOL     OW24160   1.694   0.540   9.118  0.3787  0.2464  0.3160
 4234SOL    HW124161   1.659   0.472   9.175 -0.3978  0.1553 -0.2663
 4234SOL    HW224162   1.746   0.489   9.056  2.1689  0.1522  1.9192
 4235SOL     OW24163   4.574   0.340   6.642 -0.1473  0.2849  0.1127
 4235SOL    HW124164   4.565   0.249   6.672 -0.1629  0.4104  0.4883
 4235SOL    HW224165   4.613   0.374   6.722  1.9442 -0.8778 -0.4271
 4236SOL     OW24166   3.089   1.395   3.777  0.0127  0.2925 -0.2575
 4236SOL    HW124167   3.163   1.444   3.743  0.5075 -1.5168 -1.7745
 4236SOL    HW224168   3.089   1.306   3.741 -1.6995 -0.1834  0.9029
 4237SOL     OW24169   1.947   3.233   5.246 -0.5805  0.8590 -0.0086
 4237SOL    HW124170   1.947   3.325   5.220  2.1378  1.3624  1.8205
 4237SOL    HW224171   1.972   3.252   5.337 -0.7846  1.1132 -0.0055
 4238SOL     OW24172   0.897   0.026   3.199  1.1794  0.0362  0.6538
 4238SOL    HW124173   0.857   0.100   3.152 -0.8332 -1.6271 -0.2478
 4238SOL    HW224174   0.965   0.001   3.136  1.6124 -0.9460  1.5248
 4239SOL     OW24175   4.303   1.366   1.206 -0.9079  0.1915 -0.4801
 4239SOL    HW124176   4.324   1.280   1.169  0.6130  0.7167 -0.8686
 4239SOL    HW224177   4.382   1.366   1.260 -0.9813  0.4543 -0.3744
 4240SOL     OW24178   4.513   3.195   7.454 -0.7345  0.1521  0.1633
 4240SOL    HW124179   4.560   3.276   7.438  0.2801 -0.1755  1.5386
 4240SOL    HW224180   4.461   3.213   7.532  2.0106 -0.3779  2.0771
 4241SOL     OW24181   1.203   3.703   7.589 -0.1656 -0.6008 -0.0281
 4241SOL    HW124182   1.221   3.688   7.682  1.1369  0.7827 -0.0581
 4241SOL    HW224183   1.136   3.770   7.594  0.8631  0.5201 -1.3333
 4242SOL     OW24184   0.696   3.045  10.654  0.0150 -0.0631  0.4280
 4242SOL    HW124185   0.609   3.006  10.654  0.2309 -0.5352 -0.8737
 4242SOL    HW224186   0.738   3.031  10.569  0.6440 -1.0701  0.9032
 4243SOL     OW24187   2.293   1.870  14.137 -0.1423 -0.0791  0.2640
 4243SOL    HW124188   2.257   1.866  14.048  1.5641  0.2561 -0.4232
 4243SOL    HW224189   2.273   1.962  14.155 -0.3887 -0.2677  0.9396
 4244SOL     OW24190   4.042   4.055   1.585  0.8021  0.1805 -0.3140
 4244SOL    HW124191   3.998   3.974   1.559 -0.5227  0.9318 -0.4227
 4244SOL    HW224192   4.052   4.048   1.679  1.6054  3.4190 -0.1526
 4245SOL     OW24193   3.955   2.458  15.028 -0.1075  0.2220 -0.2126
 4245SOL    HW124194   4.032   2.474  14.974  0.2748 -1.1091 -0.0744
 4245SOL    HW224195   3.915   2.544  15.021 -0.1814  0.1713 -0.3958
 4246SOL     OW24196   1.971   1.683   1.789 -0.4657 -0.1635 -0.0187
 4246SOL    HW124197   2.002   1.594   1.772 -2.0104 -0.4474 -1.3623
 4246SOL    HW224198   2.026   1.726   1.723  0.7289  0.6682  1.5374
 4247SOL     OW24199   0.296   1.096   5.823 -0.0215 -0.2605  0.0491
 4247SOL    HW124200   0.258   1.150   5.892 -1.4258 -1.8514  0.5178
 4247SOL    HW224201   0.389   1.103   5.844  0.5095  0.6083 -2.6883
 4248SOL     OW24202   0.256   4.334   1.963  0.0170  0.2034 -0.0679
 4248SOL    HW124203   0.163   4.338   1.941  0.3225  1.6122 -1.1548
 4248SOL    HW224204   0.280   4.242   1.954 -1.3853 -0.0775 -0.8878
 4249SOL     OW24205   2.251   2.889   4.667  0.4667 -0.0681 -0.1316
 4249SOL    HW124206   2.254   2.933   4.582  0.4003 -0.6850 -0.4538
 4249SOL    HW224207   2.274   2.801   4.635 -1.5376 -0.7442  0.2664
 4250SOL     OW24208   4.192   1.619   3.111 -0.1180  0.5106 -0.2865
 4250SOL    HW124209   4.184   1.553   3.043 -0.4200  0.1982  0.0452
 4250SOL    HW224210   4.267   1.590   3.163 -0.7784  0.4775  0.6693
 4251SOL     OW24211   4.385   1.569  12.990 -0.1552  0.2996 -0.2902
 4251SOL    HW124212   4.382   1.495  13.050 -0.3774  0.7055  0.1972
 4251SOL    HW224213   4.476   1.594  12.973 -1.0503  3.6802 -0.0745
 4252SOL     OW24214   3.138   3.378  12.402 -0.2700 -0.3659  0.2961
 4252SOL    HW124215   3.191   3.453  12.377 -1.0398 -0.0901 -0.4989
 4252SOL    HW224216   3.124   3.339  12.316 -1.5949 -1.9929  1.2418
 4253SOL     OW24217   2.075   2.186   6.033 -0.3682  0.6616 -0.2011
 4253SOL    HW124218   2.070   2.280   6.016  0.3122  0.5984 -0.7785
 4253SOL    HW224219   2.005   2.158   5.974  0.6340 -1.4276 -0.4042
 4254SOL     OW24220   0.243   3.338   2.601 -0.1455  0.3755  0.7741
 4254SOL    HW124221   0.334   3.340   2.630  0.3377  0.3962 -0.7335
 4254SOL    HW224222   0.191   3.304   2.674 -1.4141  3.2095  1.1949
 4255SOL     OW24223   0.410   1.326  13.000  0.3436 -0.4022  0.1504
 4255SOL    HW124224   0.463   1.246  12.995  1.1416  0.1249  0.3875
 4255SOL    HW224225   0.476   1.393  13.013  2.6684 -2.4204 -1.2437
 4256SOL     OW24226   1.697   2.530   3.645 -0.2020 -0.0460 -0.6632
 4256SOL    HW124227   1.609   2.557   3.672  0.3614  0.2185  0.8841
 4256SOL    HW224228   1.742   2.614   3.636 -2.0552  0.9966 -0.1397
 4257SOL     OW24229   3.199   2.159   7.123 -0.1776  0.4704  0.2515
 4257SOL    HW124230   3.165   2.227   7.065 -0.6903  0.0342  0.0428
 4257SOL    HW224231   3.164   2.180   7.209  0.2297 -0.8511  0.7425
 4258SOL     OW24232   3.344   1.092   9.255 -0.3724 -0.0716  0.3959
 4258SOL    HW124233   3.282   1.052   9.194 -0.4936  0.8363 -0.0776
 4258SOL    HW224234   3.307   1.077   9.342 -1.0370 -0.8430 -0.0197
 4259SOL     OW24235   1.611   1.448   4.259 -0.2822 -0.1939  0.2176
 4259SOL    HW124236   1.535   1.390   4.260  0.0258 -0.5889  0.7216
 4259SOL    HW224237   1.686   1.388   4.258  1.9833  2.6285 -0.4501
 4260SOL     OW24238   0.271   3.173   1.260 -0.6164 -0.0744 -0.3808
 4260SOL    HW124239   0.283   3.166   1.355 -1.3638  2.0832 -0.1259
 4260SOL    HW224240   0.180   3.201   1.263 -0.0068  2.0016 -0.9409
 4261SOL     OW24241   0.267   2.133   8.120  0.7702  0.4810 -0.3720
 4261SOL    HW124242   0.347   2.112   8.070  0.9048 -2.8041  1.1756
 4261SOL    HW224243   0.298   2.188   8.192 -0.7163  0.0317  0.6041
 4262SOL     OW24244   0.583   3.726   6.712 -0.1505 -0.2334  0.6164
 4262SOL    HW124245   0.595   3.727   6.617 -0.7064  1.6283  0.5553
 4262SOL    HW224246   0.629   3.647   6.740  0.8754 -0.0871 -0.6464
 4263SOL     OW24247   3.194   0.075   6.307 -0.0030 -0.1415 -0.5325
 4263SOL    HW124248   3.229   0.044   6.391 -0.8149  1.8490  0.5460
 4263SOL    HW224249   3.245   0.026   6.243  0.1947 -1.3480  0.5324
 4264SOL     OW24250   3.628   4.151   8.470  1.0180 -0.0477  0.1746
 4264SOL    HW124251   3.683   4.220   8.508 -0.5577  0.4374  1.5387
 4264SOL    HW224252   3.635   4.184   8.380  0.7635  1.0605  0.5607
 4265SOL     OW24253   3.472   0.259  15.099  0.5675  0.2579 -0.7624
 4265SOL    HW124254   3.498   0.261  15.007  2.3915  4.9231 -0.1426
 4265SOL    HW224255   3.497   0.349  15.120  0.2261  0.1844 -0.0388
 4266SOL     OW24256   3.960   0.750  13.212  0.5368  0.3495 -0.2939
 4266SOL    HW124257   3.878   0.757  13.261  0.9032 -1.6038  0.5942
 4266SOL    HW224258   4.018   0.746  13.288 -0.0826 -0.1845  0.1525
 4267SOL     OW24259   3.695   3.130   1.858 -0.3163 -0.3327  0.1356
 4267SOL    HW124260   3.727   3.108   1.945  2.4261 -0.5742 -0.9236
 4267SOL    HW224261   3.647   3.212   1.868  0.1688  0.2906 -2.5619
 4268SOL     OW24262   1.707   4.307   5.591 -0.1762  0.6616 -0.2327
 4268SOL    HW124263   1.614   4.285   5.604  0.2968 -1.0340  0.2669
 4268SOL    HW224264   1.725   4.379   5.652 -0.2831 -1.1856  2.0136
 4269SOL     OW24265   2.457   0.640   6.042  0.1821  0.1738 -0.1792
 4269SOL    HW124266   2.459   0.584   6.120  2.2992 -1.9509 -1.7500
 4269SOL    HW224267   2.551   0.652   6.029  0.1172  0.1759 -0.6600
 4270SOL     OW24268   2.211   0.122   6.257 -0.8350 -0.0553 -0.1785
 4270SOL    HW124269   2.180   0.056   6.195 -2.3059  0.8157 -0.3672
 4270SOL    HW224270   2.140   0.185   6.268 -0.7985 -0.3045  1.4086
 4271SOL     OW24271   1.074   3.087   5.785  0.4560 -0.3265 -0.1077
 4271SOL    HW124272   1.100   3.162   5.840  0.6811 -1.5692  1.4972
 4271SOL    HW224273   1.161   3.048   5.786  0.9521  0.7784  0.3855
 4272SOL     OW24274   4.553   4.141   5.939 -0.3717  0.1713  0.5358
 4272SOL    HW124275   4.469   4.183   5.922 -0.7429 -0.9524 -0.3682
 4272SOL    HW224276   4.612   4.216   5.937 -0.9335  0.5679 -0.9280
 4273SOL     OW24277   4.668   1.694   4.822 -0.1032  0.4184 -0.0779
 4273SOL    HW124278   4.659   1.739   4.906  1.1650  1.7762 -0.6831
 4273SOL    HW224279   4.707   1.761   4.766  0.5748 -0.0132 -0.1305
 4274SOL     OW24280   4.145   2.449   3.823 -0.4989  0.0830  0.7533
 4274SOL    HW124281   4.218   2.510   3.831 -0.8699  0.5022  0.9823
 4274SOL    HW224282   4.112   2.434   3.911  1.3295 -3.8138  0.7746
 4275SOL     OW24283   4.467   4.569   0.021 -0.5677 -0.1405 -0.0741
 4275SOL    HW124284   4.449   4.544   0.111 -0.2486 -0.7181 -0.1696
 4275SOL    HW224285   4.379   4.584  17.680  0.8334 -3.1260 -4.7268
 4276SOL     OW24286   0.347   2.094   4.507 -0.1086 -0.3778  0.1528
 4276SOL    HW124287   0.382   2.009   4.537 -1.4482 -0.6582  0.9209
 4276SOL    HW224288   0.290   2.058   4.439 -0.0217  0.2725 -0.2581
 4277SOL     OW24289   1.304   4.289   8.326  0.2121  0.6313 -0.2296
 4277SOL    HW124290   1.378   4.341   8.296  1.3667 -1.3628 -0.8265
 4277SOL    HW224291   1.353   4.212   8.353 -0.4798  0.7264  1.2994
 4278SOL     OW24292   2.871   0.408   5.179  0.0735 -0.1951  0.0715
 4278SOL    HW124293   2.812   0.382   5.108  0.5218  1.7607 -1.0137
 4278SOL    HW224294   2.899   0.330   5.227  1.5136  2.6839  3.9010
 4279SOL     OW24295   0.854   1.866   4.079  0.1472  0.2248 -0.0067
 4279SOL    HW124296   0.923   1.803   4.059 -0.8414 -1.3310  1.4536
 4279SOL    HW224297   0.798   1.817   4.140  0.4732  0.2542  0.3167
 4280SOL     OW24298   1.225   4.220   8.081  0.2695 -0.5360  0.3520
 4280SOL    HW124299   1.207   4.303   8.038  3.3070  0.4004  0.8685
 4280SOL    HW224300   1.232   4.250   8.172  1.5518  1.4464 -0.3881
 4281SOL     OW24301   0.586   0.007   4.238  0.4458 -0.2151  0.0259
 4281SOL    HW124302   0.539   4.648   4.223  0.4965 -0.2585  0.1066
 4281SOL    HW224303   0.617   0.026   4.149  0.0984  0.9499  0.1423
 4282SOL     OW24304   1.525   1.730   2.985  0.4440 -0.0378 -0.9037
 4282SOL    HW124305   1.610   1.690   2.968 -0.1684 -2.4757  1.6476
 4282SOL    HW224306   1.475   1.655   3.018  0.9677  0.4886  1.0739
 4283SOL     OW24307   0.771   0.703   6.555 -0.2204 -0.0809  0.7398
 4283SOL    HW124308   0.807   0.721   6.642 -0.0609 -0.5465  0.7730
 4283SOL    HW224309   0.704   0.771   6.550 -2.9659 -2.8928 -0.5961
 4284SOL     OW24310   1.951   1.920  10.672 -0.2639 -0.4865  0.1454
 4284SOL    HW124311   1.932   1.953  10.760 -1.2666  0.0622 -0.2790
 4284SOL    HW224312   1.911   1.991  10.621  0.9033  0.5504  0.6667
 4285SOL     OW24313   0.312   3.007   1.777 -0.1959 -0.3686  0.4374
 4285SOL    HW124314   0.249   3.005   1.850  1.7802 -0.0598  2.1669
 4285SOL    HW224315   0.365   3.080   1.810 -2.1649  1.6913 -0.9797
 4286SOL     OW24316   3.213   0.683   3.074 -0.8060  0.1431  0.0177
 4286SOL    HW124317   3.273   0.756   3.088 -0.7893 -0.5191  3.3782
 4286SOL    HW224318   3.234   0.657   2.984 -0.1898 -3.0003  1.0796
 4287SOL     OW24319   4.438   3.629  12.976  0.2010  0.1806  0.6563
 4287SOL    HW124320   4.374   3.595  13.038  0.8695 -0.7809  0.8029
 4287SOL    HW224321   4.447   3.713  13.021 -0.2367  0.9706 -0.7288
 4288SOL     OW24322   1.497   0.327   3.757  0.1618 -0.1115 -0.2508
 4288SOL    HW124323   1.555   0.286   3.692 -1.3980  0.3660 -1.9377
 4288SOL    HW224324   1.556   0.338   3.831 -0.6739 -0.3410  0.4434
 4289SOL     OW24325   2.062   4.312   3.330  0.5480  0.0038  0.2269
 4289SOL    HW124326   1.978   4.312   3.376  0.5566 -1.3205  0.2636
 4289SOL    HW224327   2.096   4.229   3.365 -0.1687  0.5585  2.1889
 4290SOL     OW24328   3.856   0.829  15.796  0.1488 -0.2459  0.4069
 4290SOL    HW124329   3.923   0.878  15.748 -2.6305 -0.0174 -3.1753
 4290SOL    HW224330   3.892   0.845  15.884 -0.0077  1.2396  0.1990
 4291SOL     OW24331   2.739   1.568  16.577 -0.2529 -0.3772  0.2234
 4291SOL    HW124332   2.739   1.512  16.500  0.2594 -0.3236  0.1792
 4291SOL    HW224333   2.679   1.640  16.557 -1.8072 -1.3342  1.4356
 4292SOL     OW24334   2.091   2.372   6.938 -0.0529 -0.0357 -0.6167
 4292SOL    HW124335   2.019   2.327   6.981  1.5515  0.4362  2.5581
 4292SOL    HW224336   2.039   2.429   6.881  1.0155  1.5555 -0.0174
 4293SOL     OW24337   0.984   3.138  12.147 -0.1734 -0.5271 -0.0304
 4293SOL    HW124338   0.934   3.217  12.123  0.0576 -0.3793 -0.0257
 4293SOL    HW224339   0.908   3.080  12.142  0.8552 -1.8342 -0.1961
 4294SOL     OW24340   2.292   0.666   6.678 -0.4936 -0.5317  0.4907
 4294SOL    HW124341   2.384   0.691   6.680 -0.1283 -1.9519  1.7623
 4294SOL    HW224342   2.308   0.572   6.673  0.6451 -0.4443  2.5096
 4295SOL     OW24343   2.283   3.232   7.873  0.1681 -0.0305  0.2885
 4295SOL    HW124344   2.242   3.259   7.955 -0.9497  0.5732 -0.4578
 4295SOL    HW224345   2.258   3.299   7.809 -0.0735 -1.2446 -0.8933
 4296SOL     OW24346   2.929   0.288   3.570 -0.0444  0.0079 -0.0727
 4296SOL    HW124347   2.910   0.356   3.635  0.3721 -1.8220  1.9841
 4296SOL    HW224348   2.840   0.263   3.546 -0.2422 -1.2686  1.9579
 4297SOL     OW24349   1.747   1.204  10.811  0.1502  0.3107  0.1450
 4297SOL    HW124350   1.770   1.214  10.904  1.0701  1.7227 -0.2335
 4297SOL    HW224351   1.746   1.295  10.781 -0.3867  0.5726  0.9551
 4298SOL     OW24352   3.197   4.706   8.678 -0.1012  0.5096  0.9828
 4298SOL    HW124353   3.189   4.647   8.603 -0.5859  0.8799  0.7440
 4298SOL    HW224354   3.118   4.686   8.729 -0.0775 -0.1223  0.7767
 4299SOL     OW24355   2.464   3.255   3.015  0.1661  0.0130  0.4550
 4299SOL    HW124356   2.449   3.336   3.063 -3.5387 -1.8546  2.4200
 4299SOL    HW224357   2.374   3.230   2.997  0.3278  0.0208 -0.3547
 4300SOL     OW24358   3.212   3.147   5.556  0.6891 -0.0316  0.4867
 4300SOL    HW124359   3.291   3.102   5.527 -0.6294 -3.0255  1.5349
 4300SOL    HW224360   3.159   3.135   5.477 -0.7936 -1.8712  1.7703
 4301SOL     OW24361   3.860   3.593  14.139 -0.1857  0.9620 -0.3953
 4301SOL    HW124362   3.871   3.499  14.153 -2.1626  0.7084 -0.5270
 4301SOL    HW224363   3.898   3.603  14.052  1.2380  0.3697  0.1510
 4302SOL     OW24364   4.681   1.726  10.334 -0.3270 -0.0335 -0.3969
 4302SOL    HW124365   4.632   1.800  10.369  0.6859  0.0896  0.8058
 4302SOL    HW224366   4.683   1.655  10.399  1.6837 -0.9219 -1.4271
 4303SOL     OW24367   3.940   0.978   9.850  0.0680 -0.1651  0.5934
 4303SOL    HW124368   3.886   0.918   9.901  2.0433 -1.1819  1.4750
 4303SOL    HW224369   4.017   0.924   9.830  0.8290  1.4017 -0.7005
 4304SOL     OW24370   2.868   3.334   1.813 -0.5303  0.6423 -1.0522
 4304SOL    HW124371   2.777   3.328   1.841  0.2542 -0.3981  1.2452
 4304SOL    HW224372   2.873   3.423   1.779  1.2461  0.7053 -0.6312
 4305SOL     OW24373   2.535   1.351  15.383  0.3552 -0.8628 -0.0175
 4305SOL    HW124374   2.452   1.333  15.427  0.5449 -1.9773 -0.1120
 4305SOL    HW224375   2.528   1.446  15.372  0.9484 -0.7164  0.8592
 4306SOL     OW24376   3.290   2.063   1.331 -0.4252  0.0770  0.7228
 4306SOL    HW124377   3.198   2.081   1.311 -0.1393  0.6940 -0.0833
 4306SOL    HW224378   3.332   2.102   1.254 -2.6136 -0.4806 -0.7550
 4307SOL     OW24379   0.275   2.671  16.122  0.4302 -0.3006  0.2440
 4307SOL    HW124380   0.331   2.607  16.078 -0.6113 -0.1515 -1.3274
 4307SOL    HW224381   0.294   2.738  16.056 -3.2081 -0.5534 -1.0524
 4308SOL     OW24382   4.492   3.929   6.982 -0.0943  0.0391 -0.3282
 4308SOL    HW124383   4.526   3.880   7.057 -1.5318 -1.1301 -0.4487
 4308SOL    HW224384   4.461   3.862   6.922  1.4640  0.4379 -1.5935
 4309SOL     OW24385   2.250   4.199   5.366  0.0177 -0.1506  0.0684
 4309SOL    HW124386   2.261   4.243   5.282  1.2064  2.0419  1.3835
 4309SOL    HW224387   2.298   4.256   5.425 -1.4604  2.2177 -1.0208
 4310SOL     OW24388   3.548   4.670  10.353 -0.6825 -1.0340 -0.4259
 4310SOL    HW124389   3.608   4.599  10.375  1.2936  0.2910 -1.5707
 4310SOL    HW224390   3.485   4.667  10.425 -2.2989 -0.0089 -1.8126
 4311SOL     OW24391   0.729   1.129  13.808  0.1138  0.0925  0.5545
 4311SOL    HW124392   0.652   1.106  13.754  0.4494  0.6418 -0.1592
 4311SOL    HW224393   0.695   1.078  13.881  1.3843 -0.3629  0.8296
 4312SOL     OW24394   4.549   0.827   1.863 -0.2689  0.7771  0.2076
 4312SOL    HW124395   4.520   0.831   1.772  0.9089 -0.6688 -0.2310
 4312SOL    HW224396   4.597   0.909   1.877  1.2661  0.0792 -1.0220
 4313SOL     OW24397   0.029   4.552   5.046 -0.0759  0.0945 -0.0623
 4313SOL    HW124398   0.121   4.561   5.020 -0.5595  0.8418 -1.4991
 4313SOL    HW224399   0.028   4.616   5.117 -0.3698 -0.2565  0.2546
 4314SOL     OW24400   0.253   3.606   1.736 -0.0968  0.6665  0.3230
 4314SOL    HW124401   0.257   3.627   1.829  0.5561  2.6330 -0.1598
 4314SOL    HW224402   0.326   3.653   1.696  0.3633 -1.1470 -1.0188
 4315SOL     OW24403   1.097   0.935  16.263  0.7927 -0.1561  0.1983
 4315SOL    HW124404   1.149   1.000  16.215 -2.8502  0.5958 -2.7617
 4315SOL    HW224405   1.010   0.975  16.267  1.0227  0.4621 -1.0533
 4316SOL     OW24406   2.127   2.723   6.010  0.4800  0.0020 -0.2129
 4316SOL    HW124407   2.215   2.758   6.029  1.0941 -1.7533  0.2121
 4316SOL    HW224408   2.139   2.695   5.920  2.8030  1.8679 -0.4839
 4317SOL     OW24409   0.382   0.829  17.675  0.0328 -0.5953  0.2499
 4317SOL    HW124410   0.405   0.917  17.645 -0.7929 -0.8987 -1.2369
 4317SOL    HW224411   0.332   0.797  17.601  0.0651  2.7264 -1.2187
 4318SOL     OW24412   1.881   1.930   1.500  0.1697  0.9260 -0.1717
 4318SOL    HW124413   1.953   1.869   1.515 -0.2839  0.5194  0.3672
 4318SOL    HW224414   1.910   1.996   1.563  0.8511 -0.9042  1.4354
 4319SOL     OW24415   0.946   3.556   7.788 -0.7644  0.0448  0.2216
 4319SOL    HW124416   0.913   3.615   7.720  0.8262  1.8550  1.0193
 4319SOL    HW224417   0.923   3.607   7.866  0.6482  1.1466 -0.0854
 4320SOL     OW24418   1.853   2.066  12.768  0.0936  0.7072  0.0050
 4320SOL    HW124419   1.924   2.129  12.755 -0.6961  1.3710 -1.0991
 4320SOL    HW224420   1.836   2.082  12.861  0.0723 -0.6492  0.2264
 4321SOL     OW24421   4.575   0.022  13.932  0.0946  0.1456  0.4543
 4321SOL    HW124422   4.555   0.039  14.024  2.5001 -0.4213  1.1081
 4321SOL    HW224423   4.652   4.687  13.937  1.1433  1.4280 -0.6910
 4322SOL     OW24424   2.226   3.665   3.272 -0.6644  0.1539 -0.0636
 4322SOL    HW124425   2.300   3.712   3.310 -1.9172  2.5101 -0.5980
 4322SOL    HW224426   2.158   3.730   3.284 -0.4988 -0.1375  2.5055
 4323SOL     OW24427   0.479   4.463  17.441 -0.0816 -0.3233  0.3465
 4323SOL    HW124428   0.524   4.546  17.459 -1.7736  0.3827  1.2925
 4323SOL    HW224429   0.556   4.421  17.402  0.3626  0.8719 -0.0484
 4324SOL     OW24430   2.629   3.356   6.561  0.8026 -0.0856 -0.3119
 4324SOL    HW124431   2.561   3.307   6.608  0.1108  1.4510  0.2564
 4324SOL    HW224432   2.611   3.443   6.596 -1.9762 -0.9370  0.3924
 4325SOL     OW24433   0.549   2.219   3.830 -0.1757  0.1580 -0.3089
 4325SOL    HW124434   0.580   2.153   3.892 -0.3325  0.3349 -0.0380
 4325SOL    HW224435   0.536   2.298   3.883  0.8804  0.2569 -0.1953
 4326SOL     OW24436   1.644   1.087   6.855 -0.3121 -0.2114 -0.2949
 4326SOL    HW124437   1.573   1.026   6.872 -1.5411  1.4913  0.6512
 4326SOL    HW224438   1.620   1.095   6.762 -0.5078  2.5843  0.0091
 4327SOL     OW24439   2.303   2.394   8.945  0.1380  0.0249 -0.0708
 4327SOL    HW124440   2.254   2.380   9.026  2.2588 -0.4081  1.1433
 4327SOL    HW224441   2.233   2.430   8.891  0.1321 -0.7325 -0.5676
 4328SOL     OW24442   4.566   2.903   5.361 -0.1075  0.4188  0.5451
 4328SOL    HW124443   4.486   2.917   5.413 -0.5693 -3.1316  0.7386
 4328SOL    HW224444   4.625   2.959   5.412  1.2771  0.7506 -1.4100
 4329SOL     OW24445   2.719   1.367   7.100 -0.1109  0.2959 -0.1533
 4329SOL    HW124446   2.707   1.313   7.022  1.2167 -0.5141  0.1983
 4329SOL    HW224447   2.746   1.308   7.170 -1.0781 -1.4085 -1.2371
 4330SOL     OW24448   4.075   1.121   3.517 -0.5045 -0.5560 -0.9399
 4330SOL    HW124449   3.995   1.086   3.556 -0.0192  2.0345  2.3238
 4330SOL    HW224450   4.061   1.213   3.535 -0.6444 -1.0605  1.5090
 4331SOL     OW24451   0.370   0.217   4.089  0.4458 -1.0117  0.2721
 4331SOL    HW124452   0.408   0.305   4.085 -0.8387 -0.4610  0.4326
 4331SOL    HW224453   0.438   0.175   4.036  0.9103  2.1494 -1.6023
 4332SOL     OW24454   2.716   3.005  16.647 -0.0826  0.1268 -0.0418
 4332SOL    HW124455   2.730   3.000  16.552 -0.0059  0.7553 -0.0682
 4332SOL    HW224456   2.645   2.941  16.653  0.4827 -0.4941 -0.0856
 4333SOL     OW24457   4.383   0.616   8.772  0.0306  0.0014  0.4629
 4333SOL    HW124458   4.474   0.636   8.795  0.0079 -0.2181  0.7480
 4333SOL    HW224459   4.374   0.528   8.808 -0.7090 -0.2686 -0.3768
 4334SOL     OW24460   3.424   0.636   2.568  0.4604 -0.2802  0.1784
 4334SOL    HW124461   3.487   0.695   2.526  1.3476 -0.5442  1.1493
 4334SOL    HW224462   3.350   0.619   2.509  2.0771 -2.9447 -1.0671
 4335SOL     OW24463   4.229   3.325   4.161  0.3051  0.1320 -0.4053
 4335SOL    HW124464   4.183   3.402   4.194  0.4779  0.3858 -0.7605
 4335SOL    HW224465   4.288   3.310   4.234 -0.8694 -0.3695  0.4539
 4336SOL     OW24466   0.813   3.255  17.660  0.4009 -0.0954  0.3644
 4336SOL    HW124467   0.810   3.348  17.638 -0.5954  0.0342  1.0687
 4336SOL    HW224468   0.847   3.214  17.581 -0.5214 -0.3004  0.0851
 4337SOL     OW24469   4.097   4.028   1.849 -0.2176 -0.7082 -0.0860
 4337SOL    HW124470   4.112   4.008   1.942 -2.3461 -0.8438  0.2277
 4337SOL    HW224471   4.050   4.111   1.859 -0.3059 -0.7593 -0.0774
 4338SOL     OW24472   0.164   4.132   6.137  0.0053  0.3572  0.5448
 4338SOL    HW124473   0.137   4.100   6.223 -3.7715 -0.9196 -1.1116
 4338SOL    HW224474   0.180   4.222   6.166  3.1842 -0.2370  0.6038
 4339SOL     OW24475   2.867   0.521   5.824  0.1455  0.0642  0.0529
 4339SOL    HW124476   2.800   0.585   5.848 -0.5596 -0.8721  0.5875
 4339SOL    HW224477   2.815   0.441   5.830  0.9134 -0.5651 -1.7131
 4340SOL     OW24478   0.579   2.800   9.362  0.0416 -0.0867 -0.2052
 4340SOL    HW124479   0.673   2.818   9.366 -0.0385  0.0250  1.3563
 4340SOL    HW224480   0.538   2.877   9.323 -0.5726 -0.1015  0.4019
 4341SOL     OW24481   0.134   0.166   0.780 -0.6751 -0.1598 -0.0359
 4341SOL    HW124482   0.074   0.171   0.706 -0.3649 -0.9628 -0.3466
 4341SOL    HW224483   0.077   0.148   0.856  0.9648 -3.1549  0.4861
 4342SOL     OW24484   2.215   0.931  12.525  0.5071  0.3267 -0.5366
 4342SOL    HW124485   2.207   1.018  12.566 -2.2216  0.0552 -0.5406
 4342SOL    HW224486   2.297   0.926  12.475  0.4500  2.5864 -0.8627
 4343SOL     OW24487   2.259   2.745   8.557  0.5344  0.5808 -0.2160
 4343SOL    HW124488   2.300   2.831   8.558 -1.5900  1.5694  2.1585
 4343SOL    HW224489   2.169   2.762   8.529  0.9557  4.3816  0.8044
 4344SOL     OW24490   0.062   4.683   2.536  0.3014 -0.0092 -0.5288
 4344SOL    HW124491   0.050   4.612   2.599 -1.7047 -0.3045 -1.2628
 4344SOL    HW224492   0.045   0.026   2.603  0.7458 -2.6901  2.2380
 4345SOL     OW24493   2.542   2.165   0.633 -0.6456 -1.2020 -0.3099
 4345SOL    HW124494   2.497   2.089   0.671  0.1577 -2.3626 -1.6925
 4345SOL    HW224495   2.623   2.124   0.603  0.2035  0.5301 -0.3372
 4346SOL     OW24496   3.703   1.561   6.580  0.6628 -0.1062 -0.5156
 4346SOL    HW124497   3.789   1.523   6.595  1.9372  2.9280  0.0323
 4346SOL    HW224498   3.683   1.543   6.488 -1.1727 -1.1635  0.0885
 4347SOL     OW24499   3.959   2.425   5.434  0.0011 -0.4657  0.1077
 4347SOL    HW124500   4.042   2.449   5.392 -0.1286  0.3871  0.3540
 4347SOL    HW224501   3.989   2.385   5.515 -1.2647  1.3630  1.4648
 4348SOL     OW24502   0.140   3.851   4.747 -0.5289 -0.4396 -0.4024
 4348SOL    HW124503   0.174   3.940   4.736  2.1801 -1.4682 -0.0745
 4348SOL    HW224504   0.063   3.858   4.691 -0.0501 -3.2954 -1.3798
 4349SOL     OW24505   0.847   3.633  13.970  0.2254 -0.6330  0.0313
 4349SOL    HW124506   0.906   3.708  13.979 -1.2076  0.4192  0.6305
 4349SOL    HW224507   0.768   3.672  13.933  1.3841  1.4548 -0.2070
 4350SOL     OW24508   2.753   3.506   4.262 -0.2561  0.2197  0.5467
 4350SOL    HW124509   2.789   3.462   4.339  0.4525 -1.0370 -0.5040
 4350SOL    HW224510   2.688   3.446   4.226  0.5271 -1.4259  1.9124
 4351SOL     OW24511   3.372   2.102   9.326 -0.1453 -0.6831  0.1452
 4351SOL    HW124512   3.458   2.084   9.364 -0.6488 -3.1154  0.1294
 4351SOL    HW224513   3.393   2.168   9.260 -1.4010  0.5575  0.9823
 4352SOL     OW24514   4.079   1.514  13.941  0.5421 -0.3334 -0.0517
 4352SOL    HW124515   4.114   1.458  13.872 -0.3949 -2.5432  1.2869
 4352SOL    HW224516   3.986   1.490  13.942  0.7659 -1.0843  2.2988
 4353SOL     OW24517   1.711   0.328   4.753  0.1255  0.8626 -0.4304
 4353SOL    HW124518   1.667   0.282   4.824 -1.5208  1.3139 -1.1775
 4353SOL    HW224519   1.797   0.343   4.793 -0.6662  2.1366  0.7997
 4354SOL     OW24520   3.101   3.170   9.347  0.2186 -0.2473 -0.2409
 4354SOL    HW124521   3.168   3.104   9.363  2.1094  1.9952  1.1142
 4354SOL    HW224522   3.128   3.204   9.262  0.4140  0.8719  0.2681
 4355SOL     OW24523   2.330   2.215   8.620  0.3274 -0.0289 -0.5096
 4355SOL    HW124524   2.301   2.306   8.611 -1.8511 -0.6286  0.4719
 4355SOL    HW224525   2.363   2.201   8.532  1.3631  1.1271 -0.3166
 4356SOL     OW24526   3.830   4.214   1.098  0.3033  0.5460 -0.0656
 4356SOL    HW124527   3.866   4.223   1.010 -2.6897 -0.1042 -1.3778
 4356SOL    HW224528   3.745   4.257   1.084  0.7143  0.8487 -1.6103
 4357SOL     OW24529   1.394   4.336  16.757 -0.0741 -0.0535 -0.3469
 4357SOL    HW124530   1.388   4.266  16.691 -1.4577  0.4286 -0.7257
 4357SOL    HW224531   1.465   4.387  16.719 -1.7037  1.3067 -1.5912
 4358SOL     OW24532   0.963   4.646  12.685 -0.0565  0.0191 -0.2091
 4358SOL    HW124533   0.937   4.597  12.763  0.4565  0.4616  0.2401
 4358SOL    HW224534   0.981   0.009  12.725 -2.4551  0.6304 -0.4692
 4359SOL     OW24535   4.371   1.452   4.962  0.3569 -0.2342  0.0981
 4359SOL    HW124536   4.347   1.528   4.908 -0.6642  1.0384  2.3649
 4359SOL    HW224537   4.456   1.424   4.929 -0.0353  1.8333 -2.6586
 4360SOL     OW24538   3.579   3.211   4.125 -0.0749 -0.1189  0.6270
 4360SOL    HW124539   3.535   3.285   4.084  1.5549  1.0515  0.9933
 4360SOL    HW224540   3.619   3.151   4.062 -2.4491  0.4411 -1.4079
 4361SOL     OW24541   2.597   2.215   6.332 -0.2713 -0.0317 -0.3041
 4361SOL    HW124542   2.677   2.180   6.370 -0.8499 -1.0107  0.0191
 4361SOL    HW224543   2.580   2.286   6.395 -0.4054 -0.1207 -0.2391
 4362SOL     OW24544   3.351   1.716  15.307  0.6302 -0.6871  0.1915
 4362SOL    HW124545   3.305   1.675  15.234 -0.3772 -1.1241  1.0624
 4362SOL    HW224546   3.323   1.807  15.315  2.0668  0.0212 -2.8113
 4363SOL     OW24547   1.871   1.495  14.881  0.3261  0.0787 -0.2387
 4363SOL    HW124548   1.958   1.530  14.901 -0.9940  1.8106  2.4939
 4363SOL    HW224549   1.880   1.478  14.787 -0.0407  0.0780 -0.2713
 4364SOL     OW24550   2.234   1.913  12.510  0.1528  0.5093  0.1522
 4364SOL    HW124551   2.185   1.882  12.587 -2.0605 -1.7953 -2.1928
 4364SOL    HW224552   2.188   1.870  12.439 -1.4141 -0.3790  1.6974
 4365SOL     OW24553   4.687   3.681   1.948  0.0510  0.1075  0.0892
 4365SOL    HW124554   0.053   3.656   1.974  0.8223  0.8098 -1.9129
 4365SOL    HW224555   4.646   3.720   2.025 -3.5228  1.1189 -2.3255
 4366SOL     OW24556   4.075   3.343   5.763  0.0225 -0.2690  0.3041
 4366SOL    HW124557   4.093   3.254   5.734 -0.5869  0.3657 -1.9855
 4366SOL    HW224558   3.984   3.349   5.792 -0.6488 -1.2388 -1.6679
 4367SOL     OW24559   4.582   0.612   9.785 -0.1883  0.2099  0.3751
 4367SOL    HW124560   4.667   0.635   9.746 -0.7021  1.3006 -0.0990
 4367SOL    HW224561   4.554   0.701   9.805 -0.3276  0.6791 -1.8210
 4368SOL     OW24562   2.263   1.989   5.622  0.0922 -0.0162  0.2817
 4368SOL    HW124563   2.286   1.901   5.592 -0.0305 -0.0086  0.1680
 4368SOL    HW224564   2.338   2.005   5.680 -0.8655  0.9414  1.2530
 4369SOL     OW24565   1.907   1.026   6.544 -0.4499  0.0139  0.0718
 4369SOL    HW124566   1.870   0.941   6.521  1.6157 -1.2184  1.2734
 4369SOL    HW224567   1.833   1.065   6.591 -0.0017  1.3659 -0.3368
 4370SOL     OW24568   3.041   4.492   6.127  0.2685  0.0580 -0.4795
 4370SOL    HW124569   3.061   4.573   6.080 -0.3764  0.2138 -0.4943
 4370SOL    HW224570   3.053   4.422   6.062 -0.9446 -0.1916 -0.4496
 4371SOL     OW24571   2.447   1.122   2.190 -0.0818 -0.3419  0.1886
 4371SOL    HW124572   2.498   1.098   2.267  0.5758 -0.4645 -0.2810
 4371SOL    HW224573   2.381   1.052   2.183  0.6521 -1.0022 -0.2146
 4372SOL     OW24574   3.271   1.665   7.815  0.5238  0.6507  0.5098
 4372SOL    HW124575   3.206   1.679   7.746 -0.9812 -1.3963  1.5026
 4372SOL    HW224576   3.214   1.610   7.868  0.8608 -1.4315 -1.2616
 4373SOL     OW24577   0.329   1.003   5.158 -0.2934 -0.4179  0.0692
 4373SOL    HW124578   0.396   1.025   5.223 -0.3480  1.4141 -0.4820
 4373SOL    HW224579   0.285   1.085   5.135 -2.9598 -2.0110 -0.5092
 4374SOL     OW24580   4.311   3.113   2.636 -0.5373  0.1345 -0.0040
 4374SOL    HW124581   4.401   3.112   2.604  0.2398  2.7916  2.0910
 4374SOL    HW224582   4.302   3.205   2.662  2.3462  1.4066 -3.5535
 4375SOL     OW24583   2.802   4.205  10.293 -0.5870  0.0433 -0.9980
 4375SOL    HW124584   2.755   4.182  10.374  1.5110 -0.6248  0.0368
 4375SOL    HW224585   2.726   4.236  10.245 -0.5901 -0.2526 -1.1867
 4376SOL     OW24586   0.457   1.106   2.643  0.3436 -0.1675  0.0923
 4376SOL    HW124587   0.499   1.054   2.573  0.3059 -1.9562  1.3946
 4376SOL    HW224588   0.512   1.081   2.717 -0.2905 -0.2785  0.5206
 4377SOL     OW24589   2.185   1.473  10.036 -0.1885 -0.1291 -0.0405
 4377SOL    HW124590   2.261   1.494  10.089  0.2921 -0.4874 -0.5817
 4377SOL    HW224591   2.174   1.384  10.070  0.8531 -0.1597  0.1965
 4378SOL     OW24592   2.141   3.528   6.044 -0.4763  0.8821  0.7517
 4378SOL    HW124593   2.058   3.536   5.996  0.5114  1.5058 -0.8461
 4378SOL    HW224594   2.211   3.551   5.983 -0.3335 -3.6525 -0.7838
 4379SOL     OW24595   2.980   0.705  14.427  0.1480  0.3300 -0.0238
 4379SOL    HW124596   2.906   0.746  14.473  0.4215 -1.6213  2.1126
 4379SOL    HW224597   2.929   0.634  14.388  0.0632 -1.4876  3.4325
 4380SOL     OW24598   2.370   3.932   3.041 -0.2229  0.4296 -0.4988
 4380SOL    HW124599   2.309   3.892   2.979  0.2412 -1.4200  0.2457
 4380SOL    HW224600   2.451   3.905   2.999 -0.2336 -0.3221 -0.0425
 4381SOL     OW24601   2.080   0.318  17.294  0.0803 -0.2205 -0.2433
 4381SOL    HW124602   2.117   0.403  17.319 -0.9942 -0.7766  3.1808
 4381SOL    HW224603   2.031   0.339  17.214 -1.1660  1.0824  0.8527
 4382SOL     OW24604   0.982   0.953   1.421 -0.0468 -0.0597 -0.2503
 4382SOL    HW124605   1.063   0.971   1.470  0.7577  1.3524 -2.1178
 4382SOL    HW224606   0.989   1.002   1.339 -0.6539  0.5010  0.0343
 4383SOL     OW24607   2.535   4.155   0.542 -0.4187 -0.2263 -0.0733
 4383SOL    HW124608   2.498   4.079   0.587 -1.9093 -0.2565 -1.3486
 4383SOL    HW224609   2.467   4.222   0.528 -1.1843 -0.6202  1.7604
 4384SOL     OW24610   1.201   2.003  13.343 -0.2780 -0.2518  0.0575
 4384SOL    HW124611   1.139   1.930  13.334 -0.6362  0.0847 -0.1723
 4384SOL    HW224612   1.169   2.037  13.427 -2.0193  0.5134 -0.9413
 4385SOL     OW24613   0.067   3.706   6.513 -0.5871  0.0977 -0.0557
 4385SOL    HW124614   0.046   3.715   6.420 -0.5227 -1.5346 -0.2295
 4385SOL    HW224615   0.148   3.757   6.519  0.7659 -1.9316 -0.9826
 4386SOL     OW24616   4.430   0.678   3.688 -0.7279 -0.0256 -0.1943
 4386SOL    HW124617   4.400   0.641   3.771  1.3994  0.1702  0.6449
 4386SOL    HW224618   4.345   0.712   3.658 -2.4704 -2.1669  2.3537
 4387SOL     OW24619   4.441   1.707   7.607  0.2130 -0.2102  0.3589
 4387SOL    HW124620   4.507   1.772   7.632  1.5006 -1.2776 -0.2955
 4387SOL    HW224621   4.363   1.743   7.650 -0.2401  1.6631 -2.0366
 4388SOL     OW24622   1.188   0.741   3.948 -0.2195  0.7873  0.2685
 4388SOL    HW124623   1.116   0.795   3.983 -2.1939 -1.0328 -1.0019
 4388SOL    HW224624   1.258   0.752   4.013  1.1749 -0.9303 -0.9545
 4389SOL     OW24625   1.172   4.634   3.385 -0.0767  0.1982 -0.0967
 4389SOL    HW124626   1.255   4.625   3.339  0.4506  0.5524  0.7902
 4389SOL    HW224627   1.113   4.624   3.310  0.6380 -3.1048 -0.2063
 4390SOL     OW24628   3.602   1.975  16.195 -0.0149  0.1574  0.5164
 4390SOL    HW124629   3.600   1.929  16.279 -0.2977 -0.6453  0.0694
 4390SOL    HW224630   3.526   2.033  16.194  0.4527  0.7720  1.3235
 4391SOL     OW24631   3.386   4.088   2.097 -0.1480 -0.4376 -1.0800
 4391SOL    HW124632   3.336   4.159   2.055 -1.3178 -0.5919  0.0929
 4391SOL    HW224633   3.453   4.139   2.143  0.1651 -0.1328 -1.8603
 4392SOL     OW24634   1.411   0.559   2.450 -0.1067  0.1216 -0.3747
 4392SOL    HW124635   1.323   0.559   2.487  0.7188  0.3299  1.5815
 4392SOL    HW224636   1.434   0.466   2.458  0.9476  0.3090 -1.1895
 4393SOL     OW24637   0.816   1.948   4.630  0.0185  0.3387 -0.0453
 4393SOL    HW124638   0.909   1.950   4.656 -0.1882 -0.6087  0.7314
 4393SOL    HW224639   0.817   1.985   4.541 -0.7498  0.6453  0.0778
 4394SOL     OW24640   0.058   3.308   8.491 -0.2357  0.2419 -0.5913
 4394SOL    HW124641   0.143   3.342   8.465 -0.2353 -0.4451 -1.4685
 4394SOL    HW224642   0.042   3.393   8.533  1.2431  0.6838 -0.9227
 4395SOL     OW24643   4.569   2.804   4.850 -0.0499 -0.1500  0.0398
 4395SOL    HW124644   4.560   2.710   4.837  1.2276 -0.3560  0.6544
 4395SOL    HW224645   4.580   2.811   4.945 -0.3114 -0.8523  0.1200
 4396SOL     OW24646   1.112   0.976   3.642  0.7784  0.2174  0.1811
 4396SOL    HW124647   1.170   0.995   3.715  2.3204  3.4328 -1.8816
 4396SOL    HW224648   1.111   0.880   3.643 -0.1309  0.2553  2.1198
 4397SOL     OW24649   3.751   0.129  10.309  0.4051  0.1233  0.3944
 4397SOL    HW124650   3.817   0.071  10.347  0.4241 -0.2017 -0.1349
 4397SOL    HW224651   3.676   0.070  10.310 -0.9679  1.8654 -0.0128
 4398SOL     OW24652   1.865   0.504   8.330 -0.2455  0.2486  0.4158
 4398SOL    HW124653   1.957   0.503   8.354 -0.4502  0.0465  1.1894
 4398SOL    HW224654   1.823   0.435   8.381  0.5601 -0.7749 -0.3354
 4399SOL     OW24655   2.445   1.995   3.880 -0.0169  0.4852 -0.1169
 4399SOL    HW124656   2.494   2.064   3.835  0.2792  1.6584  2.0173
 4399SOL    HW224657   2.437   1.932   3.808  1.3440 -0.3290  0.4443
 4400SOL     OW24658   1.072   1.212   5.058 -0.3662  0.1601  0.6480
 4400SOL    HW124659   1.141   1.149   5.039  0.6849  1.2519  0.8060
 4400SOL    HW224660   1.014   1.195   4.984  1.1375  0.3571 -0.6013
 4401SOL     OW24661   4.461   2.311   9.052  0.5000 -0.6174  0.0086
 4401SOL    HW124662   4.444   2.220   9.077 -0.1942 -1.0485 -2.0835
 4401SOL    HW224663   4.533   2.305   8.990 -0.5694 -2.8523 -1.0108
 4402SOL     OW24664   2.683   2.873   7.625  0.7211  0.3905  0.1511
 4402SOL    HW124665   2.596   2.913   7.625  0.4440 -0.2197  1.2650
 4402SOL    HW224666   2.689   2.870   7.529 -2.2137  3.4026 -0.1247
 4403SOL     OW24667   0.597   3.341   3.811 -0.6785  0.8914  0.7094
 4403SOL    HW124668   0.639   3.391   3.742  0.2123 -0.2664  0.4291
 4403SOL    HW224669   0.665   3.334   3.877 -1.4851  1.1175  1.5715
 4404SOL     OW24670   1.920   0.077   7.244  0.1499  0.1875  0.4672
 4404SOL    HW124671   1.930   0.172   7.249 -0.4142  0.2359  0.6613
 4404SOL    HW224672   2.003   0.038   7.272  0.5090 -1.4184 -2.8673
 4405SOL     OW24673   0.594   3.728   6.438  0.0679  0.3281  0.8534
 4405SOL    HW124674   0.563   3.816   6.415 -1.4816 -0.2317  0.8383
 4405SOL    HW224675   0.570   3.680   6.359  0.7764  0.7070  0.4037
 4406SOL     OW24676   4.446   0.998  16.524  0.2244  0.3054  0.2079
 4406SOL    HW124677   4.523   0.946  16.500 -1.3973 -2.1831  0.3982
 4406SOL    HW224678   4.410   0.940  16.590  0.2592  0.7576  0.6259
 4407SOL     OW24679   0.569   3.361  12.996  0.3142 -0.0117  0.2026
 4407SOL    HW124680   0.577   3.408  12.913  1.1248  0.4251  0.5303
 4407SOL    HW224681   0.523   3.422  13.053 -0.4118 -1.3655  1.0525
 4408SOL     OW24682   1.592   4.719  13.200 -0.1346 -0.4808 -0.2262
 4408SOL    HW124683   1.502   0.026  13.190 -0.0689 -0.0198  0.6032
 4408SOL    HW224684   1.626   4.697  13.113  1.7285 -0.0292  0.3723
 4409SOL     OW24685   4.671   0.893   3.287  0.4082 -0.5409  1.0148
 4409SOL    HW124686   4.633   0.809   3.262 -2.9487  1.3866 -0.3717
 4409SOL    HW224687   4.679   0.927   3.198  0.3140 -1.1268  0.7828
 4410SOL     OW24688   3.806   4.176   7.128 -0.0301  0.1144  0.5837
 4410SOL    HW124689   3.814   4.114   7.201 -1.5917 -1.6488 -0.7715
 4410SOL    HW224690   3.887   4.227   7.138 -1.4355  2.0077  2.2003
 4411SOL     OW24691   2.604   3.691   3.332 -0.3548 -0.2127 -0.0380
 4411SOL    HW124692   2.650   3.726   3.408  2.3719 -0.3410 -1.6345
 4411SOL    HW224693   2.539   3.761   3.325  0.5609  0.8330  2.0352
 4412SOL     OW24694   3.881   1.553   3.832 -0.1085  0.3213 -0.0040
 4412SOL    HW124695   3.874   1.643   3.800 -0.2643  0.0856 -0.6380
 4412SOL    HW224696   3.841   1.575   3.916  1.5683 -3.3545  1.7536
 4413SOL     OW24697   1.698   0.100   2.817  0.1343  0.2236  0.2487
 4413SOL    HW124698   1.774   0.156   2.799 -2.1880  3.8680  1.7460
 4413SOL    HW224699   1.736   0.020   2.781  0.0016 -0.0942  0.8203
 4414SOL     OW24700   3.391   0.523  15.224 -0.2307 -0.5050  0.0032
 4414SOL    HW124701   3.401   0.614  15.252 -0.1337  0.1753 -2.2315
 4414SOL    HW224702   3.369   0.535  15.132 -0.1374 -0.2594  0.0113
 4415SOL     OW24703   0.537   2.925   6.595 -0.4746  0.2237  1.1861
 4415SOL    HW124704   0.471   2.879   6.647 -1.6142 -0.2503 -0.6934
 4415SOL    HW224705   0.486   2.993   6.551  1.0337  0.0368 -0.8521
 4416SOL     OW24706   4.573   0.796  14.844 -0.3886 -0.3025 -0.2825
 4416SOL    HW124707   4.535   0.776  14.759  0.1891 -1.7046 -0.2245
 4416SOL    HW224708   4.571   0.891  14.834 -0.6608 -0.1751  0.9898
 4417SOL     OW24709   1.452   4.469  15.511  0.2263  0.4154 -0.1455
 4417SOL    HW124710   1.373   4.510  15.474 -0.0356  0.5735  0.5862
 4417SOL    HW224711   1.510   4.477  15.436 -0.2634 -0.8029 -0.6498
 4418SOL     OW24712   0.038   3.328   6.097 -0.1203 -0.5229  0.2785
 4418SOL    HW124713   0.048   3.342   6.191  2.1156  0.7879 -0.1402
 4418SOL    HW224714   4.675   3.365   6.082 -0.7218 -1.5328  1.2538
 4419SOL     OW24715   0.661   0.604  14.053  0.2854 -0.2099  0.0882
 4419SOL    HW124716   0.700   0.672  13.997  3.0763  0.8106  3.2744
 4419SOL    HW224717   0.647   0.534  13.989  2.6748 -0.1317 -0.5453
 4420SOL     OW24718   0.089   1.106  12.682  0.3150 -0.0915  0.2715
 4420SOL    HW124719   0.040   1.187  12.698  0.4462  0.6299 -3.0179
 4420SOL    HW224720   0.077   1.062  12.766 -0.7959  0.2949  0.3141
 4421SOL     OW24721   1.719   1.735  10.689  0.0923  0.2528 -0.0897
 4421SOL    HW124722   1.804   1.772  10.712  0.3896 -0.3839 -0.1858
 4421SOL    HW224723   1.676   1.821  10.683  0.2918  0.4771  1.6029
 4422SOL     OW24724   3.046   2.155   0.700  0.1050  0.0587  0.4289
 4422SOL    HW124725   3.044   2.070   0.743  2.4422 -1.1541 -1.8588
 4422SOL    HW224726   3.118   2.144   0.639 -0.6736 -1.3985 -0.2374
 4423SOL     OW24727   0.024   3.266   7.820 -0.3809 -0.4605  0.4825
 4423SOL    HW124728   0.050   3.358   7.825 -3.1128  0.3835 -0.6039
 4423SOL    HW224729   4.670   3.283   7.874  1.1756 -1.8126  3.1082
 4424SOL     OW24730   4.411   2.138   0.922  0.2293 -0.1787  0.5597
 4424SOL    HW124731   4.449   2.225   0.931 -1.2731  0.4811  0.5109
 4424SOL    HW224732   4.407   2.117   1.015  0.1267  1.1884  0.8565
 4425SOL     OW24733   4.145   3.154   0.316  0.2403  0.2934  0.4294
 4425SOL    HW124734   4.134   3.059   0.325  0.9538  0.1086 -0.6143
 4425SOL    HW224735   4.208   3.160   0.244 -1.3231 -0.1406 -0.9882
 4426SOL     OW24736   1.857   2.038   9.183  0.0114  0.5882 -0.5027
 4426SOL    HW124737   1.896   1.951   9.186 -2.8880 -0.6708  0.6277
 4426SOL    HW224738   1.770   2.028   9.223 -0.6451 -2.4919 -2.7042
 4427SOL     OW24739   2.966   4.553   9.397 -0.2629  0.3414 -0.1289
 4427SOL    HW124740   2.910   4.562   9.320 -0.6170  1.6113  0.2896
 4427SOL    HW224741   2.917   4.574   9.476 -1.4101 -0.7167 -0.5583
 4428SOL     OW24742   3.894   4.671   1.403  0.2246 -0.5857 -0.1425
 4428SOL    HW124743   3.908   0.006   1.328  0.4964 -1.4700 -0.7859
 4428SOL    HW224744   3.823   4.619   1.364 -0.3515 -0.7792  1.1623
 4429SOL     OW24745   2.295   4.234  16.299  0.3184 -0.6302  0.4830
 4429SOL    HW124746   2.250   4.165  16.250 -0.1189 -0.8572  1.2142
 4429SOL    HW224747   2.271   4.204  16.386 -0.7544 -1.8023 -0.2056
 4430SOL     OW24748   1.372   3.650   8.791  0.0554  0.4832 -0.4364
 4430SOL    HW124749   1.298   3.705   8.814 -0.0490  0.7747 -1.4804
 4430SOL    HW224750   1.341   3.561   8.810 -1.1578  0.4060 -2.8885
 4431SOL     OW24751   2.799   0.543  12.996  0.5852  0.0717 -0.5520
 4431SOL    HW124752   2.737   0.497  12.939 -0.2902 -1.3516  1.5668
 4431SOL    HW224753   2.845   0.467  13.031 -0.5906 -1.2183 -1.7885
 4432SOL     OW24754   2.311   1.782  17.393 -0.0461 -0.4407 -0.4157
 4432SOL    HW124755   2.374   1.771  17.321 -1.2825  0.6500 -1.6570
 4432SOL    HW224756   2.312   1.878  17.403 -0.1461 -0.3693 -1.0944
 4433SOL     OW24757   3.077   3.939  16.287  0.3354 -0.3324  0.1853
 4433SOL    HW124758   3.141   3.881  16.327 -0.9832 -2.6407 -1.0667
 4433SOL    HW224759   3.117   3.930  16.200  0.6258  0.2412  0.2550
 4434SOL     OW24760   1.355   0.214   4.524 -0.2445 -0.0128  0.3766
 4434SOL    HW124761   1.338   0.267   4.601 -1.9026 -1.7118  1.1877
 4434SOL    HW224762   1.441   0.243   4.495 -0.6726  0.7196 -0.1669
 4435SOL     OW24763   4.591   2.415  10.758 -0.4507  0.7945 -0.5594
 4435SOL    HW124764   4.556   2.390  10.673  2.5548 -1.1883 -1.1870
 4435SOL    HW224765   4.657   2.481  10.736  2.1364 -2.0533 -1.2505
 4436SOL     OW24766   1.389   3.262   3.871 -0.1907 -0.3700  0.1741
 4436SOL    HW124767   1.299   3.262   3.902 -0.0480  0.6041  0.5773
 4436SOL    HW224768   1.392   3.351   3.837  0.4006 -0.9319 -1.2597
 4437SOL     OW24769   2.648   3.464   3.677 -0.5787 -0.0434 -0.0226
 4437SOL    HW124770   2.661   3.542   3.623  1.7739 -1.1754 -1.0836
 4437SOL    HW224771   2.681   3.394   3.621 -0.7664  0.7016 -1.0663
 4438SOL     OW24772   3.379   3.350   3.756 -0.0603 -0.3717 -0.0554
 4438SOL    HW124773   3.425   3.413   3.701  0.6425  1.2800  2.4005
 4438SOL    HW224774   3.300   3.321   3.711 -0.0044  0.5059 -0.7067
 4439SOL     OW24775   0.211   1.769   3.266 -0.3036 -0.4721 -0.3655
 4439SOL    HW124776   0.264   1.842   3.299  0.5104 -0.8106 -0.9569
 4439SOL    HW224777   0.284   1.713   3.241  2.3495  3.6833 -1.8638
 4440SOL     OW24778   2.483   1.858   9.456  0.1252  0.0575 -0.2857
 4440SOL    HW124779   2.496   1.808   9.376 -0.9580  1.6078 -1.4195
 4440SOL    HW224780   2.570   1.874   9.493  0.2163  3.0338 -1.7825
 4441SOL     OW24781   2.668   1.072  11.442 -0.3388 -0.3236  0.1620
 4441SOL    HW124782   2.659   0.977  11.435 -0.2367 -0.1758 -2.0929
 4441SOL    HW224783   2.716   1.068  11.524 -1.6253 -0.1538  0.9297
 4442SOL     OW24784   1.661   4.094   2.353 -0.6805 -0.5455 -0.1427
 4442SOL    HW124785   1.569   4.075   2.338 -0.5075 -0.6165 -1.1279
 4442SOL    HW224786   1.683   4.102   2.260  2.2467 -0.8430  0.5310
 4443SOL     OW24787   4.180   2.180   5.390  0.0895  0.2585 -0.1233
 4443SOL    HW124788   4.120   2.217   5.455  1.0181 -0.6417  1.2395
 4443SOL    HW224789   4.125   2.123   5.336 -1.4283  1.1971  0.4352
 4444SOL     OW24790   0.714   3.928   7.059 -0.5868 -0.2176  0.3078
 4444SOL    HW124791   0.789   3.987   7.053 -0.8887 -0.0396 -1.5188
 4444SOL    HW224792   0.762   3.846   7.073  0.6127  0.1039 -2.0349
 4445SOL     OW24793   0.456   2.419   1.836  0.0301  0.2188 -0.0133
 4445SOL    HW124794   0.511   2.484   1.792 -1.2760  2.3487  1.5216
 4445SOL    HW224795   0.370   2.460   1.825 -0.7463 -1.8659 -1.6691
 4446SOL     OW24796   3.407   4.361   6.518  0.1579  0.4897  0.5693
 4446SOL    HW124797   3.458   4.355   6.437  1.8869  2.3483  1.5352
 4446SOL    HW224798   3.455   4.308   6.581  1.3081  2.1936  1.1153
 4447SOL     OW24799   0.723   0.665   3.958 -0.0593 -0.1299  0.5271
 4447SOL    HW124800   0.767   0.711   3.887 -1.7021  2.1950  1.0024
 4447SOL    HW224801   0.640   0.710   3.978 -0.0544  0.0245  0.1987
 4448SOL     OW24802   1.587   0.369   7.681  0.3466 -0.7323  0.6289
 4448SOL    HW124803   1.517   0.434   7.672 -0.3389 -1.6611 -0.7137
 4448SOL    HW224804   1.589   0.338   7.591 -0.6176 -0.1583  0.4092
 4449SOL     OW24805   3.144   2.644   0.968 -0.5945 -0.2264  0.2410
 4449SOL    HW124806   3.065   2.592   0.981 -0.9475  0.4266  0.7162
 4449SOL    HW224807   3.199   2.594   1.028 -0.0686  0.2615  0.1684
 4450SOL     OW24808   2.712   2.339  11.701 -0.4111 -0.0725  0.0852
 4450SOL    HW124809   2.684   2.262  11.750 -0.9371  0.1932  0.2010
 4450SOL    HW224810   2.789   2.302  11.658 -0.4194 -0.3539  0.3053
 4451SOL     OW24811   2.574   3.446   6.847 -0.0742 -0.3899 -0.0718
 4451SOL    HW124812   2.592   3.506   6.920 -1.1325  0.9754 -0.9252
 4451SOL    HW224813   2.552   3.508   6.777  0.4990  0.1867  0.2557
 4452SOL     OW24814   1.740   3.246   8.766 -0.1141  0.7375  0.4116
 4452SOL    HW124815   1.646   3.231   8.764 -0.2227  1.4419 -0.0862
 4452SOL    HW224816   1.744   3.316   8.701  0.5214  1.2213  0.9594
 4453SOL     OW24817   1.204   4.376  15.667  0.1943  0.5281 -0.0445
 4453SOL    HW124818   1.179   4.401  15.578  0.5539  3.3886  0.6838
 4453SOL    HW224819   1.262   4.305  15.641 -0.5545 -1.1524  2.8051
 4454SOL     OW24820   0.301   3.220   0.677 -0.3501  0.2459 -0.2508
 4454SOL    HW124821   0.246   3.189   0.749  0.4482 -0.5414  0.0301
 4454SOL    HW224822   0.271   3.309   0.659  1.8640  0.8672 -0.8830
 4455SOL     OW24823   2.932   0.216   5.787  0.4805  0.1523  0.3211
 4455SOL    HW124824   2.907   0.124   5.795  0.7014  0.0613 -0.0290
 4455SOL    HW224825   2.886   0.246   5.708  0.4503 -1.1286 -0.1414
 4456SOL     OW24826   0.667   3.413   4.407 -0.5698 -0.3994  0.2775
 4456SOL    HW124827   0.683   3.492   4.355  2.3839 -1.2791 -0.1229
 4456SOL    HW224828   0.572   3.412   4.397 -0.5447  2.1407 -0.0644
 4457SOL     OW24829   0.612   0.581   0.486 -0.2698 -0.0660  0.3641
 4457SOL    HW124830   0.534   0.530   0.505 -0.1675  0.1023  1.2562
 4457SOL    HW224831   0.586   0.653   0.428 -0.5296  0.7745  1.5104
 4458SOL     OW24832   3.404   0.067   3.400 -0.0983 -0.1528 -0.0009
 4458SOL    HW124833   3.310   0.082   3.414 -0.1362  1.1679 -1.6806
 4458SOL    HW224834   3.444   0.145   3.437  1.2545 -0.6782 -0.3660
 4459SOL     OW24835   2.023   3.411   7.804  0.4798  0.3372 -0.1938
 4459SOL    HW124836   1.995   3.379   7.890  0.2213 -0.0532 -0.4287
 4459SOL    HW224837   1.952   3.471   7.783 -0.5463 -0.4426  1.0662
 4460SOL     OW24838   0.625   3.816   6.008  0.1601 -0.4569 -0.2331
 4460SOL    HW124839   0.622   3.853   5.919 -0.0725 -1.6774 -0.7338
 4460SOL    HW224840   0.574   3.886   6.050  1.6258 -0.3430  1.3510
 4461SOL     OW24841   0.210   0.610   3.840 -0.3041  0.0889  0.6497
 4461SOL    HW124842   0.119   0.614   3.811 -1.5671 -2.3117  4.1968
 4461SOL    HW224843   0.220   0.518   3.864  2.7637  0.1993 -0.1526
 4462SOL     OW24844   4.269   1.011   0.845  0.6423 -0.3516  0.3972
 4462SOL    HW124845   4.295   0.919   0.845  0.0303 -0.5146 -3.1841
 4462SOL    HW224846   4.352   1.042   0.811 -0.1739  2.3029  0.8038
 4463SOL     OW24847   0.631   2.943   7.180 -0.4933 -0.1833 -0.1559
 4463SOL    HW124848   0.542   2.972   7.204 -0.1280 -0.5566  1.6344
 4463SOL    HW224849   0.613   2.882   7.108 -3.0335  2.2507 -1.6227
 4464SOL     OW24850   3.553   4.552   7.413  0.2515 -0.3788 -0.4445
 4464SOL    HW124851   3.476   4.500   7.436  0.0757  0.8972  1.8746
 4464SOL    HW224852   3.556   4.605   7.492 -2.7906 -1.2317  0.2498
 4465SOL     OW24853   3.970   1.983   4.292  0.0356 -0.2443  0.8192
 4465SOL    HW124854   4.029   1.961   4.220  0.8594  1.8365  0.8624
 4465SOL    HW224855   3.913   1.906   4.293  0.1436 -0.3670 -2.0777
 4466SOL     OW24856   4.591   3.912   1.462  0.0327 -0.3657  0.1782
 4466SOL    HW124857   4.671   3.928   1.412 -1.5150  0.6274 -1.9539
 4466SOL    HW224858   4.561   3.830   1.424 -0.9101  0.8628 -1.7091
 4467SOL     OW24859   0.860   3.782  15.519  0.5813  0.2303 -0.6403
 4467SOL    HW124860   0.924   3.712  15.505 -0.6104 -1.2146  1.1537
 4467SOL    HW224861   0.791   3.768  15.454 -0.2803  2.6384 -0.2084
 4468SOL     OW24862   3.845   2.991   4.838 -0.1471  0.4021  0.8061
 4468SOL    HW124863   3.781   2.987   4.909  0.3079  0.4938  1.2187
 4468SOL    HW224864   3.901   3.066   4.859  0.9282 -0.5610  1.3524
 4469SOL     OW24865   1.612   1.923   6.805  0.1804  0.1480  0.0150
 4469SOL    HW124866   1.671   1.965   6.868  1.4079  0.2409 -1.2062
 4469SOL    HW224867   1.561   1.991   6.763 -0.0053 -0.6770 -1.0864
 4470SOL     OW24868   3.995   2.276   5.029  0.4972  0.5985 -0.4838
 4470SOL    HW124869   4.086   2.259   5.053  0.3084  1.3165  0.7519
 4470SOL    HW224870   4.008   2.316   4.943  1.2219 -1.5404 -1.3535
 4471SOL     OW24871   0.039   3.538   1.536  0.3923 -0.0000  0.3969
 4471SOL    HW124872   0.102   3.577   1.475 -0.4149  1.2418  0.3463
 4471SOL    HW224873   0.086   3.538   1.619  0.6976  0.5619  0.2257
 4472SOL     OW24874   0.153   2.012  13.815  0.0819  0.6720 -0.1568
 4472SOL    HW124875   0.080   2.035  13.873 -0.1887  0.5303 -0.4403
 4472SOL    HW224876   0.218   1.986  13.880  0.4044 -0.6456 -1.0156
 4473SOL     OW24877   1.839   1.828  12.608 -0.1145 -0.6671 -0.0593
 4473SOL    HW124878   1.839   1.912  12.653  3.1108  0.3547 -1.9602
 4473SOL    HW224879   1.930   1.802  12.625 -0.6460 -1.5311  1.4700
 4474SOL     OW24880   4.624   1.128   6.600  0.1038  0.4052 -0.2692
 4474SOL    HW124881   4.609   1.210   6.648  1.0217  0.6411 -0.3981
 4474SOL    HW224882   4.574   1.136   6.518 -0.2483 -0.6206 -0.1507
 4475SOL     OW24883   2.123   1.700   4.535  0.1397 -1.0117 -0.0724
 4475SOL    HW124884   2.150   1.783   4.498  1.1970 -1.0902  0.5196
 4475SOL    HW224885   2.126   1.709   4.631  0.5408  0.9731 -0.2792
 4476SOL     OW24886   2.514   4.008  11.952  0.3546  0.2218  0.1878
 4476SOL    HW124887   2.535   3.926  11.907  0.2020  1.2934 -1.8570
 4476SOL    HW224888   2.466   3.965  12.022  0.6725 -1.5423 -0.6675
 4477SOL     OW24889   2.297   4.103   2.591 -0.0904  0.0990 -0.2563
 4477SOL    HW124890   2.253   4.186   2.575  1.0623  0.4039 -1.8562
 4477SOL    HW224891   2.238   4.037   2.555 -0.9204  0.5993  0.1845
 4478SOL     OW24892   2.919   4.561   4.028 -0.3832 -0.2016  0.0996
 4478SOL    HW124893   2.862   4.595   4.098  1.0523  4.5612 -1.0404
 4478SOL    HW224894   3.002   4.550   4.075  0.0600  0.7183 -0.4615
 4479SOL     OW24895   2.824   0.937   8.158 -0.2086 -0.3220  0.4348
 4479SOL    HW124896   2.812   0.917   8.251  2.7706 -0.9827  0.6778
 4479SOL    HW224897   2.745   0.989   8.142  1.0331  1.3459 -0.2888
 4480SOL     OW24898   4.259   4.343   9.549  0.3592  0.0289 -0.0350
 4480SOL    HW124899   4.341   4.296   9.563  0.4599  0.2029 -0.0354
 4480SOL    HW224900   4.262   4.405   9.621  0.7500  0.8191 -0.7260
 4481SOL     OW24901   1.083   1.338   5.774  0.0287 -0.5305  0.5383
 4481SOL    HW124902   1.137   1.391   5.832  0.9663 -0.5661 -0.3033
 4481SOL    HW224903   1.146   1.266   5.774 -0.3389 -0.8469 -1.3224
 4482SOL     OW24904   4.218   3.183   7.969  0.6076  0.2490 -0.3202
 4482SOL    HW124905   4.201   3.216   8.057 -0.9897  0.1868 -0.6174
 4482SOL    HW224906   4.292   3.123   7.982  0.4110  0.0490 -0.1100
 4483SOL     OW24907   0.838   4.134   3.838 -0.5019  0.0370 -0.2140
 4483SOL    HW124908   0.874   4.092   3.759 -0.0199  1.7754 -0.9161
 4483SOL    HW224909   0.744   4.138   3.819 -0.2904  0.5946 -1.1406
 4484SOL     OW24910   3.596   0.572  12.693  0.2790 -0.2680  0.0051
 4484SOL    HW124911   3.614   0.645  12.634 -1.7581  1.0190  0.9992
 4484SOL    HW224912   3.665   0.573  12.759 -0.2058  0.4027  0.5031
 4485SOL     OW24913   3.788   4.189   5.912  0.3483  0.0588 -0.0133
 4485SOL    HW124914   3.763   4.112   5.860  0.4499 -1.0720  1.6106
 4485SOL    HW224915   3.776   4.265   5.854  3.2905 -0.5549 -1.4405
 4486SOL     OW24916   4.525   1.319  16.174  0.6444 -0.1538 -0.5203
 4486SOL    HW124917   4.481   1.325  16.089 -1.0509  2.5932  0.5403
 4486SOL    HW224918   4.555   1.410  16.179 -0.2270  0.1059 -0.0862
 4487SOL     OW24919   0.965   3.890   1.472 -0.4851  0.1340  0.4261
 4487SOL    HW124920   0.957   3.985   1.459 -2.2746 -0.0335  0.2853
 4487SOL    HW224921   1.055   3.868   1.446 -0.5018 -0.8847  1.2503
 4488SOL     OW24922   3.879   3.318   9.066  0.0970  0.7257 -0.2122
 4488SOL    HW124923   3.891   3.345   9.157 -1.4408  1.6425 -0.2808
 4488SOL    HW224924   3.971   3.322   9.038 -0.4073  0.6929 -1.8575
 4489SOL     OW24925   4.511   1.498  12.596 -0.1661  0.0697  0.2644
 4489SOL    HW124926   4.450   1.510  12.523  1.2763  1.9133 -0.6287
 4489SOL    HW224927   4.531   1.585  12.630 -0.4646  0.7818 -1.4135
 4490SOL     OW24928   1.275   0.035   3.652 -0.5270  0.0074 -0.0756
 4490SOL    HW124929   1.299   4.677   3.607 -0.7105 -1.3574  2.2716
 4490SOL    HW224930   1.219   4.718   3.718  0.1239  1.7105  1.5089
 4491SOL     OW24931   3.143   0.337   4.557 -0.3690  0.0261  0.9722
 4491SOL    HW124932   3.087   0.381   4.621 -0.6885 -0.5290  1.0741
 4491SOL    HW224933   3.204   0.410   4.544 -0.0652 -0.6957 -1.8382
 4492SOL     OW24934   0.119   0.096   1.432  0.2609 -0.2092 -0.1491
 4492SOL    HW124935   0.101   0.188   1.414 -0.6187 -0.1829  0.8392
 4492SOL    HW224936   0.121   0.103   1.528 -0.8645  0.1472 -0.1492
 4493SOL     OW24937   2.676   1.985   4.212 -0.6391  0.1071 -0.0765
 4493SOL    HW124938   2.656   2.076   4.189  0.2062  0.4978  0.7253
 4493SOL    HW224939   2.730   1.961   4.136  2.6757  3.3070  1.2493
 4494SOL     OW24940   2.364   0.773  11.328  0.1894 -0.2141  0.4066
 4494SOL    HW124941   2.332   0.858  11.297  1.8429  0.3822  0.3227
 4494SOL    HW224942   2.350   0.786  11.422 -0.8391 -1.1640  0.3833
 4495SOL     OW24943   0.510   0.764   7.202  0.3297  1.0832  0.2650
 4495SOL    HW124944   0.595   0.721   7.210  0.9180  2.1868  0.0090
 4495SOL    HW224945   0.456   0.697   7.160 -0.1874  1.0805  0.9179
 4496SOL     OW24946   4.282   2.819   9.763 -0.3243 -0.5256  0.2273
 4496SOL    HW124947   4.353   2.833   9.826 -1.6498  0.2347  1.5658
 4496SOL    HW224948   4.262   2.729   9.789 -1.5696 -0.5408 -0.7566
 4497SOL     OW24949   2.624   2.219   4.484  0.1960 -0.1355  0.1060
 4497SOL    HW124950   2.575   2.210   4.566 -0.2087  0.3557 -0.0808
 4497SOL    HW224951   2.666   2.133   4.485 -2.4760 -1.4878 -2.5138
 4498SOL     OW24952   1.792   0.701   5.484 -0.0716 -0.5491  0.3308
 4498SOL    HW124953   1.714   0.646   5.491 -0.2221 -0.3659  0.0686
 4498SOL    HW224954   1.839   0.700   5.567  1.9318  0.5881 -0.7843
 4499SOL     OW24955   0.007   2.037  12.725 -0.5467  0.0641 -0.1677
 4499SOL    HW124956   4.710   1.990  12.645  1.8169  0.8721 -1.2407
 4499SOL    HW224957   0.096   2.003  12.737 -2.0511 -3.7655  0.1338
 4500SOL     OW24958   3.442   1.300   4.537  0.1677 -0.1777 -0.4223
 4500SOL    HW124959   3.498   1.318   4.462 -1.0329  2.4194 -0.7161
 4500SOL    HW224960   3.403   1.388   4.539  0.0380 -0.2145 -1.7649
 4501SOL     OW24961   3.547   3.133   2.642  0.4408  0.0469  0.5988
 4501SOL    HW124962   3.619   3.070   2.636  1.3418  1.1174  0.0855
 4501SOL    HW224963   3.523   3.146   2.733  0.1222 -0.5923  0.6081
 4502SOL     OW24964   2.690   0.837  14.843  0.0844  0.4208 -0.1002
 4502SOL    HW124965   2.671   0.914  14.897 -0.2662  0.7187 -0.6367
 4502SOL    HW224966   2.603   0.802  14.860  0.6596 -0.4732  0.9867
 4503SOL     OW24967   1.763   4.169   5.381 -0.4174  0.5913  0.0639
 4503SOL    HW124968   1.678   4.131   5.359 -0.6009  0.8746  0.2774
 4503SOL    HW224969   1.744   4.219   5.461 -1.7777  0.4246 -0.1529
 4504SOL     OW24970   1.443   2.058   6.618  0.2595 -0.0802  0.3847
 4504SOL    HW124971   1.482   2.143   6.597  0.7328 -0.3111  0.3217
 4504SOL    HW224972   1.408   2.036   6.532  0.9698  0.1723  0.0273
 4505SOL     OW24973   2.674   4.067  11.429 -0.5609 -0.0381 -0.2007
 4505SOL    HW124974   2.596   4.078  11.484 -0.7567 -2.8750  0.0844
 4505SOL    HW224975   2.637   4.064  11.341  0.1536  0.7204 -0.5212
 4506SOL     OW24976   3.633   2.764   5.104 -0.3915  0.2666  0.3998
 4506SOL    HW124977   3.641   2.682   5.056  3.5447 -0.4408  2.3215
 4506SOL    HW224978   3.607   2.733   5.191 -0.0760  0.9984  0.7592
 4507SOL     OW24979   1.763   4.165  15.397 -0.0591  0.3617 -0.1126
 4507SOL    HW124980   1.684   4.218  15.397 -0.3578 -0.0874 -0.0631
 4507SOL    HW224981   1.745   4.105  15.325  0.4386  0.4279 -0.2910
 4508SOL     OW24982   1.502   2.762   3.200 -0.5766  0.1024 -0.1050
 4508SOL    HW124983   1.551   2.806   3.270 -0.0066 -1.0238  0.2132
 4508SOL    HW224984   1.495   2.836   3.141 -1.6893 -0.1827 -0.3410
 4509SOL     OW24985   2.913   0.044   8.137  0.2464 -0.6279  0.5756
 4509SOL    HW124986   2.908   4.723   8.222 -0.9802 -0.5996  0.5135
 4509SOL    HW224987   2.883   0.126   8.176 -0.4453  0.5648 -2.4692
 4510SOL     OW24988   2.792   3.333   7.219 -0.3170 -0.4867  0.7055
 4510SOL    HW124989   2.838   3.306   7.139 -0.8231 -2.4084  1.0713
 4510SOL    HW224990   2.703   3.297   7.213 -0.6164  0.3332  0.2061
 4511SOL     OW24991   1.485   0.660   6.479  0.2561  0.3715 -0.8074
 4511SOL    HW124992   1.443   0.621   6.556  0.4091  0.4917 -0.6640
 4511SOL    HW224993   1.480   0.583   6.423 -4.6759  0.4662 -0.5394
 4512SOL     OW24994   3.714   3.608   1.792 -0.0036  0.0713 -0.0554
 4512SOL    HW124995   3.748   3.675   1.851 -0.0984  0.8139 -0.8381
 4512SOL    HW224996   3.704   3.657   1.710  0.5857  0.5725  0.1734
 4513SOL     OW24997   3.318   3.350   5.155  0.0512  0.2508  0.5036
 4513SOL    HW124998   3.372   3.274   5.175 -0.3969 -0.4966 -1.1335
 4513SOL    HW224999   3.302   3.348   5.061  3.1174  2.4843 -0.1024
 4514SOL     OW25000   3.336   1.632   9.486  0.2950  0.5956  0.9112
 4514SOL    HW125001   3.423   1.665   9.510 -0.1093  3.1230 -1.0844
 4514SOL    HW225002   3.355   1.541   9.463  0.7879  0.6093  1.2484
 4515SOL     OW25003   3.793   1.450   7.092  0.4453 -0.3473 -0.2833
 4515SOL    HW125004   3.775   1.544   7.099  3.4695  0.2006  0.0811
 4515SOL    HW225005   3.731   1.428   7.022 -1.1445  0.4892  0.8645
 4516SOL     OW25006   0.704   4.444   6.684 -0.8164  0.0429  0.2236
 4516SOL    HW125007   0.654   4.422   6.762  1.8683 -1.2989  1.5426
 4516SOL    HW225008   0.771   4.498   6.726 -0.0357 -0.1304 -0.7789
 4517SOL     OW25009   0.569   3.561   9.032  0.1690 -0.6352  0.0345
 4517SOL    HW125010   0.487   3.611   9.039  1.0098  0.6666  0.3772
 4517SOL    HW225011   0.608   3.606   8.957  0.3083 -1.2136 -0.2438
 4518SOL     OW25012   3.248   4.432  10.399 -0.5752 -0.1082  0.5923
 4518SOL    HW125013   3.218   4.401  10.314  2.3409 -1.2049 -0.0604
 4518SOL    HW225014   3.264   4.524  10.377 -1.1455 -0.3799 -0.9588
 4519SOL     OW25015   0.039   1.544   8.223  0.0666  0.3978  0.4650
 4519SOL    HW125016   0.077   1.459   8.245 -0.0030  1.0566  3.1519
 4519SOL    HW225017   4.723   1.562   8.308  0.5449  0.4193  0.6810
 4520SOL     OW25018   4.260   2.693   9.277 -0.3698 -0.3541  0.4860
 4520SOL    HW125019   4.204   2.769   9.258  0.4848  0.2103  0.2578
 4520SOL    HW225020   4.288   2.656   9.193  0.4927 -2.6748  1.8212
 4521SOL     OW25021   2.337   2.109   8.331  0.2124  0.1336 -0.1734
 4521SOL    HW125022   2.281   2.060   8.270 -1.0354  0.3887  0.7677
 4521SOL    HW225023   2.416   2.057   8.320  0.4954 -0.0155  2.6384
 4522SOL     OW25024   3.730   3.646  10.186 -0.0210  0.4171  0.2584
 4522SOL    HW125025   3.659   3.666  10.246 -0.5219 -1.1514  0.1872
 4522SOL    HW225026   3.799   3.653  10.252  0.3196  1.9071 -0.2399
 4523SOL     OW25027   3.079   1.102   0.722  0.2561  0.2140  0.4430
 4523SOL    HW125028   3.052   1.020   0.680  1.9786 -0.7083  1.1829
 4523SOL    HW225029   3.155   1.083   0.776 -0.5304 -0.0544  1.4481
 4524SOL     OW25030   2.190   3.663  11.495 -0.0761  0.3302 -0.8892
 4524SOL    HW125031   2.181   3.589  11.555 -0.8634  0.8753 -0.3470
 4524SOL    HW225032   2.203   3.610  11.416  3.4487 -0.0145 -0.0397
 4525SOL     OW25033   1.713   0.329  14.867  0.4160  0.9132 -0.1723
 4525SOL    HW125034   1.662   0.332  14.949 -0.5431  1.0923 -0.7680
 4525SOL    HW225035   1.668   0.400  14.820  0.0275  1.0112  0.3376
 4526SOL     OW25036   1.965   0.406   8.041 -0.2472 -0.4991 -0.6265
 4526SOL    HW125037   1.932   0.382   7.955 -0.2281  0.4184 -0.8893
 4526SOL    HW225038   1.897   0.367   8.097  1.8975 -2.9509  0.2779
 4527SOL     OW25039   3.292   3.864   8.620 -0.2082 -0.4108  0.4086
 4527SOL    HW125040   3.324   3.798   8.681  1.9342  0.9325  0.7769
 4527SOL    HW225041   3.368   3.923   8.613 -0.7131  0.3530  1.2976
 4528SOL     OW25042   4.030   4.131  12.379  0.1390  0.1379  0.5688
 4528SOL    HW125043   4.027   4.196  12.450  0.0097 -0.8216  1.4348
 4528SOL    HW225044   4.121   4.104  12.377  0.2100  0.3780  0.4763
 4529SOL     OW25045   4.083   3.312   2.201 -0.3173 -0.0802 -0.0076
 4529SOL    HW125046   4.166   3.359   2.189 -0.6188  0.2610 -0.8255
 4529SOL    HW225047   4.025   3.365   2.146  0.4179 -1.6181 -2.2898
 4530SOL     OW25048   2.522   1.866   5.564 -0.0874 -0.1315  0.0915
 4530SOL    HW125049   2.494   1.809   5.492  0.2046 -1.6017  1.1533
 4530SOL    HW225050   2.613   1.839   5.576  0.2120  0.7934 -0.1004
 4531SOL     OW25051   0.282   1.567   4.973  0.1149 -0.8687 -0.2747
 4531SOL    HW125052   0.277   1.508   4.898  0.3858  0.7852 -1.5939
 4531SOL    HW225053   0.363   1.535   5.014 -0.2348 -1.9032 -0.3773
 4532SOL     OW25054   2.326   2.780   4.236 -0.3870  0.3079  0.0445
 4532SOL    HW125055   2.319   2.741   4.148  0.0136  3.2823 -1.2950
 4532SOL    HW225056   2.242   2.756   4.274 -0.0742 -0.4733  0.2460
 4533SOL     OW25057   2.149   3.474   6.310 -1.3906 -0.1028 -0.0950
 4533SOL    HW125058   2.173   3.516   6.228  2.1275 -1.3375  0.3246
 4533SOL    HW225059   2.070   3.427   6.281 -0.3681 -0.5808 -2.1048
 4534SOL     OW25060   1.610   3.135   6.696  0.1446 -0.0802  0.6260
 4534SOL    HW125061   1.558   3.154   6.774  0.5349 -1.2567  1.1793
 4534SOL    HW225062   1.696   3.162   6.727 -0.0558  0.1859  0.9464
 4535SOL     OW25063   2.446   3.548   7.845  0.1502  0.4797 -0.5805
 4535SOL    HW125064   2.455   3.529   7.939  0.9635  0.7235 -0.6083
 4535SOL    HW225065   2.497   3.474   7.811 -0.4372  0.0799 -0.5781
 4536SOL     OW25066   0.478   1.030   3.935 -0.1883  0.0007  0.1526
 4536SOL    HW125067   0.469   0.954   3.878 -0.4785  0.2067 -0.0788
 4536SOL    HW225068   0.398   1.082   3.926 -1.6320 -2.2218  0.3107
 4537SOL     OW25069   2.140   1.725  15.773 -0.1839  0.2095 -0.5472
 4537SOL    HW125070   2.172   1.809  15.739 -0.1091 -0.4136 -2.0005
 4537SOL    HW225071   2.054   1.744  15.810  0.3969  0.2631  0.7550
 4538SOL     OW25072   4.351   3.875   4.927 -0.1161 -0.5462 -0.1191
 4538SOL    HW125073   4.306   3.883   4.843 -1.1811  1.6643  0.6691
 4538SOL    HW225074   4.353   3.780   4.940  0.3918 -0.8545 -2.4250
 4539SOL     OW25075   2.513   2.479  11.930  0.0080 -1.0291  0.4444
 4539SOL    HW125076   2.475   2.457  11.845 -0.7002 -0.9496  0.7434
 4539SOL    HW225077   2.436   2.514  11.973  1.0549 -0.9153  2.2437
 4540SOL     OW25078   3.786   3.744   8.801 -0.0153 -0.2802  0.4678
 4540SOL    HW125079   3.749   3.667   8.844  2.3384 -1.6621 -0.0303
 4540SOL    HW225080   3.771   3.811   8.869  0.3882 -0.0659  0.3448
 4541SOL     OW25081   1.418   1.075   7.400 -0.1647  0.2259  0.0610
 4541SOL    HW125082   1.469   0.998   7.426 -0.0887  1.4344  3.4696
 4541SOL    HW225083   1.483   1.133   7.360 -1.9517  1.1759 -1.4303
 4542SOL     OW25084   3.084   1.259  17.183 -0.5466  0.2037 -0.4495
 4542SOL    HW125085   3.107   1.352  17.191  1.0938 -0.4352  2.2931
 4542SOL    HW225086   3.002   1.267  17.134 -1.5043 -0.0760  1.1116
 4543SOL     OW25087   0.605   2.375   2.216 -0.0721 -0.2037  0.0170
 4543SOL    HW125088   0.567   2.309   2.159  0.5413  0.8131 -1.5795
 4543SOL    HW225089   0.688   2.393   2.172 -0.6398 -1.9923 -1.7544
 4544SOL     OW25090   2.537   3.419   4.475 -0.0829  0.1871  0.4149
 4544SOL    HW125091   2.590   3.411   4.554 -0.3469 -2.2756  0.3429
 4544SOL    HW225092   2.593   3.381   4.407 -1.2308 -0.0324 -0.4168
 4545SOL     OW25093   2.702   3.446   4.971 -0.0812 -0.3900 -0.1737
 4545SOL    HW125094   2.703   3.426   4.877 -2.6604 -0.4764 -0.1708
 4545SOL    HW225095   2.628   3.397   5.006 -0.4474 -0.6947 -1.3441
 4546SOL     OW25096   3.306   0.901   8.989  0.0650  0.5457 -0.6744
 4546SOL    HW125097   3.396   0.869   9.001 -0.6932 -1.3659 -0.0410
 4546SOL    HW225098   3.267   0.821   9.024 -1.5145  0.5853 -2.4104
 4547SOL     OW25099   1.219   4.667   4.011 -0.5029  0.2526  0.4637
 4547SOL    HW125100   1.243   4.577   4.030  3.6981  1.3852  0.6152
 4547SOL    HW225101   1.126   4.670   4.034 -0.8607  1.6347 -1.1169
 4548SOL     OW25102   1.906   2.989  12.426  0.3270 -0.0152 -0.0726
 4548SOL    HW125103   1.967   3.006  12.497 -0.1604 -1.2286  0.6275
 4548SOL    HW225104   1.830   2.976  12.482 -0.0446 -1.1880 -0.8656
 4549SOL     OW25105   1.566   0.967   8.041  0.3397  0.1188 -0.0314
 4549SOL    HW125106   1.478   1.004   8.054  0.1548 -1.7150  4.0344
 4549SOL    HW225107   1.622   1.029   8.087 -0.0130  0.3417  0.0986
 4550SOL     OW25108   1.736   0.084   0.040 -0.0160  0.0075  0.1146
 4550SOL    HW125109   1.796   0.153   0.068 -0.3018  0.0510  0.6130
 4550SOL    HW225110   1.654   0.128   0.016  1.5068  2.9856  0.4012
 4551SOL     OW25111   2.408   4.593   3.620  0.6148  0.5443  0.1489
 4551SOL    HW125112   2.431   4.563   3.709  1.0382 -0.0273 -0.1544
 4551SOL    HW225113   2.327   4.549   3.596  0.2598  0.4895  1.4349
 4552SOL     OW25114   3.307   3.975  15.044 -0.3774 -0.2657 -0.0587
 4552SOL    HW125115   3.254   4.054  15.061 -1.8413 -1.5332  1.2605
 4552SOL    HW225116   3.396   4.005  15.063  0.1714 -1.1641 -1.2007
 4553SOL     OW25117   3.162   1.829   8.436  0.1592 -0.2543  0.8085
 4553SOL    HW125118   3.108   1.908   8.442  0.0982 -0.2745  0.5162
 4553SOL    HW225119   3.119   1.791   8.359  3.6586  0.7304 -1.5986
 4554SOL     OW25120   2.182   0.574   8.782  0.2122  0.3461  0.3989
 4554SOL    HW125121   2.273   0.603   8.777  0.1539  0.3932 -0.4010
 4554SOL    HW225122   2.139   0.659   8.784 -0.4259  0.0312  0.1860
 4555SOL     OW25123   4.381   1.112   5.219  0.0382 -0.3029 -0.1195
 4555SOL    HW125124   4.361   1.082   5.130  0.7962  1.1385 -0.7700
 4555SOL    HW225125   4.429   1.193   5.206 -4.3693  2.4799  0.8295
 4556SOL     OW25126   4.349   3.567   8.020 -0.1707  0.1633  0.2050
 4556SOL    HW125127   4.283   3.530   8.078 -0.1056 -1.6399 -0.8942
 4556SOL    HW225128   4.340   3.660   8.040 -1.8000  0.2174 -0.7907
 4557SOL     OW25129   0.004   2.065  14.052 -0.1135 -0.4912  0.1794
 4557SOL    HW125130   4.685   2.124  14.115  0.3546  1.3919 -1.2604
 4557SOL    HW225131   0.036   2.001  14.116 -1.1734 -0.7490  0.4471
 4558SOL     OW25132   2.823   1.820   3.405 -0.5520  0.0049  0.6188
 4558SOL    HW125133   2.860   1.876   3.473 -2.1182  1.0184  0.6306
 4558SOL    HW225134   2.810   1.741   3.458 -1.7272 -0.2128 -0.0101
 4559SOL     OW25135   1.538   2.399   5.274  0.7270  0.2588 -0.1939
 4559SOL    HW125136   1.596   2.352   5.334 -0.5655  1.6005  2.1323
 4559SOL    HW225137   1.598   2.449   5.219 -1.0542  2.0562 -0.4935
 4560SOL     OW25138   1.900   3.917  11.880 -0.3425 -0.4271  0.1354
 4560SOL    HW125139   1.895   4.009  11.908 -2.8444 -1.0672  1.8394
 4560SOL    HW225140   1.981   3.917  11.830  1.0739 -1.3321  2.4573
 4561SOL     OW25141   2.548   2.175   4.765  0.4808 -0.0075 -0.3474
 4561SOL    HW125142   2.538   2.081   4.774 -1.7600  0.5311  2.9567
 4561SOL    HW225143   2.571   2.196   4.856 -0.8081  0.6794 -0.1628
 4562SOL     OW25144   4.065   2.282   9.115 -0.3914 -0.0708 -0.0395
 4562SOL    HW125145   4.005   2.233   9.058 -1.1601 -0.1506  0.8432
 4562SOL    HW225146   4.150   2.262   9.075 -0.5269 -3.0713  1.1967
 4563SOL     OW25147   3.846   0.471   1.712  0.2122 -0.3236  0.2140
 4563SOL    HW125148   3.908   0.450   1.782 -0.2766 -0.7588  0.5209
 4563SOL    HW225149   3.815   0.393   1.665 -1.1436 -2.1329  4.0915
 4564SOL     OW25150   4.462   1.451   3.511  0.3099  0.2040  0.0725
 4564SOL    HW125151   4.458   1.506   3.589  1.7181  1.6484 -0.8780
 4564SOL    HW225152   4.546   1.410   3.530 -0.3296 -0.5220  1.3450
 4565SOL     OW25153   3.487   1.758  14.707 -0.4456 -0.3679 -0.1546
 4565SOL    HW125154   3.405   1.806  14.723  0.3809  1.3085 -0.9202
 4565SOL    HW225155   3.549   1.782  14.776  0.1859 -0.1763 -0.7899
 4566SOL     OW25156   4.218   1.122   7.968  0.0629 -0.1193  0.0945
 4566SOL    HW125157   4.251   1.077   8.046  0.2432 -1.9797 -1.0466
 4566SOL    HW225158   4.155   1.058   7.936  0.1304 -0.2579  0.2358
 4567SOL     OW25159   0.400   3.050  14.106  0.0154  0.7738  0.4350
 4567SOL    HW125160   0.345   3.102  14.164 -1.4247  0.7475 -0.8868
 4567SOL    HW225161   0.391   3.107  14.029  1.8069  1.9346  1.1059
 4568SOL     OW25162   2.803   0.878   3.698 -0.5169 -0.3014  0.1452
 4568SOL    HW125163   2.748   0.900   3.772  1.3118  0.0821  1.3983
 4568SOL    HW225164   2.822   0.957   3.648  2.2520 -0.7542  0.4799
 4569SOL     OW25165   0.561   4.171   2.490  0.0755  0.1481  0.1650
 4569SOL    HW125166   0.542   4.172   2.397 -1.0387 -2.8720  0.3411
 4569SOL    HW225167   0.524   4.086   2.516 -1.9066  0.7611 -0.6698
 4570SOL     OW25168   4.150   4.353  13.194 -0.3156  0.5611 -0.4364
 4570SOL    HW125169   4.212   4.425  13.187  0.4859 -0.2999 -2.0568
 4570SOL    HW225170   4.206   4.289  13.238 -1.0419 -0.1582 -0.5453
 4571SOL     OW25171   0.841   3.019  17.111  0.6001  0.4192  0.4508
 4571SOL    HW125172   0.870   2.938  17.152  1.1608 -0.0143 -0.8265
 4571SOL    HW225173   0.914   3.080  17.104 -0.1246  1.1697 -0.6283
 4572SOL     OW25174   1.884   0.654   3.343  0.2436 -0.1417  0.2195
 4572SOL    HW125175   1.976   0.636   3.325  0.1731  0.9388 -1.1847
 4572SOL    HW225176   1.892   0.702   3.426  2.3250 -0.8678  0.4368
 4573SOL     OW25177   2.413   3.528   8.132 -1.0288  0.3612 -0.0779
 4573SOL    HW125178   2.372   3.603   8.174 -1.6228 -0.1349  0.2261
 4573SOL    HW225179   2.347   3.463   8.156  0.7891 -1.7034 -0.7265
 4574SOL     OW25180   3.612   2.640   3.898 -0.0382 -0.3513 -0.3226
 4574SOL    HW125181   3.708   2.641   3.898 -0.0466  2.4582  0.1949
 4574SOL    HW225182   3.591   2.684   3.981  1.0837 -1.1237  0.3756
 4575SOL     OW25183   3.465   0.185   2.486 -0.1471  0.1476  0.4024
 4575SOL    HW125184   3.507   0.250   2.542 -1.6575  1.0217  0.5098
 4575SOL    HW225185   3.507   0.201   2.402 -1.3397 -0.7777 -0.3738
 4576SOL     OW25186   4.230   1.778  15.433  0.2423 -0.1015 -0.2991
 4576SOL    HW125187   4.155   1.834  15.411 -0.2307 -0.0967  1.3358
 4576SOL    HW225188   4.220   1.710  15.366 -1.7044 -0.2877  0.1657
 4577SOL     OW25189   3.958   0.840   2.883 -0.1164  0.6039  0.3989
 4577SOL    HW125190   3.896   0.900   2.842  0.7398  1.7560  0.7814
 4577SOL    HW225191   4.019   0.821   2.812 -0.4931  1.2311 -0.0854
 4578SOL     OW25192   0.678   2.171   3.176  0.6686  0.5856 -0.0837
 4578SOL    HW125193   0.678   2.204   3.086 -0.1046 -1.3024 -0.7859
 4578SOL    HW225194   0.706   2.081   3.161 -0.5737 -0.0096  1.2219
 4579SOL     OW25195   3.525   1.501  11.256  0.2098  0.5796 -0.0674
 4579SOL    HW125196   3.590   1.527  11.190  0.6467 -1.7046 -0.5357
 4579SOL    HW225197   3.563   1.425  11.299 -0.4523  1.3462  1.8859
 4580SOL     OW25198   4.180   2.704  12.863  0.1083  0.1286  0.4186
 4580SOL    HW125199   4.230   2.638  12.912  1.2330  0.1603 -0.7082
 4580SOL    HW225200   4.228   2.700  12.780  1.4784  0.3752  1.1972
 4581SOL     OW25201   4.696   1.090  17.200 -0.4463 -0.3832 -0.1408
 4581SOL    HW125202   4.651   1.109  17.118  0.6912  0.8692 -0.4881
 4581SOL    HW225203   4.645   1.019  17.237  0.3611 -0.1765  1.3979
 4582SOL     OW25204   4.613   3.838  15.980  0.0116  0.1687  0.9640
 4582SOL    HW125205   4.677   3.886  15.928  0.5445 -0.8907  0.6282
 4582SOL    HW225206   4.601   3.907  16.045 -1.2430  2.3547 -1.5697
 4583SOL     OW25207   3.754   3.651  16.718 -0.5978  0.3114 -1.0714
 4583SOL    HW125208   3.793   3.643  16.805  1.6570 -2.9866 -2.3740
 4583SOL    HW225209   3.832   3.654  16.664  1.7555  1.7935  2.3756
 4584SOL     OW25210   1.793   2.076   4.311 -0.2693 -0.4038 -0.3988
 4584SOL    HW125211   1.877   2.032   4.323 -0.4957 -0.7688 -0.1496
 4584SOL    HW225212   1.757   2.031   4.235 -0.9007  0.2395 -0.4831
 4585SOL     OW25213   0.294   3.420   2.209 -0.4782 -0.0558 -0.9511
 4585SOL    HW125214   0.224   3.359   2.189 -2.2114  1.6556 -0.0798
 4585SOL    HW225215   0.269   3.452   2.296 -0.0884 -3.0081  0.2454
 4586SOL     OW25216   2.129   3.349   3.529  0.0174 -0.0834 -0.2759
 4586SOL    HW125217   2.077   3.279   3.569 -0.3133  0.1534 -0.2954
 4586SOL    HW225218   2.216   3.348   3.570 -1.2348  0.6053  2.3891
 4587SOL     OW25219   4.084   3.417   2.908  0.9431 -0.2475 -0.4080
 4587SOL    HW125220   4.020   3.482   2.878  1.6436 -0.1870 -1.7641
 4587SOL    HW225221   4.038   3.336   2.886  0.6504 -0.6776  1.7453
 4588SOL     OW25222   2.077   3.906  11.458  0.1775  0.2721  0.2375
 4588SOL    HW125223   2.117   3.821  11.472 -1.2281 -0.6393 -1.3686
 4588SOL    HW225224   2.094   3.955  11.539  0.6370  0.1037  0.2449
 4589SOL     OW25225   2.464   0.178   7.720 -0.1024 -0.1174 -0.2831
 4589SOL    HW125226   2.394   0.234   7.754  3.0227  3.1415  0.7160
 4589SOL    HW225227   2.538   0.228   7.754  1.1062 -0.1274 -2.9051
 4590SOL     OW25228   3.606   1.437   6.904  0.4778  0.1433  0.0089
 4590SOL    HW125229   3.545   1.382   6.855 -1.9511  2.3918  0.4809
 4590SOL    HW225230   3.559   1.513   6.938 -0.5270  0.0687 -1.1782
 4591SOL     OW25231   3.096   2.915   8.991  0.3867  0.4543  0.5781
 4591SOL    HW125232   3.174   2.885   9.037  2.6282  2.1304 -2.1287
 4591SOL    HW225233   3.058   2.976   9.055  0.5598  0.8242  0.3276
 4592SOL     OW25234   4.566   1.125   9.950  0.0167 -0.7066  0.4214
 4592SOL    HW125235   4.481   1.169   9.957 -0.5092 -1.5985 -0.2692
 4592SOL    HW225236   4.605   1.149  10.034  0.4328  0.4998 -0.1217
 4593SOL     OW25237   4.548   4.154   3.458  0.4478 -0.0084 -0.3951
 4593SOL    HW125238   4.463   4.110   3.447  1.2154 -0.4776 -4.3439
 4593SOL    HW225239   4.602   4.081   3.485  0.3325 -0.4443 -1.3305
 4594SOL     OW25240   1.905   4.061   0.431 -0.2077  0.4578  0.6410
 4594SOL    HW125241   1.838   4.072   0.498 -1.0692  0.8210 -0.2731
 4594SOL    HW225242   1.912   4.148   0.391  1.7096 -1.0102 -2.2728
 4595SOL     OW25243   4.670   4.403   7.413 -0.0471  0.1128 -0.6964
 4595SOL    HW125244   4.694   4.395   7.320 -1.7440 -0.3652 -1.1030
 4595SOL    HW225245   4.681   4.498   7.420  1.2116 -0.1152  0.3519
 4596SOL     OW25246   1.712   2.415  12.037  0.1932 -0.0830 -0.0281
 4596SOL    HW125247   1.753   2.491  11.996  1.9733 -2.7010 -3.0836
 4596SOL    HW225248   1.672   2.465  12.109 -0.6652 -2.3089  1.0577
 4597SOL     OW25249   0.010   1.600   9.390  0.1986 -0.0231  0.0546
 4597SOL    HW125250   0.002   1.547   9.310 -0.4374 -1.0918  0.8295
 4597SOL    HW225251   0.104   1.587   9.400  0.1438  0.5775  1.3346
 4598SOL     OW25252   1.643   3.985   4.607 -0.1210 -0.4351  0.1458
 4598SOL    HW125253   1.573   4.039   4.570  1.0518  0.6518 -0.4689
 4598SOL    HW225254   1.718   4.015   4.556 -0.8365  1.0501 -0.0448
 4599SOL     OW25255   4.609   3.473   8.138 -0.5137  0.1141 -0.7711
 4599SOL    HW125256   4.527   3.501   8.097  0.1787  0.4896 -1.9075
 4599SOL    HW225257   4.592   3.380   8.157 -0.7200  0.2497 -0.2971
 4600SOL     OW25258   3.618   3.502  13.637 -0.5998  0.3699  0.2176
 4600SOL    HW125259   3.572   3.466  13.562 -1.2163  1.2852  0.1619
 4600SOL    HW225260   3.654   3.586  13.610  1.1832 -0.7406 -0.8607
 4601SOL     OW25261   3.617   1.771  14.927 -0.3968 -0.0094  1.4135
 4601SOL    HW125262   3.707   1.740  14.925 -0.4712 -0.3927  4.5834
 4601SOL    HW225263   3.586   1.733  15.009 -1.2399 -1.7462  0.2770
 4602SOL     OW25264   2.874   2.618   5.094 -0.1468 -0.2488 -0.0176
 4602SOL    HW125265   2.786   2.580   5.094 -1.5585  3.0252 -0.4157
 4602SOL    HW225266   2.860   2.695   5.149  1.4229  0.3904 -0.5144
 4603SOL     OW25267   2.336   2.433   3.351  0.3295  0.2746 -1.0928
 4603SOL    HW125268   2.287   2.358   3.316 -1.0380  0.7870 -0.2553
 4603SOL    HW225269   2.284   2.456   3.427  0.9873 -0.0743 -0.5381
 4604SOL     OW25270   2.932   0.847   2.939 -0.1565  0.0811 -0.2502
 4604SOL    HW125271   3.015   0.806   2.913  0.0108 -1.2659  2.5232
 4604SOL    HW225272   2.868   0.777   2.950  0.2919 -0.3060 -0.0796
 4605SOL     OW25273   4.056   2.254   7.756 -0.1032 -0.6492  0.0605
 4605SOL    HW125274   4.079   2.274   7.665 -2.4467 -0.1940 -0.4362
 4605SOL    HW225275   3.961   2.241   7.754 -0.2718  1.0361 -2.6843
 4606SOL     OW25276   4.574   1.753  17.246 -0.4291 -0.0280  0.2528
 4606SOL    HW125277   4.523   1.672  17.251 -1.2899  0.6081  1.7525
 4606SOL    HW225278   4.522   1.812  17.192 -0.0476  1.3761  1.4150
 4607SOL     OW25279   2.329   0.157   4.929 -0.5964 -0.7084  0.2832
 4607SOL    HW125280   2.306   0.177   5.019 -0.1672  2.0964 -0.2136
 4607SOL    HW225281   2.398   0.217   4.900 -2.3668  0.4210 -1.5808
 4608SOL     OW25282   4.602   4.681   7.343  0.6747 -0.7810  0.3242
 4608SOL    HW125283   4.518   4.677   7.388  0.5461 -1.1877  0.0435
 4608SOL    HW225284   4.630   0.046   7.365 -2.7378  0.3614  0.0806
 4609SOL     OW25285   3.692   1.074  15.164 -0.0156 -0.0136 -0.9427
 4609SOL    HW125286   3.649   1.127  15.097 -2.1756  1.5078  1.6127
 4609SOL    HW225287   3.682   0.986  15.129 -1.0051 -0.5201  0.6116
 4610SOL     OW25288   4.280   0.053   9.782  0.2668 -0.2364 -0.3628
 4610SOL    HW125289   4.309   0.126   9.837 -1.0579 -0.7917  1.0760
 4610SOL    HW225290   4.279   4.710   9.851  1.2310  0.3693  0.2343
 4611SOL     OW25291   3.129   4.441   4.707 -0.5077  0.2472 -0.4829
 4611SOL    HW125292   3.038   4.464   4.720  0.0836  0.7575  2.8059
 4611SOL    HW225293   3.142   4.366   4.766  1.3593 -2.2075 -3.9889
 4612SOL     OW25294   3.542   0.855   6.568 -0.6320  0.0482 -0.2145
 4612SOL    HW125295   3.579   0.908   6.497 -2.8177 -0.6270 -1.8608
 4612SOL    HW225296   3.613   0.794   6.587  0.3954  1.4950  0.6162
 4613SOL     OW25297   0.242   0.513   9.975 -0.4195  0.1342 -0.1233
 4613SOL    HW125298   0.320   0.526  10.029  0.0075 -0.7717 -0.5225
 4613SOL    HW225299   0.274   0.575   9.909 -2.1067 -0.4260 -1.4531
 4614SOL     OW25300   4.324   2.193   3.304  0.3837 -0.1784  0.1360
 4614SOL    HW125301   4.399   2.155   3.259  1.4000  2.7287 -0.6581
 4614SOL    HW225302   4.246   2.146   3.275  1.3954 -1.4656 -0.4856
 4615SOL     OW25303   2.178   3.951  11.852 -0.2405  0.5135 -0.1783
 4615SOL    HW125304   2.222   3.886  11.797 -1.1119 -0.3793  0.1951
 4615SOL    HW225305   2.197   4.034  11.807 -0.2449  0.6096 -0.0029
 4616SOL     OW25306   3.215   3.238   4.126  0.0958 -0.5091  1.0404
 4616SOL    HW125307   3.176   3.176   4.065  0.0222  1.2391 -0.6956
 4616SOL    HW225308   3.246   3.184   4.198  3.1998  0.1603  0.2003
 4617SOL     OW25309   0.745   3.252   3.388 -0.1966 -0.8922 -0.1263
 4617SOL    HW125310   0.698   3.326   3.350  1.4159 -0.9816 -2.3316
 4617SOL    HW225311   0.689   3.238   3.464  0.1362  0.0494  0.3043
 4618SOL     OW25312   0.183   0.480   3.474  0.3928 -0.1299  0.1304
 4618SOL    HW125313   0.206   0.402   3.525  0.5568  0.1704  0.5180
 4618SOL    HW225314   0.245   0.478   3.401  0.4930 -3.5486  0.3154
 4619SOL     OW25315   3.969   3.705   9.792  0.0945  0.3936  0.1218
 4619SOL    HW125316   3.951   3.663   9.708  1.5996  1.7978 -0.9124
 4619SOL    HW225317   4.005   3.637   9.848  1.8118  1.5853  0.4791
 4620SOL     OW25318   3.266   3.059   9.565  0.0251  0.1994 -0.4087
 4620SOL    HW125319   3.178   3.088   9.587  0.0447 -0.9307  1.1213
 4620SOL    HW225320   3.261   2.963   9.573 -0.7711  0.2470 -0.3173
 4621SOL     OW25321   4.685   0.451   2.525  0.7671  0.0174  0.0739
 4621SOL    HW125322   4.700   0.357   2.514 -1.6992 -0.2965 -0.4706
 4621SOL    HW225323   4.721   0.481   2.442  1.3806 -1.0328 -0.0434
 4622SOL     OW25324   3.715   0.795   2.617  0.0412  0.4787 -0.3269
 4622SOL    HW125325   3.797   0.762   2.580  0.1415 -1.2118  1.4175
 4622SOL    HW225326   3.662   0.803   2.538  3.4451  1.0906 -2.5677
 4623SOL     OW25327   1.088   4.583   1.891  0.1369  0.2385 -0.0083
 4623SOL    HW125328   1.114   4.663   1.937 -2.0665  1.1533 -0.3572
 4623SOL    HW225329   1.129   4.596   1.805  1.4608  0.1059  0.6078
 4624SOL     OW25330   1.334   4.632   5.915 -0.3371  0.3739 -0.6424
 4624SOL    HW125331   1.361   4.709   5.965 -0.4608  0.2654 -0.4109
 4624SOL    HW225332   1.251   4.606   5.954 -0.3904 -0.9024 -1.5908
 4625SOL     OW25333   0.091   2.793   7.154  0.0990 -0.0851 -0.1859
 4625SOL    HW125334   0.086   2.700   7.176  0.0283 -0.0315  0.0200
 4625SOL    HW225335   0.166   2.828   7.202 -0.7101  1.8707 -0.3736
 4626SOL     OW25336   2.862   2.625   2.708  0.2835 -0.7719  0.4004
 4626SOL    HW125337   2.837   2.706   2.665 -2.2085 -1.0690  1.3002
 4626SOL    HW225338   2.810   2.627   2.789 -3.0705  1.9172 -1.8506
 4627SOL     OW25339   2.063   4.500   8.078 -0.1634  0.2246  0.0661
 4627SOL    HW125340   2.068   4.408   8.051 -1.0027 -0.0533  0.8660
 4627SOL    HW225341   2.086   4.502   8.171  2.3041 -0.0433 -0.5249
 4628SOL     OW25342   4.521   0.619   0.925  0.6461  0.3085 -0.2015
 4628SOL    HW125343   4.466   0.629   0.847  1.7733 -1.3431 -1.1935
 4628SOL    HW225344   4.515   0.704   0.969  1.7291  0.1149  0.3108
 4629SOL     OW25345   0.923   3.440  14.888  0.9561 -0.2689  0.0906
 4629SOL    HW125346   0.944   3.480  14.804 -0.9087  1.3576  0.3860
 4629SOL    HW225347   1.007   3.450  14.933  0.6728 -0.0923  0.5895
 4630SOL     OW25348   3.241   2.269   6.418 -0.1185 -0.2100 -0.4268
 4630SOL    HW125349   3.311   2.333   6.428  0.9824 -1.4963  0.2343
 4630SOL    HW225350   3.277   2.193   6.466 -1.0210  0.7750  1.8102
 4631SOL     OW25351   3.257   4.520  14.535  0.0026 -0.3332  0.2644
 4631SOL    HW125352   3.314   4.450  14.565  1.6691  0.8806 -0.0864
 4631SOL    HW225353   3.182   4.527  14.594 -0.9063  0.5095 -0.9871
 4632SOL     OW25354   3.432   3.902   9.168 -0.2008  0.2337  0.3720
 4632SOL    HW125355   3.500   3.879   9.231  0.2874  0.0449 -0.2248
 4632SOL    HW225356   3.353   3.906   9.220 -0.1236  0.8894  0.4438
 4633SOL     OW25357   0.028   2.689  12.750  0.2250  0.2968 -0.1321
 4633SOL    HW125358   4.679   2.632  12.724  0.7274 -0.9930  1.3151
 4633SOL    HW225359   0.078   2.642  12.816  1.4237  2.4495  0.4863
 4634SOL     OW25360   0.633   3.175   4.921  0.2733 -0.1726  0.6356
 4634SOL    HW125361   0.682   3.123   4.856 -1.2283  1.3738 -1.7484
 4634SOL    HW225362   0.551   3.126   4.929 -0.4459  1.0288  0.4816
 4635SOL     OW25363   3.816   0.577   1.166  0.4148 -0.8583  0.2279
 4635SOL    HW125364   3.902   0.542   1.189  1.4756  1.9763  0.5968
 4635SOL    HW225365   3.806   0.657   1.218 -0.3002 -0.2512 -0.8477
 4636SOL     OW25366   0.423   1.621   3.149 -0.3605 -0.2028  0.0424
 4636SOL    HW125367   0.491   1.628   3.082  2.2306  1.3412  2.8538
 4636SOL    HW225368   0.388   1.535   3.127 -0.7452 -0.0817  0.1771
 4637SOL     OW25369   0.312   4.696   2.885 -0.0984  0.3934 -0.3539
 4637SOL    HW125370   0.385   4.667   2.940  0.3225 -1.2302 -1.7894
 4637SOL    HW225371   0.254   0.027   2.939 -1.4508  0.7324 -2.1344
 4638SOL     OW25372   1.355   3.623   6.531 -0.6119 -0.1388 -0.0054
 4638SOL    HW125373   1.326   3.663   6.449 -2.3830  0.1869  0.7636
 4638SOL    HW225374   1.439   3.595   6.496 -0.6927 -1.7221  1.0404
 4639SOL     OW25375   3.562   2.242   8.459 -0.8095  0.2673 -0.2253
 4639SOL    HW125376   3.655   2.221   8.464 -1.3049 -1.4248  2.0892
 4639SOL    HW225377   3.520   2.156   8.453  1.6914 -0.7827 -2.2280
 4640SOL     OW25378   2.298   0.654  16.726  0.5159  0.1212  0.4512
 4640SOL    HW125379   2.299   0.579  16.667 -1.4991  0.7155 -0.3491
 4640SOL    HW225380   2.249   0.713  16.669  0.1214 -1.9353 -1.3114
 4641SOL     OW25381   3.528   2.530  15.366 -0.2293  1.1296  0.3919
 4641SOL    HW125382   3.609   2.499  15.326 -1.3198 -2.6571  1.1235
 4641SOL    HW225383   3.507   2.611  15.318  2.0542  1.6063  0.1902
 4642SOL     OW25384   1.143   2.543  13.819 -0.0896 -0.2352 -0.0005
 4642SOL    HW125385   1.105   2.497  13.745 -0.8359  0.5884 -0.1272
 4642SOL    HW225386   1.213   2.481  13.841  0.7890  0.6881 -0.1802
 4643SOL     OW25387   1.987   0.365   3.285  0.4256  0.0057 -0.1204
 4643SOL    HW125388   1.989   0.458   3.262  0.6388 -0.5520 -2.3710
 4643SOL    HW225389   2.073   0.352   3.323  0.8151  2.7621 -0.0622
 4644SOL     OW25390   2.128   1.663  11.547  0.2763  0.1422  0.5913
 4644SOL    HW125391   2.063   1.593  11.548 -0.6614  1.0224  1.8369
 4644SOL    HW225392   2.126   1.681  11.454  0.0011 -1.5909  0.2627
 4645SOL     OW25393   2.491   2.782   9.238 -0.3787  0.0419  0.0075
 4645SOL    HW125394   2.500   2.744   9.150  2.9672  1.6563 -0.3556
 4645SOL    HW225395   2.420   2.725   9.266 -1.1446  1.4436  0.8989
 4646SOL     OW25396   2.014   1.751   5.011  0.0238 -0.4073  0.2752
 4646SOL    HW125397   1.936   1.806   5.017  1.1001  1.1596  0.0205
 4646SOL    HW225398   1.977   1.689   4.948  2.0570  0.6193 -1.9843
 4647SOL     OW25399   3.522   3.396  13.392 -0.4059 -0.2405 -0.2325
 4647SOL    HW125400   3.494   3.462  13.328  0.4204  1.4990  1.1884
 4647SOL    HW225401   3.487   3.314  13.358 -0.3386  0.9823 -3.2281
 4648SOL     OW25402   0.580   0.307   2.565 -0.7394  0.4187 -0.4557
 4648SOL    HW125403   0.507   0.246   2.578 -0.3046  0.0688  0.3142
 4648SOL    HW225404   0.566   0.329   2.473 -4.9800  2.8492  0.7629
 4649SOL     OW25405   1.392   1.932   2.396 -0.0108  0.0740  0.2971
 4649SOL    HW125406   1.380   1.867   2.466 -0.1751 -1.4823 -1.1993
 4649SOL    HW225407   1.486   1.924   2.377 -0.2612 -0.2013 -0.7799
 4650SOL     OW25408   3.069   3.594   2.856  0.0367  0.0560 -0.0949
 4650SOL    HW125409   3.108   3.520   2.809 -0.4768  0.1985 -0.7587
 4650SOL    HW225410   2.977   3.574   2.838  0.1267 -2.1445  1.8349
 4651SOL     OW25411   2.589   3.629   6.645  0.3674  0.0190  0.0615
 4651SOL    HW125412   2.544   3.696   6.697 -2.5453 -1.7460 -0.1808
 4651SOL    HW225413   2.678   3.664   6.640  0.8187 -0.9621  1.1725
 4652SOL     OW25414   1.023   2.666   2.820 -0.0695 -0.5002 -0.1654
 4652SOL    HW125415   1.071   2.584   2.826 -0.5202 -0.6035  2.2290
 4652SOL    HW225416   1.042   2.709   2.737 -1.8297 -0.3836 -0.5042
 4653SOL     OW25417   0.087   2.366   3.589  0.2629 -0.1610  0.2153
 4653SOL    HW125418   0.077   2.360   3.494  0.1415 -1.8596  0.3302
 4653SOL    HW225419   0.182   2.373   3.584  0.2708 -0.4728 -0.0943
 4654SOL     OW25420   4.330   1.662   9.348 -0.3356 -0.0759  0.0569
 4654SOL    HW125421   4.235   1.668   9.361  0.0194 -0.4343  2.8026
 4654SOL    HW225422   4.354   1.598   9.415 -3.0431 -0.4739  0.6274
 4655SOL     OW25423   3.816   1.062  10.310  0.2416 -0.4616 -0.2903
 4655SOL    HW125424   3.851   1.147  10.284  0.5180 -0.5057 -0.0454
 4655SOL    HW225425   3.887   1.005  10.281  0.4451  0.1598 -1.0242
 4656SOL     OW25426   2.572   0.092  11.556  0.0861 -0.2935 -0.0471
 4656SOL    HW125427   2.509   0.163  11.544 -0.1505 -0.0959  2.3875
 4656SOL    HW225428   2.528   0.021  11.509 -2.6515  1.8889 -0.8364
 4657SOL     OW25429   2.775   2.574   3.027 -0.7914 -0.7964 -0.2044
 4657SOL    HW125430   2.739   2.661   3.009 -0.5495 -0.5977  0.2884
 4657SOL    HW225431   2.866   2.599   3.044 -1.5682  1.4627  0.6785
 4658SOL     OW25432   2.020   2.251  13.132  0.2755  0.1929  0.0042
 4658SOL    HW125433   1.947   2.313  13.123 -1.5779 -1.7872  1.4627
 4658SOL    HW225434   2.021   2.242  13.228  1.5474 -0.7304 -0.1030
 4659SOL     OW25435   3.687   1.523   7.727  0.5789  0.4392  0.0979
 4659SOL    HW125436   3.737   1.605   7.721 -0.6530  1.2455  1.0275
 4659SOL    HW225437   3.612   1.540   7.784 -1.1824 -2.4419 -1.3875
 4660SOL     OW25438   0.184   4.095   2.418  0.1164  0.3508 -0.3700
 4660SOL    HW125439   0.114   4.062   2.473 -1.8210  3.2239 -1.1474
 4660SOL    HW225440   0.261   4.072   2.470  0.5541  0.5186 -0.9432
 4661SOL     OW25441   2.969   0.839   6.339  0.0570  0.2104 -0.2997
 4661SOL    HW125442   3.033   0.911   6.342 -0.9646  1.1614 -1.4280
 4661SOL    HW225443   2.958   0.829   6.433  2.2552 -2.2008 -0.2919
 4662SOL     OW25444   3.167   4.531  12.039  1.1272  0.3404 -0.6521
 4662SOL    HW125445   3.198   4.518  11.950 -0.9599 -1.1188 -1.1657
 4662SOL    HW225446   3.111   4.453  12.047 -0.8914  1.9101  0.4843
 4663SOL     OW25447   2.273   2.126  10.848  0.1902 -0.3638  0.5930
 4663SOL    HW125448   2.353   2.074  10.848  0.7140  0.4498  1.0450
 4663SOL    HW225449   2.322   2.206  10.829 -0.0174  0.2334  2.5531
 4664SOL     OW25450   3.690   3.406  14.456 -0.1960 -0.1607 -0.4116
 4664SOL    HW125451   3.713   3.494  14.428  0.7922 -0.6247 -1.0479
 4664SOL    HW225452   3.641   3.382  14.377  0.8724 -2.1633 -0.4670
 4665SOL     OW25453   4.480   3.922   8.701 -0.5082  0.1399 -0.0431
 4665SOL    HW125454   4.459   4.016   8.706  0.1032  0.2094  1.2848
 4665SOL    HW225455   4.417   3.876   8.757  0.8224  1.5404  2.6223
 4666SOL     OW25456   2.701   4.490  16.100 -0.0109 -0.0258  0.3740
 4666SOL    HW125457   2.607   4.508  16.093 -0.1165 -0.0221  1.6228
 4666SOL    HW225458   2.695   4.425  16.171 -2.9126 -1.5691 -1.2919
 4667SOL     OW25459   0.844   4.629  15.101 -0.9374  0.2631  0.3193
 4667SOL    HW125460   0.937   4.650  15.091 -0.4315 -2.0023  0.3845
 4667SOL    HW225461   0.827   4.692  15.172 -2.6879  0.3520 -0.1819
 4668SOL     OW25462   0.320   4.245   7.282  0.6137  0.7762  0.3150
 4668SOL    HW125463   0.386   4.202   7.227  0.5127  0.9729  0.0415
 4668SOL    HW225464   0.256   4.180   7.310  1.0485  0.5535  0.8129
 4669SOL     OW25465   3.470   0.227   6.217 -0.2097 -0.1702 -0.1011
 4669SOL    HW125466   3.464   0.133   6.237  3.1571 -0.1461  1.0449
 4669SOL    HW225467   3.471   0.221   6.122  2.5057  0.1521 -0.0908
 4670SOL     OW25468   2.333   0.889   8.848 -0.6520  0.1205  0.2086
 4670SOL    HW125469   2.339   0.924   8.937 -0.3814 -2.7131  1.2896
 4670SOL    HW225470   2.240   0.871   8.833 -0.1564 -2.1117 -0.0238
 4671SOL     OW25471   3.890   2.979   2.016  0.5366  0.2234 -0.2613
 4671SOL    HW125472   3.984   2.988   2.030  0.6984 -1.2050 -0.4783
 4671SOL    HW225473   3.896   2.932   1.933  2.9978  0.0061  0.0315
 4672SOL     OW25474   0.216   4.541   1.470  0.0451  0.7336  0.2309
 4672SOL    HW125475   0.164   4.524   1.548  1.2545 -0.9375  0.6729
 4672SOL    HW225476   0.194   4.634   1.460  2.5999  1.1703 -1.2312
 4673SOL     OW25477   3.741   0.937   6.918 -0.4085 -0.0994 -0.1014
 4673SOL    HW125478   3.767   0.980   6.999  0.5128 -0.6001 -0.1385
 4673SOL    HW225479   3.805   0.970   6.855 -2.2386 -0.8898 -2.3841
 4674SOL     OW25480   4.553   4.445   6.226 -0.3551  0.0928  0.7194
 4674SOL    HW125481   4.470   4.400   6.212 -0.4063  1.3181 -2.7797
 4674SOL    HW225482   4.516   4.514   6.281 -0.3462  0.1336  0.6738
 4675SOL     OW25483   0.932   3.323  11.746  0.6506 -0.1314  0.6307
 4675SOL    HW125484   0.869   3.268  11.700  0.6705  1.3517 -1.1436
 4675SOL    HW225485   0.872   3.360  11.811  2.0486  0.6474  1.4638
 4676SOL     OW25486   0.314   3.782   2.959 -0.1145 -0.0566  0.1663
 4676SOL    HW125487   0.361   3.788   2.875  0.2151 -1.8297  0.2258
 4676SOL    HW225488   0.303   3.875   2.978  2.9445  0.0798  1.1974
 4677SOL     OW25489   0.633   1.009   2.841 -0.6006  0.3832  0.0248
 4677SOL    HW125490   0.694   0.942   2.809 -0.2986  1.2383 -1.1687
 4677SOL    HW225491   0.649   1.005   2.936 -1.0289 -0.7549  0.0512
 4678SOL     OW25492   4.568   0.747   8.432 -0.0203 -0.2864  0.3208
 4678SOL    HW125493   4.524   0.820   8.390 -0.2249 -0.4312  0.2866
 4678SOL    HW225494   4.641   0.728   8.373 -0.2455  0.1706 -0.0997
 4679SOL     OW25495   1.995   1.886  15.580 -0.0876  0.2607  0.1316
 4679SOL    HW125496   1.961   1.852  15.498 -1.0735  1.8537 -0.1160
 4679SOL    HW225497   2.090   1.893  15.565  0.6054 -1.9619  3.3738
 4680SOL     OW25498   3.991   0.156   9.920  0.6555  0.3610 -0.1988
 4680SOL    HW125499   3.952   0.109   9.994  4.5723 -1.6157  0.6204
 4680SOL    HW225500   3.970   0.243   9.952  1.4721 -0.4115  2.5012
 4681SOL     OW25501   3.787   3.467   1.398 -0.3515 -0.4283  0.2441
 4681SOL    HW125502   3.782   3.398   1.464 -0.7418 -0.4700  0.1722
 4681SOL    HW225503   3.857   3.519   1.437 -1.2009  1.2054 -0.4221
 4682SOL     OW25504   1.032   2.064   2.818 -0.0791 -0.2277  0.0403
 4682SOL    HW125505   1.112   2.023   2.785 -0.7138 -0.3948 -1.3069
 4682SOL    HW225506   0.962   2.003   2.792 -0.3199 -0.0569  0.2883
 4683SOL     OW25507   0.837   3.357   7.600 -0.8082 -0.0587  0.4132
 4683SOL    HW125508   0.799   3.327   7.683 -0.5686  0.3829  0.6872
 4683SOL    HW225509   0.883   3.429   7.644  3.8614 -2.4880 -0.4986
 4684SOL     OW25510   4.265   2.654   8.107  0.1420 -0.3058  0.5112
 4684SOL    HW125511   4.319   2.596   8.160 -1.6368 -0.0757  2.5670
 4684SOL    HW225512   4.229   2.700   8.183 -2.5873 -2.0348  0.2691
 4685SOL     OW25513   3.040   4.631   3.711 -0.1994  0.1117 -1.1325
 4685SOL    HW125514   2.961   4.635   3.765  0.5685  0.9212 -0.0694
 4685SOL    HW225515   3.107   4.627   3.780  0.1978 -2.4957 -1.6525
 4686SOL     OW25516   2.486   4.686   8.718 -0.8645  0.1294 -0.2426
 4686SOL    HW125517   2.499   0.056   8.701 -1.3993  0.3333  0.4562
 4686SOL    HW225518   2.421   4.667   8.651 -2.1312 -0.1961  1.0997
 4687SOL     OW25519   0.861   2.674  15.288  0.0723  0.6379  0.0193
 4687SOL    HW125520   0.781   2.724  15.309  0.0006  0.4907  0.0961
 4687SOL    HW225521   0.882   2.707  15.200  0.4369 -4.9099 -2.0105
 4688SOL     OW25522   2.981   1.683   1.841 -0.4908 -0.3689 -0.3916
 4688SOL    HW125523   3.016   1.596   1.856 -0.9120 -0.5821 -0.6476
 4688SOL    HW225524   3.065   1.729   1.838 -1.7710  1.8268 -2.5991
 4689SOL     OW25525   0.482   2.620   6.418  0.2734 -0.1959  0.0635
 4689SOL    HW125526   0.572   2.590   6.405  0.4369  1.3438 -2.5264
 4689SOL    HW225527   0.501   2.713   6.409  0.9318 -0.3128  0.2924
 4690SOL     OW25528   0.906   2.189  15.447  0.6699 -0.2087 -0.1865
 4690SOL    HW125529   0.838   2.134  15.485  1.7585 -0.9309  0.7347
 4690SOL    HW225530   0.964   2.217  15.519 -1.1176  1.6483  0.5280
 4691SOL     OW25531   3.079   2.250  16.196  0.1751  0.1986 -0.4398
 4691SOL    HW125532   3.048   2.334  16.162 -2.1112 -0.6650 -0.4973
 4691SOL    HW225533   3.009   2.189  16.175 -0.2700 -0.0879  1.8322
 4692SOL     OW25534   1.900   2.009   5.906  0.2100  0.2096 -0.7560
 4692SOL    HW125535   1.951   1.984   5.984 -1.3145 -1.8881 -0.4265
 4692SOL    HW225536   1.920   1.931   5.855  0.5407  1.0573 -1.9340
 4693SOL     OW25537   2.094   4.089   0.875 -0.0472  0.2156  0.4943
 4693SOL    HW125538   2.188   4.071   0.867  0.0108  1.7678 -2.3206
 4693SOL    HW225539   2.061   4.030   0.943 -0.7776 -0.9239 -0.8504
 4694SOL     OW25540   1.120   1.072  14.081 -0.3085  0.5102  0.5427
 4694SOL    HW125541   1.190   1.064  14.146  0.5911 -0.1495 -0.5191
 4694SOL    HW225542   1.153   1.147  14.031  1.5757 -0.6157  0.1307
 4695SOL     OW25543   2.286   2.969   2.601 -0.5130  0.4361 -0.2116
 4695SOL    HW125544   2.345   3.032   2.643 -1.1071  0.2473  0.9156
 4695SOL    HW225545   2.289   3.008   2.514 -2.5954  1.2894  0.0724
 4696SOL     OW25546   1.156   4.137   3.346  0.3171 -0.2663 -0.3012
 4696SOL    HW125547   1.088   4.191   3.387  0.3136 -1.9037  1.8466
 4696SOL    HW225548   1.175   4.070   3.412  0.5778 -0.3365 -0.4465
 4697SOL     OW25549   2.103   3.341   9.449  0.0067 -0.4531 -0.4469
 4697SOL    HW125550   2.106   3.436   9.447 -1.2100 -0.4459 -1.6485
 4697SOL    HW225551   2.155   3.323   9.371 -0.6050  2.8980 -1.6172
 4698SOL     OW25552   0.884   0.329   5.267 -0.0646  0.4224 -0.2241
 4698SOL    HW125553   0.960   0.357   5.215 -0.6565 -1.4046 -2.0749
 4698SOL    HW225554   0.827   0.406   5.274  1.8374  1.8870 -0.5121
 4699SOL     OW25555   3.811   3.153   6.749 -0.2539 -0.2970  0.0702
 4699SOL    HW125556   3.833   3.243   6.774 -0.3468  0.1379 -1.3912
 4699SOL    HW225557   3.806   3.097   6.827  1.2350  2.1815  1.9238
 4700SOL     OW25558   1.253   2.844   8.068 -0.3392  0.4861 -0.2507
 4700SOL    HW125559   1.216   2.759   8.093 -0.1082  0.5892  0.4374
 4700SOL    HW225560   1.169   2.887   8.057  0.2789  2.2193  1.8845
 4701SOL     OW25561   0.911   1.914   2.594 -0.3937  0.0746 -0.7513
 4701SOL    HW125562   0.859   1.836   2.575 -1.0571 -0.0670  1.7744
 4701SOL    HW225563   1.000   1.881   2.585  0.2528  1.1105  1.8546
 4702SOL     OW25564   3.351   4.273  12.512 -0.5089 -0.3357  0.5402
 4702SOL    HW125565   3.284   4.339  12.528 -0.7619 -0.9513  2.0330
 4702SOL    HW225566   3.378   4.281  12.420 -3.1383  0.1937 -0.1857
 4703SOL     OW25567   2.963   4.500  14.393  0.8304  0.2770 -0.0958
 4703SOL    HW125568   2.945   4.591  14.417  0.3734  0.3429 -0.6867
 4703SOL    HW225569   2.949   4.513  14.299 -1.3779  0.3624  0.2359
 4704SOL     OW25570   0.625   3.791   4.858 -0.4443 -0.0210 -0.6625
 4704SOL    HW125571   0.620   3.794   4.762 -1.1627  0.3638 -0.6084
 4704SOL    HW225572   0.562   3.857   4.888 -0.2270 -0.1777  0.1389
 4705SOL     OW25573   4.511   4.139   3.024  0.2519  0.3806  0.4301
 4705SOL    HW125574   4.464   4.220   3.004  1.2215  0.7685 -0.2557
 4705SOL    HW225575   4.601   4.169   3.036  0.1047  0.6609  0.8410
 4706SOL     OW25576   1.888   2.520  11.109  0.4443  0.7316  0.4942
 4706SOL    HW125577   1.873   2.437  11.064 -0.9229  1.5089 -0.4611
 4706SOL    HW225578   1.799   2.553  11.114 -0.1304 -0.6988 -0.0716
 4707SOL     OW25579   1.818   3.395   5.676  0.1017  0.5149  0.5863
 4707SOL    HW125580   1.763   3.319   5.695  0.7630 -0.5335 -1.6311
 4707SOL    HW225581   1.766   3.452   5.619 -0.5928  0.5048  1.2178
 4708SOL     OW25582   2.370   2.942   8.268  0.7781 -0.3621 -0.5769
 4708SOL    HW125583   2.416   2.879   8.324  1.3664  1.5167  1.0355
 4708SOL    HW225584   2.342   3.006   8.333 -2.3616 -2.5413  0.2295
 4709SOL     OW25585   3.466   0.556   8.341 -0.3563  0.2561 -0.0957
 4709SOL    HW125586   3.470   0.611   8.419 -0.8758  0.7325 -0.4126
 4709SOL    HW225587   3.460   0.621   8.271 -3.3895 -0.4474 -0.4939
 4710SOL     OW25588   3.652   4.699   4.794 -0.0481  0.1490 -0.2606
 4710SOL    HW125589   3.628   0.045   4.856  2.7057  0.3756  0.5692
 4710SOL    HW225590   3.601   4.631   4.838  0.2694  0.6518  0.8992
 4711SOL     OW25591   3.031   2.210   9.811  0.1764 -0.5979 -0.1846
 4711SOL    HW125592   3.078   2.280   9.766  0.2826 -0.0360  0.7933
 4711SOL    HW225593   2.963   2.173   9.754 -1.8626  2.4710  0.2146
 4712SOL     OW25594   3.615   1.025   9.128 -0.1304  0.1495 -0.2098
 4712SOL    HW125595   3.607   0.938   9.090  3.3372 -0.6155  0.7929
 4712SOL    HW225596   3.529   1.028   9.170  0.9925 -1.1239  2.1884
 4713SOL     OW25597   4.089   2.385   2.533  0.6536  0.2433 -0.7844
 4713SOL    HW125598   4.098   2.440   2.455  2.8807 -1.6950 -1.9049
 4713SOL    HW225599   4.157   2.430   2.584  1.2352 -1.5918  0.0855
 4714SOL     OW25600   0.771   2.941  11.277 -0.3788  0.8531  0.3882
 4714SOL    HW125601   0.846   2.985  11.237  0.2392 -0.0225  0.5703
 4714SOL    HW225602   0.774   2.855  11.237 -1.7735  0.4265  1.2076
 4715SOL     OW25603   3.816   1.875  12.697 -0.1277 -0.0352  0.0132
 4715SOL    HW125604   3.824   1.785  12.665 -2.2107 -0.0223 -0.5458
 4715SOL    HW225605   3.825   1.932  12.620 -0.4612 -0.5798 -0.4276
 4716SOL     OW25606   2.837   2.991  10.388  0.0460  0.2715 -0.2762
 4716SOL    HW125607   2.819   3.058  10.455  0.8313  0.2446 -0.0371
 4716SOL    HW225608   2.771   2.926  10.412  0.4417  0.1587  0.5148
 4717SOL     OW25609   0.431   4.421   7.458  0.4965 -0.4815  0.4017
 4717SOL    HW125610   0.420   4.382   7.545  3.0320 -0.0670  0.9284
 4717SOL    HW225611   0.392   4.355   7.402 -0.2719 -0.8934  1.4257
 4718SOL     OW25612   1.510   4.178   7.145  0.0814 -0.1567  0.4453
 4718SOL    HW125613   1.579   4.138   7.093  0.6871  2.2313 -0.5757
 4718SOL    HW225614   1.545   4.171   7.234  1.3307 -1.0950 -0.1292
 4719SOL     OW25615   3.124   1.780  10.000  0.2015  0.1850  0.0798
 4719SOL    HW125616   3.105   1.789   9.906 -0.9526  0.9157  0.3877
 4719SOL    HW225617   3.114   1.684  10.001 -1.0995  0.3114 -0.8201
 4720SOL     OW25618   2.120   2.926   1.042  0.7506 -0.0257 -0.2104
 4720SOL    HW125619   2.204   2.965   1.066  1.2315 -0.0676 -1.8338
 4720SOL    HW225620   2.050   2.980   1.080 -0.3119 -1.3464 -0.2833
 4721SOL     OW25621   2.475   1.862   7.338  0.4122  0.2056 -0.1020
 4721SOL    HW125622   2.516   1.794   7.284 -0.9325  0.5344 -1.5307
 4721SOL    HW225623   2.401   1.884   7.282 -0.4654 -1.3499  0.4354
 4722SOL     OW25624   3.796   4.633   8.847 -0.2808 -1.1880  0.0980
 4722SOL    HW125625   3.849   4.669   8.776 -1.5268 -0.7376 -0.5999
 4722SOL    HW225626   3.815   4.698   8.914 -0.2008  0.0131 -1.0838
 4723SOL     OW25627   2.937   1.128   0.258 -0.3513 -0.2896  0.2194
 4723SOL    HW125628   2.970   1.188   0.325  1.1036 -1.5096  0.6008
 4723SOL    HW225629   2.849   1.164   0.269  1.0866  2.9527  1.0566
 4724SOL     OW25630   2.881   2.548   5.819 -0.1970 -0.0044  0.1495
 4724SOL    HW125631   2.971   2.527   5.840 -0.1366 -1.2900 -1.3987
 4724SOL    HW225632   2.870   2.630   5.867 -1.6251 -0.2714  0.2745
 4725SOL     OW25633   4.410   3.091   1.614 -0.4514 -1.0108  0.5970
 4725SOL    HW125634   4.451   3.055   1.693  1.0108  2.1671  1.2992
 4725SOL    HW225635   4.327   3.045   1.620 -0.8118 -0.2553  1.4411
 4726SOL     OW25636   3.249   3.799   7.444  0.4781  0.6446  0.0865
 4726SOL    HW125637   3.237   3.829   7.354  1.5226 -2.3960 -1.0670
 4726SOL    HW225638   3.322   3.741   7.422  0.0787 -0.1200  0.7738
 4727SOL     OW25639   3.583   0.073   9.030  0.4003 -0.1882 -0.4303
 4727SOL    HW125640   3.648   0.098   8.963  0.4470  0.3012 -0.2056
 4727SOL    HW225641   3.507   0.128   9.010  0.2232  0.2893  1.5558
 4728SOL     OW25642   3.575   4.258   2.865  0.1896 -0.2907  1.2668
 4728SOL    HW125643   3.531   4.256   2.780  2.5253 -4.2230  0.1388
 4728SOL    HW225644   3.513   4.307   2.919 -0.1478  1.2453 -0.5495
 4729SOL     OW25645   2.713   1.989   7.225  0.0348  0.3239  0.6370
 4729SOL    HW125646   2.633   1.961   7.271  0.6663  0.2645  1.7086
 4729SOL    HW225647   2.718   2.082   7.249 -0.1206  0.3418  0.5993
 4730SOL     OW25648   2.343   4.236   2.323 -0.1586 -0.4256 -0.4441
 4730SOL    HW125649   2.274   4.299   2.304  0.7422  0.5887 -0.3710
 4730SOL    HW225650   2.327   4.168   2.258 -2.3108  0.4841 -0.8738
 4731SOL     OW25651   1.596   1.671   2.351 -0.0069 -0.2488  0.1581
 4731SOL    HW125652   1.644   1.753   2.367  0.0489 -0.0450 -1.0028
 4731SOL    HW225653   1.578   1.673   2.257 -0.5419 -0.2733  0.2615
 4732SOL     OW25654   3.362   3.297  13.130 -0.1990 -0.4956  0.6289
 4732SOL    HW125655   3.302   3.321  13.060  0.6002 -2.0821 -0.6070
 4732SOL    HW225656   3.436   3.269  13.076 -0.4285  0.7905 -0.3634
 4733SOL     OW25657   2.648   4.094   5.411  0.1490  0.4116 -0.3239
 4733SOL    HW125658   2.561   4.053   5.414  0.8727 -1.2703 -2.1196
 4733SOL    HW225659   2.694   4.039   5.475 -0.7090  0.6736  0.5223
 4734SOL     OW25660   0.173   0.802   5.370  0.9122  0.3126 -0.9743
 4734SOL    HW125661   0.186   0.713   5.340 -0.2133  0.2441 -1.2502
 4734SOL    HW225662   0.260   0.840   5.362  1.4711 -1.2298 -2.1785
 4735SOL     OW25663   4.349   1.357   2.298  0.5065  0.0498  0.3929
 4735SOL    HW125664   4.417   1.335   2.362 -0.0577  0.2100  1.0439
 4735SOL    HW225665   4.358   1.273   2.253 -0.8859  1.9972 -3.4826
 4736SOL     OW25666   3.901   0.043  13.293 -0.3442 -0.1578  0.1272
 4736SOL    HW125667   3.983   4.716  13.288  1.3979  2.5104  2.3872
 4736SOL    HW225668   3.864   0.014  13.209 -1.2357  0.6681  0.2470
 4737SOL     OW25669   4.133   2.812   1.490 -0.3990  0.9468 -0.5345
 4737SOL    HW125670   4.196   2.835   1.422  0.7976  2.0388  0.9387
 4737SOL    HW225671   4.154   2.874   1.560  1.3802  0.1361 -0.3557
 4738SOL     OW25672   1.765   2.562   4.225  1.0828 -0.6599 -0.0110
 4738SOL    HW125673   1.678   2.551   4.264  0.5459  1.6940 -0.5486
 4738SOL    HW225674   1.742   2.598   4.139  1.5822  1.8577  0.9077
 4739SOL     OW25675   1.158   1.135   6.821  0.1041  0.4406 -0.0030
 4739SOL    HW125676   1.164   1.161   6.729 -2.4455 -0.0320 -0.3007
 4739SOL    HW225677   1.073   1.091   6.814  0.7024 -0.6528 -0.2821
 4740SOL     OW25678   1.470   3.851   7.327 -0.0073 -0.0068  0.0879
 4740SOL    HW125679   1.455   3.807   7.411  2.0265  2.1899  1.5887
 4740SOL    HW225680   1.502   3.774   7.280 -0.8167  0.8266 -1.8403
 4741SOL     OW25681   4.635   2.849  16.185 -0.4439 -0.2035  0.3108
 4741SOL    HW125682   4.663   2.788  16.117 -0.8016  0.6391 -0.5878
 4741SOL    HW225683   4.620   2.931  16.138  1.2742  1.2110  2.2046
 4742SOL     OW25684   2.390   4.270  15.172 -0.3950  0.4317  0.6039
 4742SOL    HW125685   2.421   4.359  15.188  2.0890 -0.5240  1.0431
 4742SOL    HW225686   2.347   4.275  15.087 -0.0881 -0.6781  0.3839
 4743SOL     OW25687   0.585   0.037   4.511 -0.3921  0.2556 -0.1474
 4743SOL    HW125688   0.604   0.058   4.419  1.3114 -2.7406 -0.4545
 4743SOL    HW225689   0.529   4.685   4.493 -1.6173  0.6183  2.0860
 4744SOL     OW25690   2.192   3.438   2.746 -0.5051  0.8211  0.3860
 4744SOL    HW125691   2.124   3.503   2.728 -1.1300  0.3288  0.9697
 4744SOL    HW225692   2.275   3.472   2.711  0.0251 -0.0771  0.7811
 4745SOL     OW25693   4.353   0.258   7.074 -0.3721  0.1841 -0.2184
 4745SOL    HW125694   4.352   0.313   6.996 -0.1717 -0.6094 -0.7886
 4745SOL    HW225695   4.437   0.292   7.105  0.3570 -0.9697 -0.9094
 4746SOL     OW25696   3.815   3.691   5.932 -0.1188  0.0542  0.4563
 4746SOL    HW125697   3.909   3.700   5.916  0.1357 -2.5135  0.5971
 4746SOL    HW225698   3.816   3.640   6.013 -0.8353 -0.4142  0.1673
 4747SOL     OW25699   0.121   2.679   3.343 -0.6621 -0.0645 -0.1024
 4747SOL    HW125700   0.047   2.624   3.368  0.6804 -1.1453  1.4580
 4747SOL    HW225701   0.138   2.720   3.428 -0.6194 -1.1154  0.3929
 4748SOL     OW25702   4.532   3.402   4.837 -0.1125  0.5192  0.0896
 4748SOL    HW125703   4.517   3.308   4.825  0.5037  0.5279 -0.8325
 4748SOL    HW225704   4.623   3.400   4.866 -0.1692  1.2004  0.3149
 4749SOL     OW25705   3.165   0.347   2.635 -0.2538  0.0434 -0.9068
 4749SOL    HW125706   3.137   0.435   2.608 -0.1683  0.3057 -0.1247
 4749SOL    HW225707   3.083   0.308   2.605  0.2099 -1.3064 -0.4010
 4750SOL     OW25708   2.171   0.051  14.931 -0.1864 -0.3725 -0.2346
 4750SOL    HW125709   2.230   0.044  14.855 -1.3594  0.6411 -1.2371
 4750SOL    HW225710   2.222   0.021  15.006 -0.8092  0.1013  0.3787
 4751SOL     OW25711   1.452   0.981  10.242  0.4829  0.0881  0.0022
 4751SOL    HW125712   1.446   1.067  10.200  0.5581  0.4878  0.8132
 4751SOL    HW225713   1.475   0.930  10.165 -5.2985  0.4381 -1.9479
 4752SOL     OW25714   2.446   3.252   5.013  0.2624 -0.1588  0.0444
 4752SOL    HW125715   2.385   3.182   5.040  1.3759 -2.6668 -3.9587
 4752SOL    HW225716   2.427   3.256   4.920  0.9251  2.9173  0.0582
 4753SOL     OW25717   1.191   3.134   9.130 -0.6731  0.3918  0.4222
 4753SOL    HW125718   1.210   3.092   9.046  2.4627  2.7306 -0.0437
 4753SOL    HW225719   1.103   3.170   9.119  0.1077  2.5943  1.4014
 4754SOL     OW25720   2.858   0.407   3.318  0.1530  0.0078 -0.4492
 4754SOL    HW125721   2.908   0.339   3.362  1.8366  0.5064 -1.5953
 4754SOL    HW225722   2.923   0.470   3.287  0.9897 -0.6885 -0.0745
 4755SOL     OW25723   2.301   2.517   7.454  0.2049 -0.6691 -0.1858
 4755SOL    HW125724   2.230   2.581   7.460  1.6720  0.7878  1.5990
 4755SOL    HW225725   2.272   2.439   7.503 -3.1418  0.1489 -0.8254
 4756SOL     OW25726   0.276   0.319   7.101  0.0581 -0.5576  0.1124
 4756SOL    HW125727   0.211   0.252   7.123  1.4280 -2.0928 -0.5553
 4756SOL    HW225728   0.342   0.273   7.050 -0.3819 -1.8959  0.7543
 4757SOL     OW25729   1.503   0.642   7.267 -0.5881 -0.1880  0.6683
 4757SOL    HW125730   1.479   0.585   7.193  2.3315 -1.5823  0.8065
 4757SOL    HW225731   1.514   0.573   7.332  1.4310 -0.9013 -0.4396
 4758SOL     OW25732   4.218   0.554   3.830  0.5330  0.1276  0.0628
 4758SOL    HW125733   4.184   0.588   3.747  1.3569 -1.6712 -1.0002
 4758SOL    HW225734   4.162   0.601   3.892 -0.4069 -1.4975  0.4510
 4759SOL     OW25735   2.454   4.191   3.126 -0.0019 -0.4887  0.4828
 4759SOL    HW125736   2.496   4.166   3.209 -0.4720  0.7729  1.0961
 4759SOL    HW225737   2.468   4.118   3.065 -1.3728 -0.2742 -0.0901
 4760SOL     OW25738   1.083   2.736   2.297  0.4504  0.1526  0.3957
 4760SOL    HW125739   1.122   2.649   2.303 -0.9318 -0.6756 -2.3076
 4760SOL    HW225740   1.150   2.794   2.263 -0.7984 -0.3932 -3.0663
 4761SOL     OW25741   1.962   0.317   6.578  0.4193 -0.7601 -0.1105
 4761SOL    HW125742   1.929   0.339   6.665  0.7143 -0.0496 -0.1744
 4761SOL    HW225743   1.996   0.228   6.594 -0.1740 -1.2513 -1.5700
 4762SOL     OW25744   3.036   3.714   5.222  0.1182  0.1017 -0.8780
 4762SOL    HW125745   2.990   3.717   5.306  0.4577 -0.0797 -0.6880
 4762SOL    HW225746   3.101   3.648   5.244  0.0999  1.1697  2.3270
 4763SOL     OW25747   1.432   3.361   4.159  0.3786 -1.2359 -0.1521
 4763SOL    HW125748   1.372   3.416   4.110  1.3984 -1.1399 -1.2989
 4763SOL    HW225749   1.416   3.384   4.251  1.6079  0.0148 -0.2595
 4764SOL     OW25750   1.241   3.539   4.100  1.0465 -0.5256  0.6251
 4764SOL    HW125751   1.156   3.521   4.059  0.0210 -0.9830  2.9399
 4764SOL    HW225752   1.289   3.571   4.024 -0.7857  0.7175 -0.0016
 4765SOL     OW25753   2.333   3.644   5.897  0.3317  0.2944 -0.7800
 4765SOL    HW125754   2.366   3.728   5.930  0.2145 -0.2087  0.6221
 4765SOL    HW225755   2.368   3.650   5.808  0.4302  1.2051 -0.6843
 4766SOL     OW25756   4.399   0.330  16.479 -0.3680  0.3281  0.2120
 4766SOL    HW125757   4.334   0.337  16.549  1.3049  2.7070  1.5288
 4766SOL    HW225758   4.419   0.418  16.446 -1.3170  0.8529  1.0400
 4767SOL     OW25759   3.897   3.920   6.586  0.2029 -0.0599  0.6797
 4767SOL    HW125760   3.859   3.989   6.532 -1.8232 -1.9034 -0.2340
 4767SOL    HW225761   3.985   3.933   6.550 -0.1134  0.0666 -0.0422
 4768SOL     OW25762   0.216   2.587   6.347  0.1348  0.2418 -0.1865
 4768SOL    HW125763   0.310   2.584   6.364 -0.1472  0.3836  1.3678
 4768SOL    HW225764   0.196   2.656   6.410  0.9853 -0.1774  0.5501
 4769SOL     OW25765   3.825   2.313   3.829  0.0076  0.9026  0.4792
 4769SOL    HW125766   3.784   2.302   3.743  0.9858  1.3730 -0.0391
 4769SOL    HW225767   3.903   2.261   3.813 -0.8894 -0.5796  0.9315
 4770SOL     OW25768   4.398   2.035   4.252 -0.4596  0.0324  0.2257
 4770SOL    HW125769   4.392   2.127   4.227 -0.5527 -0.5982 -2.1121
 4770SOL    HW225770   4.493   2.017   4.250 -0.2425  1.1035  1.1280
 4771SOL     OW25771   1.348   0.035   2.324  0.4119  0.4481  0.3532
 4771SOL    HW125772   1.351   0.130   2.316  0.6628  0.5318  1.3785
 4771SOL    HW225773   1.293   0.003   2.396  0.8963  0.3809  0.6891
 4772SOL     OW25774   4.252   2.462   3.147 -0.3050  0.0275  0.4424
 4772SOL    HW125775   4.211   2.439   3.064  0.9179 -1.6588  0.3088
 4772SOL    HW225776   4.288   2.377   3.173  1.1579  1.4036  2.9132
 4773SOL     OW25777   0.809   1.415   2.631  0.3528 -0.6890  0.0606
 4773SOL    HW125778   0.813   1.386   2.722  3.6166  0.5474  0.2930
 4773SOL    HW225779   0.719   1.403   2.600  0.1077 -0.5216  0.7034
 4774SOL     OW25780   0.347   4.654  12.736 -0.3724  0.1920 -0.9714
 4774SOL    HW125781   0.305   4.665  12.821 -0.1026  1.5743 -1.0167
 4774SOL    HW225782   0.428   4.698  12.762 -0.5661 -0.6877  1.1067
 4775SOL     OW25783   3.198   0.663   2.372  0.6275 -0.3927 -0.6438
 4775SOL    HW125784   3.142   0.589   2.351 -0.3566  0.2040 -0.1116
 4775SOL    HW225785   3.267   0.636   2.312 -0.0207 -1.5562 -0.8448
 4776SOL     OW25786   3.785   2.572  16.094 -0.0388  0.2678  0.3373
 4776SOL    HW125787   3.738   2.489  16.084  0.8109 -0.1886  0.1200
 4776SOL    HW225788   3.706   2.626  16.103 -0.1167  0.0964  0.6878
 4777SOL     OW25789   3.098   0.399  10.898  0.0671  0.8418  0.0070
 4777SOL    HW125790   3.003   0.389  10.886  0.4585 -1.9539 -0.5973
 4777SOL    HW225791   3.105   0.409  10.993  1.9281  2.3496 -0.2951
 4778SOL     OW25792   0.858   3.783   3.926 -0.0765  0.1065  0.5202
 4778SOL    HW125793   0.791   3.833   3.880 -0.1397  0.9144  1.4918
 4778SOL    HW225794   0.853   3.821   4.013 -3.4194 -1.4850  1.0099
 4779SOL     OW25795   1.063   3.075  13.512 -0.7959 -0.2103  0.4080
 4779SOL    HW125796   0.994   3.133  13.478  1.5250  1.3563 -1.6050
 4779SOL    HW225797   1.015   2.993  13.520 -0.9802 -0.0608  0.8289
 4780SOL     OW25798   2.224   0.202   2.152 -0.4159 -0.1664 -0.4467
 4780SOL    HW125799   2.247   0.272   2.090  1.3658  2.1850  2.8986
 4780SOL    HW225800   2.151   0.246   2.195 -0.7997 -1.8017  0.5503
 4781SOL     OW25801   3.735   3.915  12.180  0.4796 -0.0001 -0.2096
 4781SOL    HW125802   3.677   3.980  12.139  0.7705  2.3572  3.1093
 4781SOL    HW225803   3.785   3.895  12.101  0.3235 -0.2091 -0.2551
 4782SOL     OW25804   2.824   2.427   3.496 -0.0644 -0.6178  1.0369
 4782SOL    HW125805   2.825   2.470   3.411  1.3340 -1.2788  0.7072
 4782SOL    HW225806   2.737   2.388   3.487  0.7789 -1.8550 -1.6649
 4783SOL     OW25807   0.733   4.524   5.676  0.0181  0.7284 -0.1418
 4783SOL    HW125808   0.740   4.515   5.581 -0.5769 -2.4231  0.1319
 4783SOL    HW225809   0.648   4.486   5.699 -0.5781  1.2555 -1.4727
 4784SOL     OW25810   3.696   3.756   1.578 -0.1092  0.3238  1.0840
 4784SOL    HW125811   3.678   3.850   1.575 -0.0714  0.2325 -3.0972
 4784SOL    HW225812   3.738   3.750   1.492 -1.3282  0.5433  0.4762
 4785SOL     OW25813   3.496   2.481   0.987  0.1734 -0.6347  0.2314
 4785SOL    HW125814   3.421   2.424   0.968 -0.6395  0.2702  0.7544
 4785SOL    HW225815   3.467   2.521   1.069 -0.1838  0.8008 -0.6109
 4786SOL     OW25816   3.117   0.365   7.307  0.3631 -0.2114 -0.1856
 4786SOL    HW125817   3.039   0.316   7.283  0.8103 -1.6458  1.3540
 4786SOL    HW225818   3.089   0.429   7.372 -0.6077 -0.3539 -0.4717
 4787SOL     OW25819   0.987   1.229  17.020 -1.1470 -0.1768  0.4577
 4787SOL    HW125820   0.917   1.288  16.994  0.1981  1.9362  1.6632
 4787SOL    HW225821   0.966   1.235  17.114  1.0377  0.0503  0.9160
 4788SOL     OW25822   3.408   3.679  12.567 -0.1212  0.2362  0.3118
 4788SOL    HW125823   3.411   3.645  12.477 -2.4008 -2.6615  1.3060
 4788SOL    HW225824   3.314   3.694  12.574 -0.3315  0.4998 -3.2332
 4789SOL     OW25825   0.860   1.424   2.080 -0.2751 -0.0140  0.3374
 4789SOL    HW125826   0.804   1.475   2.021  0.8070 -0.8281 -1.3908
 4789SOL    HW225827   0.917   1.378   2.018 -2.7314 -0.7196 -1.4045
 4790SOL     OW25828   3.940   2.982  13.208 -0.2581  0.1626  0.1569
 4790SOL    HW125829   4.018   2.940  13.173  0.6230  1.4055  0.6566
 4790SOL    HW225830   3.988   3.048  13.258 -0.4072  1.2573 -1.1541
 4791SOL     OW25831   2.323   3.978   8.070 -0.1684  0.3246 -0.0703
 4791SOL    HW125832   2.382   3.912   8.033 -0.0035  0.4840 -0.0890
 4791SOL    HW225833   2.311   3.943   8.158  1.0041  2.9326  1.1183
 4792SOL     OW25834   3.329   4.124   8.131  0.2960  0.1629  0.4612
 4792SOL    HW125835   3.296   4.091   8.047 -2.2182  0.2460  1.4137
 4792SOL    HW225836   3.305   4.216   8.124  1.6012  0.4452 -0.2759
 4793SOL     OW25837   3.756   1.655  12.472  0.0334 -0.3016  0.0487
 4793SOL    HW125838   3.826   1.703  12.428 -0.7473 -0.0810 -0.9575
 4793SOL    HW225839   3.724   1.622  12.388  1.0990 -0.7117 -0.1984
 4794SOL     OW25840   1.649   0.091   5.603 -0.1808 -0.0656 -0.3994
 4794SOL    HW125841   1.576   0.131   5.556 -0.2311  0.6371  0.2842
 4794SOL    HW225842   1.725   0.146   5.586 -0.1239 -0.6862 -2.1740
 4795SOL     OW25843   0.813   4.687  12.457  0.3362  0.2317  0.6323
 4795SOL    HW125844   0.745   4.623  12.435  0.4570  0.5035 -0.5354
 4795SOL    HW225845   0.856   4.650  12.534  1.2867  0.8715  0.4040
 4796SOL     OW25846   4.093   1.848   6.738 -0.3230 -0.0981 -0.1708
 4796SOL    HW125847   4.096   1.817   6.648  0.1501  0.4694 -0.3559
 4796SOL    HW225848   4.143   1.927   6.716 -1.9301  0.5390 -1.6171
 4797SOL     OW25849   1.793   2.758  17.015  0.3899  0.1539  0.3132
 4797SOL    HW125850   1.820   2.666  17.017 -0.0094  0.0658  1.8159
 4797SOL    HW225851   1.858   2.793  17.076  1.3991 -0.3489 -0.4662
 4798SOL     OW25852   4.229   2.285   8.179 -0.5189  0.4439  0.2116
 4798SOL    HW125853   4.308   2.339   8.176 -0.4678  0.3013 -0.8164
 4798SOL    HW225854   4.256   2.247   8.096 -0.2883  1.5238 -0.2091
 4799SOL     OW25855   1.243   3.060   7.516 -0.7608 -0.2850 -0.3524
 4799SOL    HW125856   1.252   3.056   7.421  1.2408 -4.0488  0.0061
 4799SOL    HW225857   1.278   2.974   7.539 -0.0575  1.3174  4.6277
 4800SOL     OW25858   0.793   2.310   8.089  0.0144 -0.1011  0.0382
 4800SOL    HW125859   0.846   2.355   8.024 -1.3052 -0.1396 -1.0656
 4800SOL    HW225860   0.830   2.222   8.097  0.2820 -0.0048 -0.1554
 4801SOL     OW25861   3.496   4.066   2.455 -0.1421 -0.0207 -1.1175
 4801SOL    HW125862   3.552   4.006   2.505  0.6862  0.1876 -1.8038
 4801SOL    HW225863   3.408   4.029   2.457 -0.1276  0.1070  2.5872
 4802SOL     OW25864   2.286   2.170   3.579 -0.3630  0.0596  0.2617
 4802SOL    HW125865   2.348   2.228   3.624 -2.8216  2.5638  0.4067
 4802SOL    HW225866   2.308   2.174   3.486 -0.2593  0.9864  0.3236
 4803SOL     OW25867   2.025   3.810   4.911 -0.0095 -0.8256 -0.1111
 4803SOL    HW125868   2.095   3.747   4.929 -0.1606 -1.3696 -1.4476
 4803SOL    HW225869   2.066   3.888   4.948 -2.8313 -0.4621  2.2646
 4804SOL     OW25870   1.349   2.491   3.201  0.7261  0.0655  0.1314
 4804SOL    HW125871   1.383   2.573   3.236  0.9432 -0.8112  1.9693
 4804SOL    HW225872   1.258   2.499   3.227  0.6729 -2.7368  0.7635
 4805SOL     OW25873   4.492   2.536   6.398 -0.0565 -0.6332 -0.3356
 4805SOL    HW125874   4.440   2.616   6.406  1.8080  0.6325 -0.8794
 4805SOL    HW225875   4.529   2.530   6.486  0.5701  0.8319 -0.4975
 4806SOL     OW25876   3.271   3.177  17.558 -0.0002  0.4342 -0.0117
 4806SOL    HW125877   3.327   3.163  17.634  0.5359 -1.1376 -0.6845
 4806SOL    HW225878   3.200   3.219  17.606  0.3443 -0.8054  1.5787
 4807SOL     OW25879   4.605   0.183   2.168 -0.0374 -0.5400 -0.3981
 4807SOL    HW125880   4.558   0.266   2.172  0.7923 -0.1591  1.2776
 4807SOL    HW225881   4.690   0.217   2.196 -0.2475  2.2514 -3.2342
 4808SOL     OW25882   1.757   4.059   3.042 -0.0857  0.4295  0.7543
 4808SOL    HW125883   1.669   4.091   3.059  0.2823  1.1370  1.3020
 4808SOL    HW225884   1.774   4.086   2.952 -0.5618  1.9372  1.1286
 4809SOL     OW25885   1.640   1.656   6.165  0.1101 -0.2620  0.4257
 4809SOL    HW125886   1.570   1.714   6.133 -0.7670 -1.7600 -0.4054
 4809SOL    HW225887   1.667   1.701   6.245 -0.3885 -0.2255  0.5755
 4810SOL     OW25888   4.012   2.121   2.546  0.4914 -0.7724  0.1542
 4810SOL    HW125889   4.091   2.087   2.504 -0.1109 -0.9505 -0.8414
 4810SOL    HW225890   4.026   2.215   2.533 -1.1498 -0.5456  0.0103
 4811SOL     OW25891   1.228   3.030  13.736  0.2860 -0.0805 -0.0866
 4811SOL    HW125892   1.233   2.936  13.750  0.3756 -0.0846 -0.1457
 4811SOL    HW225893   1.162   3.036  13.667 -1.2477  1.3031  1.4942
 4812SOL     OW25894   4.413   4.211   2.552  0.0309 -0.1546  0.3168
 4812SOL    HW125895   4.442   4.299   2.530 -0.4877 -0.3524 -1.1250
 4812SOL    HW225896   4.322   4.219   2.526  0.0964 -0.7211 -0.0949
 4813SOL     OW25897   4.104   2.096   3.185 -0.0636  0.3767 -0.4572
 4813SOL    HW125898   4.030   2.086   3.126  2.0011 -2.2465 -2.6178
 4813SOL    HW225899   4.153   2.016   3.170  2.9762  1.9440  0.9956
 4814SOL     OW25900   1.133   0.321   6.708  0.3408  0.0271  0.0880
 4814SOL    HW125901   1.225   0.338   6.685  0.2976 -1.8840 -1.4904
 4814SOL    HW225902   1.083   0.369   6.643 -2.6377 -2.1094  0.8301
 4815SOL     OW25903   1.969   3.985   7.548 -0.1306 -0.0851  0.2052
 4815SOL    HW125904   2.034   4.001   7.617 -2.9871 -0.9723  3.1027
 4815SOL    HW225905   2.027   3.975   7.473 -0.3051  1.2998 -0.1018
 4816SOL     OW25906   2.147   3.385   2.413  0.0429  0.2106 -0.3686
 4816SOL    HW125907   2.176   3.299   2.443  0.6870  0.9916  1.2824
 4816SOL    HW225908   2.215   3.443   2.448  0.5615 -0.7811  0.2686
 4817SOL     OW25909   0.828   0.051   2.350 -0.2371 -0.4070  0.4238
 4817SOL    HW125910   0.901   0.046   2.289 -0.9645  1.0716 -0.5813
 4817SOL    HW225911   0.790   4.687   2.338 -0.2776 -0.4126  0.5985
 4818SOL     OW25912   2.700   1.704  13.206 -0.0902 -0.2714 -0.3077
 4818SOL    HW125913   2.686   1.614  13.238  0.2548  0.1800  1.0951
 4818SOL    HW225914   2.673   1.762  13.277 -1.2272 -1.4696  0.2528
 4819SOL     OW25915   3.483   3.297   7.824  0.0880 -0.0264 -0.1233
 4819SOL    HW125916   3.411   3.242   7.854  0.7768 -0.8986 -0.1045
 4819SOL    HW225917   3.549   3.276   7.889  0.7515  2.5526  0.0634
 4820SOL     OW25918   1.251   3.510   4.625  0.2791 -0.6449 -0.2185
 4820SOL    HW125919   1.201   3.532   4.546 -1.8367  0.2996  1.4059
 4820SOL    HW225920   1.232   3.416   4.615  1.3027 -0.9471  0.6871
 4821SOL     OW25921   0.439   4.442   2.104  0.1261  0.2525 -0.1521
 4821SOL    HW125922   0.363   4.395   2.070 -0.8946 -0.5113  3.1442
 4821SOL    HW225923   0.482   4.374   2.156  0.5770  0.6949  0.0558
 4822SOL     OW25924   4.717   1.112   7.566 -0.6006  0.5079 -0.0412
 4822SOL    HW125925   0.023   1.186   7.619 -1.1784  0.6748  0.0364
 4822SOL    HW225926   4.707   1.045   7.633 -1.9777 -0.6623 -1.4430
 4823SOL     OW25927   2.853   3.086   3.297 -0.8700 -0.2396 -0.2232
 4823SOL    HW125928   2.806   3.121   3.374  0.9879  3.1040 -0.5971
 4823SOL    HW225929   2.795   3.090   3.221 -2.4498  0.7974  1.0216
 4824SOL     OW25930   0.444   1.477   9.595  0.0267 -0.5799  0.5401
 4824SOL    HW125931   0.453   1.399   9.650  2.9080  0.7695  1.9938
 4824SOL    HW225932   0.487   1.544   9.649  0.6165 -2.9545  3.0095
 4825SOL     OW25933   2.297   3.317   7.280 -0.2257 -0.4241 -0.2576
 4825SOL    HW125934   2.380   3.282   7.248  0.8084 -0.1701  2.1445
 4825SOL    HW225935   2.318   3.402   7.321 -0.9982 -0.9162  1.1388
 4826SOL     OW25936   2.860   1.014   2.620 -0.1334  0.4630 -0.0087
 4826SOL    HW125937   2.835   1.095   2.665  1.8643  1.1565 -0.1505
 4826SOL    HW225938   2.913   0.968   2.684 -0.6033  0.4420  0.3641
 4827SOL     OW25939   0.862   3.700   4.977  0.5363 -0.1325 -0.0296
 4827SOL    HW125940   0.776   3.734   4.951  1.2253  0.2337 -1.7977
 4827SOL    HW225941   0.905   3.714   4.893  0.9116 -1.2690 -0.0320
 4828SOL     OW25942   0.900   1.546   6.844  0.0306 -0.2095  0.7234
 4828SOL    HW125943   0.938   1.493   6.774 -0.6181 -0.5540  0.6298
 4828SOL    HW225944   0.828   1.485   6.863 -2.1610  1.5944 -1.7647
 4829SOL     OW25945   1.363   4.526   4.675  0.2176  0.2282 -0.3356
 4829SOL    HW125946   1.319   4.585   4.737  1.1986  0.7947 -0.1713
 4829SOL    HW225947   1.290   4.470   4.651 -1.1632  1.1946  1.6243
 4830SOL     OW25948   2.441   3.648   2.273  0.2971  0.5763  0.4936
 4830SOL    HW125949   2.465   3.741   2.273 -0.8386  0.8767  1.6053
 4830SOL    HW225950   2.492   3.600   2.208 -0.5580  2.7489 -1.8116
 4831SOL     OW25951   0.528   1.139   5.944  0.3611 -0.0997  0.1575
 4831SOL    HW125952   0.584   1.216   5.951  0.3958 -0.1674  0.6635
 4831SOL    HW225953   0.573   1.077   6.001 -1.4371 -1.6599 -0.1070
 4832SOL     OW25954   2.591   0.654  17.341 -0.4117 -0.1148 -0.8893
 4832SOL    HW125955   2.570   0.615  17.426  2.0007 -1.8946 -1.1232
 4832SOL    HW225956   2.685   0.674  17.346  0.1420 -3.0287  0.2181
 4833SOL     OW25957   1.767   2.747   2.943 -0.1361  0.0515 -0.1282
 4833SOL    HW125958   1.767   2.809   3.016 -0.2633  0.3657 -0.3998
 4833SOL    HW225959   1.822   2.788   2.876  0.1397 -1.9046 -1.1062
 4834SOL     OW25960   4.312   4.089  12.487 -0.2819 -0.2829  0.4169
 4834SOL    HW125961   4.253   4.091  12.562 -0.9533  0.4038 -0.1314
 4834SOL    HW225962   4.398   4.088  12.528 -0.3446 -0.7641  0.5407
 4835SOL     OW25963   4.506   2.486   8.144 -0.2522  0.4096  0.1051
 4835SOL    HW125964   4.545   2.462   8.228 -2.0619 -0.8358  0.5877
 4835SOL    HW225965   4.513   2.411   8.086  0.1376  1.1311 -0.7786
 4836SOL     OW25966   1.326   0.362  16.935  0.3185  0.5086  0.3762
 4836SOL    HW125967   1.401   0.404  16.978  1.2791 -0.5124 -0.2931
 4836SOL    HW225968   1.309   0.428  16.868 -0.8452  0.8080  0.9581
 4837SOL     OW25969   3.749   3.249  14.136  0.2697  0.6209  0.0315
 4837SOL    HW125970   3.658   3.274  14.154 -0.3041 -0.9736 -0.6969
 4837SOL    HW225971   3.760   3.157  14.159  2.5125  2.2833  5.4159
 4838SOL     OW25972   2.566   1.664   8.351 -0.7996  0.0945 -0.2576
 4838SOL    HW125973   2.627   1.609   8.401  0.3687 -0.5026 -2.3401
 4838SOL    HW225974   2.530   1.598   8.291 -0.3178  0.1993 -0.6625
 4839SOL     OW25975   3.432   2.481  13.211  0.6356 -0.1898  0.1840
 4839SOL    HW125976   3.341   2.509  13.199  1.2265  1.0928 -1.2993
 4839SOL    HW225977   3.475   2.546  13.266  1.1247  1.0782 -1.6939
 4840SOL     OW25978   3.009   3.707   7.282  0.4584 -0.0520 -0.0464
 4840SOL    HW125979   3.099   3.736   7.267  0.8305 -0.7286  0.8837
 4840SOL    HW225980   3.040   3.639   7.341  1.9813  0.2698 -0.4867
 4841SOL     OW25981   1.194   4.227   7.705 -0.9028  0.0290  0.1035
 4841SOL    HW125982   1.264   4.189   7.651 -1.3035 -0.3191 -0.1736
 4841SOL    HW225983   1.242   4.274   7.773  1.6432  1.4245 -2.6428
 4842SOL     OW25984   1.041   2.388   3.824  0.0606  0.2548 -0.0828
 4842SOL    HW125985   1.111   2.442   3.859 -0.6619  0.2694  1.3514
 4842SOL    HW225986   1.089   2.305   3.816 -0.2337  0.1489 -0.8211
 4843SOL     OW25987   1.381   1.474   9.168 -0.4569  0.2010 -0.6813
 4843SOL    HW125988   1.353   1.537   9.234 -0.5406 -0.5168 -0.0361
 4843SOL    HW225989   1.330   1.494   9.089 -1.4039 -0.7617 -0.3207
 4844SOL     OW25990   2.741   3.598   5.206  0.1375 -0.8437 -0.1022
 4844SOL    HW125991   2.653   3.621   5.235  1.1315  1.7638  0.8696
 4844SOL    HW225992   2.743   3.568   5.115 -2.4164  1.4888 -0.9383
 4845SOL     OW25993   3.297   1.871  16.797  0.2037 -0.2282 -0.3229
 4845SOL    HW125994   3.374   1.885  16.741  2.1063  2.4447  2.9511
 4845SOL    HW225995   3.235   1.937  16.768  0.5480 -0.3212 -1.2864
 4846SOL     OW25996   4.247   2.135   1.426  0.4899  0.7601  0.0474
 4846SOL    HW125997   4.267   2.227   1.444  0.2920  0.8062  0.0274
 4846SOL    HW225998   4.238   2.105   1.516  1.0593  0.3678 -0.0255
 4847SOL     OW25999   3.175   4.412   2.238  0.4950  0.1656  0.3918
 4847SOL    HW126000   3.133   4.495   2.260 -1.2365 -0.6078 -0.0289
 4847SOL    HW226001   3.246   4.439   2.179 -0.3365  0.9770 -0.2402
 4848SOL     OW26002   2.445   4.415   9.310 -0.3109 -0.0874 -0.4802
 4848SOL    HW126003   2.447   4.370   9.225 -4.2343  0.7515 -1.0013
 4848SOL    HW226004   2.354   4.444   9.311 -0.3024 -0.0281 -0.9925
 4849SOL     OW26005   3.299   1.852   7.333  0.8090 -0.3856 -0.4353
 4849SOL    HW126006   3.223   1.895   7.373  0.1470 -1.1506 -0.8694
 4849SOL    HW226007   3.350   1.922   7.293  1.8312 -0.1606  1.2640
 4850SOL     OW26008   3.260   1.076   3.726 -0.1479  0.2177  0.6501
 4850SOL    HW126009   3.325   1.044   3.664  0.3077  0.8026  0.8235
 4850SOL    HW226010   3.197   1.117   3.667 -1.2172 -1.0689  0.8900
 4851SOL     OW26011   3.033   0.965   8.384  0.0869 -0.3547  0.3009
 4851SOL    HW126012   3.103   0.901   8.378  0.6621  0.2916  0.0823
 4851SOL    HW226013   3.076   1.046   8.409  1.3477 -0.9478  0.0378
 4852SOL     OW26014   3.662   1.063   1.069 -0.0676 -0.0955  0.1300
 4852SOL    HW126015   3.630   1.006   1.139  1.1484 -2.6677 -1.3893
 4852SOL    HW226016   3.718   0.998   1.026 -0.1757  1.4209 -2.2960
 4853SOL     OW26017   2.503   4.543   5.815 -0.2821 -0.4715 -0.3291
 4853SOL    HW126018   2.493   4.509   5.904 -0.6666 -0.6604 -0.4430
 4853SOL    HW226019   2.591   4.580   5.808 -0.8090  0.8805  0.1993
 4854SOL     OW26020   4.348   1.123   8.561  0.1683  0.1955 -0.3984
 4854SOL    HW126021   4.345   1.027   8.557  2.9446  0.1228 -0.6234
 4854SOL    HW226022   4.284   1.143   8.493 -1.5087  1.2297  1.4798
 4855SOL     OW26023   1.848   2.853   6.358  0.6493 -0.0833  0.9057
 4855SOL    HW126024   1.939   2.861   6.333  1.0853  3.0133  3.4764
 4855SOL    HW226025   1.821   2.802   6.281 -0.4383 -1.9053  2.4775
 4856SOL     OW26026   2.546   2.933   3.796  0.2858  0.3735 -0.3527
 4856SOL    HW126027   2.496   2.857   3.767  0.5190 -0.4813  1.4868
 4856SOL    HW226028   2.508   2.965   3.879 -0.5606 -1.1260 -0.1650
 4857SOL     OW26029   4.481   3.854   0.294 -0.0256 -0.7177 -0.1375
 4857SOL    HW126030   4.488   3.932   0.239  0.3665  0.0631  1.0331
 4857SOL    HW226031   4.388   3.839   0.281 -0.8908  2.8921  2.0394
 4858SOL     OW26032   3.430   4.691  10.120  0.0206  0.7436  0.6534
 4858SOL    HW126033   3.507   4.693  10.063  0.8356 -1.4319  1.6729
 4858SOL    HW226034   3.480   4.685  10.201 -0.7563 -0.0417  1.0851
 4859SOL     OW26035   3.623   0.467   0.987 -0.4041 -0.0911  0.0627
 4859SOL    HW126036   3.691   0.448   0.923 -1.3323 -0.1977 -0.8899
 4859SOL    HW226037   3.673   0.519   1.050  1.2870 -1.2331 -0.3513
 4860SOL     OW26038   3.469   3.449  12.746  0.1597  0.0525  0.1883
 4860SOL    HW126039   3.400   3.404  12.795  0.3096 -1.8313 -1.3131
 4860SOL    HW226040   3.426   3.533  12.729 -1.3537 -0.4233  1.6932
 4861SOL     OW26041   3.896   0.581  15.690  0.2303 -0.4683 -0.0688
 4861SOL    HW126042   3.897   0.677  15.692 -2.0593 -0.4300 -0.4547
 4861SOL    HW226043   3.836   0.570  15.763  0.4343 -3.3876 -0.3283
 4862SOL     OW26044   3.072   0.106   8.392 -0.0043 -0.4832 -0.0761
 4862SOL    HW126045   3.153   0.077   8.435 -0.1667  1.0758  1.2740
 4862SOL    HW226046   3.110   0.109   8.304  1.1385  1.2143  0.4761
 4863SOL     OW26047   2.498   4.311  13.166 -0.4150 -0.3489  0.2288
 4863SOL    HW126048   2.487   4.216  13.158 -0.3344 -0.3435  0.0567
 4863SOL    HW226049   2.467   4.343  13.081 -0.7375  0.5254  0.6768
 4864SOL     OW26050   3.416   0.133   3.896 -0.0441  0.4245 -0.4132
 4864SOL    HW126051   3.392   0.127   3.989  0.1461 -1.0230 -0.4587
 4864SOL    HW226052   3.510   0.114   3.907 -0.7570 -2.9910 -0.2561
 4865SOL     OW26053   4.235   1.267   8.793 -0.0412 -0.4005  0.2027
 4865SOL    HW126054   4.249   1.224   8.708  3.5474  2.6137 -0.7590
 4865SOL    HW226055   4.254   1.358   8.769  0.0709 -0.7727 -1.1527
 4866SOL     OW26056   4.155   3.435   9.645  0.2224 -0.2124 -0.1812
 4866SOL    HW126057   4.157   3.435   9.741  0.6652 -0.3386 -0.1932
 4866SOL    HW226058   4.196   3.351   9.627 -0.6371 -0.8589  0.8531
 4867SOL     OW26059   4.623   3.968   9.084 -0.5723 -0.5954 -0.7978
 4867SOL    HW126060   4.574   3.902   9.034 -0.3107  1.4725 -3.8074
 4867SOL    HW226061   4.614   3.920   9.166  0.9471 -0.6555 -0.6689
 4868SOL     OW26062   4.564   2.534   4.851 -0.1513 -0.0638  0.3921
 4868SOL    HW126063   4.657   2.513   4.862 -0.0883 -0.5886 -1.1985
 4868SOL    HW226064   4.521   2.448   4.847 -1.2463  0.5878 -1.6039
 4869SOL     OW26065   3.700   0.133   9.546 -0.1095  0.1479 -0.1891
 4869SOL    HW126066   3.622   0.189   9.542 -1.2930 -1.5368 -0.7162
 4869SOL    HW226067   3.685   0.095   9.460  1.9473  1.4358 -1.1054
 4870SOL     OW26068   3.008   3.008  11.834 -0.5253  0.2930  0.5400
 4870SOL    HW126069   3.028   2.918  11.861  0.3551 -0.7440 -3.5610
 4870SOL    HW226070   3.095   3.038  11.859 -0.2455  0.5160 -0.7005
 4871SOL     OW26071   4.113   4.607  14.326 -0.0150 -0.0194  0.1008
 4871SOL    HW126072   4.052   4.670  14.363  0.8392  1.4635 -1.0425
 4871SOL    HW226073   4.164   4.582  14.404  0.1182 -1.7852 -0.5405
 4872SOL     OW26074   2.806   1.804  13.634  0.0255  0.0803  0.2648
 4872SOL    HW126075   2.812   1.868  13.705  0.8845  1.3372 -0.9587
 4872SOL    HW226076   2.828   1.718  13.670 -0.0471  0.7593  1.9750
 4873SOL     OW26077   0.735   1.671  12.066  0.7808 -0.3700  0.3642
 4873SOL    HW126078   0.755   1.590  12.114 -2.2893 -0.8735  0.7832
 4873SOL    HW226079   0.642   1.654  12.050  0.6308  1.1173 -0.3295
 4874SOL     OW26080   4.598   2.783   6.633  0.4584  0.1831  0.3045
 4874SOL    HW126081   4.540   2.791   6.558 -0.0408  2.0128  0.8670
 4874SOL    HW226082   4.532   2.755   6.697  0.9797 -0.8224  0.3972
 4875SOL     OW26083   1.726   1.749   6.976 -0.0103  0.1069 -0.6617
 4875SOL    HW126084   1.678   1.792   6.906 -0.7839  0.9156  0.3587
 4875SOL    HW226085   1.721   1.655   6.957  2.5194  0.4835 -3.1650
 4876SOL     OW26086   2.437   1.418   2.706  0.7534  0.3207 -0.7270
 4876SOL    HW126087   2.376   1.407   2.779  0.3315 -1.4051 -1.3347
 4876SOL    HW226088   2.485   1.497   2.731 -1.7147  0.4001  3.7538
 4877SOL     OW26089   2.086   1.758  12.667 -0.1731 -0.0193 -0.4078
 4877SOL    HW126090   2.091   1.753  12.762 -3.5060 -0.2382 -0.2406
 4877SOL    HW226091   2.132   1.680  12.635 -0.3986 -0.6815  0.8940
 4878SOL     OW26092   2.841   1.426  13.056  0.7838 -0.1619  0.0422
 4878SOL    HW126093   2.886   1.412  13.139 -0.7545 -2.0194  0.5567
 4878SOL    HW226094   2.915   1.434  12.997  1.2024 -1.6723  0.3688
 4879SOL     OW26095   1.804   4.421   8.700 -0.0914 -0.0401  0.6232
 4879SOL    HW126096   1.794   4.516   8.689 -0.4795 -0.1443  0.0765
 4879SOL    HW226097   1.771   4.417   8.790  1.4016  0.6856  1.2056
 4880SOL     OW26098   3.494   0.336   9.617  0.3112 -0.1973 -0.0272
 4880SOL    HW126099   3.528   0.423   9.593 -0.6170  0.3421  0.6096
 4880SOL    HW226100   3.438   0.319   9.541  0.7114  2.1504 -0.8637
 4881SOL     OW26101   4.438   3.616   8.340  0.4625  0.2711  0.3625
 4881SOL    HW126102   4.502   3.560   8.297  0.6493  0.4024  0.4715
 4881SOL    HW226103   4.475   3.703   8.332 -2.4962  1.3901 -1.2052
 4882SOL     OW26104   2.216   0.395   6.943  0.3959 -0.3483 -0.2622
 4882SOL    HW126105   2.308   0.419   6.936  1.1737 -2.3266  3.0164
 4882SOL    HW226106   2.242   0.321   6.997 -0.0668  0.0922  0.5807
 4883SOL     OW26107   3.444   3.613   2.587 -0.1439 -0.1062 -0.0483
 4883SOL    HW126108   3.480   3.671   2.519  1.8054  2.1538  2.9159
 4883SOL    HW226109   3.515   3.549   2.591 -0.2896 -0.0528  3.0096
 4884SOL     OW26110   1.440   4.486   4.998  0.0837 -0.0410 -0.3294
 4884SOL    HW126111   1.456   4.544   5.073  2.1166 -0.3703 -0.5191
 4884SOL    HW226112   1.374   4.543   4.958 -0.5229 -1.2597 -1.0604
 4885SOL     OW26113   1.456   3.310  11.234 -0.0224  0.5264 -0.1916
 4885SOL    HW126114   1.405   3.235  11.205 -1.7093  1.6651 -0.1254
 4885SOL    HW226115   1.406   3.338  11.311  0.4707 -3.1641  1.4820
 4886SOL     OW26116   0.828   0.309   5.790 -0.2812 -0.9124 -0.1219
 4886SOL    HW126117   0.835   0.243   5.722 -2.0128 -0.1844 -1.0203
 4886SOL    HW226118   0.737   0.300   5.818 -0.7712  0.1522 -1.3246
 4887SOL     OW26119   3.675   0.917   8.140 -0.0458 -0.3349 -0.2133
 4887SOL    HW126120   3.762   0.938   8.106 -0.9023 -0.3990 -2.3984
 4887SOL    HW226121   3.652   1.002   8.176 -0.9289  0.3585 -2.4313
 4888SOL     OW26122   0.530   3.823   2.105  0.7680  0.0096 -0.3615
 4888SOL    HW126123   0.448   3.864   2.133  1.0556  1.9123 -2.3851
 4888SOL    HW226124   0.518   3.820   2.010 -3.7423 -1.0932  0.2250
 4889SOL     OW26125   4.077   3.610   9.442  0.2156  0.5820 -0.2906
 4889SOL    HW126126   4.135   3.548   9.487  0.3398 -0.1922 -1.5126
 4889SOL    HW226127   4.071   3.574   9.353  1.0117  0.0792 -0.1473
 4890SOL     OW26128   2.519   0.358   4.790  0.1091  0.8178 -0.0446
 4890SOL    HW126129   2.528   0.300   4.715 -2.0777  0.4144 -0.0125
 4890SOL    HW226130   2.516   0.436   4.735 -1.8089 -0.1360 -1.2951
 4891SOL     OW26131   0.792   1.100  10.334 -0.3293 -0.0410  0.0245
 4891SOL    HW126132   0.878   1.114  10.292 -0.4895 -1.6841 -0.8655
 4891SOL    HW226133   0.783   1.005  10.328  0.9258 -0.2495  1.5077
 4892SOL     OW26134   0.616   0.496  10.709  0.1774 -0.6484 -0.2482
 4892SOL    HW126135   0.528   0.461  10.693 -0.2326 -0.7157  2.2481
 4892SOL    HW226136   0.668   0.422  10.677 -0.5143 -1.8904  1.5069
 4893SOL     OW26137   3.523   3.067   1.439  0.0750  0.3404  0.8670
 4893SOL    HW126138   3.614   3.086   1.416 -1.2965  0.4080 -4.7108
 4893SOL    HW226139   3.508   3.122   1.516 -2.2121  1.7090 -0.5367
 4894SOL     OW26140   0.578   3.199   7.964 -0.1600  0.3712 -0.3377
 4894SOL    HW126141   0.588   3.205   8.059  1.8754 -0.4980 -0.5063
 4894SOL    HW226142   0.512   3.265   7.942 -1.9845 -0.2617  3.2041
 4895SOL     OW26143   3.672   0.332   0.153  0.8406  0.4297 -0.8116
 4895SOL    HW126144   3.693   0.403   0.093  2.4766  0.0100 -0.7457
 4895SOL    HW226145   3.585   0.366   0.172  1.3417  0.2841  1.7496
 4896SOL     OW26146   1.648   2.925   3.400 -0.8027  0.5000 -0.2047
 4896SOL    HW126147   1.695   2.884   3.473 -0.1153  1.9969  0.2069
 4896SOL    HW226148   1.631   3.013   3.435  0.3678  0.5337  0.2806
 4897SOL     OW26149   4.580   0.317   4.448  0.1094  0.2303 -0.2186
 4897SOL    HW126150   4.604   0.390   4.391 -1.4117 -1.0883 -2.5907
 4897SOL    HW226151   4.518   0.274   4.388  0.4109 -0.9829  0.3256
 4898SOL     OW26152   2.450   3.294   9.668  0.1388  1.3682 -0.0085
 4898SOL    HW126153   2.483   3.246   9.744  0.4548 -1.5668 -1.9830
 4898SOL    HW226154   2.533   3.311   9.623  0.0757  2.2706  0.2250
 4899SOL     OW26155   3.528   2.943   6.387  0.4637 -0.3128  0.5824
 4899SOL    HW126156   3.465   2.997   6.339 -0.8016 -3.3364 -1.1896
 4899SOL    HW226157   3.469   2.869   6.404 -0.3493  0.0526 -0.6302
 4900SOL     OW26158   0.287   3.861   1.532  0.0801 -0.2902  0.4402
 4900SOL    HW126159   0.375   3.836   1.560  0.3154 -0.6916 -0.6502
 4900SOL    HW226160   0.223   3.799   1.567 -1.1792  0.5132 -0.4269
 4901SOL     OW26161   0.531   2.902   6.193  0.3007 -0.2750  0.0933
 4901SOL    HW126162   0.601   2.932   6.250  0.7556  0.1761 -0.6956
 4901SOL    HW226163   0.573   2.837   6.136  0.8678 -1.6521  2.1043
 4902SOL     OW26164   1.270   0.372   1.382  0.2183 -0.3673  0.3929
 4902SOL    HW126165   1.268   0.459   1.341 -1.5887 -0.3396  0.5304
 4902SOL    HW226166   1.365   0.363   1.393  0.4513  0.2533 -1.0904
 4903SOL     OW26167   2.189   4.322  10.982 -0.1719  0.3105 -0.0586
 4903SOL    HW126168   2.123   4.253  10.976  0.6935 -0.7127  1.8819
 4903SOL    HW226169   2.263   4.261  10.985  0.6093  1.3687  2.1214
 4904SOL     OW26170   3.153   2.380   3.248 -0.1302  0.6093 -0.0494
 4904SOL    HW126171   3.179   2.314   3.311 -2.0926  0.2740  0.4209
 4904SOL    HW226172   3.172   2.331   3.169 -0.4145 -1.1566  0.9806
 4905SOL     OW26173   1.318   3.370  14.724  0.1634  0.2202 -0.9122
 4905SOL    HW126174   1.265   3.339  14.797  1.4973  0.9607  0.3852
 4905SOL    HW226175   1.322   3.464  14.742 -1.6554  0.2162 -0.5299
 4906SOL     OW26176   3.264   2.935   8.537 -0.0717 -0.4405 -0.6042
 4906SOL    HW126177   3.227   2.872   8.599  0.0592 -0.1738 -0.2551
 4906SOL    HW226178   3.189   2.933   8.478  0.2190  0.9145 -1.0242
 4907SOL     OW26179   4.227   3.791   2.405  0.1850  0.1853 -0.5006
 4907SOL    HW126180   4.271   3.752   2.330 -0.3719  0.2198 -0.8400
 4907SOL    HW226181   4.299   3.848   2.435  0.7947 -0.1804 -1.2936
 4908SOL     OW26182   0.812   0.595  13.570  0.4506  0.6068  0.4240
 4908SOL    HW126183   0.751   0.656  13.611  1.5915  0.2907  2.5961
 4908SOL    HW226184   0.877   0.654  13.532  0.3217  0.2087 -0.4139
 4909SOL     OW26185   2.202   3.907  13.102 -0.3865 -0.4210  0.5766
 4909SOL    HW126186   2.150   3.843  13.151 -2.0693  0.3860 -0.1231
 4909SOL    HW226187   2.130   3.956  13.061  0.3014  2.1672  2.4847
 4910SOL     OW26188   2.089   3.875  11.197  0.3331 -0.3762  0.2469
 4910SOL    HW126189   2.086   3.883  11.292  0.4550  0.8006  0.1516
 4910SOL    HW226190   2.024   3.806  11.184 -0.0903  0.2851 -1.2316
 4911SOL     OW26191   4.140   1.807   2.553 -0.1681 -0.3369  0.5740
 4911SOL    HW126192   4.140   1.723   2.506  1.1984 -0.6000  1.0454
 4911SOL    HW226193   4.050   1.831   2.530 -1.2218 -0.7318  4.2600
 4912SOL     OW26194   0.915   2.975  14.909 -0.5060  0.3841  0.0217
 4912SOL    HW126195   0.949   2.987  14.998 -0.6946  1.3338 -0.0313
 4912SOL    HW226196   0.936   2.882  14.901  0.2666  0.7613 -2.2704
 4913SOL     OW26197   2.241   0.757  17.281 -0.4004 -0.8281 -0.0622
 4913SOL    HW126198   2.201   0.781  17.197 -0.0124 -1.7196 -0.4998
 4913SOL    HW226199   2.227   0.826  17.346 -2.9948 -2.4688  1.1668
 4914SOL     OW26200   0.231   2.286   2.667 -0.5001 -0.1317 -0.3698
 4914SOL    HW126201   0.143   2.249   2.659  0.3656 -2.5984  1.5372
 4914SOL    HW226202   0.219   2.354   2.601  1.0779  0.3048 -0.2079
 4915SOL     OW26203   4.700   1.528   6.999 -0.3000 -0.0015 -0.4078
 4915SOL    HW126204   0.067   1.549   6.975 -0.1396 -0.3454 -0.0991
 4915SOL    HW226205   4.650   1.558   6.923  0.1755 -0.4875 -0.9076
 4916SOL     OW26206   2.951   4.518  14.113 -0.4070  0.8750 -0.1454
 4916SOL    HW126207   3.026   4.571  14.088  0.0502 -0.1525 -0.9508
 4916SOL    HW226208   2.970   4.442  14.058 -1.1306  0.8751 -0.3946
 4917SOL     OW26209   1.939   0.277   7.602 -0.5177 -0.4341  0.0977
 4917SOL    HW126210   1.864   0.234   7.560 -0.1038 -1.4120  0.3588
 4917SOL    HW226211   1.982   0.199   7.637 -0.5104 -0.8964 -0.9342
 4918SOL     OW26212   2.650   3.795   4.336 -0.2950 -0.2022  0.0627
 4918SOL    HW126213   2.691   3.848   4.267  0.9628 -1.4327 -0.1330
 4918SOL    HW226214   2.626   3.723   4.278 -0.2527 -1.1825  1.2837
 4919SOL     OW26215   4.078   2.144   4.025 -0.2966 -0.1135  0.4238
 4919SOL    HW126216   4.094   2.147   3.930 -0.2191 -3.0067  0.3543
 4919SOL    HW226217   4.054   2.234   4.049  0.8665  0.5723 -0.9880
 4920SOL     OW26218   0.707   1.184   1.092 -0.3258 -0.0953 -0.1864
 4920SOL    HW126219   0.629   1.218   1.137  0.3679 -0.6880  1.4909
 4920SOL    HW226220   0.662   1.136   1.024 -0.7269 -1.0702  0.7687
 4921SOL     OW26221   3.168   1.038   7.645  0.3678  0.6163  0.0396
 4921SOL    HW126222   3.114   1.108   7.680 -1.7206 -0.0966 -1.7179
 4921SOL    HW226223   3.224   1.012   7.717  0.7623  0.9931 -0.1332
 4922SOL     OW26224   0.746   3.821  17.455 -0.4059 -0.4024 -0.3581
 4922SOL    HW126225   0.675   3.833  17.518  0.3530  1.6176  0.1294
 4922SOL    HW226226   0.724   3.735  17.421  0.6234 -1.9292  2.8574
 4923SOL     OW26227   2.430   0.749   3.228 -0.1121  0.7323  0.1794
 4923SOL    HW126228   2.498   0.683   3.229 -0.0818  0.7642  0.2531
 4923SOL    HW226229   2.454   0.801   3.151 -0.3465 -1.3220 -1.2804
 4924SOL     OW26230   3.146   1.498   6.796  0.0599  0.2568  0.3838
 4924SOL    HW126231   3.110   1.419   6.757 -0.9687  0.8912  0.0179
 4924SOL    HW226232   3.188   1.474   6.879 -0.6288 -1.4818  0.2112
 4925SOL     OW26233   3.753   2.941   5.498  0.3943  0.1695 -0.0156
 4925SOL    HW126234   3.798   2.860   5.519 -1.3451 -0.1435  2.4886
 4925SOL    HW226235   3.781   3.006   5.562 -2.6702  0.5223  0.9919
 4926SOL     OW26236   4.318   0.855   8.532 -0.0217 -0.3124  0.0535
 4926SOL    HW126237   4.394   0.817   8.575  0.4493  2.0887  1.3630
 4926SOL    HW226238   4.251   0.788   8.521 -0.0766 -0.3963  0.9355
 4927SOL     OW26239   4.417   4.113   9.334  0.1482  0.0118  0.6798
 4927SOL    HW126240   4.388   4.131   9.245  1.0007  0.7018  0.5504
 4927SOL    HW226241   4.362   4.039   9.363  1.4896 -0.7080  1.4013
 4928SOL     OW26242   2.779   0.671   5.186 -0.5547 -0.2749  0.5716
 4928SOL    HW126243   2.796   0.690   5.278  0.0813  0.9414  0.1950
 4928SOL    HW226244   2.812   0.581   5.180 -0.9663 -0.4535  0.9414
 4929SOL     OW26245   2.555   1.699   9.206  0.1227 -0.4041 -0.4575
 4929SOL    HW126246   2.606   1.629   9.247 -0.0647  0.9237  2.0481
 4929SOL    HW226247   2.620   1.768   9.202 -0.8269  0.3661 -2.4187
 4930SOL     OW26248   1.835   1.618   2.569  0.4641  0.3770 -0.4932
 4930SOL    HW126249   1.903   1.674   2.605 -0.4067  0.0843  1.6246
 4930SOL    HW226250   1.857   1.605   2.477  1.9936  2.6530 -0.4407
 4931SOL     OW26251   3.235   0.660   6.339 -0.3969  0.5300 -0.3139
 4931SOL    HW126252   3.207   0.664   6.247 -1.4911 -0.5095 -0.0310
 4931SOL    HW226253   3.147   0.654   6.377  0.4705 -2.4742  1.2003
 4932SOL     OW26254   0.647   0.158   7.410 -0.2309 -0.1828  0.1476
 4932SOL    HW126255   0.613   0.075   7.442 -2.3969  0.8373  0.4805
 4932SOL    HW226256   0.728   0.162   7.461  0.8985 -2.1379 -1.4717
 4933SOL     OW26257   3.012   4.298  12.042 -0.6736 -0.8181 -0.1114
 4933SOL    HW126258   3.100   4.261  12.039 -0.2811  0.0590  0.9826
 4933SOL    HW226259   2.959   4.232  11.997 -1.1437 -1.5329  1.5080
 4934SOL     OW26260   0.380   0.237   6.501 -0.0182 -0.0493 -0.2514
 4934SOL    HW126261   0.402   0.284   6.581  0.3320  0.9229 -0.9160
 4934SOL    HW226262   0.325   0.302   6.457 -1.6159 -0.1068  1.6325
 4935SOL     OW26263   2.770   4.370   8.335  0.2494 -0.3752  0.3461
 4935SOL    HW126264   2.812   4.398   8.417 -1.1159 -0.2379  0.9956
 4935SOL    HW226265   2.831   4.297   8.322 -0.5591 -1.5778  3.1706
 4936SOL     OW26266   3.006   1.407   6.518  0.2235  0.4705  0.3689
 4936SOL    HW126267   2.983   1.315   6.527  0.0717  0.3664 -1.0945
 4936SOL    HW226268   2.938   1.441   6.576 -0.4812  1.2083 -0.8712
 4937SOL     OW26269   1.122   4.424   6.218  0.2938  0.0567 -0.3400
 4937SOL    HW126270   1.092   4.450   6.131  0.3825  0.8223 -0.1403
 4937SOL    HW226271   1.125   4.509   6.261  0.1708 -0.0287 -0.1602
 4938SOL     OW26272   3.172   1.221   4.493 -0.3112  0.0295 -0.7690
 4938SOL    HW126273   3.240   1.280   4.525 -1.7911  0.8548  0.8740
 4938SOL    HW226274   3.178   1.228   4.398  1.2110  0.6663 -0.6260
 4939SOL     OW26275   3.847   2.696   8.651 -0.3616  0.0807 -0.3496
 4939SOL    HW126276   3.758   2.698   8.687 -0.8539 -0.8412 -1.4905
 4939SOL    HW226277   3.833   2.702   8.557  2.3466  0.0828 -0.7540
 4940SOL     OW26278   3.815   4.167   6.467 -0.5869 -0.6038 -0.0492
 4940SOL    HW126279   3.810   4.233   6.398 -1.9003  0.7682  1.3742
 4940SOL    HW226280   3.829   4.231   6.536  0.0456  1.2968 -1.9537
 4941SOL     OW26281   4.386   1.126   9.634  0.2901 -0.2525 -0.0535
 4941SOL    HW126282   4.443   1.133   9.557  1.1563 -1.7689  0.4534
 4941SOL    HW226283   4.447   1.154   9.702  1.1346  0.3677 -1.0624
 4942SOL     OW26284   0.833   0.046   2.629  0.3038 -0.0345  0.2102
 4942SOL    HW126285   0.842   0.139   2.650 -0.7821  0.4523 -1.3802
 4942SOL    HW226286   0.826   0.042   2.533 -1.7603  2.4066  0.2429
 4943SOL     OW26287   2.124   3.296   9.040 -0.4571 -0.1252 -0.6845
 4943SOL    HW126288   2.175   3.219   9.016  0.2340 -0.0447  0.4895
 4943SOL    HW226289   2.072   3.297   8.960  1.5396  1.5057 -1.9835
 4944SOL     OW26290   3.348   4.083   7.074  0.1477 -0.0527 -0.1342
 4944SOL    HW126291   3.420   4.086   7.012 -0.5267  0.9494 -0.8717
 4944SOL    HW226292   3.387   4.050   7.155 -0.7028 -0.5407  0.0851
 4945SOL     OW26293   0.169   2.982   0.238 -0.3918 -0.1070 -0.0632
 4945SOL    HW126294   0.232   3.009   0.305 -1.2268 -3.1104  1.9560
 4945SOL    HW226295   0.224   2.931   0.179 -0.3573  1.1982 -1.1538
 4946SOL     OW26296   2.744   0.121   6.569  0.0791 -0.3563  0.0317
 4946SOL    HW126297   2.745   0.124   6.665  1.5038 -1.2903  0.0450
 4946SOL    HW226298   2.789   0.201   6.542 -1.4355  0.1770 -0.9473
 4947SOL     OW26299   1.275   2.646   7.687  0.4348 -0.2067  0.1385
 4947SOL    HW126300   1.322   2.706   7.745 -0.7204 -0.1804  1.0532
 4947SOL    HW226301   1.345   2.580   7.682  1.8602  1.2569  0.7796
 4948SOL     OW26302   2.127   1.992  13.113  0.6566 -0.2832 -0.3398
 4948SOL    HW126303   2.064   1.970  13.182 -0.5481 -2.2232 -2.0270
 4948SOL    HW226304   2.113   2.086  13.099  2.7181  0.5100  2.9573
 4949SOL     OW26305   4.266   4.714  16.940 -0.3926 -0.1600  0.7977
 4949SOL    HW126306   4.233   4.624  16.951 -3.7791  0.7162 -1.9696
 4949SOL    HW226307   4.192   0.045  16.912 -0.0254 -1.0015 -1.8514
 4950SOL     OW26308   1.752   3.887  14.733  0.1668  0.2084 -0.2734
 4950SOL    HW126309   1.780   3.809  14.684  1.2135 -0.6392  1.6876
 4950SOL    HW226310   1.660   3.860  14.741 -0.2790  1.7471 -0.1177
 4951SOL     OW26311   1.464   1.044   4.527  0.2609 -0.0030  0.1264
 4951SOL    HW126312   1.471   0.963   4.476  1.1240  0.4488 -0.4648
 4951SOL    HW226313   1.446   1.015   4.616  0.2132 -1.9154 -0.4944
 4952SOL     OW26314   1.181   4.168   0.695  0.0390 -0.0535 -0.5887
 4952SOL    HW126315   1.125   4.212   0.632  0.7579  0.7931 -0.6434
 4952SOL    HW226316   1.267   4.206   0.677  0.0364  0.5381  0.6807
 4953SOL     OW26317   4.163   3.922   5.129 -0.9985  0.1347  0.1935
 4953SOL    HW126318   4.252   3.914   5.094 -1.3723  1.2025 -1.0080
 4953SOL    HW226319   4.192   3.950   5.216  1.4125 -1.7117 -0.0120
 4954SOL     OW26320   3.840   3.527   2.786 -0.3030  0.2707 -0.1420
 4954SOL    HW126321   3.763   3.567   2.827 -0.6011 -0.8684  0.4065
 4954SOL    HW226322   3.816   3.435   2.775  0.2242  0.1693 -0.4367
 4955SOL     OW26323   2.985   2.856   3.406  0.3340  0.7913 -0.6601
 4955SOL    HW126324   2.948   2.942   3.392  0.6621  1.0372 -0.0244
 4955SOL    HW226325   3.079   2.873   3.393  0.5813 -0.6191 -0.7285
 4956SOL     OW26326   3.480   4.549  10.920 -0.2336  0.1376 -0.7645
 4956SOL    HW126327   3.528   4.472  10.889 -0.4056 -0.8426  1.4609
 4956SOL    HW226328   3.500   4.542  11.013  0.2353 -0.0007 -0.8759
 4957SOL     OW26329   0.158   2.895  10.163  0.8070 -0.0088  0.6198
 4957SOL    HW126330   0.223   2.891  10.233  0.0367  2.5469  1.4933
 4957SOL    HW226331   0.129   2.804  10.169  0.8238 -0.0145  0.6134
 4958SOL     OW26332   3.700   0.082   3.879  0.3109  0.0822 -0.3847
 4958SOL    HW126333   3.650   0.023   3.823  0.4210  0.9076 -1.3503
 4958SOL    HW226334   3.707   0.035   3.962  1.8189  2.2898  0.7431
 4959SOL     OW26335   3.865   3.952  12.784  0.5998 -0.2113 -0.4209
 4959SOL    HW126336   3.797   3.975  12.722 -1.4604 -0.1674  1.8466
 4959SOL    HW226337   3.876   3.859  12.767  1.2906 -0.5910  2.0947
 4960SOL     OW26338   2.699   2.581   6.462  0.2473  0.2584  0.7854
 4960SOL    HW126339   2.719   2.665   6.503  0.1948 -0.1130  1.5705
 4960SOL    HW226340   2.711   2.602   6.369 -1.8910 -0.6708  0.3001
 4961SOL     OW26341   2.485   1.084   6.855 -0.1898  0.3861 -0.0413
 4961SOL    HW126342   2.430   1.139   6.910  1.7794  2.9115 -0.6108
 4961SOL    HW226343   2.510   1.023   6.925 -3.1742  1.5609  2.0748
 4962SOL     OW26344   1.897   0.543  12.389 -0.1114 -0.1622 -0.2063
 4962SOL    HW126345   1.885   0.637  12.396 -0.5266 -0.2476  0.2960
 4962SOL    HW226346   1.827   0.511  12.447  1.1240 -0.0978  1.3036
 4963SOL     OW26347   1.542   2.097   4.677  0.3774 -0.4429 -0.4207
 4963SOL    HW126348   1.457   2.063   4.702 -0.0794  0.8842 -0.1653
 4963SOL    HW226349   1.505   2.174   4.633  1.1887  0.6186  0.7486
 4964SOL     OW26350   3.738   4.640  15.343  0.0990  0.2160 -0.3646
 4964SOL    HW126351   3.802   4.702  15.377 -1.6868  2.2331 -0.7136
 4964SOL    HW226352   3.667   4.697  15.313  0.4360  2.0375  2.3592
 4965SOL     OW26353   0.740   3.529   3.696  0.0930 -0.1142  0.0188
 4965SOL    HW126354   0.782   3.615   3.691  0.4536 -0.3391 -0.9602
 4965SOL    HW226355   0.661   3.543   3.644  0.4940 -0.4116 -0.6629
 4966SOL     OW26356   4.580   2.074   3.176  0.2800 -0.2799  0.0795
 4966SOL    HW126357   4.563   1.994   3.224  1.0621 -0.6692 -0.3015
 4966SOL    HW226358   4.664   2.106   3.209 -1.2907  3.3215  0.6966
 4967SOL     OW26359   0.865   1.132  10.641  0.0894 -0.5445  0.7723
 4967SOL    HW126360   0.887   1.225  10.653 -0.8797 -0.4083  1.4093
 4967SOL    HW226361   0.842   1.132  10.548 -0.7477  1.2985  0.9783
 4968SOL     OW26362   3.887   3.367  10.425  0.3817 -0.4174  0.1920
 4968SOL    HW126363   3.920   3.440  10.477 -0.5376 -0.5309  0.9379
 4968SOL    HW226364   3.832   3.321  10.489  0.0030  0.2381  0.3327
 4969SOL     OW26365   3.096   2.771   6.540 -0.0240 -0.1977 -0.0023
 4969SOL    HW126366   3.016   2.765   6.592 -0.1526  0.3267 -0.1332
 4969SOL    HW226367   3.053   2.832   6.480 -2.1477  0.7999  2.5078
 4970SOL     OW26368   1.503   3.811   4.761  0.2961  0.0807 -0.7214
 4970SOL    HW126369   1.578   3.856   4.724  0.4154 -0.2869 -0.9275
 4970SOL    HW226370   1.438   3.881   4.763 -0.7564 -0.8722 -1.6833
 4971SOL     OW26371   0.484   3.151  15.007  0.4047 -0.6502 -0.4289
 4971SOL    HW126372   0.432   3.210  14.952 -0.3773  0.3388  1.3708
 4971SOL    HW226373   0.526   3.097  14.940  0.0900 -0.5281 -0.7301
 4972SOL     OW26374   1.162   2.776  10.456  0.2521  0.6694 -0.0211
 4972SOL    HW126375   1.211   2.837  10.512 -0.3821 -0.7825  2.1241
 4972SOL    HW226376   1.207   2.767  10.373  1.1467 -0.4532  0.5939
 4973SOL     OW26377   4.181   0.493   6.362 -0.0105  0.2184  0.0631
 4973SOL    HW126378   4.252   0.494   6.298  0.6085 -0.1374  0.7515
 4973SOL    HW226379   4.180   0.587   6.381 -0.2853  0.3666 -0.6541
 4974SOL     OW26380   1.061   2.422   2.311 -0.0944  0.2400  0.0055
 4974SOL    HW126381   1.089   2.404   2.401 -0.0432 -0.6119 -0.1850
 4974SOL    HW226382   1.110   2.355   2.264 -1.3032 -0.5436 -0.1423
 4975SOL     OW26383   3.683   4.651   6.597  0.5381 -0.4958 -0.0750
 4975SOL    HW126384   3.710   4.629   6.687 -0.3455  2.2854  0.8584
 4975SOL    HW226385   3.589   4.633   6.608  0.7362 -1.9057 -0.6966
 4976SOL     OW26386   4.193   4.203   0.978 -0.4571 -0.2388 -0.0842
 4976SOL    HW126387   4.240   4.265   1.034  0.1639 -1.5683  0.8832
 4976SOL    HW226388   4.157   4.155   1.052  1.5589 -2.6852 -0.6788
 4977SOL     OW26389   3.135   0.661  16.598  0.2107  0.3060  0.0373
 4977SOL    HW126390   3.173   0.635  16.514 -1.1914 -0.6576 -0.3040
 4977SOL    HW226391   3.142   0.755  16.583  0.2427  0.0681 -1.4708
 4978SOL     OW26392   1.198   0.649   9.863 -0.1016  0.1746  0.1408
 4978SOL    HW126393   1.268   0.614   9.808  0.4978 -0.1514  1.1114
 4978SOL    HW226394   1.146   0.698   9.800  0.2320 -0.8329 -0.9300
 4979SOL     OW26395   4.237   0.688   8.253 -0.9991 -0.3889  0.5139
 4979SOL    HW126396   4.161   0.634   8.229 -1.4446  0.1234  0.7605
 4979SOL    HW226397   4.301   0.676   8.183 -1.7887 -0.8732 -0.1251
 4980SOL     OW26398   2.283   2.466   2.283 -0.5320  0.0179 -0.3859
 4980SOL    HW126399   2.195   2.451   2.316  0.1579 -1.7414  0.6561
 4980SOL    HW226400   2.296   2.557   2.308 -0.2850  0.1831 -1.1059
 4981SOL     OW26401   1.721   1.682  14.431 -0.4557  0.4492  0.6000
 4981SOL    HW126402   1.811   1.672  14.400 -0.9317 -0.3362 -0.5230
 4981SOL    HW226403   1.708   1.619  14.501 -0.7670  1.5502  1.5279
 4982SOL     OW26404   4.044   3.077   2.636 -0.3446 -0.7616  0.1229
 4982SOL    HW126405   4.034   3.008   2.702  3.1829  0.0022  1.4801
 4982SOL    HW226406   4.140   3.084   2.636 -0.6648  3.5556  0.8750
 4983SOL     OW26407   1.252   3.313  17.667  0.8519  0.0002  0.1682
 4983SOL    HW126408   1.256   3.244  17.602  0.8648 -0.1758  0.3555
 4983SOL    HW226409   1.283   3.389  17.618  0.0585 -1.4823 -2.5908
 4984SOL     OW26410   1.323   0.106   6.451 -0.3298  0.1561 -0.5032
 4984SOL    HW126411   1.257   0.175   6.462 -0.4399 -0.2257  1.1196
 4984SOL    HW226412   1.380   0.138   6.380 -0.9974  4.0710  0.7132
 4985SOL     OW26413   2.588   4.543   9.702 -0.7063 -0.0863 -0.2772
 4985SOL    HW126414   2.628   4.516   9.619 -1.2647  0.2833 -0.6707
 4985SOL    HW226415   2.559   4.631   9.676 -1.8577  0.1303  1.7171
 4986SOL     OW26416   4.264   2.769  12.230 -0.6157  0.1120  0.2468
 4986SOL    HW126417   4.172   2.771  12.254 -1.5053  0.7945 -3.2475
 4986SOL    HW226418   4.311   2.805  12.305  0.3097  1.7285 -1.1116
 4987SOL     OW26419   1.245   4.189  13.053 -0.5701 -0.1314  0.4004
 4987SOL    HW126420   1.202   4.216  12.972  3.8903  2.1916 -1.1779
 4987SOL    HW226421   1.191   4.243  13.111 -2.3832 -1.7186  0.1975
 4988SOL     OW26422   3.346   3.710   3.773 -0.2356 -0.2785  0.0385
 4988SOL    HW126423   3.399   3.663   3.709 -0.8436 -1.0286  0.0928
 4988SOL    HW226424   3.260   3.710   3.731 -0.2583  1.4388  0.0736
 4989SOL     OW26425   4.399   4.460   7.656 -0.6751  0.8911 -0.2072
 4989SOL    HW126426   4.321   4.406   7.670 -0.4240  0.3277 -0.9998
 4989SOL    HW226427   4.405   4.505   7.741  1.7407 -1.4087  0.8404
 4990SOL     OW26428   1.736   2.393   8.412  0.4771 -0.0562 -0.0922
 4990SOL    HW126429   1.666   2.410   8.349  0.8716  4.1639  0.5833
 4990SOL    HW226430   1.706   2.444   8.487  0.8966  1.8696 -1.2420
 4991SOL     OW26431   1.265   2.995   1.999 -0.7383  0.0199 -0.0860
 4991SOL    HW126432   1.344   2.970   1.949  0.3688 -0.0871  1.7175
 4991SOL    HW226433   1.207   3.024   1.929 -0.6384 -1.2875 -0.7204
 4992SOL     OW26434   3.490   2.106   1.519  0.4585 -0.1850  0.2505
 4992SOL    HW126435   3.442   2.078   1.597  0.1785 -1.0267 -0.2236
 4992SOL    HW226436   3.420   2.105   1.454 -0.1959 -0.2351  0.9462
 4993SOL     OW26437   2.462   3.118  16.105  0.3061  0.4694  0.7779
 4993SOL    HW126438   2.458   3.023  16.120  1.7984  0.3554  0.4309
 4993SOL    HW226439   2.458   3.114  16.009 -1.3551 -0.9833  0.9005
 4994SOL     OW26440   3.138   1.854   8.785  0.0340  0.2174 -0.4661
 4994SOL    HW126441   3.122   1.834   8.877  0.4288 -3.1708 -1.1377
 4994SOL    HW226442   3.053   1.862   8.742  0.8767 -0.7260 -2.2813
 4995SOL     OW26443   3.150   3.553   4.650 -0.0470  0.0451  0.3960
 4995SOL    HW126444   3.085   3.484   4.635  0.0470  0.5853 -2.3826
 4995SOL    HW226445   3.087   3.615   4.687 -0.9660 -1.3101  1.1105
 4996SOL     OW26446   0.408   0.052   1.000  0.4860 -0.3359 -0.0040
 4996SOL    HW126447   0.443   4.694   0.963  1.0206 -0.7223  1.3599
 4996SOL    HW226448   0.379   0.011   1.081 -2.3313  2.0406  0.1773
 4997SOL     OW26449   0.526   4.495   4.880 -0.1644  0.1648  0.3034
 4997SOL    HW126450   0.551   4.428   4.944 -0.2747  0.4933  0.6886
 4997SOL    HW226451   0.467   4.446   4.822 -1.6781  2.5672 -0.2205
 4998SOL     OW26452   3.303   2.611   3.730 -0.2533 -0.1328 -0.4911
 4998SOL    HW126453   3.287   2.518   3.746 -0.1946 -0.1255 -0.3927
 4998SOL    HW226454   3.330   2.648   3.814 -0.0861 -0.4931 -0.3826
 4999SOL     OW26455   1.725   3.651   3.328 -0.4608  0.1754  0.2057
 4999SOL    HW126456   1.807   3.683   3.289 -0.0554 -2.0067 -0.7534
 4999SOL    HW226457   1.704   3.729   3.378 -1.6909  0.6166 -1.0024
 5000SOL     OW26458   4.021   1.496  13.404 -0.3945 -0.5871 -0.1066
 5000SOL    HW126459   4.006   1.415  13.355  2.5964 -2.6511  2.3866
 5000SOL    HW226460   3.975   1.480  13.486 -0.6366 -2.4305 -0.6073
 5001SOL     OW26461   4.157   2.109  10.711  0.2155  0.1213 -0.0259
 5001SOL    HW126462   4.087   2.164  10.676 -0.9206 -0.7426  0.8440
 5001SOL    HW226463   4.152   2.131  10.804  1.5491  0.5621 -0.0605
 5002SOL     OW26464   0.780   2.332   6.125  0.5089  0.3950  0.4319
 5002SOL    HW126465   0.860   2.385   6.122  0.2522  0.8047  0.6884
 5002SOL    HW226466   0.737   2.378   6.053 -0.8504 -3.0972 -0.9404
 5003SOL     OW26467   2.061   1.439   1.731  0.2546  0.0075  0.2078
 5003SOL    HW126468   2.155   1.441   1.751  0.1809  1.1012  0.4409
 5003SOL    HW226469   2.034   1.354   1.765  0.6719 -0.3669 -0.3941
 5004SOL     OW26470   2.286   3.608  15.712 -0.1940  0.4591  0.1289
 5004SOL    HW126471   2.355   3.575  15.770 -0.2547 -0.6759 -0.4361
 5004SOL    HW226472   2.316   3.698  15.707  2.8770 -0.6305 -1.0094
 5005SOL     OW26473   2.742   3.815  13.021  0.1675 -0.3908  0.5707
 5005SOL    HW126474   2.758   3.910  13.018 -1.3566 -0.0963  1.6478
 5005SOL    HW226475   2.822   3.783  12.981  0.6880  0.6997  0.7247
 5006SOL     OW26476   2.800   2.739   4.782 -0.5319 -0.6627 -0.5929
 5006SOL    HW126477   2.798   2.713   4.690  0.0012 -0.3508 -0.6943
 5006SOL    HW226478   2.719   2.702   4.817  2.6182 -4.2424  2.9174
 5007SOL     OW26479   1.117   4.469  13.653 -0.7248 -0.0282  0.3234
 5007SOL    HW126480   1.134   4.517  13.734 -1.0083 -0.4387  0.6262
 5007SOL    HW226481   1.048   4.410  13.683  1.3974 -2.5076  0.2880
 5008SOL     OW26482   1.047   2.767  16.880  0.1330  0.6038  0.0152
 5008SOL    HW126483   1.090   2.848  16.851 -0.1799  1.3573  1.6448
 5008SOL    HW226484   0.966   2.782  16.832 -0.0538 -0.3283  0.0377
 5009SOL     OW26485   1.811   2.133   8.505 -0.4086 -0.2181  0.6272
 5009SOL    HW126486   1.906   2.144   8.497 -0.2720 -1.3984  0.5466
 5009SOL    HW226487   1.791   2.226   8.501  0.4698  0.0209  1.6576
 5010SOL     OW26488   1.205   3.578  11.073  0.1077 -0.3763  0.3051
 5010SOL    HW126489   1.205   3.536  11.159  1.2857 -0.9199  0.0421
 5010SOL    HW226490   1.211   3.670  11.099 -0.6801 -0.7143  1.6928
 5011SOL     OW26491   2.272   0.920  13.588  0.1617  0.2719  0.3398
 5011SOL    HW126492   2.262   0.935  13.682  0.9145  0.3878  0.4028
 5011SOL    HW226493   2.183   0.945  13.564 -0.4012 -3.0924 -1.1832
 5012SOL     OW26494   2.776   3.074   4.623 -0.3932  0.5314 -0.2309
 5012SOL    HW126495   2.845   3.009   4.624  0.3420  1.3566  1.8563
 5012SOL    HW226496   2.743   3.074   4.713  1.1621  0.6729  0.3329
 5013SOL     OW26497   0.694   2.154   8.820  0.0741  0.1928 -0.5539
 5013SOL    HW126498   0.645   2.198   8.890  0.7478  2.1401 -1.3041
 5013SOL    HW226499   0.694   2.224   8.755 -3.6075  1.6599  1.0428
 5014SOL     OW26500   2.223   1.779   5.185  0.4427 -0.2451  0.4472
 5014SOL    HW126501   2.140   1.764   5.140  0.3806 -0.1391  0.5264
 5014SOL    HW226502   2.208   1.734   5.268  0.0749 -1.8241 -0.4676
 5015SOL     OW26503   2.477   2.646   6.648 -0.1902  0.2060 -0.1285
 5015SOL    HW126504   2.530   2.619   6.723 -1.7700  0.3746  1.0476
 5015SOL    HW226505   2.403   2.673   6.703 -0.1134 -2.6876  1.3780
 5016SOL     OW26506   1.420   0.898  11.917  0.5796 -0.0299 -0.1303
 5016SOL    HW126507   1.409   0.812  11.957 -1.5545  0.6507  0.7513
 5016SOL    HW226508   1.394   0.895  11.825 -2.7271  1.7264  0.7487
 5017SOL     OW26509   1.121   1.528   0.165 -0.0447 -0.3721 -0.1944
 5017SOL    HW126510   1.080   1.558   0.246 -1.7676  2.7880 -2.2229
 5017SOL    HW226511   1.210   1.518   0.199  0.5200 -1.1046 -1.8790
 5018SOL     OW26512   2.793   1.649   8.103 -0.0542 -0.1341  0.1145
 5018SOL    HW126513   2.709   1.696   8.107 -0.7562 -1.5115  1.4832
 5018SOL    HW226514   2.816   1.656   8.011 -2.1081 -0.5875 -0.4321
 5019SOL     OW26515   4.075   4.234   7.169 -0.3443 -0.3875  0.6601
 5019SOL    HW126516   4.041   4.302   7.228  0.7500  2.0205 -1.4970
 5019SOL    HW226517   4.164   4.256   7.143 -0.0469 -0.3474  1.7253
 5020SOL     OW26518   4.009   3.311  14.219  0.2960 -0.1222  0.4498
 5020SOL    HW126519   3.993   3.295  14.312  1.3069 -0.1194  0.6323
 5020SOL    HW226520   3.922   3.288  14.186 -0.2641  1.7924  0.5995
 5021SOL     OW26521   0.932   4.380  11.638 -0.5666  0.2400 -0.2842
 5021SOL    HW126522   0.953   4.469  11.612 -0.4620  0.1159 -0.6223
 5021SOL    HW226523   1.014   4.337  11.614 -0.5639 -0.1200  0.3479
 5022SOL     OW26524   1.863   3.654  11.987  0.1280  0.0850 -0.3115
 5022SOL    HW126525   1.942   3.629  12.034 -0.8280 -3.4657 -0.6115
 5022SOL    HW226526   1.876   3.746  11.964 -0.3441  0.2581  0.0948
 5023SOL     OW26527   3.507   1.904   2.680  0.2319  0.0048 -0.5901
 5023SOL    HW126528   3.435   1.849   2.652 -0.2575 -0.1571  0.9885
 5023SOL    HW226529   3.484   1.913   2.773 -2.7669  2.0271 -1.5271
 5024SOL     OW26530   1.400   2.653  11.958  0.0373  0.0030 -0.6446
 5024SOL    HW126531   1.339   2.665  12.031  2.8585 -0.6121  1.8053
 5024SOL    HW226532   1.475   2.706  11.985 -0.1136 -1.0668  1.8503
 5025SOL     OW26533   2.364   1.838   8.497  0.2010  0.1270  0.0157
 5025SOL    HW126534   2.431   1.780   8.462 -0.7003 -0.7431 -0.2721
 5025SOL    HW226535   2.294   1.845   8.431 -0.8402  1.4318  1.2387
 5026SOL     OW26536   4.628   1.677   6.455  0.3021  0.1949 -0.3027
 5026SOL    HW126537   4.546   1.706   6.414  0.2638 -0.0980 -0.4350
 5026SOL    HW226538   4.650   1.613   6.387  1.5894  1.1124 -0.7552
 5027SOL     OW26539   4.638   3.324   0.686 -0.1047 -0.2438 -0.5526
 5027SOL    HW126540   4.668   3.241   0.648  0.2517 -0.9745  1.3271
 5027SOL    HW226541   4.544   3.334   0.670  0.0018 -0.3383 -1.2516
 5028SOL     OW26542   0.496   4.443   5.795  0.2142  0.0501  0.0243
 5028SOL    HW126543   0.443   4.387   5.852 -0.8409 -0.2070 -1.1978
 5028SOL    HW226544   0.515   4.511   5.860  0.1402 -0.2476  0.3575
 5029SOL     OW26545   1.044   0.801   3.080  0.3070 -0.6304 -0.1105
 5029SOL    HW126546   1.131   0.787   3.044  0.4849  2.7016 -0.9836
 5029SOL    HW226547   1.014   0.710   3.082 -1.8349  0.0990  0.9543
 5030SOL     OW26548   4.323   0.843   4.351 -0.4611  0.2197 -0.1881
 5030SOL    HW126549   4.292   0.929   4.324 -0.9750 -0.2012 -0.9445
 5030SOL    HW226550   4.362   0.813   4.268  2.4812 -0.8755  1.5924
 5031SOL     OW26551   2.027   4.147   8.954  0.0199  0.1114  0.1516
 5031SOL    HW126552   2.067   4.223   8.912  0.1993  0.1046  0.3126
 5031SOL    HW226553   2.075   4.142   9.037 -1.0371 -0.5625  0.7317
 5032SOL     OW26554   1.973   3.884   0.695  0.2006  0.0584 -0.4535
 5032SOL    HW126555   1.919   3.882   0.775  0.2423 -0.3140 -0.4375
 5032SOL    HW226556   2.046   3.928   0.739  1.0312 -0.4471 -1.3425
 5033SOL     OW26557   1.180   0.750   7.942  0.3593 -0.1905  0.0628
 5033SOL    HW126558   1.205   0.673   7.994  2.3305 -0.2177 -0.9214
 5033SOL    HW226559   1.263   0.794   7.925 -0.7681  1.2204 -1.8384
 5034SOL     OW26560   4.619   3.402   5.657  0.0385 -0.6625 -0.2885
 5034SOL    HW126561   4.701   3.430   5.698 -0.1490 -0.2401 -0.2084
 5034SOL    HW226562   4.623   3.431   5.566 -1.3425 -0.2985 -0.2325
 5035SOL     OW26563   2.236   2.807   8.922  0.3200 -0.2447 -0.0633
 5035SOL    HW126564   2.314   2.758   8.947 -0.5197 -1.6011 -0.0958
 5035SOL    HW226565   2.182   2.735   8.890 -1.7921  1.5764 -0.6030
 5036SOL     OW26566   2.848   3.160   2.455 -0.1418 -0.4405 -0.2462
 5036SOL    HW126567   2.849   3.124   2.366  0.0800  0.3318 -0.5570
 5036SOL    HW226568   2.802   3.242   2.439 -0.7093 -1.0142 -1.5927
 5037SOL     OW26569   0.297   0.198   4.374 -0.3131 -0.2287 -0.0015
 5037SOL    HW126570   0.357   0.194   4.299  0.4193 -3.6955  0.7922
 5037SOL    HW226571   0.315   0.287   4.403 -1.2096  0.8678 -2.8062
 5038SOL     OW26572   0.547   1.865   4.396 -0.2790  0.5877 -0.8668
 5038SOL    HW126573   0.537   1.824   4.310 -0.8514 -1.6408  0.2754
 5038SOL    HW226574   0.639   1.890   4.399  0.0191 -0.8972  2.0304
 5039SOL     OW26575   1.324   4.037   4.828  0.2102 -0.0996  1.0442
 5039SOL    HW126576   1.239   4.023   4.787  0.1580  0.0078  1.1174
 5039SOL    HW226577   1.358   4.122   4.802  1.7400  0.0390  3.5137
 5040SOL     OW26578   1.416   4.614   3.249  0.1124 -0.0374 -0.0495
 5040SOL    HW126579   1.432   4.552   3.178 -0.1345 -0.3161  0.1344
 5040SOL    HW226580   1.473   4.683   3.216  1.1877 -1.1110 -0.4455
 5041SOL     OW26581   1.404   2.266   0.901 -0.1373 -0.0366 -0.0064
 5041SOL    HW126582   1.327   2.318   0.922 -1.9559 -1.7320 -2.4554
 5041SOL    HW226583   1.452   2.340   0.864 -0.5111 -0.4307 -1.2965
 5042SOL     OW26584   0.709   1.910   3.040 -0.2369  0.0271 -0.2169
 5042SOL    HW126585   0.699   1.817   3.063 -1.5677  0.2541  0.1327
 5042SOL    HW226586   0.673   1.910   2.951 -0.3981  0.5382 -0.1497
 5043SOL     OW26587   2.631   4.622   4.590  0.6018  0.1146 -0.0616
 5043SOL    HW126588   2.577   4.566   4.644 -0.5467 -0.3772 -1.7316
 5043SOL    HW226589   2.626   4.579   4.505 -0.0124 -0.5387  0.3072
 5044SOL     OW26590   3.564   1.270  15.513  0.3360  0.1926 -0.0484
 5044SOL    HW126591   3.575   1.175  15.517  0.8185  0.2764  0.6784
 5044SOL    HW226592   3.655   1.298  15.511  0.9027 -1.4302  2.5655
 5045SOL     OW26593   2.158   1.634  13.735  0.3920 -0.1908  0.0954
 5045SOL    HW126594   2.144   1.700  13.803  1.0188  0.5490 -0.4861
 5045SOL    HW226595   2.157   1.688  13.656 -0.9013 -2.3502 -1.3681
 5046SOL     OW26596   0.905   3.557  11.138 -0.2596  0.1848  0.0102
 5046SOL    HW126597   0.954   3.578  11.059 -0.5587  0.6396 -0.0560
 5046SOL    HW226598   0.959   3.603  11.202 -0.2229  0.9622 -0.5792
 5047SOL     OW26599   0.969   4.125   7.230  0.5108 -0.3278 -0.2152
 5047SOL    HW126600   0.903   4.153   7.166 -1.1700 -2.1445  0.6853
 5047SOL    HW226601   1.037   4.182   7.194 -0.1263  1.0088  0.7224
 5048SOL     OW26602   3.735   2.552   5.520 -0.2296  0.6286 -0.3967
 5048SOL    HW126603   3.801   2.519   5.460 -0.2433  0.1895 -0.1732
 5048SOL    HW226604   3.799   2.605   5.568  0.8413 -0.4052 -0.6675
 5049SOL     OW26605   3.101   3.716   5.589  0.6390 -0.1433  0.5990
 5049SOL    HW126606   3.018   3.707   5.542 -1.4454  1.8983  3.9027
 5049SOL    HW226607   3.104   3.640   5.647  1.9525 -1.4801 -1.2087
 5050SOL     OW26608   2.644   2.068  11.535 -0.4018  0.5740  0.4425
 5050SOL    HW126609   2.666   2.075  11.628  3.3513  0.6698 -0.4535
 5050SOL    HW226610   2.659   1.975  11.521 -1.4007  0.2172  1.7220
 5051SOL     OW26611   0.854   2.364  11.860 -0.1700  0.0357  0.3544
 5051SOL    HW126612   0.817   2.379  11.773  1.2784  0.1561 -0.2383
 5051SOL    HW226613   0.824   2.274  11.871 -0.1163 -0.1207 -0.7071
 5052SOL     OW26614   2.043   0.117   7.774 -0.4071  0.3054 -0.4620
 5052SOL    HW126615   1.960   0.132   7.819  0.1377 -1.5353  1.1604
 5052SOL    HW226616   2.092   0.073   7.843  0.5664  0.5532 -1.0084
 5053SOL     OW26617   0.341   4.632  13.029  0.0813 -0.6974 -0.0408
 5053SOL    HW126618   0.389   4.712  13.052 -0.6635 -0.3578  0.3485
 5053SOL    HW226619   0.408   4.565  13.018  0.0285 -1.1914  2.5567
 5054SOL     OW26620   3.510   2.963   7.709  0.1345  0.1561  1.0696
 5054SOL    HW126621   3.590   2.996   7.750  0.6542  0.2226  0.0054
 5054SOL    HW226622   3.533   2.912   7.631 -1.0423 -0.5392  1.1764
 5055SOL     OW26623   1.288   0.312   5.679 -0.1084  0.1014  0.0827
 5055SOL    HW126624   1.241   0.237   5.717 -1.7771  0.6904 -0.8182
 5055SOL    HW226625   1.249   0.373   5.742  1.1962 -1.8797  2.8035
 5056SOL     OW26626   2.161   0.534  17.006  0.1956  0.0981 -0.6070
 5056SOL    HW126627   2.242   0.512  17.052 -0.8243  1.6084  1.9407
 5056SOL    HW226628   2.208   0.552  16.925  2.6524 -0.4290  0.6838
 5057SOL     OW26629   1.956   0.805   4.734  0.2271  0.0472  0.4471
 5057SOL    HW126630   1.907   0.863   4.676 -1.8797 -1.1402  1.0301
 5057SOL    HW226631   2.040   0.788   4.692 -0.6293 -1.1850 -0.7529
 5058SOL     OW26632   4.410   4.467   2.364  0.0668  0.2364  0.3050
 5058SOL    HW126633   4.438   4.559   2.354 -1.4829  0.5909 -0.8221
 5058SOL    HW226634   4.392   4.443   2.273  0.6419 -1.5204  0.6687
 5059SOL     OW26635   0.621   2.073  12.379  0.1739  0.4223  0.6956
 5059SOL    HW126636   0.534   2.055  12.343  0.5322 -1.4796  0.7920
 5059SOL    HW226637   0.658   1.987  12.394 -0.3706  0.3303  1.5244
 5060SOL     OW26638   4.320   1.629   7.915  0.2597  0.3109  0.4374
 5060SOL    HW126639   4.403   1.613   7.960 -0.2090 -1.0730  0.8106
 5060SOL    HW226640   4.332   1.713   7.870  0.1499  0.5548  0.8659
 5061SOL     OW26641   0.728   1.914   8.962 -0.1801  0.3426 -0.5982
 5061SOL    HW126642   0.751   1.931   9.054 -1.5731 -2.2692  0.2353
 5061SOL    HW226643   0.721   2.001   8.923 -1.9550  0.4123 -0.1194
 5062SOL     OW26644   4.515   0.943  12.526 -0.1353  0.1374  0.0385
 5062SOL    HW126645   4.598   0.954  12.573  0.3087  1.2662 -0.9998
 5062SOL    HW226646   4.544   0.901  12.445 -2.2749  0.3215 -0.8130
 5063SOL     OW26647   2.227   0.327  14.923 -0.1441  0.6414  0.4640
 5063SOL    HW126648   2.138   0.342  14.956 -0.5665  1.0164 -0.8493
 5063SOL    HW226649   2.238   0.233  14.933 -0.0735  0.3965 -1.8128
 5064SOL     OW26650   4.277   1.689   6.071  0.0855  0.0535  0.0053
 5064SOL    HW126651   4.263   1.613   6.014 -0.7437 -1.2614  1.9546
 5064SOL    HW226652   4.236   1.751   6.011  0.5309 -0.1532 -0.5187
 5065SOL     OW26653   2.948   3.403   4.492 -0.2100  0.5021 -0.4910
 5065SOL    HW126654   3.006   3.436   4.424  1.1090  0.8022  0.7640
 5065SOL    HW226655   2.908   3.334   4.439  1.5548 -1.2139  0.4003
 5066SOL     OW26656   1.077   1.717   0.950 -0.5143 -0.4755 -0.9540
 5066SOL    HW126657   1.164   1.732   0.986 -0.3109 -3.2385 -0.3106
 5066SOL    HW226658   1.108   1.689   0.864 -2.6433 -1.4921 -1.3863
 5067SOL     OW26659   2.494   0.019   7.938 -0.2029 -0.0591 -0.4107
 5067SOL    HW126660   2.500   0.051   7.848  1.1551  1.5707  0.2595
 5067SOL    HW226661   2.400   0.026   7.959  0.2752 -1.6327  2.2022
 5068SOL     OW26662   2.716   1.362   3.232 -0.2509  0.0599  0.5411
 5068SOL    HW126663   2.801   1.353   3.276  1.1476  0.9600 -1.9949
 5068SOL    HW226664   2.737   1.408   3.151  0.1473 -1.3979 -0.1789
 5069SOL     OW26665   4.301   0.537  12.388  0.2556 -0.2284  0.0069
 5069SOL    HW126666   4.363   0.465  12.401  1.4604  0.7419 -0.4521
 5069SOL    HW226667   4.338   0.604  12.330  1.5243  0.3940  1.5473
 5070SOL     OW26668   1.608   0.484   6.830  0.2238  0.1442 -1.0770
 5070SOL    HW126669   1.681   0.544   6.811  0.9278  0.4605  2.5508
 5070SOL    HW226670   1.647   0.416   6.885  0.6545  0.4308 -1.0267
 5071SOL     OW26671   2.277   2.150   2.618  0.4714 -0.4307  0.5453
 5071SOL    HW126672   2.240   2.206   2.548  2.6173 -1.1401 -1.1497
 5071SOL    HW226673   2.301   2.224   2.673  2.3998 -0.8182  0.2097
 5072SOL     OW26674   0.102   1.424   7.587 -0.1918  0.5607 -0.4383
 5072SOL    HW126675   0.170   1.368   7.625 -2.0926 -0.8058  0.9075
 5072SOL    HW226676   0.050   1.453   7.662 -0.6530 -0.3491 -0.4138
 5073SOL     OW26677   0.191   1.073   2.262  0.0680  0.2023  0.0303
 5073SOL    HW126678   0.249   1.056   2.187 -1.5392  0.1396 -1.2062
 5073SOL    HW226679   0.184   0.985   2.298  2.1397 -0.2416 -0.6162
 5074SOL     OW26680   2.228   4.602   5.041 -0.4467  0.3104  0.0531
 5074SOL    HW126681   2.182   4.623   5.122 -0.2236 -1.5765  0.6742
 5074SOL    HW226682   2.240   4.689   5.003 -1.4885  0.5912  0.3711
 5075SOL     OW26683   1.615   2.060   5.967  0.7458 -0.0662 -0.1970
 5075SOL    HW126684   1.604   2.073   5.873  0.1970 -1.6205 -0.3453
 5075SOL    HW226685   1.708   2.039   5.968  1.3341  2.5345  0.9021
 5076SOL     OW26686   2.746   4.683   8.339 -0.2603  0.2145  0.0209
 5076SOL    HW126687   2.697   0.024   8.288  0.5899  0.1324 -0.9110
 5076SOL    HW226688   2.677   4.618   8.354 -0.1148 -0.3999 -1.8734
 5077SOL     OW26689   3.385   2.967   2.517  0.4374  0.3873 -0.2898
 5077SOL    HW126690   3.443   3.036   2.548 -1.9291  0.8794  3.0272
 5077SOL    HW226691   3.421   2.956   2.429  0.0757  0.7826 -0.4868
 5078SOL     OW26692   1.383   3.433   0.929 -0.1853 -0.4807  0.0623
 5078SOL    HW126693   1.409   3.505   0.986 -0.5666  1.2385 -1.9416
 5078SOL    HW226694   1.348   3.368   0.991 -2.4008  0.2734 -0.3794
 5079SOL     OW26695   4.229   2.506   6.880  0.2640 -0.4327 -0.2570
 5079SOL    HW126696   4.224   2.458   6.797 -1.3450  1.2828 -1.1454
 5079SOL    HW226697   4.141   2.543   6.883  0.9914  1.1750  1.2369
 5080SOL     OW26698   3.670   1.440   2.099 -0.1141 -0.6934  0.5985
 5080SOL    HW126699   3.705   1.489   2.174 -0.8581 -1.5802  1.5296
 5080SOL    HW226700   3.716   1.483   2.027 -2.5477  0.9631  0.0465
 5081SOL     OW26701   2.935   0.904   0.097 -0.0330  0.4618  0.6551
 5081SOL    HW126702   2.963   0.967   0.031 -3.1397  0.3296 -0.8031
 5081SOL    HW226703   2.925   0.974   0.162  1.9272  0.4952  0.9207
 5082SOL     OW26704   2.750   3.770   7.368  0.0275  0.1124 -0.1933
 5082SOL    HW126705   2.691   3.827   7.319 -1.5705 -0.8150  0.6287
 5082SOL    HW226706   2.812   3.738   7.303 -1.6028 -0.3052 -1.5330
 5083SOL     OW26707   0.301   1.683   2.816 -0.0091 -0.2455 -0.1071
 5083SOL    HW126708   0.222   1.638   2.788  0.3147 -0.9831  0.1668
 5083SOL    HW226709   0.261   1.739   2.883  3.7656  1.9269  0.3803
 5084SOL     OW26710   0.206   2.511  16.606 -0.1799 -0.1125  0.3892
 5084SOL    HW126711   0.248   2.481  16.687 -2.8752 -0.7674  1.5354
 5084SOL    HW226712   0.155   2.579  16.650 -1.8311 -0.7079 -0.6182
 5085SOL     OW26713   4.471   1.262   7.897  0.4962  0.3608  0.3263
 5085SOL    HW126714   4.471   1.303   7.811 -1.4056  2.0330  1.1082
 5085SOL    HW226715   4.382   1.228   7.909  0.3010  1.0299  0.7844
 5086SOL     OW26716   3.731   1.092  11.067 -0.9091 -0.0037 -0.1733
 5086SOL    HW126717   3.719   1.137  11.150 -0.7943  2.4793 -1.4956
 5086SOL    HW226718   3.808   1.132  11.026 -1.4700  0.5783 -0.6567
 5087SOL     OW26719   1.074   4.280  12.867 -0.6492 -0.0250 -0.1449
 5087SOL    HW126720   1.013   4.237  12.806  1.1075 -2.7511  0.0043
 5087SOL    HW226721   1.014   4.347  12.900  0.6607 -0.1253  2.4377
 5088SOL     OW26722   0.095   4.404   6.265 -0.4332 -0.0586  0.3612
 5088SOL    HW126723   0.104   4.408   6.360  0.1632 -2.3329  0.3979
 5088SOL    HW226724   0.001   4.422   6.264 -0.8607 -2.3750  0.4703
 5089SOL     OW26725   4.063   1.026   6.473 -0.0154  0.0619 -0.1047
 5089SOL    HW126726   4.125   1.018   6.400  1.6755  2.0282  1.1101
 5089SOL    HW226727   4.071   1.120   6.485  1.4111  0.1342 -1.5304
 5090SOL     OW26728   3.821   2.055   5.478 -0.1891 -0.0575  0.1537
 5090SOL    HW126729   3.757   2.045   5.549  1.1429 -1.5992  1.1441
 5090SOL    HW226730   3.797   2.145   5.457  0.1665  0.4878  2.0559
 5091SOL     OW26731   2.049   2.575   8.886 -0.0683 -0.3185 -0.5248
 5091SOL    HW126732   2.008   2.566   8.972  1.5103 -2.0408  0.0345
 5091SOL    HW226733   1.965   2.586   8.840 -0.5520  0.1206  0.4587
 5092SOL     OW26734   2.565   3.324   5.675 -0.0049  0.3036 -0.5313
 5092SOL    HW126735   2.624   3.386   5.631  1.1411 -0.3405  0.1045
 5092SOL    HW226736   2.495   3.322   5.609  0.5947 -0.3869 -1.1514
 5093SOL     OW26737   4.456   0.768  12.272  0.5861  0.3065  0.3853
 5093SOL    HW126738   4.416   0.853  12.253 -2.3325 -1.8424 -3.0292
 5093SOL    HW226739   4.512   0.760  12.194 -1.8948 -0.7517 -1.2736
 5094SOL     OW26740   1.671   2.861   5.137 -0.3224  0.1161  0.7807
 5094SOL    HW126741   1.658   2.901   5.052  2.5550 -0.9609 -0.1628
 5094SOL    HW226742   1.696   2.774   5.105  0.4473  0.6073  0.0560
 5095SOL     OW26743   4.252   4.058   5.348  0.1897 -0.3885  0.3865
 5095SOL    HW126744   4.193   4.133   5.355  0.6394  0.1039 -1.1172
 5095SOL    HW226745   4.318   4.093   5.288 -0.1443  0.1419  0.3264
 5096SOL     OW26746   1.139   0.494   3.601 -1.0473  0.2230  0.1354
 5096SOL    HW126747   1.168   0.409   3.634  0.9794  0.8710  0.0401
 5096SOL    HW226748   1.062   0.464   3.553 -1.1333 -1.4041  1.3131
 5097SOL     OW26749   0.631   0.085   7.131 -0.0589  0.4123  0.1055
 5097SOL    HW126750   0.703   0.145   7.112 -0.9148  0.9948 -1.3546
 5097SOL    HW226751   0.640   0.085   7.227  0.1224 -0.8249  0.0874
 5098SOL     OW26752   3.532   2.568   3.135 -0.3410 -0.3945 -0.0859
 5098SOL    HW126753   3.497   2.497   3.189 -2.1496  1.1033  0.7223
 5098SOL    HW226754   3.566   2.515   3.063  0.7576  1.4763 -0.9346
 5099SOL     OW26755   3.978   3.647  16.947  0.4177 -0.2120  0.0697
 5099SOL    HW126756   4.003   3.723  16.999  1.0887  0.0654 -0.6505
 5099SOL    HW226757   3.993   3.569  17.000  0.5072 -2.1712 -2.8022
 5100SOL     OW26758   4.142   3.063   2.302 -0.4280  0.1409  0.1345
 5100SOL    HW126759   4.049   3.049   2.321 -0.3574 -0.9764 -0.3661
 5100SOL    HW226760   4.142   3.158   2.291  0.1984  0.3949  2.2485
 5101SOL     OW26761   3.028   1.419  11.936  0.6973  0.5487 -0.0600
 5101SOL    HW126762   2.986   1.492  11.981  1.4763 -0.3672  2.1643
 5101SOL    HW226763   2.951   1.365  11.922  1.0232 -0.5761  2.4340
 5102SOL     OW26764   3.002   3.403   4.945 -0.7923 -0.0319 -0.2918
 5102SOL    HW126765   2.944   3.394   5.021  1.2897 -2.5680  1.0303
 5102SOL    HW226766   2.958   3.470   4.893 -2.3498 -1.4595 -0.8306
 5103SOL     OW26767   0.641   4.002   2.737  0.0043  0.0487 -0.1107
 5103SOL    HW126768   0.689   3.988   2.655  0.1219  2.5344 -0.4931
 5103SOL    HW226769   0.723   4.021   2.784 -0.5392  0.3099  0.7220
 5104SOL     OW26770   3.705   2.417   0.821 -0.4373  0.2120  0.0458
 5104SOL    HW126771   3.772   2.394   0.885  0.9926 -0.5643 -1.7515
 5104SOL    HW226772   3.632   2.434   0.881 -0.0263  0.8538  0.3602
 5105SOL     OW26773   2.745   4.722  13.140 -0.3554 -1.1315  0.6223
 5105SOL    HW126774   2.834   0.000  13.104 -1.3110  1.5971 -1.5372
 5105SOL    HW226775   2.743   4.645  13.198 -0.6668 -1.9099 -0.4154
 5106SOL     OW26776   0.046   2.890  10.579  0.4623 -0.3690 -0.1878
 5106SOL    HW126777   0.107   2.937  10.636 -2.4656  0.7563  2.0273
 5106SOL    HW226778   0.102   2.848  10.513  0.0059  0.2775 -0.9948
 5107SOL     OW26779   0.045   3.598   8.804 -0.3511 -0.1288  0.3346
 5107SOL    HW126780   0.023   3.691   8.797  0.2298  0.0770  1.1943
 5107SOL    HW226781   4.702   3.565   8.744 -0.5237 -0.7164  0.8508
 5108SOL     OW26782   2.392   4.612  14.425  0.2015  0.2085 -0.2200
 5108SOL    HW126783   2.486   4.610  14.409  0.6236  2.1575  1.9774
 5108SOL    HW226784   2.360   4.551  14.358  0.8082 -0.8865  0.5066
 5109SOL     OW26785   2.319   0.066   3.867  0.3342 -0.1793 -0.3802
 5109SOL    HW126786   2.382   0.003   3.902  0.0570 -0.3434 -0.1783
 5109SOL    HW226787   2.372   0.145   3.878 -0.8231  0.4590  0.6775
 5110SOL     OW26788   0.038   1.785   5.501 -0.0125 -0.1507  0.6129
 5110SOL    HW126789   0.067   1.875   5.481 -1.5657 -0.3059 -2.2628
 5110SOL    HW226790   4.676   1.796   5.461  0.2861 -0.6763 -0.1751
 5111SOL     OW26791   4.183   3.631  15.841  0.0317 -0.1316  0.1607
 5111SOL    HW126792   4.266   3.679  15.839  0.3547 -0.7393 -1.5472
 5111SOL    HW226793   4.210   3.548  15.880 -0.9111 -0.3369  0.3816
 5112SOL     OW26794   2.153   1.450   0.222 -0.5892 -0.3057 -0.2460
 5112SOL    HW126795   2.194   1.518   0.275  0.9577  0.2738 -2.2053
 5112SOL    HW226796   2.148   1.495   0.138  2.4807 -1.4120 -1.0017
 5113SOL     OW26797   4.227   4.636   1.745  0.3340 -0.1951  0.5325
 5113SOL    HW126798   4.133   4.648   1.729  0.9453  3.5563 -0.2145
 5113SOL    HW226799   4.253   4.613   1.656 -0.8831 -3.2877  0.9920
 5114SOL     OW26800   2.579   2.735   5.915 -0.2918  0.0792 -0.5352
 5114SOL    HW126801   2.546   2.721   5.827  1.3131 -0.4640 -1.0461
 5114SOL    HW226802   2.664   2.768   5.884 -0.6770  2.9580  1.4229
 5115SOL     OW26803   2.531   3.012  16.973  0.1919 -0.3625  0.4419
 5115SOL    HW126804   2.438   3.031  16.959  0.4313 -0.2687 -1.0681
 5115SOL    HW226805   2.535   2.937  16.914 -0.2778 -0.9337  1.1463
 5116SOL     OW26806   1.777   3.877   5.514 -0.5052 -0.1051 -0.6297
 5116SOL    HW126807   1.833   3.952   5.493  1.4033 -1.1722  0.6996
 5116SOL    HW226808   1.694   3.922   5.500  0.8359  2.1537 -1.2792
 5117SOL     OW26809   3.972   1.363   3.567  0.1592  0.2868 -0.0285
 5117SOL    HW126810   3.916   1.326   3.636  1.7329  2.2053  2.2986
 5117SOL    HW226811   3.974   1.450   3.609 -1.9204  1.2121 -1.8097
 5118SOL     OW26812   4.310   1.287   3.308 -0.1354 -0.5484  0.1794
 5118SOL    HW126813   4.220   1.317   3.322 -0.0774 -0.5596  0.5640
 5118SOL    HW226814   4.362   1.361   3.340 -0.3619 -1.8525  3.5916
 5119SOL     OW26815   3.627   3.408   2.513 -0.0094  0.1070 -0.3178
 5119SOL    HW126816   3.622   3.313   2.510  3.1211 -0.1057  1.6326
 5119SOL    HW226817   3.710   3.429   2.470 -0.4032  0.8005 -0.7394
 5120SOL     OW26818   3.354   3.943  12.825 -0.4904 -0.1167  1.0552
 5120SOL    HW126819   3.262   3.916  12.824  0.0500 -1.9053 -1.3087
 5120SOL    HW226820   3.354   4.037  12.841 -3.6185  0.0089  0.2049
 5121SOL     OW26821   2.838   1.272  12.206  0.0455 -0.1023 -0.0880
 5121SOL    HW126822   2.837   1.186  12.249 -3.4483  0.1492  0.3598
 5121SOL    HW226823   2.910   1.310  12.255 -0.3183  0.9119 -0.3400
 5122SOL     OW26824   0.201   4.434  17.248 -0.1929 -0.0648  0.1295
 5122SOL    HW126825   0.263   4.471  17.311 -0.4627 -0.2536  0.5003
 5122SOL    HW226826   0.196   4.506  17.185 -0.0535 -0.7971 -0.7150
 5123SOL     OW26827   1.110   3.301   7.134  0.2831  0.4130 -0.1722
 5123SOL    HW126828   1.019   3.321   7.116 -0.9080 -3.5716  1.2783
 5123SOL    HW226829   1.118   3.338   7.222 -1.2715 -0.6543  0.4207
 5124SOL     OW26830   1.046   0.509   6.531 -0.4530 -0.2252 -0.7454
 5124SOL    HW126831   1.086   0.565   6.465  0.4324 -1.5101 -1.2997
 5124SOL    HW226832   0.960   0.544   6.555 -0.0754 -1.1237  1.9949
 5125SOL     OW26833   3.732   3.593  17.334 -0.2785 -0.4658  0.9435
 5125SOL    HW126834   3.705   3.675  17.375 -0.8126 -0.0727 -0.1771
 5125SOL    HW226835   3.816   3.621  17.300 -0.9304  2.2132  1.5606
 5126SOL     OW26836   2.508   0.225   6.842  0.1396 -0.2246  0.0854
 5126SOL    HW126837   2.599   0.198   6.829  0.4499  0.4111  0.9161
 5126SOL    HW226838   2.511   0.310   6.887 -2.9463  0.4059 -0.9298
 5127SOL     OW26839   2.045   2.260   1.480 -0.3528 -0.8287  0.2064
 5127SOL    HW126840   2.035   2.203   1.556 -0.4178 -0.1417  0.7128
 5127SOL    HW226841   2.081   2.193   1.421  0.3743 -0.1164 -0.1606
 5128SOL     OW26842   1.980   1.502   6.154  0.0580  0.3245 -0.4395
 5128SOL    HW126843   1.981   1.492   6.249 -1.3897 -2.3774 -0.7035
 5128SOL    HW226844   2.068   1.476   6.126  0.1552  0.1158  0.0584
 5129SOL     OW26845   2.257   1.963   8.719 -0.5479  0.1288 -0.0292
 5129SOL    HW126846   2.292   2.048   8.692  0.2227 -0.0174  0.5119
 5129SOL    HW226847   2.284   1.901   8.652  0.9951  0.6934  0.0732
 5130SOL     OW26848   1.125   4.337  13.263  0.4632  0.2621 -0.5834
 5130SOL    HW126849   1.195   4.394  13.297  1.2115 -0.7883 -0.3756
 5130SOL    HW226850   1.050   4.393  13.282  1.3480  0.9996  0.7624
 5131SOL     OW26851   2.519   0.810  13.221  0.1529 -1.0264  0.1428
 5131SOL    HW126852   2.492   0.900  13.234  2.5558 -0.1992 -0.5857
 5131SOL    HW226853   2.477   0.754  13.286 -1.8147  2.6252  1.9494
 5132SOL     OW26854   2.617   1.103   8.103  0.4658  0.4944  0.0945
 5132SOL    HW126855   2.562   1.065   8.171 -0.2856 -3.5323 -2.7530
 5132SOL    HW226856   2.548   1.140   8.049  0.3338  2.2532  1.4687
 5133SOL     OW26857   0.987   1.047   2.978  0.0634  0.2113  0.0579
 5133SOL    HW126858   0.996   0.958   3.013  1.9398  0.0005 -0.9179
 5133SOL    HW226859   0.990   1.099   3.058  1.5255  0.7041 -0.3076
 5134SOL     OW26860   4.428   1.516   7.219  0.0841 -0.5932  0.1123
 5134SOL    HW126861   4.446   1.452   7.150  1.4862  0.2357 -0.2950
 5134SOL    HW226862   4.486   1.487   7.290 -0.3492  0.2883  0.8219
 5135SOL     OW26863   0.492   3.988   3.273  0.1967  0.0426  0.4513
 5135SOL    HW126864   0.397   3.995   3.287  0.1840 -0.1842  0.4700
 5135SOL    HW226865   0.515   4.067   3.223  1.1023 -1.0049 -0.7705
 5136SOL     OW26866   4.161   0.962   9.593 -0.0437  0.0449  0.0469
 5136SOL    HW126867   4.231   1.020   9.622  0.5568  0.9694 -3.1802
 5136SOL    HW226868   4.127   1.027   9.531  1.1802  1.8030  1.2343
 5137SOL     OW26869   1.656   0.982  12.012 -0.1137  0.0673  0.0432
 5137SOL    HW126870   1.573   0.971  11.966 -0.8530  1.5101  1.0366
 5137SOL    HW226871   1.679   0.891  12.035 -1.4045 -0.3009 -0.1189
 5138SOL     OW26872   0.738   2.024  15.577 -0.1922  0.4873 -0.5492
 5138SOL    HW126873   0.817   1.980  15.608 -2.3041 -1.4621  2.1807
 5138SOL    HW226874   0.686   1.962  15.525  0.6267  1.6953 -2.7889
 5139SOL     OW26875   1.841   2.634  15.197 -0.3252  0.8372  0.1129
 5139SOL    HW126876   1.771   2.610  15.136 -0.3579 -0.6793  0.7641
 5139SOL    HW226877   1.898   2.696  15.150  1.2360 -2.6602 -2.5967
 5140SOL     OW26878   3.632   0.124   7.246 -0.5496 -0.1795 -0.2177
 5140SOL    HW126879   3.618   0.107   7.339  0.5697  0.7048  0.1183
 5140SOL    HW226880   3.665   0.214   7.250  2.0044 -1.1532  0.8405
 5141SOL     OW26881   1.809   1.134   3.634  0.3910  0.4605 -0.1219
 5141SOL    HW126882   1.790   1.207   3.693  0.5257 -0.1194  0.6365
 5141SOL    HW226883   1.903   1.145   3.625  0.5336 -0.1353  0.6379
 5142SOL     OW26884   1.316   4.101   3.931  0.1424  0.2262 -0.3227
 5142SOL    HW126885   1.389   4.161   3.941 -0.4289  1.1281 -1.5867
 5142SOL    HW226886   1.312   4.045   4.008 -1.8958  0.2160 -0.4187
 5143SOL     OW26887   4.518   2.126   3.543 -0.2765  0.1992  0.1822
 5143SOL    HW126888   4.548   2.214   3.563 -0.7662  0.6253 -0.9824
 5143SOL    HW226889   4.442   2.134   3.485  1.0589  0.2218 -1.5735
 5144SOL     OW26890   4.446   2.889   4.567  0.3707  0.2599  0.0526
 5144SOL    HW126891   4.455   2.901   4.661  1.2316  1.6826 -0.2147
 5144SOL    HW226892   4.359   2.849   4.569  0.0008  1.0751  0.0810
 5145SOL     OW26893   4.034   0.548   8.142  0.1754 -0.5168 -0.1875
 5145SOL    HW126894   3.965   0.482   8.137  0.3103 -0.7905  1.4236
 5145SOL    HW226895   3.979   0.627   8.142  0.6197 -0.2071 -0.1921
 5146SOL     OW26896   3.064   4.378  11.336 -0.3550 -0.3658  0.1439
 5146SOL    HW126897   3.097   4.391  11.247 -1.7642 -2.2059 -0.6520
 5146SOL    HW226898   3.022   4.292  11.328  3.0864 -1.8104 -2.2452
 5147SOL     OW26899   1.613   2.848   4.104  0.2953 -0.3125  0.0272
 5147SOL    HW126900   1.628   2.825   4.195  0.5585  2.4673  0.6826
 5147SOL    HW226901   1.585   2.939   4.099 -0.1270 -0.3093  2.5454
 5148SOL     OW26902   0.236   4.414   3.580  0.4835  0.0801  0.4449
 5148SOL    HW126903   0.163   4.376   3.532  1.0767 -0.0047 -0.3738
 5148SOL    HW226904   0.290   4.338   3.603  0.7263 -0.0745 -0.6622
 5149SOL     OW26905   3.945   3.882  12.422 -0.1034 -0.3652 -0.2819
 5149SOL    HW126906   4.007   3.846  12.485 -2.4645 -1.6147  1.2961
 5149SOL    HW226907   3.968   3.974  12.437  1.6683 -0.8482 -0.1036
 5150SOL     OW26908   1.183   3.803   5.857 -0.2509 -0.6281  0.2860
 5150SOL    HW126909   1.228   3.728   5.897  0.5644 -0.2468  0.0707
 5150SOL    HW226910   1.098   3.762   5.842 -1.3287  2.0733 -0.8728
 5151SOL     OW26911   4.573   3.774   3.078 -0.6700  0.0925  0.4850
 5151SOL    HW126912   4.493   3.801   3.123 -0.5575 -0.3864  0.9725
 5151SOL    HW226913   4.559   3.679   3.088 -0.2183 -0.2669 -2.1760
 5152SOL     OW26914   4.439   3.032  15.612  0.0185  0.0510  0.4995
 5152SOL    HW126915   4.417   2.969  15.681  2.2000 -0.1038  1.0488
 5152SOL    HW226916   4.512   2.976  15.586  1.3127  2.5854 -1.2936
 5153SOL     OW26917   1.762   3.278   2.421  0.0716 -0.6256  1.0484
 5153SOL    HW126918   1.763   3.368   2.389 -0.0930 -1.0661 -0.1956
 5153SOL    HW226919   1.852   3.244   2.413 -0.4532 -1.7453  0.0012
 5154SOL     OW26920   3.690   3.406   5.362 -0.1963  0.3414  0.5753
 5154SOL    HW126921   3.653   3.458   5.290 -1.7714 -0.9386  0.4506
 5154SOL    HW226922   3.633   3.417   5.439 -1.7422  0.1416 -0.5283
 5155SOL     OW26923   1.582   0.012  15.564  0.1237  0.1982 -0.1984
 5155SOL    HW126924   1.562   0.104  15.546  1.5411  0.1042 -2.2695
 5155SOL    HW226925   1.498   4.702  15.596 -0.7718  0.3827 -2.3943
 5156SOL     OW26926   1.002   0.638   8.308 -0.3980 -0.0409  0.3198
 5156SOL    HW126927   0.931   0.694   8.337 -1.4055 -0.9798 -0.3543
 5156SOL    HW226928   1.071   0.699   8.282 -0.1448 -0.0596  0.9490
 5157SOL     OW26929   3.619   2.090   0.786  0.0308 -0.6933  0.2005
 5157SOL    HW126930   3.574   2.007   0.770 -0.6644 -0.0579 -1.1684
 5157SOL    HW226931   3.680   2.072   0.857  1.8879  0.6325 -1.0642
 5158SOL     OW26932   0.891   0.617   5.989 -0.1625  0.0434 -0.4676
 5158SOL    HW126933   0.936   0.694   6.023 -0.5629 -0.4484  1.1692
 5158SOL    HW226934   0.902   0.556   6.062  0.0152  0.2612 -0.3126
 5159SOL     OW26935   1.334   3.035   1.110  0.1559  0.1160 -0.6824
 5159SOL    HW126936   1.291   3.051   1.026 -0.3879  1.4393 -0.1501
 5159SOL    HW226937   1.376   3.117   1.136 -0.0954  0.0757 -0.1437
 5160SOL     OW26938   2.423   3.620  14.132 -0.7219  0.0084 -0.2105
 5160SOL    HW126939   2.502   3.671  14.116 -0.7037 -0.1652 -0.6777
 5160SOL    HW226940   2.406   3.589  14.043  0.9693 -2.1982  0.2406
 5161SOL     OW26941   2.119   3.898  16.514 -0.4880  0.1392 -0.1486
 5161SOL    HW126942   2.111   3.818  16.566  0.9018  0.3316  0.3694
 5161SOL    HW226943   2.128   3.863  16.425 -1.6229 -2.0280  0.5884
 5162SOL     OW26944   0.274   3.703   6.163  0.4423  0.1843  0.5813
 5162SOL    HW126945   0.189   3.722   6.202 -0.3551 -1.9696 -0.0652
 5162SOL    HW226946   0.280   3.776   6.102 -1.4421  0.2126  0.4282
 5163SOL     OW26947   1.673   2.222   7.901  0.0664  0.0220  0.5277
 5163SOL    HW126948   1.680   2.128   7.919 -2.2106 -0.0438  1.0861
 5163SOL    HW226949   1.624   2.253   7.977  0.5063 -0.7402  1.1159
 5164SOL     OW26950   2.513   0.479   6.242 -0.0951  0.4010  0.4827
 5164SOL    HW126951   2.601   0.443   6.229 -0.7173 -0.8320 -0.3130
 5164SOL    HW226952   2.464   0.398   6.251  0.3957  0.2975  2.1184
 5165SOL     OW26953   3.652   3.094   9.008  0.5810  0.2890  0.5018
 5165SOL    HW126954   3.729   3.129   9.054  1.2089  0.4445 -0.6680
 5165SOL    HW226955   3.679   3.113   8.918 -0.8402  2.7711  0.5934
 5166SOL     OW26956   2.300   1.673   5.530  0.0412  0.0983  0.2982
 5166SOL    HW126957   2.209   1.674   5.562  0.1685  3.2489  0.4915
 5166SOL    HW226958   2.341   1.666   5.616  0.9449 -1.2783 -0.2525
 5167SOL     OW26959   0.911   4.506  17.209  0.0819  0.3266  0.3148
 5167SOL    HW126960   0.819   4.482  17.221 -0.3399  2.0742  0.5998
 5167SOL    HW226961   0.938   4.456  17.132 -0.4402 -2.1861  1.7918
 5168SOL     OW26962   3.140   4.434   6.516  0.8346  0.0130 -0.0046
 5168SOL    HW126963   3.236   4.426   6.508  0.7191 -0.5815 -0.7853
 5168SOL    HW226964   3.130   4.410   6.608  0.9004  1.4615  0.3781
 5169SOL     OW26965   3.205   2.110   1.907  0.6088 -0.0222  0.2451
 5169SOL    HW126966   3.128   2.055   1.896  1.1210 -0.5605 -0.6598
 5169SOL    HW226967   3.166   2.178   1.962  0.8475 -1.5671  2.3087
 5170SOL     OW26968   4.068   1.810  12.815 -0.3090 -0.1091  0.0512
 5170SOL    HW126969   3.975   1.786  12.818 -0.5807  1.1560  1.7440
 5170SOL    HW226970   4.106   1.722  12.820  0.7124  0.4223  1.6207
 5171SOL     OW26971   4.651   0.844   8.671  0.0057 -0.0148 -0.1944
 5171SOL    HW126972   4.619   0.934   8.669  0.3886  0.1754  2.0207
 5171SOL    HW226973   4.623   0.800   8.590  0.2041 -1.2700  0.4085
 5172SOL     OW26974   4.510   3.558   1.771 -0.8559  0.0146 -0.0875
 5172SOL    HW126975   4.570   3.610   1.825  0.8756 -0.9925 -1.0269
 5172SOL    HW226976   4.476   3.630   1.718 -0.0171  0.4430 -0.0470
 5173SOL     OW26977   2.315   2.961   5.773 -0.4264  0.8205 -0.0071
 5173SOL    HW126978   2.315   2.867   5.753  3.1108  0.6495  0.8563
 5173SOL    HW226979   2.385   2.991   5.716  0.9370 -0.7266  0.8377
 5174SOL     OW26980   2.160   4.388  10.353  0.2150 -0.1800  0.0511
 5174SOL    HW126981   2.250   4.372  10.382  0.1245 -1.5181 -0.4105
 5174SOL    HW226982   2.121   4.426  10.432 -0.3956  1.0428 -0.8464
 5175SOL     OW26983   2.271   3.269  15.846 -0.3642 -0.3182  0.1806
 5175SOL    HW126984   2.363   3.295  15.854 -0.5176  0.4599 -0.5168
 5175SOL    HW226985   2.234   3.244  15.930 -0.4278 -0.2829  0.1635
 5176SOL     OW26986   4.282   1.518  16.030 -0.6577 -0.6021  0.2586
 5176SOL    HW126987   4.241   1.564  15.957 -2.8810 -1.1522  1.1486
 5176SOL    HW226988   4.336   1.452  15.985 -3.2448 -2.4166 -0.2147
 5177SOL     OW26989   2.450   0.308  17.389  0.6610  0.7539 -0.7767
 5177SOL    HW126990   2.541   0.318  17.361  1.3504  0.7970  1.5361
 5177SOL    HW226991   2.392   0.314  17.313  0.2644  3.3300 -0.2895
 5178SOL     OW26992   2.784   1.108   3.435 -0.3166  0.5846  0.5375
 5178SOL    HW126993   2.703   1.069   3.401  0.8281  0.1840 -1.7320
 5178SOL    HW226994   2.761   1.199   3.451  2.1477  1.6356 -2.0380
 5179SOL     OW26995   3.159   4.380  12.885 -0.4325 -1.1286  0.1264
 5179SOL    HW126996   3.138   4.430  12.963 -0.5566  0.4395 -0.9144
 5179SOL    HW226997   3.146   4.457  12.831 -0.8150 -2.4011 -1.6087
 5180SOL     OW26998   2.796   1.206   8.396  0.3628  0.5299 -0.0794
 5180SOL    HW126999   2.751   1.123   8.383  1.7566 -0.2051 -0.1688
 5180SOL    HW227000   2.809   1.221   8.490  0.6673  1.4898 -0.2715
 5181SOL     OW27001   3.686   2.529   7.390  0.0439  0.3716 -0.0195
 5181SOL    HW127002   3.782   2.529   7.382 -0.1172  0.1852 -1.9121
 5181SOL    HW227003   3.661   2.445   7.352  0.1137  0.6252 -0.6263
 5182SOL     OW27004   1.729   3.348   3.178  0.1281  0.1517  0.1282
 5182SOL    HW127005   1.658   3.409   3.157 -0.1530  0.7056  2.6615
 5182SOL    HW227006   1.789   3.358   3.105  1.7701  0.5706  1.5440
 5183SOL     OW27007   3.223   1.394  11.727 -0.1793 -0.6588  1.0177
 5183SOL    HW127008   3.161   1.416  11.797  0.8785 -0.6454  1.9604
 5183SOL    HW227009   3.197   1.454  11.657 -0.4999  0.8653  2.4334
 5184SOL     OW27010   1.565   3.982   5.929 -0.1221  0.0620  0.1665
 5184SOL    HW127011   1.502   4.043   5.967 -1.3427  0.6903 -2.8560
 5184SOL    HW227012   1.640   4.007   5.982  0.2871  0.6030 -0.6590
 5185SOL     OW27013   1.305   2.870  16.764  0.4126 -0.8564  0.0330
 5185SOL    HW127014   1.393   2.868  16.801  0.1918 -0.3171  0.5843
 5185SOL    HW227015   1.329   2.835  16.678  3.0596 -2.9899  1.6713
 5186SOL     OW27016   3.797   2.058   0.187  0.5176  0.2951 -0.1314
 5186SOL    HW127017   3.835   2.055   0.275 -2.9600  2.1872  1.4281
 5186SOL    HW227018   3.873   2.046   0.130  1.5621  0.1187  1.3079
 5187SOL     OW27019   0.716   0.983   6.083 -0.0625  0.2591 -0.0857
 5187SOL    HW127020   0.763   1.045   6.139 -1.5563  0.0015  1.4665
 5187SOL    HW227021   0.779   0.912   6.067  0.3269  0.4451  0.6089
 5188SOL     OW27022   0.295   2.391   2.914  0.4504 -0.3841  0.3026
 5188SOL    HW127023   0.281   2.353   2.827  0.1561 -0.1988  0.2686
 5188SOL    HW227024   0.235   2.464   2.900 -0.6890 -1.4487 -0.3753
 5189SOL     OW27025   1.932   1.839   3.464  0.3315  0.2788 -0.2378
 5189SOL    HW127026   1.958   1.931   3.474  0.7618  0.1170  0.1394
 5189SOL    HW227027   2.017   1.807   3.433 -0.4588 -1.0376 -1.0170
 5190SOL     OW27028   0.513   2.532   3.854  0.0889  0.5970  0.0115
 5190SOL    HW127029   0.580   2.501   3.913 -0.0451  1.0761  0.4157
 5190SOL    HW227030   0.529   2.626   3.841 -0.4273  0.5960 -0.6652
 5191SOL     OW27031   0.908   4.389   8.240 -0.0928  0.1965 -0.3876
 5191SOL    HW127032   0.960   4.466   8.218 -0.4679  0.3206 -0.8347
 5191SOL    HW227033   0.822   4.429   8.228 -1.2733 -2.2786 -0.3140
 5192SOL     OW27034   1.971   0.734   5.690 -0.3529  0.4549 -0.3728
 5192SOL    HW127035   1.984   0.687   5.772 -0.3853  0.9388 -0.0942
 5192SOL    HW227036   1.917   0.807   5.720  1.0356 -0.0938  3.4186
 5193SOL     OW27037   1.041   3.747   0.334  0.2735 -0.1732 -0.8768
 5193SOL    HW127038   1.048   3.841   0.352 -0.1347 -0.2038 -0.5296
 5193SOL    HW227039   1.068   3.733   0.244 -0.8210 -2.9037 -0.7658
 5194SOL     OW27040   2.023   1.522  10.829 -0.6359  0.2189  0.2995
 5194SOL    HW127041   2.050   1.600  10.781 -0.1954 -0.3986 -0.4604
 5194SOL    HW227042   1.937   1.497  10.795  0.3843 -0.4520 -1.7402
 5195SOL     OW27043   4.392   3.908   5.727 -0.0792 -0.2563 -0.1850
 5195SOL    HW127044   4.303   3.881   5.703  0.3025 -0.4746 -1.3215
 5195SOL    HW227045   4.424   3.960   5.653 -0.3026  0.4080  0.1842
 5196SOL     OW27046   1.092   3.942   8.327  0.2636  0.0158 -0.6597
 5196SOL    HW127047   1.123   3.992   8.251  1.9265  0.0731  0.0438
 5196SOL    HW227048   1.054   4.015   8.376 -1.7648  0.1996 -2.5053
 5197SOL     OW27049   4.562   3.710   5.942 -0.2943  0.0652 -0.2931
 5197SOL    HW127050   4.643   3.760   5.937  1.0468 -2.0767  0.2264
 5197SOL    HW227051   4.508   3.723   5.863  1.2317  1.8140 -1.0650
 5198SOL     OW27052   0.681   2.764   7.634 -0.2113  0.3225  0.5542
 5198SOL    HW127053   0.599   2.715   7.635  0.1840 -0.3852 -1.0548
 5198SOL    HW227054   0.722   2.745   7.549  1.2351  1.2215  1.0577
 5199SOL     OW27055   4.500   1.492  15.559  0.5048  0.3342 -0.1479
 5199SOL    HW127056   4.540   1.431  15.621 -0.7013 -1.0105 -0.6811
 5199SOL    HW227057   4.567   1.484  15.491  1.4355  0.2508  0.7881
 5200SOL     OW27058   2.609   2.489   5.165 -0.5977  0.3091  0.1977
 5200SOL    HW127059   2.516   2.493   5.142  0.1928  1.7115 -2.8727
 5200SOL    HW227060   2.627   2.418   5.104 -1.3883  1.2604 -1.1518
 5201SOL     OW27061   4.025   1.490  17.184  0.2566 -0.3599  0.3129
 5201SOL    HW127062   3.967   1.496  17.260  0.8005  1.1150  0.6144
 5201SOL    HW227063   4.037   1.396  17.167 -1.0941 -0.4444 -0.1491
 5202SOL     OW27064   4.015   3.561   6.338 -0.2664 -0.3280 -0.3655
 5202SOL    HW127065   3.990   3.530   6.425 -0.7394 -0.3092 -0.4936
 5202SOL    HW227066   4.099   3.604   6.353 -1.0731  1.9834 -2.3137
 5203SOL     OW27067   0.528   0.143   3.469 -0.1160  0.2355  0.1290
 5203SOL    HW127068   0.449   0.134   3.416  0.6561  0.0140 -0.9868
 5203SOL    HW227069   0.585   0.081   3.423  0.8373  1.8173 -0.8082
 5204SOL     OW27070   1.099   3.796   2.439 -0.4307 -0.1498  0.1117
 5204SOL    HW127071   1.005   3.781   2.435 -0.5221  0.9682 -1.9451
 5204SOL    HW227072   1.134   3.791   2.528  0.5149 -0.4012 -0.2657
 5205SOL     OW27073   2.376   0.211   5.371 -0.1410 -0.0044  0.0872
 5205SOL    HW127074   2.343   0.169   5.450 -1.5441  0.1982 -0.3933
 5205SOL    HW227075   2.414   0.288   5.413  0.6759  0.5254 -1.6021
 5206SOL     OW27076   2.519   4.470   8.406  0.3634  0.2077  0.3939
 5206SOL    HW127077   2.604   4.431   8.428 -0.7962 -1.6319  1.5471
 5206SOL    HW227078   2.487   4.396   8.355  0.7282  0.6244 -0.4543
 5207SOL     OW27079   1.225   1.566   2.277  0.2637 -0.1605 -0.5649
 5207SOL    HW127080   1.280   1.539   2.203  0.1055  0.9127 -1.0781
 5207SOL    HW227081   1.269   1.517   2.346 -2.0569 -0.2832  0.8085
 5208SOL     OW27082   4.713   1.942  12.470 -0.2559  0.1581 -0.2215
 5208SOL    HW127083   4.693   1.993  12.392  0.2907  0.3797 -0.2194
 5208SOL    HW227084   0.023   1.860  12.433 -1.4834 -0.6505  0.4669
 5209SOL     OW27085   2.184   4.071   3.209 -0.3102  0.1956  0.1112
 5209SOL    HW127086   2.186   4.033   3.296 -0.8398 -0.8829 -0.3516
 5209SOL    HW227087   2.241   4.015   3.156  2.1349  1.2065  1.6934
 5210SOL     OW27088   3.339   3.635  15.586  0.8411 -0.4756  0.1402
 5210SOL    HW127089   3.422   3.627  15.539 -0.3412  2.8195 -2.5071
 5210SOL    HW227090   3.275   3.622  15.516  0.5817  1.7136 -0.0454
 5211SOL     OW27091   4.445   1.901   6.697 -0.1141  0.0421  0.0669
 5211SOL    HW127092   4.466   1.889   6.790  1.3886  1.4705 -0.0892
 5211SOL    HW227093   4.517   1.949   6.656  0.2310  0.3836  1.0696
 5212SOL     OW27094   4.718   0.249  14.898 -0.1859  0.2646  0.4223
 5212SOL    HW127095   0.019   0.277  14.986  1.8098  0.5730 -0.2289
 5212SOL    HW227096   0.019   0.321  14.840  0.6641  0.1406  0.6286
 5213SOL     OW27097   0.263   2.502   3.787 -0.3417  0.4864 -0.1465
 5213SOL    HW127098   0.292   2.449   3.713 -0.2691  2.3524 -1.4587
 5213SOL    HW227099   0.352   2.518   3.818 -0.9016  0.1516  1.6143
 5214SOL     OW27100   2.876   2.921   6.609 -0.9710  0.2030 -0.6244
 5214SOL    HW127101   2.864   3.016   6.606  0.2627  0.3752 -0.4662
 5214SOL    HW227102   2.848   2.896   6.697  2.5756  2.7136  1.2254
 5215SOL     OW27103   1.995   1.290   8.512  0.7506 -0.2238 -0.1402
 5215SOL    HW127104   1.922   1.256   8.460  2.2772 -0.7186 -1.9689
 5215SOL    HW227105   1.952   1.270   8.595  0.2638 -0.7683 -0.5242
 5216SOL     OW27106   3.666   1.712   9.852 -0.1220  0.2535 -0.3157
 5216SOL    HW127107   3.695   1.631   9.895 -0.6816  0.3423  0.2341
 5216SOL    HW227108   3.710   1.785   9.895 -3.6068  1.5033  1.0367
 5217SOL     OW27109   4.368   3.135   1.899 -0.5689  0.7339 -0.6358
 5217SOL    HW127110   4.440   3.184   1.939  0.7403  0.2881 -2.4534
 5217SOL    HW227111   4.329   3.205   1.845 -3.0848 -0.2724 -0.1485
 5218SOL     OW27112   3.908   4.532   9.417  0.2046  0.3626  0.3556
 5218SOL    HW127113   3.892   4.442   9.445 -1.9570  0.2285 -1.3016
 5218SOL    HW227114   3.939   4.568   9.500  2.2188 -1.0008  0.2066
 5219SOL     OW27115   0.102   1.114   5.610  0.3626  0.8799 -0.0746
 5219SOL    HW127116   0.039   1.173   5.653 -1.4691  0.6128 -2.3859
 5219SOL    HW227117   0.181   1.154   5.646  0.3098  0.9395 -0.0256
 5220SOL     OW27118   0.625   1.560  11.334  0.4986  0.0550  0.2994
 5220SOL    HW127119   0.584   1.566  11.421 -1.0515  2.1716 -0.5499
 5220SOL    HW227120   0.685   1.490  11.359  0.3263 -0.4436 -0.6813
 5221SOL     OW27121   2.147   4.148   6.444 -0.1337  0.0386  0.2828
 5221SOL    HW127122   2.174   4.239   6.448 -0.3789  0.1295 -0.2652
 5221SOL    HW227123   2.225   4.093   6.436 -0.3908 -0.1961 -0.5917
 5222SOL     OW27124   1.875   3.636   4.274 -0.5299  0.2992  0.2294
 5222SOL    HW127125   1.799   3.678   4.233 -0.7417  0.1197  0.4406
 5222SOL    HW227126   1.917   3.720   4.296 -0.3382  0.3781 -0.4409
 5223SOL     OW27127   2.076   4.035   6.727 -0.3376  0.2709  0.2736
 5223SOL    HW127128   2.069   4.054   6.634 -0.2324  1.2918  0.4718
 5223SOL    HW227129   2.025   3.955   6.739  1.9528 -1.4660 -1.8030
 5224SOL     OW27130   3.829   0.619   4.141  0.7626  0.1867  0.4449
 5224SOL    HW127131   3.849   0.536   4.185  1.5939  0.5831  0.8146
 5224SOL    HW227132   3.767   0.655   4.205  1.5763  1.5766  0.4559
 5225SOL     OW27133   4.235   2.074   1.684 -0.8272  0.4009  0.1818
 5225SOL    HW127134   4.270   2.144   1.738 -1.6379  0.9676 -0.0343
 5225SOL    HW227135   4.196   2.012   1.746  0.8228 -0.7549  0.0776
 5226SOL     OW27136   2.446   1.531  16.832  0.0645 -0.3039  0.1841
 5226SOL    HW127137   2.479   1.521  16.921  0.0426 -1.3971  0.0652
 5226SOL    HW227138   2.468   1.622  16.813  0.1838 -0.1366  1.1094
 5227SOL     OW27139   3.278   2.663   2.953  0.3621  0.0918  0.3081
 5227SOL    HW127140   3.272   2.757   2.966  0.2841  0.0652  0.4696
 5227SOL    HW227141   3.340   2.646   3.025 -0.4166  0.6928  1.1238
 5228SOL     OW27142   0.614   0.167  16.301  0.2232 -0.0536 -0.7774
 5228SOL    HW127143   0.630   0.192  16.392  0.1922  1.2006 -1.1206
 5228SOL    HW227144   0.703   0.169  16.264  0.7315 -0.7685  0.3872
 5229SOL     OW27145   2.514   2.784  14.122  0.0169 -0.1480  0.0676
 5229SOL    HW127146   2.446   2.804  14.187  0.9313  0.4391  0.8400
 5229SOL    HW227147   2.555   2.870  14.128  0.8012 -0.5054 -0.1071
 5230SOL     OW27148   2.457   2.659   8.985  0.4640 -0.4021  0.4781
 5230SOL    HW127149   2.513   2.632   8.913  0.6148 -1.5123  1.0082
 5230SOL    HW227150   2.442   2.570   9.019  1.2240 -1.1695 -1.2090
 5231SOL     OW27151   4.038   0.680   9.579 -0.1262  0.5407  0.2478
 5231SOL    HW127152   4.033   0.775   9.593  0.4778  0.5877  0.1541
 5231SOL    HW227153   4.133   0.672   9.577 -0.1212  0.4372  0.9761
 5232SOL     OW27154   4.324   1.539  16.305 -0.0197  0.4678  0.5591
 5232SOL    HW127155   4.296   1.462  16.354 -3.2581  1.3781  0.1257
 5232SOL    HW227156   4.295   1.530  16.214 -1.9007 -0.1975  1.2170
 5233SOL     OW27157   3.304   3.939  15.496 -0.4049 -0.5013 -0.3513
 5233SOL    HW127158   3.265   3.861  15.536 -0.3965 -0.3363 -0.0239
 5233SOL    HW227159   3.395   3.915  15.481 -0.1642  0.9236 -1.1361
 5234SOL     OW27160   4.603   3.980  12.547 -0.3845 -0.1864  0.4090
 5234SOL    HW127161   4.685   3.970  12.498 -1.3799  0.1689 -1.3295
 5234SOL    HW227162   4.581   3.890  12.570 -1.4010  0.3848  1.6681
 5235SOL     OW27163   2.600   3.367   8.456  0.1133 -0.6449 -0.3851
 5235SOL    HW127164   2.542   3.361   8.380 -0.9920 -1.0359  0.4910
 5235SOL    HW227165   2.536   3.404   8.516 -0.0962  0.0879 -1.0672
 5236SOL     OW27166   3.318   2.996   7.931  0.1604 -0.0743 -0.0497
 5236SOL    HW127167   3.254   3.060   7.903  0.7769  1.6157  2.3606
 5236SOL    HW227168   3.353   2.956   7.852  0.5109 -1.0329  0.5791
 5237SOL     OW27169   2.853   4.513  16.804 -0.7007  0.6564  0.0566
 5237SOL    HW127170   2.912   4.520  16.728  0.0327 -1.4712  0.4343
 5237SOL    HW227171   2.874   4.432  16.850 -0.5793  0.1688 -0.8441
 5238SOL     OW27172   3.256   4.469   9.087 -0.0938  0.2362  0.1311
 5238SOL    HW127173   3.166   4.479   9.057 -0.1982  1.0333  0.7286
 5238SOL    HW227174   3.306   4.500   9.012 -2.1167 -1.4350 -1.9086
 5239SOL     OW27175   3.333   1.289   7.633  0.1545  0.5248 -0.4380
 5239SOL    HW127176   3.306   1.203   7.602 -0.2847 -0.0438  1.5120
 5239SOL    HW227177   3.246   1.303   7.671  0.4642  0.6639  0.2293
 5240SOL     OW27178   0.943   3.099   7.569 -0.2667 -0.0601 -0.1525
 5240SOL    HW127179   0.897   3.176   7.600  0.5580 -0.2599  1.5719
 5240SOL    HW227180   0.873   3.033   7.569 -1.0622  0.7848  1.3949
 5241SOL     OW27181   4.531   2.686  13.106 -0.3355 -0.1062  0.5659
 5241SOL    HW127182   4.518   2.613  13.046  0.2512  1.3381 -1.3161
 5241SOL    HW227183   4.609   2.732  13.074  0.5751 -1.7494  0.4713
 5242SOL     OW27184   2.700   2.027   3.613 -0.7170  0.3231  0.5968
 5242SOL    HW127185   2.678   1.965   3.683 -3.8593  0.1141 -0.6168
 5242SOL    HW227186   2.796   2.021   3.615 -0.8199 -1.4886 -1.0640
 5243SOL     OW27187   0.148   1.207   4.428 -0.0845 -0.6731  0.4149
 5243SOL    HW127188   0.214   1.153   4.471 -0.7962 -1.2581  0.7715
 5243SOL    HW227189   0.185   1.295   4.438  1.0874 -1.0980 -0.2240
 5244SOL     OW27190   4.123   2.371  14.083  0.0203 -0.4990  0.3647
 5244SOL    HW127191   4.185   2.355  14.154 -0.6734 -1.7182  0.6976
 5244SOL    HW227192   4.173   2.427  14.023  0.0480 -0.1382  0.7279
 5245SOL     OW27193   0.808   4.006  13.786  0.1383 -0.0977  0.1745
 5245SOL    HW127194   0.751   4.054  13.846  0.3363 -2.8677  2.6429
 5245SOL    HW227195   0.803   4.059  13.707  0.2047 -0.0104  0.2293
 5246SOL     OW27196   0.593   2.429   6.898  0.1454 -0.0740  0.6103
 5246SOL    HW127197   0.587   2.336   6.917  0.7589  0.4336  3.4018
 5246SOL    HW227198   0.501   2.456   6.891 -0.5937 -2.1122  2.4848
 5247SOL     OW27199   1.965   2.501   2.688  0.3154  0.2692 -0.0444
 5247SOL    HW127200   1.893   2.523   2.747  0.2759  1.1970 -0.4523
 5247SOL    HW227201   1.920   2.456   2.616  0.4874  3.2989 -2.0191
 5248SOL     OW27202   3.410   1.463   2.175  0.3263 -0.1026 -0.6541
 5248SOL    HW127203   3.380   1.374   2.158  1.1880 -0.1769 -1.8152
 5248SOL    HW227204   3.504   1.449   2.161  0.3062  0.2078 -1.0920
 5249SOL     OW27205   3.391   0.912  10.349  0.3358 -0.3253 -0.1995
 5249SOL    HW127206   3.452   0.942  10.415  0.6618 -2.3146  0.4076
 5249SOL    HW227207   3.343   0.845  10.399  2.5045 -2.5032 -1.0352
 5250SOL     OW27208   4.333   4.662   7.462 -0.3385 -0.3088  0.0030
 5250SOL    HW127209   4.359   4.615   7.540 -1.3424  3.2630  2.5117
 5250SOL    HW227210   4.321   0.028   7.494  2.6815  0.4563 -1.0642
 5251SOL     OW27211   2.437   0.494   2.419 -0.5098  0.1187 -0.4834
 5251SOL    HW127212   2.342   0.497   2.408 -0.2816  1.2630 -2.2150
 5251SOL    HW227213   2.471   0.534   2.339 -1.4558  0.3072 -0.7893
 5252SOL     OW27214   2.952   2.030   8.542  0.2820 -0.4412 -0.6656
 5252SOL    HW127215   2.878   2.091   8.550 -0.5762 -1.6299  0.4890
 5252SOL    HW227216   2.916   1.945   8.568  0.7080 -0.3546  0.1863
 5253SOL     OW27217   3.763   2.454   7.982  0.7245 -0.1408 -0.2437
 5253SOL    HW127218   3.832   2.478   7.919 -1.3747  1.6041 -1.8715
 5253SOL    HW227219   3.812   2.409   8.050  1.5872 -0.2407 -0.9244
 5254SOL     OW27220   3.368   4.031   5.430  0.4428  0.4301 -0.2921
 5254SOL    HW127221   3.380   3.937   5.419  0.7495  0.2335  1.7947
 5254SOL    HW227222   3.285   4.049   5.386  1.4560  1.8399 -1.6544
 5255SOL     OW27223   2.045   1.249   7.331 -0.6273 -0.3164  0.1290
 5255SOL    HW127224   2.129   1.204   7.319 -0.8136 -0.9869  1.3345
 5255SOL    HW227225   2.001   1.177   7.378 -0.0363  0.8726  2.5018
 5256SOL     OW27226   1.673   1.459   4.581  0.4695  0.0529 -0.7924
 5256SOL    HW127227   1.609   1.481   4.513 -0.7161 -1.1661 -0.0864
 5256SOL    HW227228   1.737   1.527   4.563  0.8375 -0.2856 -0.7567
 5257SOL     OW27229   3.230   0.546  16.359 -0.0992 -0.0357  0.4079
 5257SOL    HW127230   3.214   0.568  16.268  0.1225 -2.5230 -0.2363
 5257SOL    HW227231   3.215   0.452  16.346 -1.5492  0.1327  0.9262
 5258SOL     OW27232   3.253   3.074   4.358  0.4401 -0.1004  0.3813
 5258SOL    HW127233   3.160   3.051   4.368  0.7653 -0.9469  1.4649
 5258SOL    HW227234   3.299   3.017   4.420  2.9281  1.9280  0.3745
 5259SOL     OW27235   4.224   3.788   2.978  0.1488 -0.0357 -0.1167
 5259SOL    HW127236   4.265   3.808   3.062  1.6008  2.6761 -1.4861
 5259SOL    HW227237   4.206   3.697   3.003  0.5151  0.6217  2.4914
 5260SOL     OW27238   1.191   0.304  15.472 -0.2984  0.1535  0.7472
 5260SOL    HW127239   1.177   0.381  15.527  2.6794  1.4537 -0.3258
 5260SOL    HW227240   1.109   0.256  15.474 -0.6850  0.7503 -1.2982
 5261SOL     OW27241   3.650   3.930  11.251  0.0875 -1.1048  0.1051
 5261SOL    HW127242   3.729   3.983  11.240  0.8247 -2.7723 -2.9111
 5261SOL    HW227243   3.686   3.850  11.290 -0.3559 -0.7210  1.2847
 5262SOL     OW27244   1.617   3.706   8.651  0.3829 -0.6725 -0.2392
 5262SOL    HW127245   1.545   3.710   8.714 -0.4350  0.2500 -1.2306
 5262SOL    HW227246   1.608   3.621   8.609  0.6361 -1.0651  0.4996
 5263SOL     OW27247   2.997   3.832   2.984 -0.1857  0.1807  0.5288
 5263SOL    HW127248   3.022   3.753   2.937 -1.0372  0.3437 -0.1911
 5263SOL    HW227249   2.975   3.888   2.910  1.5711 -1.2756 -1.0851
 5264SOL     OW27250   4.591   3.470   2.253 -0.1788 -0.2104  0.1417
 5264SOL    HW127251   4.580   3.475   2.348 -1.8589 -2.4379  0.0530
 5264SOL    HW227252   4.608   3.559   2.222  2.4871 -0.2435  1.4617
 5265SOL     OW27253   1.829   3.838   6.311  0.1213 -0.1983  0.6635
 5265SOL    HW127254   1.793   3.924   6.290 -1.4805 -0.6290  1.6071
 5265SOL    HW227255   1.768   3.780   6.265 -2.4454  1.8193  1.5751
 5266SOL     OW27256   3.316   1.949   3.514 -0.1392  0.0242 -0.2111
 5266SOL    HW127257   3.267   1.895   3.453 -0.6424  1.1813 -0.8244
 5266SOL    HW227258   3.270   1.940   3.598 -0.9821  0.4387 -0.6278
 5267SOL     OW27259   3.436   0.530   5.655  0.1742 -0.1737  0.3955
 5267SOL    HW127260   3.427   0.564   5.744  0.2044 -1.0333  0.7251
 5267SOL    HW227261   3.358   0.475   5.652  0.5717 -0.6472 -1.2766
 5268SOL     OW27262   0.728   0.090   5.085  0.8721  0.2420  1.2644
 5268SOL    HW127263   0.665   0.144   5.037  1.3788 -1.0552 -0.8634
 5268SOL    HW227264   0.774   0.161   5.130 -0.0007 -0.3082  3.0518
 5269SOL     OW27265   1.887   3.381   6.256 -0.0873  0.0398  0.1520
 5269SOL    HW127266   1.848   3.306   6.301  0.9150 -0.7807 -0.3527
 5269SOL    HW227267   1.809   3.430   6.230 -0.0660  0.0899  0.1812
 5270SOL     OW27268   3.916   2.513   5.923  0.2098  0.1931  0.2535
 5270SOL    HW127269   3.982   2.514   5.854 -0.2868  0.2220 -0.2187
 5270SOL    HW227270   3.935   2.599   5.959  1.6694  0.6753 -1.7140
 5271SOL     OW27271   2.667   2.043   6.668 -0.9503 -0.3710 -0.3026
 5271SOL    HW127272   2.714   1.979   6.614 -0.1671  0.4686 -0.6184
 5271SOL    HW227273   2.670   1.996   6.751 -0.6783 -0.4864 -0.3762
 5272SOL     OW27274   2.907   3.903   9.036  0.8602 -0.3304  0.1232
 5272SOL    HW127275   2.930   3.847   8.962 -1.6097  1.2207 -1.8263
 5272SOL    HW227276   2.856   3.843   9.090  3.0022 -1.7380  0.5925
 5273SOL     OW27277   3.059   1.016   2.406 -0.2374 -0.3195 -0.4661
 5273SOL    HW127278   2.994   1.050   2.467  0.3690 -1.2017  0.6749
 5273SOL    HW227279   3.136   1.010   2.463  0.2824  0.5522 -1.0838
 5274SOL     OW27280   0.855   2.181   2.600  0.2511 -0.6433 -0.4487
 5274SOL    HW127281   0.851   2.089   2.627  3.2897 -0.3011  1.1964
 5274SOL    HW227282   0.765   2.194   2.569  0.0528  1.2322  0.9483
 5275SOL     OW27283   4.520   3.433   7.831  0.5517 -0.0803 -0.7138
 5275SOL    HW127284   4.474   3.491   7.892  1.4442 -1.5853  1.4173
 5275SOL    HW227285   4.448   3.406   7.775 -0.8178  3.1668 -0.5058
 5276SOL     OW27286   0.219   0.986  17.140 -0.0496  0.3870  1.0224
 5276SOL    HW127287   0.144   1.043  17.153 -0.0835  0.9093 -1.4769
 5276SOL    HW227288   0.269   0.990  17.221 -0.6390  0.2819  1.3896
 5277SOL     OW27289   3.559   3.053   6.648 -0.0274 -0.1364 -0.5992
 5277SOL    HW127290   3.570   3.038   6.554  1.1042  0.0221 -0.4904
 5277SOL    HW227291   3.645   3.084   6.678 -0.3291 -0.6026  0.7547
 5278SOL     OW27292   2.134   3.150   7.007  0.1501  0.0939  0.9685
 5278SOL    HW127293   2.125   3.103   6.924  1.3332 -0.8119  1.3512
 5278SOL    HW227294   2.191   3.222   6.980 -1.4010  1.2725  0.8773
 5279SOL     OW27295   3.418   3.678   2.852 -0.4487 -0.5543  0.0548
 5279SOL    HW127296   3.385   3.659   2.764  1.0630  1.7702 -1.0348
 5279SOL    HW227297   3.378   3.762   2.874  1.1452  0.4387 -0.8594
 5280SOL     OW27298   1.882   4.470   3.194  0.2051 -0.3917 -1.0321
 5280SOL    HW127299   1.956   4.410   3.187  0.3270 -0.3907  0.3070
 5280SOL    HW227300   1.844   4.448   3.109 -1.5906  3.1769 -1.1862
 5281SOL     OW27301   0.940   2.956   6.885  0.1747 -0.4717  0.4757
 5281SOL    HW127302   0.858   2.922   6.852 -0.2565  2.1805 -1.2321
 5281SOL    HW227303   0.910   3.033   6.934 -0.7331 -0.8068  0.4409
 5282SOL     OW27304   3.590   4.589   3.722 -0.0113  0.1723 -0.2385
 5282SOL    HW127305   3.537   4.539   3.785  0.3155  0.3360  0.1664
 5282SOL    HW227306   3.620   4.524   3.659  0.3243 -0.5739  0.6967
 5283SOL     OW27307   0.733   0.905   0.180 -0.0967  0.3469 -0.0590
 5283SOL    HW127308   0.745   0.859   0.097  0.5340 -2.0844  1.3674
 5283SOL    HW227309   0.779   0.986   0.159 -0.5390  0.2210 -1.5705
 5284SOL     OW27310   0.452   0.194   6.951  0.7234 -0.1836 -0.4030
 5284SOL    HW127311   0.405   0.127   6.902  0.4937 -0.3084 -0.0105
 5284SOL    HW227312   0.531   0.144   6.972  0.2914 -0.4411  0.5975
 5285SOL     OW27313   1.746   2.459   2.839  0.2448 -0.3067  0.1449
 5285SOL    HW127314   1.719   2.548   2.862 -1.6847 -0.7304 -0.4270
 5285SOL    HW227315   1.662   2.426   2.806  0.5158  0.5987 -1.4488
 5286SOL     OW27316   1.051   4.238   0.932 -0.0246 -0.4921  0.0891
 5286SOL    HW127317   1.001   4.303   0.884  0.6315 -0.9551 -1.2114
 5286SOL    HW227318   1.106   4.208   0.860  1.6778 -0.8400  1.5359
 5287SOL     OW27319   0.175   1.951   3.914 -0.4567  0.4405 -0.0492
 5287SOL    HW127320   0.236   1.993   3.975 -2.9188  0.3375  2.4551
 5287SOL    HW227321   0.140   2.026   3.866 -0.3959 -0.7088 -1.8826
 5288SOL     OW27322   1.668   1.845   2.729 -0.2846  0.3530 -0.0881
 5288SOL    HW127323   1.738   1.894   2.771 -1.5697 -0.6643  3.2827
 5288SOL    HW227324   1.690   1.757   2.759  0.1274 -0.6601 -3.3871
 5289SOL     OW27325   0.165   0.621   8.036 -0.1517 -0.5962 -0.6857
 5289SOL    HW127326   0.213   0.694   7.998 -0.6322  1.0869  1.8873
 5289SOL    HW227327   0.141   0.656   8.122 -2.3070 -0.3064 -1.3886
 5290SOL     OW27328   0.185   3.226   6.706  0.2309 -0.4641 -0.5526
 5290SOL    HW127329   0.228   3.141   6.714  0.1022 -0.5723 -0.9682
 5290SOL    HW227330   0.213   3.271   6.785 -0.2558  1.2694 -1.3516
 5291SOL     OW27331   1.138   0.287   4.194 -0.1589 -0.5133  0.4133
 5291SOL    HW127332   1.073   0.225   4.227 -1.4083 -1.0612 -3.0166
 5291SOL    HW227333   1.098   0.310   4.110  0.1486 -0.8841  0.1638
 5292SOL     OW27334   3.743   1.674  11.941  0.3753 -0.3531  0.0938
 5292SOL    HW127335   3.648   1.681  11.941  0.4116  0.1407 -0.1326
 5292SOL    HW227336   3.767   1.765  11.928 -0.0578 -0.4171 -1.2436
 5293SOL     OW27337   2.475   4.089  14.488  0.7983  0.3357  0.8104
 5293SOL    HW127338   2.402   4.150  14.478 -0.6312 -1.6055 -0.6415
 5293SOL    HW227339   2.505   4.114  14.575 -0.9511 -0.1284  1.5485
 5294SOL     OW27340   4.001   0.894   9.013  0.2094  1.1306  0.6618
 5294SOL    HW127341   4.068   0.868   8.950 -0.2938  1.3120  0.0603
 5294SOL    HW227342   3.931   0.830   9.001 -0.2726  1.8414 -0.2418
 5295SOL     OW27343   4.081   3.682   5.832 -0.5523  0.0048  0.5909
 5295SOL    HW127344   4.159   3.643   5.871  0.3638 -1.4657 -2.7236
 5295SOL    HW227345   4.113   3.696   5.743 -3.4164 -2.9267 -0.9081
 5296SOL     OW27346   3.644   1.144   2.432 -0.3745  0.9945 -0.7610
 5296SOL    HW127347   3.586   1.218   2.449 -0.8324  0.7748 -1.3355
 5296SOL    HW227348   3.626   1.124   2.340 -0.3450  1.1989 -0.8106
 5297SOL     OW27349   0.832   1.583   3.021  0.3900 -0.1229  0.6552
 5297SOL    HW127350   0.843   1.625   2.935 -0.6103  0.7350  0.9333
 5297SOL    HW227351   0.863   1.498   2.992  1.3008  0.2207  0.6271
 5298SOL     OW27352   0.705   2.497  10.943  0.0570 -0.4816 -0.4182
 5298SOL    HW127353   0.792   2.457  10.949  0.1571 -0.2620 -0.4038
 5298SOL    HW227354   0.719   2.549  10.863 -1.0143  0.3014 -0.1038
 5299SOL     OW27355   0.770   0.305  11.072 -0.3895 -0.1861  0.3160
 5299SOL    HW127356   0.825   0.321  10.995 -0.1152 -0.3822  0.4690
 5299SOL    HW227357   0.687   0.345  11.049  0.9546  2.3546 -0.0527
 5300SOL     OW27358   0.979   2.992  15.184 -0.1896 -0.0463  0.1444
 5300SOL    HW127359   1.028   2.954  15.257  1.5880  1.5829 -0.2157
 5300SOL    HW227360   0.897   3.012  15.230  0.6460  0.5941  1.3629
 5301SOL     OW27361   1.068   3.350  15.652 -0.1751  0.3717  0.3599
 5301SOL    HW127362   1.087   3.437  15.616  0.0625  0.5676  0.9707
 5301SOL    HW227363   1.129   3.311  15.590 -2.5736  0.4122 -2.0612
 5302SOL     OW27364   2.330   1.123   3.272  0.2439  0.1678  0.1758
 5302SOL    HW127365   2.244   1.125   3.229 -0.3247 -0.5510  1.2739
 5302SOL    HW227366   2.340   1.213   3.302 -0.7340  0.2290  0.3169
 5303SOL     OW27367   0.956   0.169   3.477 -0.6915  0.4766  0.2266
 5303SOL    HW127368   0.933   0.135   3.391 -0.9746  0.8564  0.1529
 5303SOL    HW227369   1.050   0.148   3.475 -0.7658  0.0882  0.6476
 5304SOL     OW27370   2.218   2.432   1.990  0.0196 -0.4783  0.3738
 5304SOL    HW127371   2.183   2.440   2.079 -2.7548 -3.4290 -0.4216
 5304SOL    HW227372   2.238   2.338   1.985  0.3353 -0.3349 -1.0741
 5305SOL     OW27373   2.802   1.916  12.297  0.2630  0.1883 -0.5822
 5305SOL    HW127374   2.868   1.949  12.236 -2.7082  3.1100 -2.2477
 5305SOL    HW227375   2.850   1.835  12.316 -1.7597 -0.3396  2.2172
 5306SOL     OW27376   3.841   1.860   7.232 -0.5007 -0.6048 -0.4106
 5306SOL    HW127377   3.924   1.890   7.271 -0.5041 -1.6121  0.3832
 5306SOL    HW227378   3.857   1.896   7.145 -0.3774 -1.8339 -0.8863
 5307SOL     OW27379   4.018   1.550   4.991 -0.2314 -0.1976  0.2425
 5307SOL    HW127380   4.091   1.600   5.026 -1.3465  1.7345 -0.1691
 5307SOL    HW227381   4.051   1.463   4.966  0.4374  0.1456 -0.0655
 5308SOL     OW27382   3.231   4.545  11.134 -0.0829 -0.0526 -0.0364
 5308SOL    HW127383   3.173   4.612  11.171 -1.0624 -0.8539 -0.1291
 5308SOL    HW227384   3.289   4.532  11.209  0.2268  0.5898 -0.1658
 5309SOL     OW27385   1.913   1.289  14.353 -0.2836 -0.3253  0.1833
 5309SOL    HW127386   1.994   1.245  14.326  0.4567  0.7689  0.6038
 5309SOL    HW227387   1.890   1.326  14.269  1.4284 -0.3745 -0.3072
 5310SOL     OW27388   1.813   1.158  11.831  0.8586  0.6987  0.5498
 5310SOL    HW127389   1.763   1.135  11.753  2.8301 -3.3129  0.4806
 5310SOL    HW227390   1.764   1.098  11.888 -0.2356  0.0414 -1.0841
 5311SOL     OW27391   1.080   1.407   2.588 -0.1235  0.6943 -0.6710
 5311SOL    HW127392   1.038   1.379   2.508  0.3717  0.3241 -0.7988
 5311SOL    HW227393   1.001   1.444   2.628 -0.4699 -0.2449 -0.5049
 5312SOL     OW27394   2.095   2.374  16.285 -0.4411  0.1037  0.5877
 5312SOL    HW127395   2.135   2.353  16.201  1.5059  0.6369  1.3645
 5312SOL    HW227396   2.161   2.438  16.313  0.1419 -0.7247  1.1313
 5313SOL     OW27397   3.933   1.019  16.263  0.3897 -0.0420  0.1194
 5313SOL    HW127398   3.848   1.020  16.306  0.1021  0.0423 -0.4647
 5313SOL    HW227399   3.970   1.107  16.257  1.2902 -0.3930  0.4706
 5314SOL     OW27400   2.615   4.254  16.291 -0.0369 -0.3163 -0.3966
 5314SOL    HW127401   2.648   4.165  16.309  0.8758 -0.0097 -0.5548
 5314SOL    HW227402   2.521   4.238  16.299  0.0600  0.2286  1.8527
 5315SOL     OW27403   2.984   1.756   2.611 -0.3022 -0.9840  0.2633
 5315SOL    HW127404   2.974   1.703   2.690  2.3975  0.2844  1.4265
 5315SOL    HW227405   3.001   1.842   2.647 -1.5588 -0.5896 -0.0628
 5316SOL     OW27406   0.259   1.243   3.892 -0.1433  0.5549 -0.2165
 5316SOL    HW127407   0.270   1.277   3.803  0.7113 -0.6956 -0.5934
 5316SOL    HW227408   0.265   1.317   3.952 -1.5589  1.0105 -0.6445
 5317SOL     OW27409   0.089   2.479   4.941  0.0406  0.0124 -0.4491
 5317SOL    HW127410   0.164   2.502   4.886  1.3181 -0.8313  0.9557
 5317SOL    HW227411   0.140   2.454   5.018 -1.6300  1.7628  1.2202
 5318SOL     OW27412   0.305   3.417   6.572  0.5912 -0.0535  0.1813
 5318SOL    HW127413   0.263   3.345   6.619 -0.4584 -0.9296 -2.0608
 5318SOL    HW227414   0.310   3.483   6.640 -2.8778  0.4662 -0.0567
 5319SOL     OW27415   2.289   3.802  16.308 -0.5994  0.1197 -0.3672
 5319SOL    HW127416   2.314   3.875  16.251  0.4885  0.8721  1.0589
 5319SOL    HW227417   2.272   3.742  16.235  1.6656 -1.9200  0.7591
 5320SOL     OW27418   3.565   0.615   9.320 -0.4133  0.1752  0.1155
 5320SOL    HW127419   3.538   0.663   9.399  0.7353 -0.5495  0.9497
 5320SOL    HW227420   3.658   0.639   9.317 -0.3182 -0.1921  0.2537
 5321SOL     OW27421   4.449   0.294   9.702  0.7342 -0.4311 -0.0879
 5321SOL    HW127422   4.505   0.230   9.745 -0.9135 -0.9403  1.2636
 5321SOL    HW227423   4.506   0.310   9.626 -1.9088 -1.6770 -2.3320
 5322SOL     OW27424   2.089   2.935  13.942 -0.3922  0.2853  0.4207
 5322SOL    HW127425   2.046   3.002  13.995 -3.6006 -1.4719  0.0272
 5322SOL    HW227426   2.182   2.955  13.945 -0.2670 -0.2254  0.0179
 5323SOL     OW27427   3.044   1.277   9.268 -0.0746 -0.8310  0.4164
 5323SOL    HW127428   3.086   1.196   9.237  2.9648  0.2821  1.6925
 5323SOL    HW227429   2.953   1.249   9.270 -0.0060 -1.1131 -0.1550
 5324SOL     OW27430   3.100   3.384  11.879  0.0921 -0.5882 -0.1109
 5324SOL    HW127431   3.106   3.310  11.939  0.8074  0.8298  1.5627
 5324SOL    HW227432   3.034   3.441  11.918  0.3097  0.8240 -1.8491
 5325SOL     OW27433   2.100   1.456  14.712 -0.2040  0.3314 -0.2618
 5325SOL    HW127434   2.179   1.485  14.668 -1.5620  1.8535 -1.6907
 5325SOL    HW227435   2.120   1.488  14.800  0.7438 -0.7286 -0.0906
 5326SOL     OW27436   4.119   0.916   4.026 -0.7088 -0.3357  0.9812
 5326SOL    HW127437   4.083   1.004   4.039 -1.4310 -0.5197  0.1831
 5326SOL    HW227438   4.206   0.941   3.994 -1.5216 -0.4688 -1.2804
 5327SOL     OW27439   1.934   3.309  15.304 -0.0303 -0.3211 -0.0877
 5327SOL    HW127440   1.915   3.277  15.392 -0.5832 -0.0792 -0.1184
 5327SOL    HW227441   2.026   3.338  15.310  0.1337 -1.1452  1.3237
 5328SOL     OW27442   0.517   1.921   0.823  0.2951 -0.3072 -0.3152
 5328SOL    HW127443   0.513   1.831   0.789 -2.3790  0.0477 -0.9372
 5328SOL    HW227444   0.609   1.940   0.804  1.0588 -1.9921  1.6495
 5329SOL     OW27445   4.680   4.441  17.601  0.5834 -0.5486 -0.9127
 5329SOL    HW127446   4.612   4.484  17.653  1.0493  0.4823 -1.1509
 5329SOL    HW227447   4.629   4.378  17.551 -1.5209  1.7081 -1.6116
 5330SOL     OW27448   2.280   3.678   9.244  0.0884  0.3601  0.4778
 5330SOL    HW127449   2.210   3.705   9.304 -0.3141 -1.2355  0.7268
 5330SOL    HW227450   2.347   3.746   9.247  0.7935 -0.2901 -0.9671
 5331SOL     OW27451   4.009   4.137   3.494  0.3807 -0.1409  0.1839
 5331SOL    HW127452   4.003   4.046   3.466  1.8151 -1.0749  2.9613
 5331SOL    HW227453   3.964   4.167   3.415 -1.7464  0.8039  1.7565
 5332SOL     OW27454   3.894   4.085   8.788 -0.2879 -0.7016  0.2953
 5332SOL    HW127455   3.946   4.090   8.868 -1.3673  0.4815  0.9179
 5332SOL    HW227456   3.810   4.118   8.821  0.8223  0.5409  1.8413
 5333SOL     OW27457   2.034   0.661   3.614  0.7468  0.6137  0.3374
 5333SOL    HW127458   2.114   0.612   3.635  0.6574  0.1357 -0.4657
 5333SOL    HW227459   2.020   0.710   3.695 -2.2151 -0.7774  0.6632
 5334SOL     OW27460   0.051   4.716   9.441  0.5157  0.0308  0.5541
 5334SOL    HW127461   0.045   0.005   9.346  0.1527  0.2963  0.6097
 5334SOL    HW227462   0.081   4.626   9.439  2.0609  0.5475  0.5534
 5335SOL     OW27463   3.197   1.344  15.559 -0.3131 -0.0673 -0.5763
 5335SOL    HW127464   3.170   1.435  15.552  0.0691  0.1813  1.1594
 5335SOL    HW227465   3.108   1.309  15.565 -0.4136  0.3167  0.1832
 5336SOL     OW27466   4.715   3.927   6.031 -0.3773 -0.3238  0.5628
 5336SOL    HW127467   0.064   3.988   6.045  0.5452 -0.9513 -1.5826
 5336SOL    HW227468   4.653   3.990   5.994  1.8350  2.1948  1.0800
 5337SOL     OW27469   3.963   1.918   6.985  0.4874 -0.0079 -0.1872
 5337SOL    HW127470   4.018   1.896   6.910  1.0965  1.4051 -0.1577
 5337SOL    HW227471   3.876   1.920   6.945  0.4158 -0.8157 -0.0703
 5338SOL     OW27472   4.168   3.729   8.391 -0.1601 -0.2363  0.3055
 5338SOL    HW127473   4.259   3.714   8.368 -0.5213 -0.4275 -0.9925
 5338SOL    HW227474   4.169   3.824   8.381  3.3573 -0.6048 -2.6236
 5339SOL     OW27475   2.041   1.396   7.962  1.2434 -0.0770  0.6686
 5339SOL    HW127476   2.020   1.302   7.963 -2.1238  0.6397 -0.6617
 5339SOL    HW227477   2.030   1.415   8.055 -1.0064  1.4562  0.0780
 5340SOL     OW27478   0.999   3.229   2.070 -0.2862  0.1215 -0.1174
 5340SOL    HW127479   0.984   3.300   2.133 -2.9494 -0.3654 -0.2007
 5340SOL    HW227480   1.094   3.223   2.070 -0.2417  0.8094  0.5150
 5341SOL     OW27481   3.599   4.109   9.886  0.1233 -0.1629 -0.4567
 5341SOL    HW127482   3.583   4.193   9.928  0.7268 -0.7617  0.9670
 5341SOL    HW227483   3.548   4.050   9.943  1.4421  1.2327  2.1366
 5342SOL     OW27484   1.076   0.106   5.669  0.4174 -0.2550 -0.0389
 5342SOL    HW127485   1.012   0.143   5.609 -0.0302  0.5074  0.9065
 5342SOL    HW227486   1.020   0.050   5.723 -0.9134  0.2201 -0.9461
 5343SOL     OW27487   1.969   1.461   4.205  0.3925 -0.4250 -0.1304
 5343SOL    HW127488   1.908   1.388   4.195 -0.5451  0.3810 -0.3045
 5343SOL    HW227489   2.046   1.423   4.248 -0.2953 -1.1904  0.4240
 5344SOL     OW27490   4.407   2.708   2.414 -0.9633  0.0583  0.0853
 5344SOL    HW127491   4.353   2.641   2.371 -2.1883  1.8399 -1.1292
 5344SOL    HW227492   4.354   2.733   2.489  0.6673  0.5964  1.0403
 5345SOL     OW27493   1.008   2.004  15.671  0.0445  0.0179 -0.4047
 5345SOL    HW127494   1.051   1.923  15.646  0.0671 -0.3986  1.0214
 5345SOL    HW227495   1.079   2.043  15.722  0.2668 -0.9345 -0.0037
 5346SOL     OW27496   3.261   1.969  15.303 -0.2685  0.4758  0.3220
 5346SOL    HW127497   3.289   2.007  15.220 -3.0862  0.8503 -0.4614
 5346SOL    HW227498   3.275   2.047  15.357  1.9996  0.9818 -0.9988
 5347SOL     OW27499   3.944   1.185   4.775 -0.0949 -0.1801  0.2920
 5347SOL    HW127500   3.987   1.260   4.816 -0.2690  0.5735 -0.9105
 5347SOL    HW227501   3.945   1.130   4.854  0.9290 -2.6917 -1.4811
 5348SOL     OW27502   1.953   0.186  14.533 -0.3138  0.3332  0.1168
 5348SOL    HW127503   1.968   0.218  14.622  2.5137 -0.9441  0.0883
 5348SOL    HW227504   1.858   0.175  14.529 -0.1720 -0.8374  0.0535
 5349SOL     OW27505   3.168   0.671   6.064 -0.1652 -0.9568  0.9072
 5349SOL    HW127506   3.230   0.661   5.991  0.6001  2.1386  1.1512
 5349SOL    HW227507   3.136   0.761   6.057 -0.9406 -1.3303 -0.3468
 5350SOL     OW27508   1.490   3.196   7.534 -0.0453 -0.0344  0.5267
 5350SOL    HW127509   1.567   3.215   7.480  0.7787  0.7479  1.9828
 5350SOL    HW227510   1.442   3.138   7.474  1.0591  0.7143 -1.0905
 5351SOL     OW27511   1.177   0.522  15.646  0.5816  0.2604 -0.6513
 5351SOL    HW127512   1.113   0.575  15.694 -2.2804 -2.8872 -0.9661
 5351SOL    HW227513   1.212   0.460  15.710 -1.4426 -0.6398 -0.4155
 5352SOL     OW27514   1.016   1.731   2.181 -0.9782  0.2336 -0.2473
 5352SOL    HW127515   1.035   1.757   2.091 -0.3831 -3.8942 -1.2970
 5352SOL    HW227516   1.095   1.683   2.207  0.2536  2.8427  0.8072
 5353SOL     OW27517   2.059   2.602  14.838  0.7587 -0.2114 -0.2055
 5353SOL    HW127518   2.025   2.512  14.840  0.7693 -0.1967  0.6895
 5353SOL    HW227519   2.051   2.610  14.933 -1.9803 -0.1217 -0.4377
 5354SOL     OW27520   3.165   0.063   3.537  0.0236 -0.3061 -0.3455
 5354SOL    HW127521   3.136   0.138   3.587 -1.9829 -1.2026 -0.1943
 5354SOL    HW227522   3.124   4.722   3.595 -0.6419  1.5651  1.2359
 5355SOL     OW27523   3.054   1.049  12.140 -0.3187 -0.1365  0.5527
 5355SOL    HW127524   2.966   1.012  12.152 -0.0514 -1.5438 -1.7473
 5355SOL    HW227525   3.056   1.052  12.044 -0.1702 -0.3111  0.5508
 5356SOL     OW27526   0.423   4.233   8.315  0.1084 -0.7288  0.3550
 5356SOL    HW127527   0.357   4.218   8.247  0.3492 -0.7483  0.1282
 5356SOL    HW227528   0.481   4.287   8.262 -1.5157  1.2416  0.5439
 5357SOL     OW27529   1.519   2.521   6.315 -0.4181 -0.3537 -0.6385
 5357SOL    HW127530   1.476   2.596   6.356  0.5318 -1.2925  2.1373
 5357SOL    HW227531   1.607   2.537   6.350  0.3502  0.2688 -2.8723
 5358SOL     OW27532   3.637   2.133   2.897  0.8537  0.5176 -0.2313
 5358SOL    HW127533   3.651   2.160   2.806  1.3171 -1.1718 -0.6677
 5358SOL    HW227534   3.590   2.050   2.892  2.4509 -0.3520 -0.5521
 5359SOL     OW27535   4.192   3.673  12.774 -0.2992 -0.1021  0.2845
 5359SOL    HW127536   4.177   3.699  12.865  0.4855 -1.9504  0.9500
 5359SOL    HW227537   4.104   3.699  12.745  0.6344  1.5109 -1.0683
 5360SOL     OW27538   3.805   1.562   2.319  0.1147 -0.1939 -0.4185
 5360SOL    HW127539   3.827   1.652   2.341  0.7902 -0.6500  0.7973
 5360SOL    HW227540   3.882   1.508   2.339  0.4715  0.4451 -0.0606
 5361SOL     OW27541   2.697   2.625   5.388 -0.5925 -0.0457 -0.2928
 5361SOL    HW127542   2.675   2.571   5.313 -0.5190 -1.0686  0.4202
 5361SOL    HW227543   2.756   2.562   5.430 -0.1412  2.0252  2.1611
 5362SOL     OW27544   0.802   1.957   2.324  0.2782 -0.0615 -0.0277
 5362SOL    HW127545   0.805   1.861   2.329 -1.4083 -0.1341 -0.4100
 5362SOL    HW227546   0.890   1.978   2.355  1.6297  0.0980 -4.0760
 5363SOL     OW27547   1.340   0.227   4.817  0.0935 -0.5040  0.0696
 5363SOL    HW127548   1.427   0.225   4.857  0.4118  1.6114 -0.4865
 5363SOL    HW227549   1.294   0.279   4.883 -3.0989 -3.6227  0.2674
 5364SOL     OW27550   4.288   0.066   6.503 -0.4101 -0.1530  0.1987
 5364SOL    HW127551   4.264   0.150   6.542 -0.4522  1.0717 -2.4879
 5364SOL    HW227552   4.230   0.005   6.549  0.6969 -1.1464  0.2616
 5365SOL     OW27553   2.960   3.395   3.450 -0.1159 -0.2241  0.0771
 5365SOL    HW127554   2.978   3.458   3.380  1.3702  0.5404  1.1753
 5365SOL    HW227555   2.878   3.356   3.420 -1.0393  1.1355  0.8084
 5366SOL     OW27556   0.491   3.583   8.132 -1.2441 -0.4609 -0.2484
 5366SOL    HW127557   0.498   3.578   8.037 -1.9835 -0.5968 -0.2980
 5366SOL    HW227558   0.574   3.617   8.166 -0.5657 -0.2669 -2.1143
 5367SOL     OW27559   0.278   3.994  11.948 -0.2761  0.7160  0.0419
 5367SOL    HW127560   0.215   4.065  11.961  0.6878  1.4841  0.5332
 5367SOL    HW227561   0.215   3.922  11.940  0.4696  0.0211  0.3802
 5368SOL     OW27562   3.912   1.010   7.133  0.7887 -1.1525 -0.1969
 5368SOL    HW127563   3.948   1.076   7.073  0.9003 -1.0424 -0.0069
 5368SOL    HW227564   3.967   0.937   7.104  2.3619  0.4839 -1.3604
 5369SOL     OW27565   0.594   1.647  10.512 -0.2246  0.5047  0.1062
 5369SOL    HW127566   0.561   1.717  10.567 -0.9393  0.5056 -0.3209
 5369SOL    HW227567   0.536   1.646  10.436 -2.3272  1.4667  1.6829
 5370SOL     OW27568   0.642   0.869   2.076 -0.6231  0.3782 -0.0643
 5370SOL    HW127569   0.609   0.922   2.004 -1.5566  0.4165  0.3917
 5370SOL    HW227570   0.650   0.938   2.142  1.8439  0.9179 -0.9205
 5371SOL     OW27571   4.223   0.189  14.319  0.1376  0.2513  0.1043
 5371SOL    HW127572   4.302   0.137  14.332  0.4878  0.7465 -0.0172
 5371SOL    HW227573   4.163   0.152  14.384 -0.6875  1.5740  0.1058
 5372SOL     OW27574   0.893   0.302   2.911 -0.2901 -0.1382  0.1111
 5372SOL    HW127575   0.850   0.323   2.828 -1.4194  1.5548  1.1216
 5372SOL    HW227576   0.979   0.284   2.875 -0.1948  0.2614  0.1373
 5373SOL     OW27577   2.524   1.245   7.676  0.0626 -1.3168 -0.1843
 5373SOL    HW127578   2.446   1.299   7.684  0.9012 -0.1710  0.2751
 5373SOL    HW227579   2.544   1.273   7.587 -1.5107 -1.9010 -0.7208
 5374SOL     OW27580   4.578   1.329   2.477 -0.2632  0.4013  0.0554
 5374SOL    HW127581   4.644   1.305   2.542  2.3065  1.5075 -2.1298
 5374SOL    HW227582   4.557   1.418   2.506  1.5641  0.5170  1.0337
 5375SOL     OW27583   2.707   3.241   3.470  0.5024 -0.1953  0.0569
 5375SOL    HW127584   2.664   3.307   3.416 -0.3682 -1.2402 -0.5305
 5375SOL    HW227585   2.634   3.194   3.510  0.8372 -1.1050 -0.3990
 5376SOL     OW27586   0.140   1.230  10.528  0.4779  1.3329 -0.3448
 5376SOL    HW127587   0.208   1.227  10.460  2.0290  2.8471  1.1531
 5376SOL    HW227588   0.189   1.269  10.601 -1.2356  0.1005  1.4486
 5377SOL     OW27589   1.171   4.462   8.507  0.4094  0.4393  0.1040
 5377SOL    HW127590   1.255   4.468   8.552  0.8533 -0.4488 -0.6210
 5377SOL    HW227591   1.174   4.375   8.468 -0.2324  0.3708  0.1958
 5378SOL     OW27592   1.343   4.105   2.860 -0.1919  0.0722  0.6346
 5378SOL    HW127593   1.398   4.107   2.781 -1.4062 -2.4064 -0.2746
 5378SOL    HW227594   1.307   4.194   2.863  0.0473  0.1754  0.4631
 5379SOL     OW27595   3.798   2.609   2.887 -0.2793  0.1302 -0.3776
 5379SOL    HW127596   3.744   2.685   2.864  0.2983  0.5087 -0.4774
 5379SOL    HW227597   3.733   2.542   2.867  0.5386 -1.6403  2.9726
 5380SOL     OW27598   4.447   2.054   1.221  0.0556  0.2633 -0.3200
 5380SOL    HW127599   4.400   2.118   1.274 -1.7906 -2.7358  1.6536
 5380SOL    HW227600   4.406   1.974   1.252  1.6861 -0.1254  0.8105
 5381SOL     OW27601   2.014   0.352   2.227  0.2259 -0.1691  0.4301
 5381SOL    HW127602   1.965   0.324   2.149 -0.2665  0.1397  0.6278
 5381SOL    HW227603   1.946   0.325   2.289 -0.0069 -1.1971 -0.2580
 5382SOL     OW27604   3.434   2.529   9.641 -0.1312  0.0424  0.2221
 5382SOL    HW127605   3.416   2.437   9.619 -0.2825  0.2646 -0.5795
 5382SOL    HW227606   3.517   2.557   9.603  0.3645  0.5140  1.6550
 5383SOL     OW27607   4.101   2.411   4.070  0.5315 -0.0751  0.3119
 5383SOL    HW127608   4.081   2.488   4.124 -2.2241  0.2452 -1.1232
 5383SOL    HW227609   4.164   2.364   4.123  0.3103 -0.2867  0.3874
 5384SOL     OW27610   0.885   1.321  10.077 -0.1891 -0.1837 -0.3591
 5384SOL    HW127611   0.838   1.266  10.014 -0.1678 -1.1230  0.4479
 5384SOL    HW227612   0.933   1.260  10.133  0.6440  0.7271 -0.0906
 5385SOL     OW27613   0.824   2.871   2.296 -0.0978  0.1528 -0.0803
 5385SOL    HW127614   0.789   2.959   2.281  1.6946  1.5798  4.1918
 5385SOL    HW227615   0.899   2.908   2.343  0.4678 -0.4846 -0.4954
 5386SOL     OW27616   2.390   1.183   4.375 -0.5767  0.0272 -0.0178
 5386SOL    HW127617   2.437   1.264   4.357 -2.1052  0.9277  0.0542
 5386SOL    HW227618   2.304   1.216   4.349 -0.2566  1.5207  0.7791
 5387SOL     OW27619   1.009   2.428  15.314  0.3140  0.3932  0.0095
 5387SOL    HW127620   0.962   2.356  15.355  0.1780  0.5963  0.2127
 5387SOL    HW227621   0.936   2.483  15.288  2.0949  2.7066 -0.1148
 5388SOL     OW27622   0.942   3.099   9.377 -0.2133  0.0703  0.8546
 5388SOL    HW127623   1.012   3.163   9.376  0.6445 -0.8512  1.7013
 5388SOL    HW227624   0.865   3.155   9.363 -1.1052 -1.1378  0.8836
 5389SOL     OW27625   4.491   3.892  14.828  0.3086  0.4315  0.2621
 5389SOL    HW127626   4.445   3.808  14.830 -0.4795  0.8324 -1.3842
 5389SOL    HW227627   4.441   3.953  14.775 -2.1722  1.1646  3.4431
 5390SOL     OW27628   0.365   1.248   8.341 -0.0299 -0.2716  0.0779
 5390SOL    HW127629   0.413   1.283   8.417  1.2279 -0.9586 -0.3993
 5390SOL    HW227630   0.414   1.251   8.259 -1.5839  0.9422 -0.8210
 5391SOL     OW27631   0.839   0.147   6.879 -0.0299  0.2013  0.4273
 5391SOL    HW127632   0.934   0.140   6.888 -0.1414 -2.3086 -0.3613
 5391SOL    HW227633   0.805   0.073   6.829  0.0513  1.0618 -0.8957
 5392SOL     OW27634   0.313   3.633   5.644 -0.0826  0.1325  0.0704
 5392SOL    HW127635   0.267   3.714   5.665 -0.6269  0.0216 -0.6963
 5392SOL    HW227636   0.339   3.606   5.732 -0.0039  1.2843  0.4030
 5393SOL     OW27637   2.081   0.633   8.152 -0.3343  0.0721 -0.6391
 5393SOL    HW127638   2.021   0.574   8.106 -1.2118  1.6875 -1.5433
 5393SOL    HW227639   2.105   0.575   8.224  1.7482  1.1812 -0.4115
 5394SOL     OW27640   3.640   0.026   0.535 -0.0230  0.1931 -0.1088
 5394SOL    HW127641   3.589   4.668   0.541  2.9923 -1.7113 -0.1682
 5394SOL    HW227642   3.577   0.087   0.496  0.1867  1.4018  1.4509
 5395SOL     OW27643   2.420   1.554   2.183  0.1158 -0.2474 -0.8715
 5395SOL    HW127644   2.448   1.528   2.271  0.0361 -0.4119 -0.8948
 5395SOL    HW227645   2.507   1.566   2.146  0.1629  0.4225 -0.5441
 5396SOL     OW27646   4.059   3.512   9.947  0.2211 -0.1745  0.3375
 5396SOL    HW127647   4.103   3.555  10.020  0.2796 -2.4939  1.6526
 5396SOL    HW227648   4.076   3.424   9.981  0.2957  0.2823  1.4910
 5397SOL     OW27649   3.928   2.392  13.775 -0.5248 -0.3136  0.1854
 5397SOL    HW127650   3.898   2.336  13.703 -0.3382 -1.4651  0.9993
 5397SOL    HW227651   3.932   2.481  13.740 -0.4264 -2.0084 -4.1015
 5398SOL     OW27652   3.599   1.715   6.771 -0.5091  0.1896 -0.7373
 5398SOL    HW127653   3.637   1.646   6.717  0.9614 -0.5925  1.2537
 5398SOL    HW227654   3.508   1.714   6.743 -0.9144  1.3705  0.5003
 5399SOL     OW27655   1.650   0.945   7.178  0.0185 -0.5627  0.2824
 5399SOL    HW127656   1.647   0.896   7.260  1.0408 -0.8936  0.1141
 5399SOL    HW227657   1.678   0.869   7.127  3.0148  1.2821 -0.8336
 5400SOL     OW27658   1.369   2.933   4.733  0.3734 -0.3800 -0.6890
 5400SOL    HW127659   1.403   2.927   4.822 -0.1098  2.1930 -0.3150
 5400SOL    HW227660   1.335   3.021   4.748 -1.4304 -0.8397 -2.0021
 5401SOL     OW27661   1.579   1.892   3.186 -0.4652  0.2442  0.3936
 5401SOL    HW127662   1.569   1.829   3.115  2.8052 -0.5485  0.6521
 5401SOL    HW227663   1.566   1.976   3.143 -1.6018  0.0588  0.3586
 5402SOL     OW27664   1.192   3.937  10.738 -0.6313  0.5937  0.3793
 5402SOL    HW127665   1.160   3.850  10.763  0.8986  0.4835  1.9260
 5402SOL    HW227666   1.184   3.931  10.643  1.4997  0.5092  0.2177
 5403SOL     OW27667   1.898   3.666  11.188 -0.2177  0.3377  0.9179
 5403SOL    HW127668   1.805   3.689  11.185 -0.0829  0.6250 -1.5376
 5403SOL    HW227669   1.917   3.634  11.276  1.5781  1.3626  0.9063
 5404SOL     OW27670   4.522   4.652   1.757  0.6015  0.3058  0.7668
 5404SOL    HW127671   4.439   4.613   1.729  0.8234 -1.2485  2.2521
 5404SOL    HW227672   4.493   4.713   1.825  0.6552  0.0423  1.0277
 5405SOL     OW27673   0.198   1.753   4.123 -0.3707  0.3343 -0.0914
 5405SOL    HW127674   0.278   1.714   4.088  0.3174  1.4288  0.2575
 5405SOL    HW227675   0.174   1.805   4.047  1.2055 -0.3924 -1.0793
 5406SOL     OW27676   1.119   0.006   2.482  0.2670  0.0786 -0.1708
 5406SOL    HW127677   1.128   0.101   2.482  0.9895  0.0038  2.5350
 5406SOL    HW227678   1.092   4.709   2.392  0.7726  0.9026 -0.5127
 5407SOL     OW27679   4.515   0.353   2.809  0.6259  0.4830  0.5569
 5407SOL    HW127680   4.498   0.445   2.788 -0.1911 -0.4635 -2.9553
 5407SOL    HW227681   4.434   0.306   2.792  2.4829 -2.8152  0.7962
 5408SOL     OW27682   4.698   3.083   4.609 -0.7941 -0.0288  0.5706
 5408SOL    HW127683   4.618   3.100   4.659 -0.5539  1.1228  0.5661
 5408SOL    HW227684   0.029   3.040   4.675 -0.9613 -0.9591  0.0959
 5409SOL     OW27685   0.751   1.578   4.857 -0.3450  0.1274  0.1797
 5409SOL    HW127686   0.731   1.489   4.883 -0.3835 -0.3321 -1.3814
 5409SOL    HW227687   0.834   1.557   4.814  0.0655 -0.1280  1.1216
 5410SOL     OW27688   3.578   1.594   3.436 -0.1277  0.5080  0.0642
 5410SOL    HW127689   3.580   1.689   3.444  2.7286  0.4429  0.2700
 5410SOL    HW227690   3.564   1.558   3.524  1.1978 -0.0012  0.0690
 5411SOL     OW27691   3.054   4.262   3.451 -0.4555  0.0296 -0.8486
 5411SOL    HW127692   3.149   4.247   3.455 -0.5001  0.2485  0.7924
 5411SOL    HW227693   3.012   4.178   3.467  0.1892 -0.0683  0.3155
 5412SOL     OW27694   0.639   3.940   1.461 -0.6328  0.1461  0.2788
 5412SOL    HW127695   0.707   3.963   1.398 -2.1008 -0.1222 -1.3773
 5412SOL    HW227696   0.594   3.874   1.408 -1.8970  0.0526  1.4700
 5413SOL     OW27697   4.043   3.781  10.675 -0.4783  0.1728  0.5250
 5413SOL    HW127698   4.136   3.794  10.658 -0.7718  0.9573 -0.5315
 5413SOL    HW227699   4.015   3.871  10.691 -0.1046  0.2379  0.8054
 5414SOL     OW27700   1.880   2.575   3.900 -0.6950  0.4983 -0.6124
 5414SOL    HW127701   1.802   2.530   3.934  0.3636 -0.1549  0.9823
 5414SOL    HW227702   1.885   2.661   3.942  0.6192 -0.4124  1.1372
 5415SOL     OW27703   0.242   0.183  15.500  0.1073  0.1306 -0.3202
 5415SOL    HW127704   0.309   0.161  15.564 -0.8937 -0.8152  0.3926
 5415SOL    HW227705   0.195   0.100  15.505 -1.1635  0.9608  1.4389
 5416SOL     OW27706   2.660   3.243  11.607  0.6108  0.3691  0.4577
 5416SOL    HW127707   2.734   3.249  11.667  0.3886 -2.1547  1.0031
 5416SOL    HW227708   2.696   3.178  11.547  1.7178  1.3625  0.0454
 5417SOL     OW27709   3.577   3.965  12.428 -0.1959  0.1074 -0.2160
 5417SOL    HW127710   3.602   4.057  12.439 -0.4875 -0.0542  1.7636
 5417SOL    HW227711   3.483   3.969  12.442 -0.4261 -1.1434 -1.4513
 5418SOL     OW27712   0.582   3.941   3.857  0.2901  0.5707  0.6830
 5418SOL    HW127713   0.509   3.911   3.911  1.4070 -1.9737  0.7843
 5418SOL    HW227714   0.549   4.027   3.831  0.8311  0.7887  0.7242
 5419SOL     OW27715   1.642   0.312  15.726 -0.1703 -0.2089  0.5404
 5419SOL    HW127716   1.642   0.386  15.787  1.0853  0.2187  0.0264
 5419SOL    HW227717   1.688   0.355  15.653  0.3933 -1.3885  0.1958
 5420SOL     OW27718   1.451   2.249  11.337 -0.4624 -0.1662 -0.0983
 5420SOL    HW127719   1.443   2.286  11.425 -1.3237  0.5713 -0.4928
 5420SOL    HW227720   1.358   2.247  11.315 -0.3652  2.0779 -0.6500
 5421SOL     OW27721   4.338   2.939   7.817 -0.1844 -0.1842  0.4978
 5421SOL    HW127722   4.279   2.871   7.786 -0.6364  0.3865  0.1039
 5421SOL    HW227723   4.358   2.911   7.907 -0.1109  1.2052  0.9194
 5422SOL     OW27724   4.194   3.178   7.535  0.3457  0.1528 -0.1957
 5422SOL    HW127725   4.265   3.171   7.600  1.8695 -2.5776 -2.1320
 5422SOL    HW227726   4.185   3.086   7.510  2.1080 -0.1049  0.0733
 5423SOL     OW27727   1.759   2.252   6.218 -0.2146  0.5726 -0.0311
 5423SOL    HW127728   1.777   2.273   6.126  0.4812  0.4854  0.0848
 5423SOL    HW227729   1.793   2.332   6.258  0.7763  0.3554 -0.4419
 5424SOL     OW27730   2.493   1.812   5.946  0.2780  0.5159  0.1284
 5424SOL    HW127731   2.435   1.885   5.968 -2.4215 -1.0002 -1.9496
 5424SOL    HW227732   2.578   1.855   5.952  0.7725 -0.1531 -1.9809
 5425SOL     OW27733   4.131   1.472   8.056  0.4768  0.6726 -0.2996
 5425SOL    HW127734   4.196   1.512   7.997 -0.5420  0.5530 -1.4927
 5425SOL    HW227735   4.171   1.385   8.052  0.0372  0.3440  2.9905
 5426SOL     OW27736   0.293   1.995   0.402  0.2121 -0.1988  0.0786
 5426SOL    HW127737   0.348   1.956   0.334  1.4143  1.9199 -0.1633
 5426SOL    HW227738   0.224   2.020   0.341  0.6264 -0.1217 -0.3535
 5427SOL     OW27739   3.299   0.257  10.634  0.3092  0.1533 -0.1349
 5427SOL    HW127740   3.390   0.231  10.616  0.1187 -0.8254  0.3331
 5427SOL    HW227741   3.298   0.345  10.597 -0.1842 -0.7747 -2.2910
 5428SOL     OW27742   2.108   3.935   0.215 -0.3399  0.1717 -0.4099
 5428SOL    HW127743   2.084   3.883   0.138 -0.3496 -0.3252 -0.0717
 5428SOL    HW227744   2.115   4.024   0.179  4.3571  0.0364  0.1731
 5429SOL     OW27745   3.773   0.447   4.367  0.1518  0.3277  0.1500
 5429SOL    HW127746   3.812   0.503   4.434  0.3435  0.4433 -0.0564
 5429SOL    HW227747   3.681   0.474   4.366  0.9140  2.9811  0.9541
 5430SOL     OW27748   0.608   3.658   1.339  0.1326 -0.2218  0.5774
 5430SOL    HW127749   0.581   3.632   1.252  0.2364  0.6217  0.2887
 5430SOL    HW227750   0.701   3.634   1.340 -0.5033 -2.6340  0.5516
 5431SOL     OW27751   1.594   1.175   2.615 -0.4766  0.4711  0.2421
 5431SOL    HW127752   1.686   1.201   2.616 -0.9953  2.3354 -0.4554
 5431SOL    HW227753   1.569   1.178   2.707 -0.5721 -0.0406  0.2320
 5432SOL     OW27754   1.973   3.314  11.072 -0.1831 -0.1485 -0.3658
 5432SOL    HW127755   2.009   3.389  11.119 -0.5760  1.0011 -1.9267
 5432SOL    HW227756   1.964   3.238  11.130 -0.9508 -0.1469 -0.4829
 5433SOL     OW27757   0.532   2.233  11.291 -0.4239  0.3390  0.4052
 5433SOL    HW127758   0.502   2.267  11.375  1.0203  1.9405  0.2809
 5433SOL    HW227759   0.473   2.159  11.279 -0.5328  0.7416 -1.5711
 5434SOL     OW27760   3.733   2.271   3.595 -0.3881  0.5544  0.0604
 5434SOL    HW127761   3.783   2.254   3.515 -2.3458  0.5439 -1.1540
 5434SOL    HW227762   3.738   2.367   3.598 -0.8858  0.5893 -0.2605
 5435SOL     OW27763   1.465   3.246   0.724  0.4295  0.9012  0.1833
 5435SOL    HW127764   1.393   3.206   0.772 -0.0266  2.8550  1.1349
 5435SOL    HW227765   1.477   3.322   0.782  0.0065  0.7008  0.5247
 5436SOL     OW27766   2.778   0.129   4.061 -0.4859 -0.6813 -0.4703
 5436SOL    HW127767   2.851   0.162   4.010 -0.9667 -0.7383 -1.1899
 5436SOL    HW227768   2.822   0.105   4.143 -0.3063 -1.0231 -0.6696
 5437SOL     OW27769   3.118   2.601  11.662 -0.1836  0.0155  0.1292
 5437SOL    HW127770   3.064   2.587  11.740 -0.0596  1.8563  0.5433
 5437SOL    HW227771   3.196   2.651  11.687  1.8798 -3.7891  1.2308
 5438SOL     OW27772   3.402   4.442   4.275  0.1887  0.3836 -0.0132
 5438SOL    HW127773   3.407   4.348   4.258  0.3888  0.5127 -0.6338
 5438SOL    HW227774   3.425   4.442   4.368  0.5119  0.0717 -0.0941
 5439SOL     OW27775   0.313   0.361   5.414  0.1277  0.3745 -0.2365
 5439SOL    HW127776   0.257   0.284   5.406  0.0120  0.1663  2.6415
 5439SOL    HW227777   0.313   0.393   5.324  1.3315  0.2742 -0.2700
 5440SOL     OW27778   1.556   2.228   3.993  0.1463  0.0012 -0.1440
 5440SOL    HW127779   1.512   2.194   3.915 -1.7760  0.1666  0.8650
 5440SOL    HW227780   1.614   2.159   4.027  0.9295  1.2200  0.9671
 5441SOL     OW27781   3.159   0.060  11.993  0.3344  0.4368  0.6200
 5441SOL    HW127782   3.068   0.067  11.966  0.4877 -0.2287 -0.0548
 5441SOL    HW227783   3.161   4.694  12.029  2.5491 -1.0407 -3.2314
 5442SOL     OW27784   2.877   0.206   7.335 -0.5387  0.3657  0.8834
 5442SOL    HW127785   2.878   0.202   7.431 -1.7933 -0.8273  0.8465
 5442SOL    HW227786   2.818   0.132   7.322 -0.4631  0.3980  0.3487
 5443SOL     OW27787   3.691   0.589   3.915  0.1008 -0.1659 -0.1002
 5443SOL    HW127788   3.756   0.556   3.852 -0.3184 -1.0493 -0.0717
 5443SOL    HW227789   3.745   0.595   3.994  0.0661  1.5536 -0.2029
 5444SOL     OW27790   2.872   2.584   8.750  0.2511 -0.2653  0.1740
 5444SOL    HW127791   2.883   2.508   8.692 -1.2337 -0.5336  0.2358
 5444SOL    HW227792   2.891   2.663   8.700 -0.0506  0.5872  1.4082
 5445SOL     OW27793   1.074   3.379  11.529  0.0319  0.2424  0.9969
 5445SOL    HW127794   1.043   3.367  11.619 -1.2495  1.4577  0.7268
 5445SOL    HW227795   1.142   3.313  11.519  0.1992  0.5618  0.0161
 5446SOL     OW27796   2.719   0.786   1.790 -0.2264  0.1170  0.2124
 5446SOL    HW127797   2.782   0.747   1.850 -0.8362 -1.5041 -0.1890
 5446SOL    HW227798   2.705   0.875   1.822 -0.1745 -0.6825  2.4688
 5447SOL     OW27799   4.305   4.612   5.005  0.1938 -0.3926 -0.1634
 5447SOL    HW127800   4.216   4.640   4.986 -0.3247 -1.4112  0.7883
 5447SOL    HW227801   4.363   4.675   4.962  0.2423  0.0924  0.6096
 5448SOL     OW27802   0.592   0.197  15.447 -0.7285  0.0076 -0.2669
 5448SOL    HW127803   0.514   0.186  15.392 -0.0365  0.2162 -1.2931
 5448SOL    HW227804   0.560   0.184  15.536 -2.4161  1.3953 -0.6607
 5449SOL     OW27805   1.896   3.938  10.887 -0.4799  0.2347  0.2018
 5449SOL    HW127806   1.811   3.968  10.920 -1.1610 -0.6377 -0.7661
 5449SOL    HW227807   1.889   3.850  10.851 -1.2701  0.6518 -0.6536
 5450SOL     OW27808   1.491   2.951   9.406  0.2153  0.0965  0.1644
 5450SOL    HW127809   1.562   3.012   9.387  1.5858 -0.8023  2.3724
 5450SOL    HW227810   1.519   2.916   9.491  0.0521 -4.5961 -1.6971
 5451SOL     OW27811   0.920   4.095   4.114  0.5235  0.5014 -0.2751
 5451SOL    HW127812   0.826   4.112   4.107  0.2719 -1.8463 -2.6795
 5451SOL    HW227813   0.944   4.121   4.025  1.6725  3.4029  0.8775
 5452SOL     OW27814   1.429   4.288   6.572  0.2375  0.1381 -0.6033
 5452SOL    HW127815   1.405   4.195   6.570 -0.3539  0.2574  1.7176
 5452SOL    HW227816   1.375   4.313   6.496  0.7932 -0.3260 -1.1549
 5453SOL     OW27817   4.588   2.506   2.911  0.5240  0.6241 -0.7068
 5453SOL    HW127818   4.577   2.411   2.912 -0.6945  0.7940  2.0677
 5453SOL    HW227819   4.672   2.502   2.865  1.0839 -2.5653  0.5731
 5454SOL     OW27820   4.058   0.188   9.462  0.5454  0.2674 -0.0983
 5454SOL    HW127821   4.119   0.193   9.389  2.8782 -0.6187  1.8164
 5454SOL    HW227822   3.986   0.137   9.424  1.0689 -1.2910  0.9851
 5455SOL     OW27823   3.041   4.131   9.626 -0.2192 -0.3286 -0.1135
 5455SOL    HW127824   3.043   4.164   9.536  0.2821  2.9825  1.1050
 5455SOL    HW227825   3.127   4.089   9.623 -1.1955 -2.4919  2.4488
 5456SOL     OW27826   1.690   4.152   6.103 -0.6106 -0.4281  0.1095
 5456SOL    HW127827   1.724   4.231   6.062 -1.5591  0.1099  0.3672
 5456SOL    HW227828   1.735   4.145   6.187 -0.5028  0.8664  0.1558
 5457SOL     OW27829   0.105   2.549   7.265  0.2378 -0.2805 -0.3136
 5457SOL    HW127830   0.093   2.593   7.349  2.2785  2.2462 -1.3469
 5457SOL    HW227831   0.173   2.483   7.277 -0.9444 -1.2162  1.1970
 5458SOL     OW27832   2.310   1.033  10.643  0.1176 -0.0872  0.9067
 5458SOL    HW127833   2.364   0.962  10.677  1.4463  0.4443 -0.0950
 5458SOL    HW227834   2.307   1.090  10.720  0.0014  0.4929  0.4728
 5459SOL     OW27835   0.430   4.165   2.791 -0.0360  0.2793  0.5116
 5459SOL    HW127836   0.475   4.249   2.798  0.0556  0.4112 -1.7370
 5459SOL    HW227837   0.501   4.109   2.759  1.8154  2.2035  1.2321
 5460SOL     OW27838   4.635   1.416   3.834 -0.0277 -0.3347  0.1960
 5460SOL    HW127839   4.667   1.411   3.924  0.1860 -0.7963  0.0958
 5460SOL    HW227840   4.664   1.330   3.803  0.7298 -0.4051  1.1003
 5461SOL     OW27841   2.829   4.225   9.327  0.1673  0.2586 -0.3199
 5461SOL    HW127842   2.747   4.270   9.348  0.6930  1.4223 -0.7664
 5461SOL    HW227843   2.804   4.135   9.345 -0.7400  0.9650  1.9357
 5462SOL     OW27844   3.652   0.675   7.592 -0.7849 -0.2223  0.0370
 5462SOL    HW127845   3.558   0.663   7.585 -0.3199 -2.9692 -1.2604
 5462SOL    HW227846   3.689   0.589   7.576 -1.8425 -0.2112 -2.3935
 5463SOL     OW27847   4.353   1.952   7.355 -0.5698  0.1996 -0.3247
 5463SOL    HW127848   4.404   1.874   7.335  0.2672  1.1178 -1.7627
 5463SOL    HW227849   4.277   1.952   7.297 -1.4108 -0.7260  0.7633
 5464SOL     OW27850   3.590   4.258   2.246  0.7479 -0.8894 -0.7326
 5464SOL    HW127851   3.583   4.327   2.312 -1.2925  0.0075 -1.8699
 5464SOL    HW227852   3.577   4.186   2.308 -1.3793 -0.0529 -0.1914
 5465SOL     OW27853   1.437   0.826   3.823 -0.3203 -0.3716 -0.5956
 5465SOL    HW127854   1.387   0.812   3.903 -1.6733  0.7940 -1.2383
 5465SOL    HW227855   1.437   0.737   3.787  0.8651 -0.8330  0.5173
 5466SOL     OW27856   4.026   4.644   9.689  0.4281 -0.7686 -0.3603
 5466SOL    HW127857   4.109   4.638   9.736 -0.1639 -1.6157  0.5642
 5466SOL    HW227858   3.969   4.578   9.726 -1.5785  1.0844 -0.1511
 5467SOL     OW27859   3.229   1.052   6.043 -0.6129  0.3571  0.7296
 5467SOL    HW127860   3.215   1.080   6.133  0.0204 -2.3691  1.6447
 5467SOL    HW227861   3.312   1.005   6.045  0.4578  2.2466  0.6229
 5468SOL     OW27862   3.490   4.183  14.415 -0.5644  0.0710 -0.6273
 5468SOL    HW127863   3.527   4.239  14.346  3.3429 -1.2104  0.4213
 5468SOL    HW227864   3.482   4.103  14.364 -0.0297  0.1166 -0.7904
 5469SOL     OW27865   0.861   1.161  17.274  0.5052  0.6364  0.6190
 5469SOL    HW127866   0.853   1.239  17.330  0.2182  0.9125  0.1916
 5469SOL    HW227867   0.776   1.150  17.232  0.2949 -0.1086  1.2396
 5470SOL     OW27868   2.539   2.713   4.919  0.7088  0.0545  0.2524
 5470SOL    HW127869   2.465   2.655   4.900 -1.6991  3.5814 -1.1915
 5470SOL    HW227870   2.512   2.758   4.999  1.4874  2.9413 -1.1138
 5471SOL     OW27871   1.665   4.574   5.692 -0.3505 -0.3056  0.0507
 5471SOL    HW127872   1.655   4.662   5.655  2.3925 -0.8722 -2.0681
 5471SOL    HW227873   1.571   4.562   5.705 -0.4669 -0.1793 -0.6608
 5472SOL     OW27874   3.344   3.672   7.839  0.0494 -0.5731 -0.4355
 5472SOL    HW127875   3.323   3.604   7.903  0.3648  0.7992  1.1381
 5472SOL    HW227876   3.387   3.618   7.773 -1.2618  0.8449 -2.4515
 5473SOL     OW27877   2.956   2.442   9.238  0.3136  0.3329 -0.2848
 5473SOL    HW127878   2.886   2.502   9.265 -0.1969  0.3109 -1.5389
 5473SOL    HW227879   2.965   2.379   9.309 -1.1220  1.7113  1.1413
 5474SOL     OW27880   2.570   3.757  11.825  0.0244 -0.2129 -0.2211
 5474SOL    HW127881   2.486   3.767  11.781  0.2512  2.5364 -0.0392
 5474SOL    HW227882   2.587   3.668  11.795 -0.9529 -0.9310  1.3777
 5475SOL     OW27883   0.887   3.593   2.257 -0.1333  0.4865 -0.2102
 5475SOL    HW127884   0.801   3.554   2.242  0.5383  0.0622 -2.7887
 5475SOL    HW227885   0.899   3.585   2.352  0.1993 -2.8357 -0.5490
 5476SOL     OW27886   0.080   2.099   7.305  0.1527  0.4980  0.2199
 5476SOL    HW127887   0.055   2.130   7.392 -2.2376  0.5280 -0.4666
 5476SOL    HW227888   0.133   2.024   7.331  0.3485 -0.1394 -2.0167
 5477SOL     OW27889   2.459   2.936   8.780 -0.2764  0.5040  0.1114
 5477SOL    HW127890   2.378   2.886   8.776 -0.6127  0.9861  0.8881
 5477SOL    HW227891   2.452   2.966   8.871 -0.2526 -0.6739  0.5107
 5478SOL     OW27892   3.943   2.693   3.660  0.1136 -0.5271  0.2415
 5478SOL    HW127893   3.932   2.661   3.750  1.1438 -3.1087 -0.5428
 5478SOL    HW227894   4.013   2.641   3.620  0.8551 -0.7207  1.7885
 5479SOL     OW27895   3.887   2.722   2.286  0.3647 -0.4633  0.5519
 5479SOL    HW127896   3.824   2.650   2.283 -0.6423  0.4365  0.0303
 5479SOL    HW227897   3.822   2.793   2.285  0.5687 -0.2734  0.7554
 5480SOL     OW27898   1.811   0.749   4.310 -0.1987  0.7828 -0.3544
 5480SOL    HW127899   1.734   0.692   4.306  0.4762 -0.2286  0.8801
 5480SOL    HW227900   1.884   0.687   4.304  0.5214  1.7407 -1.7196
 5481SOL     OW27901   1.671   0.451   5.123  0.0217 -0.0702  0.1840
 5481SOL    HW127902   1.730   0.382   5.154 -2.6517 -1.4181  2.3761
 5481SOL    HW227903   1.634   0.400   5.051 -1.5790  3.3458 -1.3976
 5482SOL     OW27904   2.529   4.258   5.014  0.4113 -0.0668  0.1610
 5482SOL    HW127905   2.522   4.331   5.076 -2.2682 -0.8106  0.7690
 5482SOL    HW227906   2.575   4.190   5.063  1.8779  1.4579  0.8900
 5483SOL     OW27907   1.927   0.092   8.836 -0.1020 -0.1629  0.1443
 5483SOL    HW127908   1.924   0.079   8.931 -1.8143  1.6817  0.3247
 5483SOL    HW227909   1.985   0.166   8.820  0.8545 -0.9221  0.1077
 5484SOL     OW27910   0.878   1.404   4.400  0.3326 -0.0144 -0.2445
 5484SOL    HW127911   0.804   1.438   4.449  0.7050 -1.2200  1.1517
 5484SOL    HW227912   0.941   1.382   4.469 -1.2167 -2.0645  0.5113
 5485SOL     OW27913   3.111   1.282   4.208 -0.0714 -0.0364 -0.2939
 5485SOL    HW127914   3.026   1.239   4.207  1.0930 -2.4115  0.2748
 5485SOL    HW227915   3.088   1.356   4.152 -0.9644 -0.3096 -0.2826
 5486SOL     OW27916   1.715   4.694   4.285  0.1409 -0.3478 -0.1654
 5486SOL    HW127917   1.671   4.679   4.369 -1.8777  1.7110 -0.8744
 5486SOL    HW227918   1.786   0.024   4.322  0.1334 -1.7869  1.8807
 5487SOL     OW27919   2.678   0.817   6.375 -0.7612 -0.3459 -0.2542
 5487SOL    HW127920   2.603   0.762   6.397  1.1915 -3.0563 -0.2824
 5487SOL    HW227921   2.736   0.786   6.445 -0.3990 -1.6170 -1.1055
 5488SOL     OW27922   2.063   2.653   1.517  0.1251  0.0924  0.0037
 5488SOL    HW127923   2.098   2.566   1.537  1.5809  0.6104 -0.2539
 5488SOL    HW227924   2.140   2.703   1.543  0.8152 -0.2403 -1.3674
 5489SOL     OW27925   1.546   2.337   3.341  0.1765  0.0590  0.3829
 5489SOL    HW127926   1.508   2.363   3.257  2.6635  1.1541 -0.3841
 5489SOL    HW227927   1.534   2.418   3.391  0.5457  1.4347 -1.7656
 5490SOL     OW27928   2.357   1.880   2.243  0.2062  0.5722  0.6156
 5490SOL    HW127929   2.411   1.854   2.318 -0.8024  2.0345  1.8478
 5490SOL    HW227930   2.425   1.938   2.207  0.1189  0.8454  0.8910
 5491SOL     OW27931   1.171   3.989  15.216  0.5552 -0.1411  0.1274
 5491SOL    HW127932   1.125   4.045  15.153 -0.4257  1.3721  2.1687
 5491SOL    HW227933   1.205   3.908  15.178  0.6901 -0.4672  0.9296
 5492SOL     OW27934   4.194   0.536  10.486  0.4842 -0.0166 -0.2550
 5492SOL    HW127935   4.220   0.497  10.570 -0.8814 -0.8014 -0.1951
 5492SOL    HW227936   4.260   0.497  10.428  0.2893 -0.6252 -0.0747
 5493SOL     OW27937   1.891   3.322   7.027  0.0225 -0.3175 -0.2397
 5493SOL    HW127938   1.951   3.248   7.038 -1.7248 -1.0102  4.3571
 5493SOL    HW227939   1.810   3.294   7.070  1.2870 -2.7064  0.6151
 5494SOL     OW27940   4.428   4.323   1.769 -0.1134 -0.3619 -0.8559
 5494SOL    HW127941   4.339   4.348   1.796 -0.8291 -2.7860 -0.9750
 5494SOL    HW227942   4.419   4.245   1.714  2.1491 -0.6686 -0.7888
 5495SOL     OW27943   0.865   1.880   5.159 -0.2154  0.2614 -0.1226
 5495SOL    HW127944   0.921   1.848   5.229 -0.4264  1.3981  0.5668
 5495SOL    HW227945   0.855   1.970   5.192 -2.0261  0.2360 -0.5953
 5496SOL     OW27946   0.135   1.798  13.631 -0.2164 -0.6199 -0.3740
 5496SOL    HW127947   0.054   1.774  13.676  1.0280 -2.0470  1.1116
 5496SOL    HW227948   0.165   1.862  13.695  1.4457  0.5430 -2.3384
 5497SOL     OW27949   2.950   2.952   3.724  0.4350  0.0121  0.1530
 5497SOL    HW127950   3.041   2.971   3.702  0.4741 -1.7615 -1.2325
 5497SOL    HW227951   2.922   2.881   3.666 -1.4953  0.7238  0.2385
 5498SOL     OW27952   2.636   0.564   3.238 -0.2162  0.2101 -0.0870
 5498SOL    HW127953   2.631   0.549   3.143 -0.2762 -2.0198  0.2667
 5498SOL    HW227954   2.723   0.526   3.254 -0.9910 -1.5905 -0.1279
 5499SOL     OW27955   4.282   2.952   6.100 -0.5583  0.0497 -0.2281
 5499SOL    HW127956   4.253   2.987   6.185  0.5446 -1.7637  0.8999
 5499SOL    HW227957   4.302   3.034   6.056  1.0072 -0.7760 -1.0827
 5500SOL     OW27958   3.512   3.047   3.217 -0.3100  0.2701  0.2842
 5500SOL    HW127959   3.576   3.043   3.287 -1.3761 -0.0735  1.2480
 5500SOL    HW227960   3.482   3.138   3.218 -1.8857 -0.2033 -2.1579
 5501SOL     OW27961   1.668   0.122  15.256  0.4783  0.1297  0.2313
 5501SOL    HW127962   1.646   0.205  15.213  0.3024  0.2866  0.6259
 5501SOL    HW227963   1.594   0.118  15.316  0.5167 -0.7943  0.2134
 5502SOL     OW27964   1.777   4.660   9.636  0.8103  0.2363 -0.3932
 5502SOL    HW127965   1.709   4.692   9.577 -0.0973 -0.5976  0.2052
 5502SOL    HW227966   1.789   0.019   9.684  1.1746  0.7019 -1.2890
 5503SOL     OW27967   4.347   1.695   9.079  0.2703  0.2777 -0.1316
 5503SOL    HW127968   4.319   1.684   9.170 -0.5109  0.2560 -0.3770
 5503SOL    HW227969   4.407   1.766   9.103 -0.0770  1.0208 -1.4611
 5504SOL     OW27970   4.074   0.660   4.013 -0.1015 -0.8455  0.2345
 5504SOL    HW127971   3.980   0.655   4.030 -0.8020  1.4486 -2.9050
 5504SOL    HW227972   4.089   0.754   4.011 -1.9305 -0.5999 -2.8457
 5505SOL     OW27973   2.764   1.784  17.013 -0.8560 -0.0598  0.3323
 5505SOL    HW127974   2.815   1.756  16.937 -0.6139 -2.3567  1.3498
 5505SOL    HW227975   2.710   1.841  16.958 -0.8342 -0.2090  0.1524
 5506SOL     OW27976   2.699   2.000   5.943  0.2542  0.5958  0.2380
 5506SOL    HW127977   2.706   2.045   6.027  1.8734  2.9195 -1.1164
 5506SOL    HW227978   2.758   2.062   5.900  1.4254 -0.3938  0.4207
 5507SOL     OW27979   0.870   2.875   8.217 -0.0865  0.2726 -0.0138
 5507SOL    HW127980   0.838   2.794   8.178 -0.7322  0.2152  0.6536
 5507SOL    HW227981   0.907   2.918   8.139  0.6954  1.9789  1.2783
 5508SOL     OW27982   0.430   3.967   6.340  0.6644  0.1656  0.3524
 5508SOL    HW127983   0.446   4.062   6.342  2.9592 -0.1517 -3.6219
 5508SOL    HW227984   0.405   3.955   6.249 -0.1491 -1.0010  0.7385
 5509SOL     OW27985   0.503   2.700   2.842 -0.0874 -0.0059  0.4578
 5509SOL    HW127986   0.594   2.695   2.871  0.1609 -0.6341 -0.4388
 5509SOL    HW227987   0.486   2.794   2.851  0.5439 -0.0388  1.9698
 5510SOL     OW27988   3.890   0.287   2.106  0.3181  0.3470  0.0172
 5510SOL    HW127989   3.927   0.269   2.019  1.4455  1.1236  0.3315
 5510SOL    HW227990   3.833   0.210   2.104 -1.4080  1.6783 -1.6584
 5511SOL     OW27991   3.307   4.196   8.927  0.3558 -0.7935  0.3359
 5511SOL    HW127992   3.329   4.238   9.010 -1.9318  1.1121 -0.0277
 5511SOL    HW227993   3.392   4.166   8.897 -0.2511 -1.9537 -0.2258
 5512SOL     OW27994   1.952   4.326   0.416  0.2743 -0.1895 -0.2575
 5512SOL    HW127995   2.044   4.340   0.437 -0.1630  1.1592  0.7602
 5512SOL    HW227996   1.951   4.337   0.321 -0.7853  0.4143 -0.1834
 5513SOL     OW27997   3.470   1.909   6.439  0.2955 -0.0448  0.2419
 5513SOL    HW127998   3.439   1.832   6.485 -2.3420  0.3850 -0.7480
 5513SOL    HW227999   3.449   1.979   6.501 -2.5733  0.3160 -1.0859
 5514SOL     OW28000   4.211   2.848   5.821  0.0954 -0.1901 -0.8130
 5514SOL    HW128001   4.270   2.820   5.750 -0.0835  0.2424 -1.1319
 5514SOL    HW228002   4.235   2.941   5.827  2.9797 -1.0169  0.7415
 5515SOL     OW28003   3.521   2.079  11.628  0.4630  0.0107  0.2955
 5515SOL    HW128004   3.457   2.100  11.696  0.5685 -3.3319  1.4073
 5515SOL    HW228005   3.567   2.162  11.613 -0.2458  0.3567  0.0742
 5516SOL     OW28006   3.456   0.774   8.170 -0.3046 -0.1290  0.2665
 5516SOL    HW128007   3.534   0.822   8.142 -1.4986  0.6355 -1.7492
 5516SOL    HW228008   3.438   0.739   8.082  1.6143  0.4666 -0.3561
 5517SOL     OW28009   2.126   0.476   8.385  0.7267  0.2538 -0.3373
 5517SOL    HW128010   2.214   0.512   8.390  0.3395  1.1667 -0.1611
 5517SOL    HW228011   2.137   0.390   8.427  0.1716  0.7241  0.7484
 5518SOL     OW28012   4.637   2.231   5.399  0.1154 -0.2812  0.3141
 5518SOL    HW128013   4.700   2.166   5.430  0.1022 -0.7507 -0.6224
 5518SOL    HW228014   4.602   2.263   5.481 -0.4439  1.4888 -0.6198
 5519SOL     OW28015   1.366   0.657   6.069 -0.0411  0.6968 -0.5434
 5519SOL    HW128016   1.454   0.669   6.104 -1.0248 -0.0157  2.1413
 5519SOL    HW228017   1.330   0.746   6.064 -1.3475  0.2138  0.2153
 5520SOL     OW28018   1.903   2.897   6.863  0.1090 -0.0565  0.3510
 5520SOL    HW128019   1.993   2.863   6.867  0.5209  0.7335 -2.8217
 5520SOL    HW228020   1.906   2.924   6.772 -0.9096 -0.2204  0.2772
 5521SOL     OW28021   1.893   2.588   6.836  0.7762  0.1480  0.2774
 5521SOL    HW128022   1.849   2.661   6.879  0.3802 -0.1521  0.3796
 5521SOL    HW228023   1.967   2.631   6.793  0.5066 -0.8750 -1.2075
 5522SOL     OW28024   0.703   4.344   1.519 -0.1069  0.3332  0.0513
 5522SOL    HW128025   0.742   4.345   1.607 -1.5545  0.4217  0.6953
 5522SOL    HW228026   0.755   4.279   1.471  0.3516  1.0499 -0.4206
 5523SOL     OW28027   4.094   0.940   5.657 -0.1867  0.2057  0.1487
 5523SOL    HW128028   4.027   0.964   5.722 -1.3846 -2.1765 -0.1823
 5523SOL    HW228029   4.037   0.939   5.580  2.0691  1.4786 -1.5166
 5524SOL     OW28030   1.389   3.661  14.506 -0.0818 -0.3887  0.5512
 5524SOL    HW128031   1.379   3.703  14.420  2.6635  1.9833  1.3633
 5524SOL    HW228032   1.365   3.573  14.478  0.9023  0.0026 -1.6089
 5525SOL     OW28033   3.205   1.610   2.346 -0.8280  0.1489 -0.5515
 5525SOL    HW128034   3.278   1.593   2.286 -1.4189 -1.6905 -0.7420
 5525SOL    HW228035   3.142   1.547   2.310 -1.2606  0.3725 -0.1712
 5526SOL     OW28036   1.857   3.289  15.603  0.0958 -0.0521  0.1203
 5526SOL    HW128037   1.945   3.317  15.627  0.3653 -2.1352  1.5996
 5526SOL    HW228038   1.866   3.196  15.625  0.5631  0.3647  1.6702
 5527SOL     OW28039   3.947   3.126   6.191  0.1402  0.0016 -0.8450
 5527SOL    HW128040   3.880   3.109   6.257 -0.3693 -1.2074 -1.6886
 5527SOL    HW228041   3.989   3.202   6.231 -0.5127  0.4947 -1.0845
 5528SOL     OW28042   1.590   4.649   8.008 -0.1449 -0.8076  0.2649
 5528SOL    HW128043   1.605   4.660   7.914 -0.3229 -1.4466  0.1636
 5528SOL    HW228044   1.545   4.564   8.008 -0.4344 -0.6507  2.0785
 5529SOL     OW28045   0.134   3.506   2.421 -0.1785 -0.2026  0.1932
 5529SOL    HW128046   0.044   3.483   2.444 -0.7590 -0.3220 -2.2657
 5529SOL    HW228047   0.180   3.447   2.481 -0.4666  1.0593  1.6640
 5530SOL     OW28048   4.640   2.128  14.302 -0.6068 -0.4375 -0.7167
 5530SOL    HW128049   4.552   2.102  14.327  0.0408 -0.9045  1.0152
 5530SOL    HW228050   4.642   2.222  14.321 -1.8133 -0.6729  0.5610
 5531SOL     OW28051   3.386   0.575   1.875  0.7149  0.0208  1.0057
 5531SOL    HW128052   3.326   0.531   1.814 -2.8718  1.9669  3.1165
 5531SOL    HW228053   3.468   0.580   1.826 -0.3648 -0.4936 -0.8526
 5532SOL     OW28054   1.767   1.235   4.229 -0.9218  0.4441 -0.6990
 5532SOL    HW128055   1.746   1.212   4.319 -1.3236  0.8904 -0.6779
 5532SOL    HW228056   1.806   1.159   4.186  1.0547  0.5322  0.9857
 5533SOL     OW28057   0.607   1.204   7.327 -0.0501  0.0694 -0.0233
 5533SOL    HW128058   0.585   1.116   7.358 -3.1532  1.3308  1.4448
 5533SOL    HW228059   0.534   1.239   7.379 -1.1436  1.9319 -2.8222
 5534SOL     OW28060   1.248   2.103  10.970 -0.4677 -0.2813 -0.2609
 5534SOL    HW128061   1.339   2.086  10.947  0.0819  0.6947  1.2393
 5534SOL    HW228062   1.213   2.027  11.016  1.0236 -0.9876 -0.2828
 5535SOL     OW28063   0.984   1.871   3.102 -0.4226  0.2551 -0.6523
 5535SOL    HW128064   0.891   1.874   3.078 -0.4854  1.7633 -0.2459
 5535SOL    HW228065   0.975   1.891   3.195 -2.2574  3.8001 -1.5450
 5536SOL     OW28066   0.701   3.428   4.801 -0.5164  0.5154 -0.6045
 5536SOL    HW128067   0.720   3.488   4.873  2.1936 -0.3728 -0.5791
 5536SOL    HW228068   0.668   3.351   4.847 -0.3577  0.5175 -0.4891
 5537SOL     OW28069   2.748   0.383  16.847 -0.2268  0.3727 -0.4144
 5537SOL    HW128070   2.817   0.373  16.913 -1.8050 -0.9097  1.0688
 5537SOL    HW228071   2.793   0.431  16.778  2.1974  1.5327  1.9721
 5538SOL     OW28072   2.000   4.176   2.380 -0.3651  0.1272  0.0227
 5538SOL    HW128073   2.067   4.226   2.333  1.2468 -1.6638  0.3962
 5538SOL    HW228074   1.921   4.217   2.343 -0.3867 -0.1512 -0.2358
 5539SOL     OW28075   0.354   0.301   8.062  0.0783  0.7365 -0.3194
 5539SOL    HW128076   0.339   0.340   7.976 -0.4693 -1.2842 -1.1452
 5539SOL    HW228077   0.268   0.320   8.099 -0.5147 -3.3136  0.4411
 5540SOL     OW28078   1.409   0.717  10.957  0.2465 -0.2326  0.1107
 5540SOL    HW128079   1.323   0.748  10.927  1.4816  1.6156 -1.5340
 5540SOL    HW228080   1.409   0.624  10.935  0.5447 -0.3390  0.5744
 5541SOL     OW28081   3.034   2.854   4.543 -0.2103 -0.2983  0.1157
 5541SOL    HW128082   3.035   2.863   4.448 -2.9640 -1.7158 -0.0480
 5541SOL    HW228083   3.124   2.826   4.559 -0.8815 -2.7894 -0.3304
 5542SOL     OW28084   2.729   2.037   0.472  0.5118 -0.3789  0.0429
 5542SOL    HW128085   2.816   2.037   0.432  0.7883  1.4402  0.6531
 5542SOL    HW228086   2.688   1.966   0.422 -0.4681  1.9044 -2.4245
 5543SOL     OW28087   4.358   1.047   4.952  0.0587  0.4900  0.2754
 5543SOL    HW128088   4.356   0.954   4.973 -1.6849  0.0986 -1.6596
 5543SOL    HW228089   4.412   1.058   4.874 -1.6798  2.5393 -0.6381
 5544SOL     OW28090   0.601   1.472   8.131  0.3609 -0.3831 -0.1790
 5544SOL    HW128091   0.600   1.507   8.220 -0.3824 -3.3130  0.9692
 5544SOL    HW228092   0.684   1.498   8.093 -0.7462  2.4373 -0.6882
 5545SOL     OW28093   2.614   3.192   9.877  0.2819  0.5007  0.5516
 5545SOL    HW128094   2.575   3.178   9.963 -2.6654 -0.7668 -0.9981
 5545SOL    HW228095   2.702   3.228   9.887  0.3253  0.2848  0.9637
 5546SOL     OW28096   0.153   3.198   9.036  0.2234  0.3923  0.9810
 5546SOL    HW128097   0.170   3.164   8.948  1.0682  1.6047  0.6750
 5546SOL    HW228098   0.085   3.264   9.018 -2.0853 -2.0043  0.9701
 5547SOL     OW28099   3.226   2.763   9.869  0.1743 -0.0061 -0.1837
 5547SOL    HW128100   3.138   2.791   9.894  0.0889  0.3920 -0.9333
 5547SOL    HW228101   3.277   2.744   9.948  0.2930 -1.5837 -0.6443
 5548SOL     OW28102   3.423   4.507   3.460  0.2873  0.1668 -0.4551
 5548SOL    HW128103   3.405   4.599   3.480  1.9624 -0.3113  3.3694
 5548SOL    HW228104   3.353   4.464   3.508  0.4285  0.5739  0.1170
 5549SOL     OW28105   0.097   1.281   8.249 -0.2721 -0.0870  0.7888
 5549SOL    HW128106   0.168   1.261   8.311 -0.7079  0.5888  1.5076
 5549SOL    HW228107   0.023   1.281   8.310 -0.6322  1.6678  0.3387
 5550SOL     OW28108   1.036   4.681   2.227  0.6317  0.2048  0.2239
 5550SOL    HW128109   0.983   4.616   2.180  0.1234  0.0249  1.0423
 5550SOL    HW228110   1.079   0.004   2.155 -0.8874  1.7776  0.3182
 5551SOL     OW28111   3.620   4.032  12.684 -0.4115  0.5063  0.9529
 5551SOL    HW128112   3.538   4.066  12.649  0.0113  0.3932 -0.1483
 5551SOL    HW228113   3.669   4.103  12.642 -1.2342  0.5716  0.1165
 5552SOL     OW28114   3.523   3.167   5.246 -0.1814 -0.3434  0.8749
 5552SOL    HW128115   3.487   3.111   5.314 -0.4930  2.1499  2.7792
 5552SOL    HW228116   3.599   3.204   5.290 -0.0620 -0.6917  0.9598
 5553SOL     OW28117   4.509   2.645   3.168 -0.3537  0.0689  0.2829
 5553SOL    HW128118   4.425   2.602   3.152 -0.7487  0.9863 -0.1157
 5553SOL    HW228119   4.553   2.623   3.086 -0.1476  1.0837  0.1193
 5554SOL     OW28120   3.770   3.175   9.698  0.6526 -0.4521 -0.0563
 5554SOL    HW128121   3.753   3.216   9.783  2.8926  0.3043  0.0368
 5554SOL    HW228122   3.849   3.125   9.716 -0.0896 -1.5518  0.1707
 5555SOL     OW28123   2.262   2.954   9.974  0.2597  0.2182 -0.4722
 5555SOL    HW128124   2.336   2.913   9.930  1.0480  1.6292 -0.4774
 5555SOL    HW228125   2.317   3.012  10.027 -1.3659 -1.2423  2.8065
 5556SOL     OW28126   1.861   2.029   2.853  0.6370  0.2868  0.7241
 5556SOL    HW128127   1.860   2.036   2.948  0.0112  1.7897  0.6179
 5556SOL    HW228128   1.873   2.121   2.829 -1.5373  0.7211  1.2717
 5557SOL     OW28129   2.412   3.864   3.666  0.6305  0.5803 -0.3946
 5557SOL    HW128130   2.322   3.840   3.686 -0.0976  1.2608 -2.9570
 5557SOL    HW228131   2.414   3.956   3.691  1.0759  0.4979 -0.1213
 5558SOL     OW28132   1.015   0.318   6.031 -0.5109 -0.3969  0.2069
 5558SOL    HW128133   0.965   0.338   6.110 -1.2089  0.3527 -0.4159
 5558SOL    HW228134   0.947   0.301   5.965 -0.9513  0.0953  0.5312
 5559SOL     OW28135   2.134   1.565  14.946  0.5915  0.6505  0.9993
 5559SOL    HW128136   2.189   1.637  14.915 -0.6169  0.4489 -1.6014
 5559SOL    HW228137   2.143   1.579  15.041  0.8520 -2.1045  1.3965
 5560SOL     OW28138   3.803   1.725   4.952  0.0823 -0.3096 -0.1836
 5560SOL    HW128139   3.878   1.666   4.960 -0.7055 -1.8264 -3.8843
 5560SOL    HW228140   3.840   1.811   4.974 -0.3013 -0.2400  0.1768
 5561SOL     OW28141   3.327   2.632   3.437 -0.2450 -0.3114  0.1787
 5561SOL    HW128142   3.285   2.591   3.513 -0.1684  0.5424  0.6830
 5561SOL    HW228143   3.358   2.565   3.377  0.4994  0.1764  0.0236
 5562SOL     OW28144   0.086   3.722   2.642  0.3877 -0.5990  0.1413
 5562SOL    HW128145   0.032   3.682   2.710  1.2171  1.4425  2.0184
 5562SOL    HW228146   0.090   3.656   2.573 -2.0366  1.3936 -1.9272
 5563SOL     OW28147   2.180   0.481  10.846 -0.4728 -0.1214  0.1376
 5563SOL    HW128148   2.212   0.566  10.816 -0.6771 -0.1380 -0.1255
 5563SOL    HW228149   2.255   0.440  10.888 -0.8255  0.3278  1.2013
 5564SOL     OW28150   2.534   1.359   7.953 -0.7358 -0.5274 -0.2105
 5564SOL    HW128151   2.521   1.416   8.029  0.0583  1.7458 -1.7564
 5564SOL    HW228152   2.456   1.386   7.905 -0.7163  0.1256  0.1270
 5565SOL     OW28153   2.422   4.601  16.179  0.6479 -0.1709  0.2528
 5565SOL    HW128154   2.415   4.572  16.088 -1.7721  1.3725 -0.0443
 5565SOL    HW228155   2.337   4.568  16.208  1.2931 -0.2563  2.0692
 5566SOL     OW28156   0.234   2.090  14.358 -0.1263  0.8393  0.3119
 5566SOL    HW128157   0.155   2.089  14.304 -0.8111  2.0371  1.2906
 5566SOL    HW228158   0.195   2.045  14.433  1.7655 -0.1746  0.6956
 5567SOL     OW28159   1.499   0.797   3.243 -0.3921 -0.0906  0.4891
 5567SOL    HW128160   1.544   0.712   3.240  0.3569  0.2976  0.5858
 5567SOL    HW228161   1.544   0.851   3.178 -1.6288  0.0074 -0.2837
 5568SOL     OW28162   2.660   2.329   1.007  0.0015  0.0486 -0.4079
 5568SOL    HW128163   2.632   2.375   1.086 -1.6194  0.3506 -1.1535
 5568SOL    HW228164   2.752   2.350   0.994 -0.4850  4.1615  3.1594
 5569SOL     OW28165   0.955   4.627   7.471  0.2566 -0.0310 -0.0076
 5569SOL    HW128166   0.866   4.599   7.451 -0.1534  1.0445  0.3156
 5569SOL    HW228167   0.987   4.561   7.533  2.2922  0.8581 -0.1322
 5570SOL     OW28168   1.358   0.978   2.398  0.4486  0.0996 -0.9813
 5570SOL    HW128169   1.412   1.052   2.370  0.1967 -0.7611 -3.6586
 5570SOL    HW228170   1.291   1.024   2.449 -1.1412 -1.8721 -1.3077
 5571SOL     OW28171   1.411   3.001   3.784 -0.1976  0.1857  0.0699
 5571SOL    HW128172   1.411   3.087   3.826 -0.8622  1.0475 -1.6842
 5571SOL    HW228173   1.501   2.989   3.754 -0.5020 -4.7501  1.2211
 5572SOL     OW28174   3.213   3.427   5.538 -0.1170  0.4845  0.3699
 5572SOL    HW128175   3.197   3.461   5.626  0.9472 -0.0043  0.7448
 5572SOL    HW228176   3.246   3.340   5.559  2.3256  1.5812  1.0726
 5573SOL     OW28177   3.056   3.443   4.243 -0.2786 -0.2250 -0.1767
 5573SOL    HW128178   3.022   3.502   4.176 -2.6619 -2.0832 -0.6001
 5573SOL    HW228179   3.102   3.384   4.183 -1.5272 -2.2965  0.9067
 5574SOL     OW28180   2.265   3.598   8.895  0.6896  0.0092  0.5211
 5574SOL    HW128181   2.196   3.643   8.943  0.6805 -0.3057  0.8024
 5574SOL    HW228182   2.217   3.568   8.818  1.0024  0.9271 -0.0347
 5575SOL     OW28183   0.881   3.466  17.428  0.5570  0.1603 -0.1843
 5575SOL    HW128184   0.946   3.483  17.497 -0.4359 -1.5483  1.1812
 5575SOL    HW228185   0.941   3.430  17.363  0.3396  0.5586 -0.6091
 5576SOL     OW28186   1.165   0.118   6.904  0.3328  0.1900  0.2282
 5576SOL    HW128187   1.136   0.179   6.835 -0.4726  0.3259  0.6760
 5576SOL    HW228188   1.147   0.030   6.871  0.4516 -0.4589  1.8835
 5577SOL     OW28189   4.276   1.607   9.726 -0.6269 -0.0969 -0.7577
 5577SOL    HW128190   4.238   1.677   9.672 -3.8189 -0.6958  0.7388
 5577SOL    HW228191   4.365   1.642   9.735 -1.1894  0.7944  1.2748
 5578SOL     OW28192   4.352   0.390  10.313  0.2931 -0.0576  0.3763
 5578SOL    HW128193   4.376   0.307  10.355 -0.5493 -0.5768 -0.1424
 5578SOL    HW228194   4.297   0.360  10.240  0.4138 -0.6221  0.5149
 5579SOL     OW28195   3.680   0.680   6.131  0.1485  0.6570  0.5623
 5579SOL    HW128196   3.775   0.681   6.120  0.1464  0.4088  0.5296
 5579SOL    HW228197   3.667   0.772   6.157  0.8814 -0.0309  3.3809
 5580SOL     OW28198   3.964   4.601   9.085 -0.3652 -0.2654 -0.1267
 5580SOL    HW128199   3.934   4.673   9.142 -2.3037  0.1048 -1.6322
 5580SOL    HW228200   4.044   4.641   9.052 -0.6594  1.2763  1.0022
 5581SOL     OW28201   0.729   4.027   8.825 -0.3171 -0.0624  0.3298
 5581SOL    HW128202   0.709   3.969   8.752  1.0182 -0.8480  0.5883
 5581SOL    HW228203   0.780   4.097   8.783  0.2557 -2.1034 -2.3475
 5582SOL     OW28204   4.658   1.039   5.875 -0.3989  0.0602 -0.8215
 5582SOL    HW128205   4.587   1.025   5.813 -1.8692  0.0842  0.8775
 5582SOL    HW228206   4.710   0.973   5.828  0.3094  1.4458 -1.9989
 5583SOL     OW28207   2.389   1.026   8.270 -0.3281 -0.5165 -0.3213
 5583SOL    HW128208   2.307   1.073   8.257 -0.1471  0.2556  1.3541
 5583SOL    HW228209   2.376   0.972   8.348 -1.0665  0.7364  0.4209
 5584SOL     OW28210   3.915   0.491   3.773  0.1949  0.5157 -0.2804
 5584SOL    HW128211   3.981   0.462   3.710  0.6256 -2.0507  1.3477
 5584SOL    HW228212   3.904   0.413   3.827 -1.9133  1.8606  1.2559
 5585SOL     OW28213   4.295   0.332  12.135  0.6126 -0.4467  0.0855
 5585SOL    HW128214   4.345   0.252  12.121 -0.7725 -1.4881  1.0469
 5585SOL    HW228215   4.291   0.359  12.043  1.7332  1.3698  0.5804
 5586SOL     OW28216   1.888   0.513   2.617  0.6672 -0.5347  0.3464
 5586SOL    HW128217   1.954   0.538   2.682 -0.4604 -0.4512  1.4542
 5586SOL    HW228218   1.823   0.581   2.631  0.1111 -1.3452  1.6573
 5587SOL     OW28219   4.490   2.160   9.325  0.3718 -0.2139 -0.0380
 5587SOL    HW128220   4.497   2.255   9.313 -2.2680 -0.0910 -0.6383
 5587SOL    HW228221   4.581   2.135   9.339  1.2972  1.6946 -2.6048
 5588SOL     OW28222   3.539   2.544   4.940 -0.0407  0.3409 -0.4852
 5588SOL    HW128223   3.595   2.467   4.949 -0.0803  0.2290 -1.2387
 5588SOL    HW228224   3.464   2.523   4.997  0.5523 -1.2233 -0.2968
 5589SOL     OW28225   2.282   2.422  13.228 -0.0899 -0.3184  0.0791
 5589SOL    HW128226   2.295   2.350  13.166 -2.5259 -0.8207  0.1380
 5589SOL    HW228227   2.344   2.486  13.192 -0.7577  0.7954  0.9309
 5590SOL     OW28228   2.406   2.192   7.320 -0.2111 -0.4341  1.1369
 5590SOL    HW128229   2.385   2.281   7.291  1.0703 -0.6788 -0.5905
 5590SOL    HW228230   2.365   2.144   7.248  3.0431 -2.3790  0.5703
 5591SOL     OW28231   0.661   0.674   3.055  0.0266  0.3591  0.5876
 5591SOL    HW128232   0.575   0.634   3.040  0.3226 -0.8638  2.1623
 5591SOL    HW228233   0.706   0.655   2.972  0.7430 -1.8295  1.4805
 5592SOL     OW28234   4.136   0.066   7.117 -0.5592 -0.3252  0.4471
 5592SOL    HW128235   4.164   0.097   7.031 -0.5523  1.6640  1.1479
 5592SOL    HW228236   4.210   0.011   7.142 -0.2776 -1.1375 -2.1640
 5593SOL     OW28237   1.151   1.461   4.263 -0.0128 -0.1155  0.5696
 5593SOL    HW128238   1.128   1.546   4.300  0.0582 -0.0456  0.4533
 5593SOL    HW228239   1.089   1.402   4.306  0.0964  0.3267  1.3237
 5594SOL     OW28240   2.823   0.499  16.338  0.8097  0.1885  0.3352
 5594SOL    HW128241   2.829   0.406  16.315  2.3427  0.2287  0.5800
 5594SOL    HW228242   2.739   0.500  16.383  0.2239  0.3333 -0.7413
 5595SOL     OW28243   4.487   3.626   1.493  0.3276  0.6074 -0.4164
 5595SOL    HW128244   4.454   3.536   1.499  0.8616  0.4520  0.3271
 5595SOL    HW228245   4.580   3.603   1.493  0.7637  2.4034 -0.2968
 5596SOL     OW28246   1.579   1.489   2.685 -0.3491 -0.1949 -0.7783
 5596SOL    HW128247   1.652   1.530   2.638 -0.1195  0.7726  0.4015
 5596SOL    HW228248   1.616   1.464   2.770 -1.1574 -1.9171 -0.9483
 5597SOL     OW28249   1.660   2.111   7.010 -0.0694  0.1790  0.0271
 5597SOL    HW128250   1.648   2.048   7.080  0.9379 -1.3240 -1.1497
 5597SOL    HW228251   1.711   2.183   7.047 -0.5296 -0.1811  1.3494
 5598SOL     OW28252   4.206   4.035   4.041  0.9314  0.5330 -0.3829
 5598SOL    HW128253   4.269   4.067   3.977 -0.0072 -1.0720 -2.0939
 5598SOL    HW228254   4.193   4.113   4.095 -1.7248 -0.1666  0.0057
 5599SOL     OW28255   2.112   2.442   5.967 -0.5149  0.3998  0.4006
 5599SOL    HW128256   2.184   2.426   5.906  0.0872 -0.8260  1.4274
 5599SOL    HW228257   2.126   2.528   6.005  1.6243  0.1480  0.1660
 5600SOL     OW28258   4.534   4.718   2.363  0.4975  0.0020  0.6582
 5600SOL    HW128259   4.605   4.713   2.427  0.9368 -1.2375  0.0779
 5600SOL    HW228260   4.587   0.036   2.295 -0.0147 -0.1044  0.1985
 5601SOL     OW28261   3.464   0.190   0.367  0.3925 -0.0708  0.4024
 5601SOL    HW128262   3.484   0.283   0.360  1.5123 -0.3196  0.3184
 5601SOL    HW228263   3.374   0.193   0.334  0.4102  0.5725  0.4127
 5602SOL     OW28264   3.716   3.920   2.819  0.2077 -1.0809 -0.2426
 5602SOL    HW128265   3.811   3.907   2.823  0.4478  0.8076  0.5201
 5602SOL    HW228266   3.697   3.929   2.725  0.5406  0.0807 -0.2032
 5603SOL     OW28267   4.078   4.463   4.056 -0.1862 -0.3424 -0.2108
 5603SOL    HW128268   4.058   4.431   4.144 -0.6305  0.6954  0.0676
 5603SOL    HW228269   3.993   4.431   4.025 -0.5356  0.5433 -0.1534
 5604SOL     OW28270   2.211   2.086   5.153  0.1624 -0.0270  0.1701
 5604SOL    HW128271   2.157   2.089   5.232  1.0502 -0.7773  0.7976
 5604SOL    HW228272   2.202   1.994   5.126 -0.1738 -0.6786  2.4764
 5605SOL     OW28273   2.650   4.636   2.517  0.4305  0.0338 -0.2574
 5605SOL    HW128274   2.622   4.708   2.573 -2.7783 -1.7517  0.4201
 5605SOL    HW228275   2.572   4.582   2.527  0.7427 -0.8089 -2.4651
 5606SOL     OW28276   2.281   0.884   8.463  0.2468 -1.1071 -0.0374
 5606SOL    HW128277   2.298   0.841   8.546  0.6080  0.7959  0.8819
 5606SOL    HW228278   2.250   0.960   8.512  0.6007 -3.0025  3.0575
 5607SOL     OW28279   4.026   2.036   9.500  0.3400  0.5185 -0.6654
 5607SOL    HW128280   3.972   2.036   9.421  2.4231 -1.6707 -2.1046
 5607SOL    HW228281   4.113   2.061   9.468  0.0548 -0.0728 -1.9252
 5608SOL     OW28282   4.188   4.343  13.992 -0.4174 -0.3866 -0.5255
 5608SOL    HW128283   4.154   4.321  14.078 -0.0373 -0.1857 -0.3226
 5608SOL    HW228284   4.126   4.304  13.931 -0.0534 -0.8647 -0.5882
 5609SOL     OW28285   0.117   0.609  16.512  0.1562 -0.2169  0.3893
 5609SOL    HW128286   0.129   0.520  16.482  1.0623  0.2447 -0.6203
 5609SOL    HW228287   0.160   0.664  16.446  1.4946  1.7819  2.8826
 5610SOL     OW28288   3.503   0.626  10.828  0.5160  0.5221  0.1879
 5610SOL    HW128289   3.484   0.654  10.917  0.9097 -2.1163  1.0955
 5610SOL    HW228290   3.598   0.638  10.821  0.3771  0.3384 -1.9757
 5611SOL     OW28291   0.678   1.445   7.821  0.2840 -0.4389  0.3847
 5611SOL    HW128292   0.728   1.471   7.899 -4.1275  0.3959  2.9344
 5611SOL    HW228293   0.747   1.458   7.756 -0.7572  1.1088 -0.4091
 5612SOL     OW28294   3.357   4.618   9.286  0.8405  0.0398 -0.5819
 5612SOL    HW128295   3.329   4.544   9.233 -2.1902  1.2738 -0.6724
 5612SOL    HW228296   3.280   4.674   9.283  0.5418 -0.3350  0.1521
 5613SOL     OW28297   3.419   2.323   1.817 -0.1336 -0.5506 -0.0078
 5613SOL    HW128298   3.359   2.395   1.797 -0.2708 -0.3448  1.1496
 5613SOL    HW228299   3.367   2.243   1.810  0.4403 -0.9440  0.2099
 5614SOL     OW28300   4.214   0.164   6.825 -0.4922 -0.5739  0.4296
 5614SOL    HW128301   4.138   0.217   6.800  0.2490  0.4501  0.3350
 5614SOL    HW228302   4.279   0.228   6.796 -0.1573 -0.4528  1.4405
 5615SOL     OW28303   0.508   3.690   1.590  0.4269 -0.1254  0.0376
 5615SOL    HW128304   0.511   3.661   1.499 -1.6815 -1.2245  0.3265
 5615SOL    HW228305   0.590   3.643   1.610 -0.2215 -1.1129  0.3776
 5616SOL     OW28306   1.178   3.051   4.152  0.4747 -0.1889 -0.3250
 5616SOL    HW128307   1.213   3.067   4.240  0.5520 -2.9044  0.1268
 5616SOL    HW228308   1.221   2.972   4.119 -1.6988 -1.4700 -0.0796
 5617SOL     OW28309   4.067   4.160   2.853 -0.0110 -0.1890 -0.2362
 5617SOL    HW128310   3.994   4.152   2.914  0.9990 -0.5168  0.9338
 5617SOL    HW228311   4.113   4.227   2.903 -0.1579  0.0241 -0.3932
 5618SOL     OW28312   1.002   0.850   6.091  0.0705  0.2839 -0.0005
 5618SOL    HW128313   1.036   0.884   6.174  0.7013 -0.5160  0.0674
 5618SOL    HW228314   1.045   0.911   6.031  1.7290  0.1949  1.1033
 5619SOL     OW28315   0.030   0.369   9.915 -0.0509 -0.1109 -0.1889
 5619SOL    HW128316   4.706   0.431   9.859  1.9841  0.9131 -0.7383
 5619SOL    HW228317   0.106   0.418   9.945  0.2383 -0.9723  0.4920
 5620SOL     OW28318   3.449   2.317   2.114  0.1895  0.4259 -0.5778
 5620SOL    HW128319   3.451   2.304   2.019 -0.7471  1.2598 -0.7062
 5620SOL    HW228320   3.435   2.230   2.152 -1.5761  0.4868 -1.1099
 5621SOL     OW28321   4.318   0.857   4.616  0.2121  0.0368 -0.0297
 5621SOL    HW128322   4.249   0.924   4.622 -0.1304 -0.2186 -1.0328
 5621SOL    HW228323   4.322   0.834   4.523 -0.4093 -3.6266  0.8385
 5622SOL     OW28324   2.084   3.371   8.454  0.1074 -0.1734 -0.2515
 5622SOL    HW128325   2.098   3.290   8.405 -0.8427 -1.1710  1.1314
 5622SOL    HW228326   2.062   3.432   8.384  0.0675  0.9227  0.7209
 5623SOL     OW28327   0.440   3.885   1.843  0.5027 -0.6433  0.0444
 5623SOL    HW128328   0.481   3.868   1.759  0.9079 -0.4695  0.2074
 5623SOL    HW228329   0.446   3.981   1.846  1.6826 -0.6845 -0.9524
 5624SOL     OW28330   3.444   2.549   5.795  0.6611  0.1403 -0.4427
 5624SOL    HW128331   3.501   2.504   5.858  1.4471  1.4313 -0.2358
 5624SOL    HW228332   3.461   2.507   5.711  1.4682  4.3704 -2.3745
 5625SOL     OW28333   1.087   3.732  15.764  0.0994  0.2226 -0.4153
 5625SOL    HW128334   1.168   3.743  15.814 -0.9911  2.4026  0.8918
 5625SOL    HW228335   1.029   3.692  15.828  0.3496 -0.0772 -0.3747
 5626SOL     OW28336   0.724   0.336  13.595 -0.1861  0.3837 -0.2284
 5626SOL    HW128337   0.776   0.415  13.590 -0.2708  0.5263  1.2534
 5626SOL    HW228338   0.723   0.314  13.502  1.1732  2.6876 -0.7883
 5627SOL     OW28339   1.707   2.679  13.282 -0.4287  0.1439  0.4008
 5627SOL    HW128340   1.758   2.744  13.331  1.9577 -1.6499  0.3427
 5627SOL    HW228341   1.711   2.611  13.350  1.6867 -2.4448 -2.3031
 5628SOL     OW28342   3.740   3.889  16.235  0.1343 -0.4515  0.6602
 5628SOL    HW128343   3.763   3.796  16.241  1.1719 -0.1198  1.8492
 5628SOL    HW228344   3.799   3.923  16.167  0.3738 -0.7080  0.7397
 5629SOL     OW28345   0.077   4.046   0.339 -0.2132  0.1553  0.4318
 5629SOL    HW128346   0.138   4.098   0.391  0.7309 -1.1546  0.6388
 5629SOL    HW228347   0.080   4.089   0.254  1.9016  0.3428  0.5951
 5630SOL     OW28348   2.502   4.283  15.482 -0.2867  0.3197 -0.3545
 5630SOL    HW128349   2.501   4.328  15.398  0.0986  1.0049 -0.0011
 5630SOL    HW228350   2.429   4.223  15.471 -0.4804  0.8235 -1.7083
 5631SOL     OW28351   0.287   3.627   9.013  0.6403  0.7680  0.3184
 5631SOL    HW128352   0.247   3.712   9.032 -0.0589  0.7825 -1.2507
 5631SOL    HW228353   0.243   3.594   8.935  1.0277  0.1240  0.3675
 5632SOL     OW28354   0.428   0.492  16.667  0.1011  0.4251 -0.2399
 5632SOL    HW128355   0.512   0.522  16.633  0.8319  0.2993  1.4897
 5632SOL    HW228356   0.405   0.562  16.728 -1.3880 -1.2009  1.0351
 5633SOL     OW28357   3.590   4.185   8.169 -0.7134  0.0419 -0.3378
 5633SOL    HW128358   3.514   4.128   8.157 -0.4778 -0.3886  0.1969
 5633SOL    HW228359   3.629   4.189   8.081  0.5646 -1.6083  0.1496
 5634SOL     OW28360   2.335   0.542   7.955  0.3499 -0.1837  0.9866
 5634SOL    HW128361   2.401   0.607   7.931  0.7754 -1.3286 -0.9142
 5634SOL    HW228362   2.259   0.591   7.985 -0.8197 -1.3173 -0.1474
 5635SOL     OW28363   3.817   0.059   5.338  0.2505 -0.1680 -0.0993
 5635SOL    HW128364   3.881   0.091   5.274  0.3386 -0.0766  0.0351
 5635SOL    HW228365   3.793   4.699   5.298  0.9251  0.5138 -1.9284
 5636SOL     OW28366   2.378   2.345   2.816 -0.3788  0.4625  0.5065
 5636SOL    HW128367   2.385   2.349   2.911  0.2686 -0.8631  0.5212
 5636SOL    HW228368   2.407   2.434   2.794 -2.6663  0.1556 -3.7989
 5637SOL     OW28369   3.825   3.490   7.913 -0.3325 -0.7596 -0.2347
 5637SOL    HW128370   3.823   3.586   7.918 -0.4722 -0.7599 -0.2842
 5637SOL    HW228371   3.834   3.473   8.007 -0.4118 -0.6911 -0.2140
 5638SOL     OW28372   0.542   4.528  10.774 -0.2291 -0.1774  0.3932
 5638SOL    HW128373   0.517   4.438  10.792 -1.0400 -0.1964 -0.8436
 5638SOL    HW228374   0.499   4.567  10.851 -2.5969 -0.4867 -0.8016
 5639SOL     OW28375   2.275   4.207  11.900  0.4023  0.0038 -0.5103
 5639SOL    HW128376   2.237   4.283  11.856 -1.8926 -2.6579 -3.1970
 5639SOL    HW228377   2.351   4.196  11.842  1.2645  0.8784  0.4470
 5640SOL     OW28378   4.669   2.705   2.465 -0.3266 -0.0061 -0.2817
 5640SOL    HW128379   4.705   2.649   2.396  0.9440  0.2828  0.1308
 5640SOL    HW228380   4.575   2.698   2.454 -0.2107  1.3834 -2.2258
 5641SOL     OW28381   4.231   4.408   6.547  0.1157 -0.4443 -0.1032
 5641SOL    HW128382   4.196   4.346   6.610  0.4197 -0.7627 -0.2507
 5641SOL    HW228383   4.152   4.451   6.513 -0.4500 -0.3643  1.3203
 5642SOL     OW28384   0.052   0.173   3.276  0.5401  0.2671  0.4580
 5642SOL    HW128385   0.004   0.194   3.196  0.1287 -0.6422  0.4628
 5642SOL    HW228386   0.016   0.241   3.333  0.2513  0.9025 -0.4894
 5643SOL     OW28387   0.404   0.822   3.775  0.3891 -0.0062 -0.0598
 5643SOL    HW128388   0.323   0.771   3.784  0.7262 -1.1007 -3.0408
 5643SOL    HW228389   0.458   0.770   3.715  0.5784  0.4051 -0.2390
 5644SOL     OW28390   1.788   3.968   8.271  0.2234  0.0514  0.1973
 5644SOL    HW128391   1.875   4.005   8.290 -0.1250  0.7329  0.4942
 5644SOL    HW228392   1.789   3.884   8.316  0.5291  1.9834  3.8527
 5645SOL     OW28393   2.934   3.883   7.827  0.3155  0.1072 -0.0643
 5645SOL    HW128394   2.996   3.838   7.769 -2.6914  0.7564 -3.7441
 5645SOL    HW228395   2.862   3.838   7.783  1.1134 -1.3311  0.1043
 5646SOL     OW28396   1.579   4.147   0.272 -0.5309 -0.0940  0.9843
 5646SOL    HW128397   1.492   4.146   0.312 -1.4338 -1.2468 -1.0029
 5646SOL    HW228398   1.620   4.223   0.315 -0.5556 -0.5476  1.8002
 5647SOL     OW28399   0.895   3.941  15.926  0.8999 -0.2736 -0.2766
 5647SOL    HW128400   0.945   3.948  15.845 -3.7203  1.8540 -2.9635
 5647SOL    HW228401   0.865   3.850  15.926 -0.1072  0.0630  0.1400
 5648SOL     OW28402   2.481   2.400  10.861 -0.5819  0.0441 -0.2084
 5648SOL    HW128403   2.481   2.377  10.954  0.0899 -0.3963 -0.3138
 5648SOL    HW228404   2.572   2.431  10.855 -0.2961 -1.3185 -2.7560
 5649SOL     OW28405   1.542   0.624  16.219 -0.2834  0.1738 -0.0935
 5649SOL    HW128406   1.525   0.696  16.281  1.7756 -0.2001  0.9037
 5649SOL    HW228407   1.491   0.651  16.143  0.9694 -1.2123 -1.4152
 5650SOL     OW28408   3.276   4.397   3.670  0.1743  0.0296  0.3247
 5650SOL    HW128409   3.272   4.483   3.712  1.7169  0.6809 -0.8677
 5650SOL    HW228410   3.203   4.352   3.712  0.4463  0.6141  1.4210
 5651SOL     OW28411   0.101   0.627   7.331 -0.1905  0.1857  0.0567
 5651SOL    HW128412   0.175   0.650   7.274 -0.5983  0.6591 -0.2847
 5651SOL    HW228413   0.046   0.574   7.274  0.8940 -2.7425  1.7561
 5652SOL     OW28414   1.681   3.587   5.929 -0.0717 -0.0004 -0.2221
 5652SOL    HW128415   1.769   3.623   5.919  0.1393 -1.0197 -2.1936
 5652SOL    HW228416   1.647   3.615   5.843 -1.6280  0.2769  0.4761
 5653SOL     OW28417   0.720   3.781  11.042  0.0352 -0.1863  0.0646
 5653SOL    HW128418   0.652   3.823  10.990  0.1523 -0.6860 -0.4903
 5653SOL    HW228419   0.777   3.852  11.069 -0.5381  0.2581  0.0985
 5654SOL     OW28420   0.099   2.953   2.907  0.1107 -0.1104  0.2956
 5654SOL    HW128421   0.118   2.915   2.993 -0.7819 -0.1130  0.4836
 5654SOL    HW228422   0.091   2.875   2.853  0.5129  0.9524 -1.2879
 5655SOL     OW28423   2.216   3.004   4.415  0.4380 -0.5322  0.9996
 5655SOL    HW128424   2.279   3.076   4.412 -0.1997 -0.0577 -0.9540
 5655SOL    HW228425   2.245   2.941   4.349 -1.1747  0.5259 -0.7203
 5656SOL     OW28426   1.843   0.961   5.714 -0.1953 -0.0345  0.0161
 5656SOL    HW128427   1.817   0.934   5.802 -1.7923  1.7921  0.1051
 5656SOL    HW228428   1.760   0.962   5.667 -0.4196 -0.5181  0.3973
 5657SOL     OW28429   3.760   4.479  10.380 -0.8866 -0.0325 -0.3435
 5657SOL    HW128430   3.711   4.455  10.459  1.3838  0.1407  1.1123
 5657SOL    HW228431   3.849   4.486  10.414 -0.4314  3.1091 -2.1864
 5658SOL     OW28432   4.317   1.525  14.085  0.0379 -0.5902 -0.0277
 5658SOL    HW128433   4.287   1.456  14.144 -2.4396 -0.4252 -1.0732
 5658SOL    HW228434   4.232   1.534  14.042  0.3440  1.2626 -0.2216
 5659SOL     OW28435   0.047   4.082  14.822  0.1705  0.2617 -0.3536
 5659SOL    HW128436   4.695   4.035  14.786  0.9339 -1.1601 -0.0933
 5659SOL    HW228437   0.016   4.158  14.872  0.9493  0.8755 -0.7942
 5660SOL     OW28438   0.647   2.000   3.985  0.1847  0.6550 -0.6329
 5660SOL    HW128439   0.728   2.000   4.036 -0.5777  0.9245  0.5783
 5660SOL    HW228440   0.665   1.929   3.922 -1.7529 -0.1415 -0.2811
 5661SOL     OW28441   1.114   3.840  14.196  0.1253 -0.0173  0.3519
 5661SOL    HW128442   1.035   3.878  14.233 -0.0324  0.0099 -0.0150
 5661SOL    HW228443   1.100   3.857  14.103  0.5325 -2.3583 -0.1402
 5662SOL     OW28444   1.462   2.738   6.458 -0.0794 -0.6290 -0.1670
 5662SOL    HW128445   1.506   2.817   6.489  2.2227 -0.9768 -2.6229
 5662SOL    HW228446   1.435   2.685   6.533 -0.2683  2.2668  1.8189
 5663SOL     OW28447   2.913   4.008   2.012  0.3310 -0.2027  0.2019
 5663SOL    HW128448   2.827   4.005   1.970  0.8718  0.3056 -0.9312
 5663SOL    HW228449   2.935   4.101   2.008  0.7354 -0.2973  0.2050
 5664SOL     OW28450   0.468   3.194   1.909 -0.1309  0.1460 -0.4438
 5664SOL    HW128451   0.444   3.179   2.001 -0.6348  0.7403 -0.4807
 5664SOL    HW228452   0.513   3.277   1.911  2.6451 -1.3643 -0.7201
 5665SOL     OW28453   1.017   2.323   5.318  0.3266 -0.1558  0.1036
 5665SOL    HW128454   0.964   2.247   5.292 -0.0233  0.0434  0.2291
 5665SOL    HW228455   1.102   2.288   5.294  0.8016  2.3973 -1.8363
 5666SOL     OW28456   1.022   2.425   6.456  0.0334 -0.3479  0.2844
 5666SOL    HW128457   0.996   2.352   6.400 -0.3806 -0.8802  1.1600
 5666SOL    HW228458   0.936   2.466   6.465  0.1113  0.1461 -1.2941
 5667SOL     OW28459   0.417   4.014   6.050  0.3930 -0.5295 -0.5568
 5667SOL    HW128460   0.388   4.100   6.080  0.0441 -0.3256 -1.4899
 5667SOL    HW228461   0.448   4.040   5.963 -0.4999  0.8977 -0.4422
 5668SOL     OW28462   1.068   3.037   1.814  0.5381 -0.0487  0.2050
 5668SOL    HW128463   1.088   3.097   1.742  1.2105  1.3571  1.5846
 5668SOL    HW228464   0.977   3.057   1.833  1.4645  2.8157  1.6144
 5669SOL     OW28465   3.072   3.592   2.062  0.6546  0.2774 -0.9171
 5669SOL    HW128466   3.054   3.653   2.134 -0.5097 -2.5911  1.1785
 5669SOL    HW228467   3.073   3.660   1.994 -0.6864  0.7505 -0.4591
 5670SOL     OW28468   2.356   0.700  11.078 -0.1029  0.3676 -0.7011
 5670SOL    HW128469   2.299   0.630  11.110  0.2102  1.1796  1.6697
 5670SOL    HW228470   2.385   0.736  11.162  0.7834  0.0933 -0.8853
 5671SOL     OW28471   0.631   1.316   2.993 -0.1977  0.6178 -0.0541
 5671SOL    HW128472   0.600   1.400   2.959 -0.2850  0.8331  0.5563
 5671SOL    HW228473   0.642   1.259   2.917 -1.6752 -0.6626  0.6888
 5672SOL     OW28474   3.969   2.656  10.113 -0.5680  0.7236 -0.7049
 5672SOL    HW128475   3.961   2.751  10.123 -1.2481  0.4075  1.8877
 5672SOL    HW228476   3.878   2.632  10.095 -0.2619  0.5531 -2.0263
 5673SOL     OW28477   1.291   1.776   8.986 -0.0447 -0.0056 -0.1901
 5673SOL    HW128478   1.219   1.840   8.980 -0.8139 -0.8385  0.2096
 5673SOL    HW228479   1.360   1.826   8.942  1.2407 -1.4843  0.1326
 5674SOL     OW28480   1.578   2.444   6.071  0.1367 -0.4554 -0.5536
 5674SOL    HW128481   1.523   2.508   6.026 -1.4761 -1.3686  0.1361
 5674SOL    HW228482   1.545   2.466   6.159 -2.2993 -1.5455 -1.2132
 5675SOL     OW28483   2.808   3.791   6.616 -0.0303  0.1416 -0.3012
 5675SOL    HW128484   2.828   3.789   6.523 -0.5952  1.6675 -0.4629
 5675SOL    HW228485   2.818   3.880   6.651  1.5590 -0.2333  0.2019
 5676SOL     OW28486   3.709   1.121   8.813  0.5298 -0.6798 -0.0723
 5676SOL    HW128487   3.755   1.097   8.893  1.3077  0.5091 -0.1667
 5676SOL    HW228488   3.782   1.103   8.754 -0.7427 -2.5563 -1.0715
 5677SOL     OW28489   4.357   1.391   5.924  0.8426 -0.4331 -0.3003
 5677SOL    HW128490   4.337   1.466   5.867  2.3743  1.7046  1.9700
 5677SOL    HW228491   4.287   1.332   5.896 -1.5948  2.1058  0.4419
 5678SOL     OW28492   1.231   0.737   5.220  0.6925 -0.3215 -0.1097
 5678SOL    HW128493   1.179   0.657   5.208  1.8015 -1.1816  0.7727
 5678SOL    HW228494   1.317   0.702   5.198  0.7022  0.0752 -0.7165
 5679SOL     OW28495   2.218   0.984   2.641  0.5509 -0.0878 -0.0068
 5679SOL    HW128496   2.188   0.941   2.560 -0.5537  0.1952  0.2451
 5679SOL    HW228497   2.255   1.059   2.596  1.3539  0.0276  0.8550
 5680SOL     OW28498   2.767   2.003   7.994  0.2160 -0.1498  0.2763
 5680SOL    HW128499   2.697   2.063   7.970  0.1137  0.8661  3.0539
 5680SOL    HW228500   2.828   2.066   8.033 -1.2497  0.1860  2.0292
 5681SOL     OW28501   1.420   4.383   2.374 -0.4433 -0.2826 -0.5740
 5681SOL    HW128502   1.497   4.439   2.382 -1.5073  1.3049 -1.4444
 5681SOL    HW228503   1.456   4.295   2.379 -2.3013 -0.9766  0.6276
 5682SOL     OW28504   3.725   1.348   9.936  0.1944 -0.2920 -0.2690
 5682SOL    HW128505   3.756   1.374  10.023 -0.4890 -0.5506  0.0541
 5682SOL    HW228506   3.712   1.254   9.941  0.9869 -0.3651  0.3143
 5683SOL     OW28507   1.036   2.449   4.190  1.2646 -0.3050  0.9069
 5683SOL    HW128508   0.985   2.526   4.166  2.3800 -0.0764 -0.7274
 5683SOL    HW228509   1.122   2.485   4.169  1.1875 -1.2255 -1.0675
 5684SOL     OW28510   1.320   4.156   0.351 -0.2014 -0.1278 -0.0243
 5684SOL    HW128511   1.249   4.213   0.322  0.0785 -0.6273 -1.7026
 5684SOL    HW228512   1.267   4.083   0.384 -1.8397  1.1222  0.1089
 5685SOL     OW28513   4.311   1.293   3.012 -0.1886  0.1028 -0.2581
 5685SOL    HW128514   4.306   1.292   3.108 -0.9957  4.0380 -0.2611
 5685SOL    HW228515   4.233   1.241   2.993  1.3479 -2.7733  1.2452
 5686SOL     OW28516   3.716   0.617   5.461 -0.5382 -0.2294 -0.4854
 5686SOL    HW128517   3.648   0.661   5.410 -3.3465 -3.4390  0.5033
 5686SOL    HW228518   3.768   0.560   5.403 -0.0850 -1.3937  1.0829
 5687SOL     OW28519   4.030   4.079  13.283 -0.3597  0.3526  0.1847
 5687SOL    HW128520   4.027   4.147  13.216 -1.6238  0.4263  0.3088
 5687SOL    HW228521   4.014   3.995  13.239 -1.0547 -0.2725  1.6467
 5688SOL     OW28522   3.582   2.598   8.825 -0.2296  0.3364  0.2119
 5688SOL    HW128523   3.502   2.615   8.875 -0.4449 -0.3441  0.0971
 5688SOL    HW228524   3.552   2.622   8.737  0.3316 -0.0520 -0.0914
 5689SOL     OW28525   3.655   4.079   1.883  0.1656 -0.4301 -0.6027
 5689SOL    HW128526   3.747   4.085   1.856  0.0696  0.3547 -0.7656
 5689SOL    HW228527   3.617   4.167   1.876  0.6324 -0.1345  0.6429
 5690SOL     OW28528   1.987   1.947   7.046 -0.1751 -0.6346  0.0890
 5690SOL    HW128529   1.976   1.998   6.966 -1.0483  0.6545  1.0188
 5690SOL    HW228530   1.928   1.874   7.026  0.4112 -1.7225  2.3146
 5691SOL     OW28531   3.348   2.721   6.421  0.0719  0.5180  0.0878
 5691SOL    HW128532   3.300   2.707   6.339  2.7200 -0.3556 -1.2986
 5691SOL    HW228533   3.283   2.722   6.491 -0.4515  0.7958 -0.4014
 5692SOL     OW28534   1.093   2.317  15.741  0.1112  0.4214  0.1461
 5692SOL    HW128535   1.107   2.258  15.815 -1.2123  2.0641  1.7162
 5692SOL    HW228536   1.071   2.401  15.783 -1.1286  0.6310 -0.9214
 5693SOL     OW28537   0.795   1.697   4.292 -0.3617 -1.1081  0.5015
 5693SOL    HW128538   0.866   1.660   4.343  1.0221 -1.3254 -1.5852
 5693SOL    HW228539   0.762   1.615   4.256  1.4142 -0.8501 -1.7366
 5694SOL     OW28540   1.579   4.639   6.991  0.4155 -0.7710 -0.5573
 5694SOL    HW128541   1.556   4.566   6.933  2.3333 -1.8628  0.0748
 5694SOL    HW228542   1.572   4.601   7.079 -2.7612 -2.2668 -1.4579
 5695SOL     OW28543   3.173   1.608   4.395 -0.0844  0.1792  0.0145
 5695SOL    HW128544   3.159   1.699   4.420 -1.0446 -0.0101  0.1536
 5695SOL    HW228545   3.257   1.589   4.437  1.0465  0.2380 -2.2123
 5696SOL     OW28546   4.478   4.529   9.325  0.2400  0.4909  0.2207
 5696SOL    HW128547   4.389   4.511   9.354  0.4544  1.0119  1.1840
 5696SOL    HW228548   4.501   4.578   9.404  0.9353  0.1595  0.2272
 5697SOL     OW28549   4.716   1.489   3.197 -0.2122 -0.1112 -0.0146
 5697SOL    HW128550   0.008   1.397   3.177  0.3703 -0.0022 -0.0924
 5697SOL    HW228551   0.048   1.536   3.134 -0.9165  0.3653 -0.2714
 5698SOL     OW28552   3.645   2.263   0.569  0.2802  0.2835 -0.4192
 5698SOL    HW128553   3.688   2.329   0.623 -0.5646 -1.0925  1.9264
 5698SOL    HW228554   3.643   2.195   0.636  3.1265 -0.1997 -0.8424
 5699SOL     OW28555   1.522   1.861   4.892 -0.1482  0.1114  0.0375
 5699SOL    HW128556   1.509   1.948   4.854  0.0224  0.1501  0.0664
 5699SOL    HW228557   1.433   1.826   4.901  1.0491 -2.7750  0.4962
 5700SOL     OW28558   3.541   1.830  12.908  0.2830  0.2152  0.5956
 5700SOL    HW128559   3.592   1.903  12.942  0.3009 -0.0652  1.1775
 5700SOL    HW228560   3.544   1.834  12.813 -0.1358 -1.0046  0.5197
 5701SOL     OW28561   1.364   0.755  16.630 -0.6147  0.8057  0.1772
 5701SOL    HW128562   1.448   0.766  16.584  0.5564 -2.4378  1.5795
 5701SOL    HW228563   1.297   0.772  16.563  3.2649 -3.2345 -4.7606
 5702SOL     OW28564   1.874   0.408   3.586 -0.0428  0.2024  0.3570
 5702SOL    HW128565   1.790   0.402   3.541 -0.3082  1.7210  0.6161
 5702SOL    HW228566   1.901   0.494   3.552 -2.4400  1.3016  1.1656
 5703SOL     OW28567   0.167   1.125   6.245 -0.1264 -0.2540  0.1243
 5703SOL    HW128568   0.196   1.043   6.206  0.5405  0.8219 -1.6724
 5703SOL    HW228569   0.198   1.194   6.186 -0.8479 -0.8528 -0.9605
 5704SOL     OW28570   1.025   2.827   8.429  0.3224 -0.1115  0.2803
 5704SOL    HW128571   0.980   2.855   8.349 -0.3338  0.9922  1.0303
 5704SOL    HW228572   1.009   2.908   8.478 -0.3226  0.3706 -0.7369
 5705SOL     OW28573   4.127   4.192   2.604  0.8480 -0.0158 -0.2964
 5705SOL    HW128574   4.091   4.274   2.570 -0.4050 -0.0467  0.9631
 5705SOL    HW228575   4.102   4.187   2.697 -2.2860 -0.0687 -1.1332
 5706SOL     OW28576   3.272   0.597   4.394  0.2028  0.3103  0.3512
 5706SOL    HW128577   3.269   0.690   4.373 -0.6338 -0.0631 -1.1819
 5706SOL    HW228578   3.231   0.557   4.318 -2.2342  0.4879  1.5674
 5707SOL     OW28579   3.892   3.256   2.781  0.3889  0.0909  0.1500
 5707SOL    HW128580   3.824   3.196   2.811  1.5873 -1.1234  0.4575
 5707SOL    HW228581   3.950   3.208   2.722  0.7198 -0.2324  0.7363
 5708SOL     OW28582   1.413   1.086   0.609  0.8023  0.1799 -0.1068
 5708SOL    HW128583   1.333   1.092   0.557  0.2490  1.0566  0.8617
 5708SOL    HW228584   1.388   1.136   0.686  1.8183  1.6188 -0.6918
 5709SOL     OW28585   0.277   3.212   6.096 -0.3720  0.4511  0.2956
 5709SOL    HW128586   0.191   3.252   6.084  0.2661  1.6218 -0.4637
 5709SOL    HW228587   0.312   3.261   6.171 -1.3812  3.0884 -0.9497
 5710SOL     OW28588   0.229   3.605   2.045 -0.0172 -0.5675 -0.1952
 5710SOL    HW128589   0.270   3.538   2.100 -1.5755 -0.2747  1.3431
 5710SOL    HW228590   0.210   3.675   2.108  0.2109 -0.4356 -0.2724
 5711SOL     OW28591   3.978   0.756   7.934 -0.0810 -0.2465  0.3321
 5711SOL    HW128592   4.066   0.789   7.916 -0.4125  0.1564 -0.5595
 5711SOL    HW228593   3.937   0.843   7.938  2.3522  0.8737  1.0702
 5712SOL     OW28594   3.121   2.788   8.744  0.0624  0.0608  0.5786
 5712SOL    HW128595   3.107   2.813   8.835  2.3007  1.9962  0.3770
 5712SOL    HW228596   3.116   2.693   8.750 -0.1237 -0.0172 -0.8021
 5713SOL     OW28597   0.492   0.771  10.061  0.2027 -0.1946 -0.1743
 5713SOL    HW128598   0.481   0.724   9.978 -0.3851 -0.7227  0.2108
 5713SOL    HW228599   0.451   0.707  10.118  1.5456  0.0710  1.0924
 5714SOL     OW28600   4.708   2.358   7.816 -0.4087 -0.1625 -0.3233
 5714SOL    HW128601   4.657   2.398   7.746  2.0227  1.3669 -1.2151
 5714SOL    HW228602   0.069   2.365   7.772 -0.8562 -0.4161 -1.2176
 5715SOL     OW28603   3.889   1.423  16.679  0.0958  0.4785  0.0854
 5715SOL    HW128604   3.880   1.427  16.774 -1.3682  1.4776 -0.1013
 5715SOL    HW228605   3.810   1.461  16.642 -0.4369 -1.7464 -1.1064
 5716SOL     OW28606   2.306   4.533   5.347 -0.0870 -0.0093  0.0629
 5716SOL    HW128607   2.214   4.559   5.343 -0.3499 -0.8200  0.8759
 5716SOL    HW228608   2.334   4.532   5.438  2.2422  0.2536 -0.6569
 5717SOL     OW28609   1.580   3.266   4.396 -0.0421 -0.6853  0.2230
 5717SOL    HW128610   1.579   3.237   4.487 -1.7134 -0.3093  0.3294
 5717SOL    HW228611   1.651   3.331   4.398  0.5573 -1.4377  2.7598
 5718SOL     OW28612   0.965   2.528   2.091 -0.2058  0.3283  0.4341
 5718SOL    HW128613   0.926   2.456   2.040  0.1355  0.7532 -0.4178
 5718SOL    HW228614   0.999   2.477   2.164  1.5217  1.1680  0.1968
 5719SOL     OW28615   4.440   1.880   4.505 -0.0540  0.1206 -0.0416
 5719SOL    HW128616   4.407   1.904   4.418 -0.4255  0.6553  0.2421
 5719SOL    HW228617   4.533   1.881   4.487 -0.3476  3.2673 -1.3023
 5720SOL     OW28618   1.806   3.360   1.298 -0.1423  0.6832 -0.2358
 5720SOL    HW128619   1.739   3.384   1.235  0.2397 -3.0033 -2.0272
 5720SOL    HW228620   1.881   3.340   1.241 -0.4601 -0.2554 -0.3260
 5721SOL     OW28621   2.397   0.601   8.397 -0.4426 -0.4755  0.1765
 5721SOL    HW128622   2.417   0.670   8.459  1.7094 -0.2322 -0.7882
 5721SOL    HW228623   2.484   0.561   8.393 -0.0651  0.1839  1.9819
 5722SOL     OW28624   0.759   1.203   7.076  0.3660 -0.2225  0.3941
 5722SOL    HW128625   0.786   1.122   7.120 -2.7594 -1.7384 -0.4408
 5722SOL    HW228626   0.665   1.199   7.095  0.6024 -1.5794  1.2684
 5723SOL     OW28627   0.842   3.003   5.940  0.4548  0.3161  0.5743
 5723SOL    HW128628   0.903   2.954   5.996  0.7847 -0.1437 -0.1764
 5723SOL    HW228629   0.903   3.033   5.872 -2.7562  2.1159 -1.4809
 5724SOL     OW28630   0.801   3.292   7.871  0.2131  0.1047  0.2949
 5724SOL    HW128631   0.856   3.282   7.948  1.3631  0.2876 -0.4872
 5724SOL    HW228632   0.728   3.240   7.904  0.9412 -0.9987  0.1649
 5725SOL     OW28633   3.764   0.804  10.613 -0.0602 -0.2095  0.1893
 5725SOL    HW128634   3.745   0.724  10.564 -1.7097 -0.5410  1.3652
 5725SOL    HW228635   3.857   0.802  10.636  0.4193 -0.8254 -1.7904
 5726SOL     OW28636   3.574   1.783   8.241 -0.5593 -0.1024  0.7505
 5726SOL    HW128637   3.499   1.781   8.181 -0.9588 -0.2181  1.2607
 5726SOL    HW228638   3.632   1.848   8.201 -0.3841  0.4656  1.9542
 5727SOL     OW28639   4.346   1.035   2.339  0.2161 -0.1023 -0.0027
 5727SOL    HW128640   4.257   1.024   2.305  1.3095 -2.0396 -2.3315
 5727SOL    HW228641   4.397   1.051   2.259  0.8276  2.0668  0.8140
 5728SOL     OW28642   4.258   3.745   9.158  0.1168  0.0292 -0.3093
 5728SOL    HW128643   4.302   3.669   9.196  0.0333 -0.5066 -1.2974
 5728SOL    HW228644   4.169   3.715   9.144 -0.2589 -0.2912  2.6865
 5729SOL     OW28645   4.636   2.834   0.266 -0.1313  0.3319 -0.5867
 5729SOL    HW128646   4.563   2.845   0.205  0.5001 -1.8059 -1.6988
 5729SOL    HW228647   4.712   2.850   0.211  0.1471 -0.7032 -0.5015
 5730SOL     OW28648   0.782   1.938  12.064 -0.1436 -0.1082 -0.5280
 5730SOL    HW128649   0.878   1.935  12.058 -0.1829 -1.6167 -0.2821
 5730SOL    HW228650   0.765   1.846  12.082 -1.1445  0.4187  1.2472
 5731SOL     OW28651   3.341   4.598   5.115 -0.1150  0.1179  0.0412
 5731SOL    HW128652   3.404   4.546   5.166 -0.1178  1.3072  1.2483
 5731SOL    HW228653   3.376   4.586   5.027 -0.4866  0.2598 -0.1247
 5732SOL     OW28654   3.621   4.444   8.921  0.7472 -0.4781 -0.2599
 5732SOL    HW128655   3.541   4.496   8.923 -0.9186 -3.0467  0.9623
 5732SOL    HW228656   3.693   4.506   8.909 -1.7838  2.2576 -1.2364
 5733SOL     OW28657   2.044   1.348  12.785 -1.2099  0.5895 -0.0035
 5733SOL    HW128658   2.030   1.389  12.871  1.1698  2.6170 -0.5659
 5733SOL    HW228659   1.961   1.360  12.739 -1.4522 -0.2032  0.2318
 5734SOL     OW28660   2.180   1.537  12.589 -0.4059 -0.3992 -0.2536
 5734SOL    HW128661   2.151   1.463  12.642  0.5060 -0.7300 -0.2236
 5734SOL    HW228662   2.197   1.498  12.503  3.1970 -1.0439  0.7384
 5735SOL     OW28663   2.766   0.076   4.750  0.2464  0.5872  0.4455
 5735SOL    HW128664   2.702   0.038   4.690  0.9226  0.4409 -0.1817
 5735SOL    HW228665   2.814   4.716   4.749 -0.2776  0.2628  1.5864
 5736SOL     OW28666   1.766   3.855   2.097 -0.3090  0.0422  1.0025
 5736SOL    HW128667   1.717   3.840   2.016  0.1295  0.1382  0.7235
 5736SOL    HW228668   1.766   3.951   2.098  0.3827  0.0464  0.2830
 5737SOL     OW28669   2.192   0.083  17.296 -0.2258  0.4613 -0.0572
 5737SOL    HW128670   2.153   0.039  17.371 -0.6330  2.3087  0.8046
 5737SOL    HW228671   2.163   0.174  17.298 -0.5373  0.3321  1.7211
 5738SOL     OW28672   0.733   4.336  11.483 -0.3658 -0.5306 -0.1191
 5738SOL    HW128673   0.793   4.369  11.549 -1.8069  0.2454  0.7869
 5738SOL    HW228674   0.667   4.405  11.489 -0.6053 -1.0424  3.2516
 5739SOL     OW28675   0.710   2.085   7.579  0.6097  0.5319 -0.0687
 5739SOL    HW128676   0.745   2.136   7.506  1.0817 -0.1089 -0.2835
 5739SOL    HW228677   0.780   2.100   7.643  0.9072 -1.9296  0.1516
 5740SOL     OW28678   0.796   0.991   4.667 -0.2817  0.3182 -0.0627
 5740SOL    HW128679   0.837   1.019   4.585  0.9166  0.1863  0.4901
 5740SOL    HW228680   0.704   0.998   4.641 -0.3492 -0.0341  0.0847
 5741SOL     OW28681   3.067   4.025  15.921  0.0705  0.0637  0.4822
 5741SOL    HW128682   3.156   4.030  15.885 -0.4293  0.8416 -0.6504
 5741SOL    HW228683   3.013   4.008  15.844  1.9340 -0.9284 -0.5894
 5742SOL     OW28684   3.609   0.588   1.634  0.3873  0.7854 -0.0323
 5742SOL    HW128685   3.651   0.544   1.561 -0.1561 -0.0888  0.1716
 5742SOL    HW228686   3.685   0.601   1.690 -0.0120  1.1197  0.4413
 5743SOL     OW28687   1.762   3.922   5.159  0.4539 -0.4508  0.3993
 5743SOL    HW128688   1.739   3.879   5.076 -2.2689 -1.3653  1.6314
 5743SOL    HW228689   1.685   3.972   5.185 -0.0994 -2.1729  2.0416
 5744SOL     OW28690   4.131   2.982   5.494  0.2593  0.2122  0.3401
 5744SOL    HW128691   4.109   2.970   5.402 -0.3779  0.7588  0.4239
 5744SOL    HW228692   4.094   3.070   5.502  2.6806  1.6006 -3.3855
 5745SOL     OW28693   4.682   3.586   3.945  0.3031  0.3557  0.1833
 5745SOL    HW128694   4.587   3.590   3.937  0.3036  1.0340  0.4880
 5745SOL    HW228695   4.703   3.495   3.968  1.8453  0.7519  0.4058
 5746SOL     OW28696   1.662   3.377   1.554  0.1341  0.1976  0.4954
 5746SOL    HW128697   1.718   3.342   1.485 -1.3134 -0.9913 -0.0863
 5746SOL    HW228698   1.600   3.306   1.570 -0.0482 -0.2000 -1.9878
 5747SOL     OW28699   3.813   4.175   2.942 -0.4825 -0.2487  0.3835
 5747SOL    HW128700   3.812   4.135   2.855 -0.4418  0.4862  0.0400
 5747SOL    HW228701   3.719   4.192   2.954  0.1226  0.9880  3.4401
 5748SOL     OW28702   4.010   4.434   8.868  0.2771  0.3275  0.5906
 5748SOL    HW128703   3.973   4.457   8.953  0.9093 -1.0419  1.2384
 5748SOL    HW228704   4.004   4.521   8.828 -1.2858 -0.3010 -0.5678
 5749SOL     OW28705   2.146   0.204   1.815 -0.1518 -0.2137 -0.4407
 5749SOL    HW128706   2.072   0.230   1.760 -2.0118  1.1932  2.7581
 5749SOL    HW228707   2.104   0.129   1.857  0.2443  0.3479  0.9520
 5750SOL     OW28708   1.492   2.403   2.771 -0.5438  0.2505 -0.2220
 5750SOL    HW128709   1.410   2.354   2.780  1.6885 -3.5930 -1.0533
 5750SOL    HW228710   1.482   2.426   2.679 -0.8589  2.2833  0.3080
 5751SOL     OW28711   3.296   0.140   7.015 -0.8936  0.1206 -0.5244
 5751SOL    HW128712   3.389   0.122   7.000 -1.2089  0.1687 -2.5564
 5751SOL    HW228713   3.287   0.226   6.974 -0.5732 -1.0772 -3.1496
 5752SOL     OW28714   4.567   4.018  13.375  0.2439 -0.5715  0.3253
 5752SOL    HW128715   4.618   3.938  13.379  0.1851 -0.7639 -3.1541
 5752SOL    HW228716   4.572   4.064  13.459  0.9307 -0.3314  0.1510
 5753SOL     OW28717   2.136   4.499  15.028  0.5580  0.2421 -0.7684
 5753SOL    HW128718   2.099   4.480  15.114  0.9030  0.6014 -0.5420
 5753SOL    HW228719   2.207   4.555  15.060 -1.4258  0.8569  2.5741
 5754SOL     OW28720   3.967   3.231   4.809 -1.0355  0.2032  0.1699
 5754SOL    HW128721   3.964   3.311   4.861 -0.1721  1.3574 -1.5756
 5754SOL    HW228722   3.927   3.262   4.727 -2.8555 -0.6633  0.7087
 5755SOL     OW28723   2.024   0.370   6.208  0.6350  0.1480  0.0023
 5755SOL    HW128724   2.003   0.434   6.139  1.9662  0.7602  0.1708
 5755SOL    HW228725   1.937   0.339   6.235  0.3991  0.9966  0.2360
 5756SOL     OW28726   1.587   2.508   3.993  0.5198  0.4906 -0.4439
 5756SOL    HW128727   1.575   2.414   3.980 -0.0832  0.7926 -2.0480
 5756SOL    HW228728   1.509   2.536   4.042  1.0638 -1.7812  1.7348
 5757SOL     OW28729   0.581   4.517  12.447  0.3277  0.2100 -0.4523
 5757SOL    HW128730   0.521   4.460  12.495  0.0730  3.0382  2.6400
 5757SOL    HW228731   0.646   4.447  12.442  0.6707  0.5290 -0.4632
 5758SOL     OW28732   1.088   0.525   5.452  0.1000 -0.3236  0.0238
 5758SOL    HW128733   1.004   0.570   5.456  0.0219 -0.4985  0.3332
 5758SOL    HW228734   1.145   0.570   5.515  0.5234  0.0976 -0.6603
 5759SOL     OW28735   4.023   0.956  11.151  0.1501  0.0195 -0.4739
 5759SOL    HW128736   3.977   1.022  11.202  0.0817 -1.0277  0.7920
 5759SOL    HW228737   3.955   0.932  11.088 -0.4386  0.3897  0.0185
 5760SOL     OW28738   1.636   4.111   1.083 -0.1495  0.5314  0.1510
 5760SOL    HW128739   1.549   4.151   1.087 -0.0866  0.3812  2.7215
 5760SOL    HW228740   1.631   4.033   1.138  2.1602 -0.7079 -1.3588
 5761SOL     OW28741   1.651   0.159   3.578 -0.5485 -0.3780 -0.1302
 5761SOL    HW128742   1.578   0.186   3.521 -0.2005 -2.0068 -1.3534
 5761SOL    HW228743   1.713   0.108   3.526  0.3192  1.3748 -0.8442
 5762SOL     OW28744   3.242   0.523   3.831 -0.0073  0.2443  0.7116
 5762SOL    HW128745   3.315   0.581   3.810 -0.1330  0.0354 -0.2740
 5762SOL    HW228746   3.163   0.578   3.830 -0.5570 -0.5833 -0.7238
 5763SOL     OW28747   0.630   2.681   4.834  0.1278 -1.0594  0.2467
 5763SOL    HW128748   0.648   2.588   4.849 -0.0063 -1.0790  0.2947
 5763SOL    HW228749   0.568   2.701   4.905 -1.2493  0.7932 -1.4635
 5764SOL     OW28750   2.250   2.139  14.097  0.2037  0.5642  0.1455
 5764SOL    HW128751   2.290   2.218  14.133 -0.7282  0.9813  0.2639
 5764SOL    HW228752   2.161   2.156  14.128 -0.1063 -0.6859 -0.0456
 5765SOL     OW28753   3.052   4.116   4.653 -0.6709 -0.8138  0.2531
 5765SOL    HW128754   3.102   4.041   4.686  3.2549  2.7701  2.4793
 5765SOL    HW228755   3.000   4.134   4.731 -3.9194 -0.2561 -2.0423
 5766SOL     OW28756   2.565   2.167   7.905 -0.6530  0.7818 -0.0424
 5766SOL    HW128757   2.613   2.216   7.839 -0.7555  1.6117  0.5008
 5766SOL    HW228758   2.484   2.216   7.893 -1.0680  0.5451  1.6756
 5767SOL     OW28759   0.774   0.413   9.501  0.0159  0.0744 -0.2459
 5767SOL    HW128760   0.809   0.423   9.413  3.8957 -1.4788  1.1198
 5767SOL    HW228761   0.817   0.484   9.548 -0.4253 -1.5985  2.6904
 5768SOL     OW28762   0.381   1.132  16.526  0.6928 -0.2710 -0.7003
 5768SOL    HW128763   0.411   1.046  16.554  1.3307  0.6692  1.4513
 5768SOL    HW228764   0.321   1.103  16.457  0.2982 -0.4006 -0.3095
 5769SOL     OW28765   0.647   3.383   1.981 -0.2169  0.3636 -0.4512
 5769SOL    HW128766   0.693   3.437   1.917  0.9046 -0.2422 -0.1572
 5769SOL    HW228767   0.626   3.455   2.040 -1.1585 -0.9992  0.8859
 5770SOL     OW28768   4.382   4.720   9.533 -0.4551  0.6797 -0.5324
 5770SOL    HW128769   4.359   0.071   9.477 -3.7347  2.0831  2.6486
 5770SOL    HW228770   4.328   0.028   9.606 -1.1066 -1.7402  0.0199
 5771SOL     OW28771   3.910   3.445   2.038  0.3632  0.0174 -0.1968
 5771SOL    HW128772   3.914   3.400   1.953  3.2472  0.9121 -0.5328
 5771SOL    HW228773   3.824   3.418   2.070  0.3625 -0.6775 -0.7809
 5772SOL     OW28774   0.042   4.559   1.673  0.1720  0.0837 -0.2139
 5772SOL    HW128775   4.683   4.605   1.689 -0.8706 -0.6111 -3.5717
 5772SOL    HW228776   0.051   4.515   1.757  3.3176  2.7115  0.8049
 5773SOL     OW28777   0.250   1.612   0.506 -0.3903  0.0436 -0.0142
 5773SOL    HW128778   0.342   1.623   0.482 -0.4931 -0.4940 -0.6754
 5773SOL    HW228779   0.213   1.604   0.418 -1.3227 -0.1207  0.3853
 5774SOL     OW28780   2.369   4.468   5.603 -0.1935  0.4659 -0.3930
 5774SOL    HW128781   2.421   4.470   5.684 -0.1484  1.2000 -0.4346
 5774SOL    HW228782   2.283   4.459   5.644 -1.5120  1.2741 -2.9901
 5775SOL     OW28783   1.219   0.829   8.325  0.5403 -0.0012  0.2804
 5775SOL    HW128784   1.306   0.790   8.320  0.3813 -0.3654  0.2947
 5775SOL    HW228785   1.230   0.896   8.258  3.4228  1.5863  2.3397
 5776SOL     OW28786   2.562   2.037  12.282 -0.5131 -0.5172  0.0420
 5776SOL    HW128787   2.643   1.987  12.284 -1.3157 -1.8896 -1.6187
 5776SOL    HW228788   2.535   2.001  12.367 -1.1736  0.7605  0.3713
 5777SOL     OW28789   2.948   1.283   6.763 -0.0775 -0.2380  0.0857
 5777SOL    HW128790   2.871   1.299   6.818  0.4019  0.7381  0.4645
 5777SOL    HW228791   2.967   1.193   6.788  1.5036  0.2450  0.5872
 5778SOL     OW28792   3.871   1.856   6.541  0.2656  0.3986  0.1327
 5778SOL    HW128793   3.847   1.783   6.599 -1.4548  0.0284 -1.0430
 5778SOL    HW228794   3.852   1.936   6.589 -3.4126 -0.1545 -0.3968
 5779SOL     OW28795   3.862   3.338   7.442  0.3198 -0.2516 -0.0838
 5779SOL    HW128796   3.930   3.306   7.382 -0.5379 -2.0770 -0.0814
 5779SOL    HW228797   3.894   3.351   7.531 -0.5761  0.8625  0.0804
 5780SOL     OW28798   2.180   3.270   9.705 -0.1932  0.8354 -0.5832
 5780SOL    HW128799   2.261   3.321   9.705  1.1280 -1.2437 -0.0141
 5780SOL    HW228800   2.148   3.281   9.616  0.0579  2.6903 -0.4368
 5781SOL     OW28801   4.419   4.082   0.911 -0.0001  0.4753 -0.6115
 5781SOL    HW128802   4.474   4.160   0.917 -0.0096  0.5428 -1.3933
 5781SOL    HW228803   4.335   4.120   0.887  1.0917  2.4022 -1.3639
 5782SOL     OW28804   3.772   4.503   5.230  0.1318  0.0331 -0.3003
 5782SOL    HW128805   3.792   4.412   5.253 -0.7058 -0.1080 -0.1398
 5782SOL    HW228806   3.677   4.495   5.234  0.1845 -0.6641 -0.3978
 5783SOL     OW28807   0.390   3.290   4.185  0.3027  0.0554 -0.0051
 5783SOL    HW128808   0.381   3.296   4.280 -1.5356 -0.7740 -0.1064
 5783SOL    HW228809   0.316   3.348   4.165  0.4375  0.3716  0.4189
 5784SOL     OW28810   1.498   0.371   7.415  0.1146  0.6184  0.3456
 5784SOL    HW128811   1.403   0.365   7.417 -0.1407  3.2010 -2.8989
 5784SOL    HW228812   1.526   0.324   7.337 -2.6648  0.2407 -0.3912
 5785SOL     OW28813   4.500   2.608  10.938  0.1796 -0.0086 -0.2110
 5785SOL    HW128814   4.489   2.561  11.021 -0.4273  0.5398  0.0153
 5785SOL    HW228815   4.552   2.545  10.889 -0.2615 -0.3567 -0.2262
 5786SOL     OW28816   4.101   2.737  14.137 -0.0954 -0.1592 -0.3618
 5786SOL    HW128817   4.112   2.740  14.232  0.9252  1.4350 -0.5239
 5786SOL    HW228818   4.192   2.750  14.111 -0.0579 -0.0566 -0.1773
 5787SOL     OW28819   1.775   3.756   8.420  0.7508  0.1979  0.5642
 5787SOL    HW128820   1.738   3.681   8.373  0.6999  1.9590 -2.2207
 5787SOL    HW228821   1.722   3.762   8.500  2.4982  1.1134  1.6464
 5788SOL     OW28822   0.231   1.043   3.641 -0.0884  0.4149  0.3027
 5788SOL    HW128823   0.297   0.976   3.624  0.6832  0.7624  1.9614
 5788SOL    HW228824   0.275   1.126   3.621  0.3305  0.2345  0.4708
 5789SOL     OW28825   1.983   1.854  16.511  0.2462 -0.1603 -0.2790
 5789SOL    HW128826   2.066   1.897  16.533 -0.8324  1.6334  0.2825
 5789SOL    HW228827   2.004   1.762  16.491 -3.1319 -1.0224  0.1632
 5790SOL     OW28828   0.541   4.428  14.065  0.1673 -0.2805  0.1743
 5790SOL    HW128829   0.458   4.454  14.105  0.2647 -0.1773  0.3074
 5790SOL    HW228830   0.538   4.332  14.070  0.5769 -0.2342  1.2616
 5791SOL     OW28831   0.186   3.428   7.224 -0.3238  0.4254 -0.2355
 5791SOL    HW128832   0.122   3.468   7.283  1.2814  1.2629  0.9080
 5791SOL    HW228833   0.230   3.505   7.188 -0.6150 -0.0863 -1.6989
 5792SOL     OW28834   0.109   2.427   8.380 -0.1046  0.0771 -0.2024
 5792SOL    HW128835   0.015   2.421   8.363 -0.4039  1.5032  0.9676
 5792SOL    HW228836   0.111   2.523   8.382  1.0291  0.0306  1.2656
 5793SOL     OW28837   0.382   2.521   8.603 -0.3164  0.0816 -0.1656
 5793SOL    HW128838   0.317   2.559   8.662 -0.2041  1.4218 -0.8836
 5793SOL    HW228839   0.358   2.559   8.518 -0.9906 -1.3829 -0.6214
 5794SOL     OW28840   0.958   0.992  12.890 -0.4645 -0.2105 -0.0412
 5794SOL    HW128841   0.978   1.029  12.976 -3.4794  1.6806 -0.1762
 5794SOL    HW228842   0.865   0.976  12.906 -0.3255  1.1825  2.1871
 5795SOL     OW28843   1.720   4.135   2.055  0.5729  0.0006  0.5061
 5795SOL    HW128844   1.745   4.213   2.005  1.2657 -0.5223  0.0388
 5795SOL    HW228845   1.629   4.132   2.026  0.3900  0.7269  0.9842
 5796SOL     OW28846   4.476   1.294   6.163  0.6408  0.3009 -0.7104
 5796SOL    HW128847   4.428   1.344   6.097  0.7032 -0.3295 -1.2293
 5796SOL    HW228848   4.543   1.355   6.194  1.3722 -0.6447 -0.4274
 5797SOL     OW28849   2.895   0.115  16.641 -0.5307  0.2000 -0.2617
 5797SOL    HW128850   2.812   0.130  16.686 -0.9425  1.0009 -1.2670
 5797SOL    HW228851   2.941   0.053  16.696  1.7981  2.3396  0.2261
 5798SOL     OW28852   3.769   3.266   1.591 -0.1803 -0.6824  0.6570
 5798SOL    HW128853   3.720   3.239   1.669 -1.8736  2.1510  0.5524
 5798SOL    HW228854   3.819   3.187   1.570 -1.8620 -1.8691  1.0875
 5799SOL     OW28855   0.022   1.356   9.262  0.0627 -0.2692 -0.2079
 5799SOL    HW128856   0.088   1.346   9.193  0.5158 -4.2046  0.7494
 5799SOL    HW228857   0.025   1.281   9.322 -0.3514  0.3334  0.5581
 5800SOL     OW28858   0.080   2.488  14.579  0.5749  0.4048 -0.1110
 5800SOL    HW128859   0.068   2.469  14.486  0.8994 -1.7322  0.2992
 5800SOL    HW228860   0.078   2.583  14.567 -2.2008  0.1164 -2.0342
 5801SOL     OW28861   1.681   1.208   4.475 -0.6595  0.6943  0.2876
 5801SOL    HW128862   1.677   1.299   4.503 -1.2870  0.5474  0.6602
 5801SOL    HW228863   1.599   1.179   4.515 -1.2899  0.3985 -1.1997
 5802SOL     OW28864   0.896   4.682   5.818  0.4147  0.1249 -0.5167
 5802SOL    HW128865   0.844   4.640   5.750 -0.6674 -0.8584  0.9254
 5802SOL    HW228866   0.830   4.697   5.885  1.0195  0.1372  0.0767
 5803SOL     OW28867   3.354   2.873   3.954  0.2431 -0.3815 -0.3367
 5803SOL    HW128868   3.424   2.837   4.009 -0.1233  0.6704  0.8178
 5803SOL    HW228869   3.405   2.947   3.923  0.9717 -0.7080  0.0716
 5804SOL     OW28870   1.219   3.717   1.911 -0.4145 -0.0253 -0.2958
 5804SOL    HW128871   1.242   3.750   1.824  2.4077  0.9544  0.8076
 5804SOL    HW228872   1.299   3.731   1.962 -1.1394 -0.0334  0.8506
 5805SOL     OW28873   0.986   0.839   5.542 -0.7398 -0.0695 -0.1154
 5805SOL    HW128874   0.945   0.756   5.565 -1.0208 -0.2251 -1.1684
 5805SOL    HW228875   0.935   0.907   5.585 -1.1283  0.7939 -1.9238
 5806SOL     OW28876   4.074   0.691   5.113 -0.4103 -0.2864 -0.0999
 5806SOL    HW128877   4.123   0.754   5.165 -2.0561 -0.7714  2.0494
 5806SOL    HW228878   4.089   0.733   5.028  1.5110  2.1142  1.4123
 5807SOL     OW28879   4.492   2.840   8.064  0.2650  0.2827 -0.0809
 5807SOL    HW128880   4.417   2.782   8.078 -0.5447  1.0845 -1.0409
 5807SOL    HW228881   4.492   2.899   8.139 -0.0661  1.0688 -0.6913
 5808SOL     OW28882   1.062   2.202   6.613  0.0064 -0.0793  0.3572
 5808SOL    HW128883   1.051   2.179   6.521  2.0093  0.0648  0.0780
 5808SOL    HW228884   1.050   2.297   6.607  1.6751  0.0177 -1.4271
 5809SOL     OW28885   1.888   4.476   7.336  0.0982 -0.2574 -0.8497
 5809SOL    HW128886   1.794   4.490   7.347 -0.5214 -1.6081 -4.5047
 5809SOL    HW228887   1.887   4.395   7.285 -1.8516 -1.5787  1.2758
 5810SOL     OW28888   0.214   0.169   8.774  0.1462  0.4864 -0.0826
 5810SOL    HW128889   0.159   0.159   8.852 -2.0754 -0.5832 -1.7779
 5810SOL    HW228890   0.196   0.258   8.745 -1.6380  0.4287  0.8818
 5811SOL     OW28891   4.492   2.466   5.856  0.4011 -0.0052 -0.0925
 5811SOL    HW128892   4.506   2.384   5.808  1.5900  0.9510 -1.3829
 5811SOL    HW228893   4.405   2.445   5.890 -0.2792 -0.4299 -2.0621
 5812SOL     OW28894   1.942   3.069   6.631  1.0925  0.0675  0.2065
 5812SOL    HW128895   1.904   3.153   6.657  1.4126  1.2243 -3.0615
 5812SOL    HW228896   1.942   3.076   6.535 -1.2543 -1.7117  0.0879
 5813SOL     OW28897   1.124   3.270   4.001 -0.1530  0.2622  0.1671
 5813SOL    HW128898   1.047   3.224   3.968  0.7595 -0.2206 -1.2948
 5813SOL    HW228899   1.152   3.219   4.077  0.1816  2.0272  1.2356
 5814SOL     OW28900   3.013   4.019   7.538  0.4966 -0.4578 -0.6214
 5814SOL    HW128901   3.059   4.030   7.621  0.4115  1.1388 -0.7777
 5814SOL    HW228902   3.004   3.925   7.521 -0.7421 -0.4802  0.2188
 5815SOL     OW28903   2.470   3.695   4.527 -0.0582  0.9000  0.3049
 5815SOL    HW128904   2.452   3.605   4.498  0.3359  0.5405  1.1586
 5815SOL    HW228905   2.541   3.718   4.468  0.4959  3.1736  1.8563
 5816SOL     OW28906   3.201   1.022   9.478  0.3990 -0.1363  0.7654
 5816SOL    HW128907   3.143   0.955   9.444  0.6518  0.3733 -0.6580
 5816SOL    HW228908   3.139   1.069   9.534  1.2560  0.9851  0.7693
 5817SOL     OW28909   0.520   3.738   3.159  0.2528  0.2942  0.0952
 5817SOL    HW128910   0.521   3.833   3.175  0.8256  0.1134  1.1311
 5817SOL    HW228911   0.447   3.726   3.099 -0.8985 -1.0567  1.7676
 5818SOL     OW28912   3.187   0.285  16.262 -0.1242 -0.0321  0.1093
 5818SOL    HW128913   3.151   0.241  16.185  0.3031  1.2960 -0.8626
 5818SOL    HW228914   3.146   0.243  16.337  1.7423  1.0242  1.7048
 5819SOL     OW28915   0.237   0.829   7.775  0.2408 -0.5162  0.3822
 5819SOL    HW128916   0.223   0.758   7.713 -1.0274  0.1435 -0.0837
 5819SOL    HW228917   0.274   0.889   7.710  2.4907 -0.9864  1.2192
 5820SOL     OW28918   3.262   1.358   9.431 -0.4785 -0.1251  0.4628
 5820SOL    HW128919   3.254   1.301   9.507 -0.1490 -1.5515 -0.5674
 5820SOL    HW228920   3.203   1.310   9.373 -1.0118 -0.5050  1.3140
 5821SOL     OW28921   3.871   0.387  16.502  0.8871 -0.3864  0.0539
 5821SOL    HW128922   3.848   0.440  16.426  0.2986 -1.1864 -0.3329
 5821SOL    HW228923   3.786   0.397  16.546  2.1740 -0.7665  2.6202
 5822SOL     OW28924   1.035   2.261   7.592 -0.6437  0.1434 -0.1517
 5822SOL    HW128925   1.081   2.212   7.660 -0.5515  0.4663  0.0181
 5822SOL    HW228926   1.041   2.200   7.519 -3.4710  0.1608 -0.3706
 5823SOL     OW28927   4.364   2.406   1.653  0.0521  0.3726  0.4000
 5823SOL    HW128928   4.421   2.473   1.616  0.8157 -2.1727 -3.0271
 5823SOL    HW228929   4.347   2.427   1.745 -0.5937  2.7953 -0.2842
 5824SOL     OW28930   0.688   1.950  13.308  0.3208 -0.2260 -0.0118
 5824SOL    HW128931   0.750   2.019  13.331 -1.0156  0.8545  0.3458
 5824SOL    HW228932   0.630   1.986  13.240 -0.0268 -2.2207 -0.7646
 5825SOL     OW28933   3.846   2.718  14.281 -0.3601 -0.1499  0.5769
 5825SOL    HW128934   3.907   2.703  14.209 -1.7894 -1.8944 -0.2598
 5825SOL    HW228935   3.905   2.723  14.356  0.1005  1.2596  0.1361
 5826SOL     OW28936   3.886   3.989  17.430  0.1579 -0.6239 -0.2180
 5826SOL    HW128937   3.827   3.918  17.456  1.3435 -1.1793  0.9841
 5826SOL    HW228938   3.922   3.958  17.348  2.1625 -2.5966  1.4100
 5827SOL     OW28939   3.826   1.222   6.420 -0.4256 -0.7871  0.0520
 5827SOL    HW128940   3.842   1.301   6.471 -0.5879 -0.2084 -0.7973
 5827SOL    HW228941   3.830   1.155   6.488  3.0346 -0.2483  0.3962
 5828SOL     OW28942   0.392   1.246   4.949 -0.1038 -0.4098 -0.2470
 5828SOL    HW128943   0.349   1.293   4.878 -0.4044 -1.6142 -0.8611
 5828SOL    HW228944   0.317   1.241   5.008 -0.5318 -0.8027 -0.8342
 5829SOL     OW28945   3.486   2.604   6.730  0.3251  0.1332 -0.5664
 5829SOL    HW128946   3.574   2.630   6.756 -0.2834  1.3122  0.3285
 5829SOL    HW228947   3.430   2.674   6.764  0.2840 -0.7655  1.2134
 5830SOL     OW28948   0.364   4.283   7.918  0.3665 -0.0783  0.1170
 5830SOL    HW128949   0.331   4.240   7.997  0.7389 -0.6516 -0.0398
 5830SOL    HW228950   0.307   4.359   7.907  0.7686  0.5035  2.1563
 5831SOL     OW28951   1.269   2.467   1.659 -0.2030  0.4311 -0.1050
 5831SOL    HW128952   1.247   2.555   1.691  4.1222  0.7701  1.8834
 5831SOL    HW228953   1.195   2.416   1.693 -0.5697  1.0022 -0.0374
 5832SOL     OW28954   2.034   3.245   5.935 -0.2486 -0.6159  0.0102
 5832SOL    HW128955   2.052   3.283   6.021  0.3329  0.1668 -0.4640
 5832SOL    HW228956   2.058   3.315   5.875 -1.3356  0.4495  0.8199
 5833SOL     OW28957   1.609   3.486   2.094  0.0183 -0.4902 -0.3059
 5833SOL    HW128958   1.588   3.483   2.000  1.9367  1.1680 -0.7694
 5833SOL    HW228959   1.674   3.417   2.101 -0.2760 -0.9274 -1.9130
 5834SOL     OW28960   2.785   1.153   4.971  0.9806  0.6214  0.4646
 5834SOL    HW128961   2.744   1.229   5.011  0.6256  1.6003 -1.7758
 5834SOL    HW228962   2.754   1.079   5.024  2.8067 -1.2881 -1.1402
 5835SOL     OW28963   3.342   2.633   8.914 -0.3334 -0.4128 -0.2945
 5835SOL    HW128964   3.325   2.600   9.003 -0.9462 -0.9653 -0.6146
 5835SOL    HW228965   3.273   2.595   8.860 -1.0293  1.6717 -0.8840
 5836SOL     OW28966   2.047   3.066  10.950  0.3746  0.2359 -0.2479
 5836SOL    HW128967   2.017   3.153  10.977 -1.0338 -0.1254 -0.6807
 5836SOL    HW228968   1.964   3.022  10.930 -0.0504  0.7906  0.2886
 5837SOL     OW28969   4.205   3.598   3.991 -0.0671  0.5585  0.0813
 5837SOL    HW128970   4.289   3.642   3.983 -0.6223  1.4963 -0.6009
 5837SOL    HW228971   4.168   3.635   4.072 -0.1669  0.3489  0.1301
 5838SOL     OW28972   3.828   3.456   8.192  0.2443 -0.3818  0.7183
 5838SOL    HW128973   3.795   3.545   8.196  1.1048 -0.0580  0.6014
 5838SOL    HW228974   3.834   3.436   8.285  0.7456 -0.3541  0.6914
 5839SOL     OW28975   0.823   2.356  10.012 -0.0750 -0.4745 -0.6068
 5839SOL    HW128976   0.780   2.313   9.938 -0.4945 -1.8047  0.4154
 5839SOL    HW228977   0.916   2.334  10.000  0.6576  2.9108 -0.9576
 5840SOL     OW28978   0.443   2.777   3.640  0.0995  0.1548 -0.0035
 5840SOL    HW128979   0.427   2.861   3.596  2.8365  0.8132  0.2465
 5840SOL    HW228980   0.515   2.803   3.697 -0.8055 -1.9921  2.1008
 5841SOL     OW28981   0.925   1.955   8.254  0.3611 -0.1907  0.4707
 5841SOL    HW128982   0.967   1.869   8.262 -0.5835 -0.7698 -0.7208
 5841SOL    HW228983   0.957   1.997   8.333  0.5573  1.8429 -0.6885
 5842SOL     OW28984   0.028   0.851   4.078 -0.7671 -0.0833 -0.0590
 5842SOL    HW128985   0.042   0.887   3.990  0.9906  0.1388  0.3162
 5842SOL    HW228986   0.109   0.808   4.102 -0.8657 -0.7209 -0.8653
 5843SOL     OW28987   2.450   2.133   5.781 -0.5491 -0.0047  0.0973
 5843SOL    HW128988   2.516   2.092   5.837  1.5594  2.9453 -0.1991
 5843SOL    HW228989   2.372   2.117   5.833  0.1862 -0.4880  1.0334
 5844SOL     OW28990   3.456   1.046   2.994  0.2313  0.4979  0.4590
 5844SOL    HW128991   3.514   1.114   3.027 -0.0577  1.2170 -0.5263
 5844SOL    HW228992   3.476   1.045   2.900  1.0157  0.8884  0.6244
 5845SOL     OW28993   3.930   0.689   3.140 -0.9029  0.3158  0.2425
 5845SOL    HW128994   3.924   0.748   3.065  0.3929 -0.9327 -0.8576
 5845SOL    HW228995   4.014   0.722   3.174 -0.4152  2.3849 -2.9560
 5846SOL     OW28996   1.695   4.294   6.619  0.4044  0.1420  0.3086
 5846SOL    HW128997   1.711   4.200   6.611  1.7914  0.3976  0.0934
 5846SOL    HW228998   1.602   4.304   6.598 -0.3516 -1.0286  3.1297
 5847SOL     OW28999   4.451   0.209  17.646  0.4733  0.0499  0.1321
 5847SOL    HW129000   4.458   0.298  17.681  0.0096  0.6435 -1.2920
 5847SOL    HW229001   4.362   0.189  17.674  0.5328  1.4999  1.3749
 5848SOL     OW29002   3.030   4.552  15.680  0.4727 -0.5719  0.2297
 5848SOL    HW129003   3.095   4.600  15.628 -0.6123 -0.4572 -1.0235
 5848SOL    HW229004   2.968   4.547  15.608  0.2906  0.3220  0.3248
 5849SOL     OW29005   1.343   0.751   4.944 -0.7045 -0.3220 -0.7374
 5849SOL    HW129006   1.409   0.774   5.010 -0.7410  0.7299 -1.0797
 5849SOL    HW229007   1.280   0.822   4.951 -0.2745  0.0904 -1.0887
 5850SOL     OW29008   3.780   3.841   4.940  0.5883  0.2231  0.4966
 5850SOL    HW129009   3.729   3.762   4.921  1.2460 -0.1209  0.1711
 5850SOL    HW229010   3.787   3.834   5.035 -0.5972 -1.2964  0.4630
 5851SOL     OW29011   3.886   2.594   3.902  0.2394 -0.0183  0.3750
 5851SOL    HW129012   3.923   2.506   3.898 -0.6960 -0.3575 -0.8749
 5851SOL    HW229013   3.933   2.636   3.974  0.4003 -0.0288  0.2752
 5852SOL     OW29014   0.101   2.248  15.295 -0.3682 -0.4420 -0.4412
 5852SOL    HW129015   0.189   2.250  15.257  0.2349 -0.2217  0.9553
 5852SOL    HW229016   0.123   2.217  15.383 -2.2395 -0.9062 -0.1343
 5853SOL     OW29017   1.235   2.299   3.023 -0.5733 -0.6569 -0.1755
 5853SOL    HW129018   1.296   2.362   3.061 -0.2360 -0.4162 -1.1089
 5853SOL    HW229019   1.252   2.223   3.078 -0.4293 -0.1854  0.4348
 5854SOL     OW29020   4.014   3.181   8.300 -1.4567  0.0542 -0.2631
 5854SOL    HW129021   4.034   3.139   8.383  0.2535  0.8467 -0.2809
 5854SOL    HW229022   3.967   3.260   8.326 -0.2264  0.8903 -0.5519
 5855SOL     OW29023   4.438   2.970   9.151 -0.9359  0.3819  0.2872
 5855SOL    HW129024   4.419   3.063   9.167 -0.8420  0.3652  0.4951
 5855SOL    HW229025   4.416   2.926   9.232 -0.6896  1.5836  1.0076
 5856SOL     OW29026   3.881   2.242   6.808 -0.2560 -0.3456 -0.4312
 5856SOL    HW129027   3.936   2.208   6.879  0.8898 -1.5369 -1.8922
 5856SOL    HW229028   3.795   2.241   6.851  1.7485 -1.6695  3.5464
 5857SOL     OW29029   2.920   2.632  12.453 -0.0717  0.5867 -0.1061
 5857SOL    HW129030   2.844   2.582  12.423 -0.8732  0.1457  2.5994
 5857SOL    HW229031   2.960   2.563  12.507 -1.1467 -0.7118 -0.9887
 5858SOL     OW29032   3.299   2.812  11.055  0.4888  0.2106  0.4768
 5858SOL    HW129033   3.341   2.894  11.080  0.7802  0.7539 -1.7365
 5858SOL    HW229034   3.227   2.844  11.001  1.8812 -0.5543 -1.8629
 5859SOL     OW29035   2.189   4.526  12.990  0.0661 -0.1912 -0.4631
 5859SOL    HW129036   2.210   4.617  13.011 -1.4381 -0.2727  1.3960
 5859SOL    HW229037   2.277   4.495  12.971  0.9192  1.0144  1.5490
 5860SOL     OW29038   1.692   2.427  14.157  0.3314  0.3654  0.1876
 5860SOL    HW129039   1.676   2.477  14.238 -0.3824  0.9519 -0.3090
 5860SOL    HW229040   1.729   2.346  14.190  0.1461 -0.1044 -0.7700
 5861SOL     OW29041   0.384   3.076  16.457 -0.3687 -0.3616  0.0066
 5861SOL    HW129042   0.419   3.145  16.401  2.2181  0.2197  2.3386
 5861SOL    HW229043   0.333   3.134  16.513  2.1699  1.8970 -0.0157
 5862SOL     OW29044   3.499   1.845  10.246 -0.2924  0.5112  0.4499
 5862SOL    HW129045   3.482   1.838  10.340  0.5592 -0.8209  0.4992
 5862SOL    HW229046   3.474   1.936  10.233  1.9184  0.9834 -0.4549
 5863SOL     OW29047   2.465   1.740   5.072  0.5306 -0.0628 -0.9124
 5863SOL    HW129048   2.499   1.709   5.156  1.3956  2.6070 -0.2675
 5863SOL    HW229049   2.373   1.746   5.097  0.9135 -1.8148  0.9199
 5864SOL     OW29050   3.065   4.719   7.694 -0.4583  0.5022 -0.2457
 5864SOL    HW129051   3.052   4.690   7.603  3.7485  0.2023 -0.7651
 5864SOL    HW229052   3.037   4.644   7.747 -1.0669  0.1768 -1.0079
 5865SOL     OW29053   1.083   4.619   6.794 -0.2167  0.4075 -0.1589
 5865SOL    HW129054   1.081   4.611   6.698  1.0837  1.4913 -0.2825
 5865SOL    HW229055   1.019   4.548   6.803 -0.0420  0.5404  1.9531
 5866SOL     OW29056   4.377   1.304   7.610  0.2287 -0.2617  0.5392
 5866SOL    HW129057   4.313   1.373   7.624  0.3283 -0.0239 -0.1450
 5866SOL    HW229058   4.327   1.230   7.645 -0.1197 -0.3374 -0.1163
 5867SOL     OW29059   2.370   3.170   8.442  0.0811  0.5766  0.2256
 5867SOL    HW129060   2.465   3.169   8.431 -0.0393  3.0400 -1.0236
 5867SOL    HW229061   2.370   3.176   8.538 -1.6459 -1.5528  0.3656
 5868SOL     OW29062   3.986   4.466   2.545  0.4052  0.4398 -0.0605
 5868SOL    HW129063   3.995   4.558   2.569  0.1836  0.9656 -1.9936
 5868SOL    HW229064   3.920   4.439   2.609 -0.8322  2.6475 -0.4155
 5869SOL     OW29065   4.539   3.024   8.720 -0.0222 -0.0578  0.1598
 5869SOL    HW129066   4.487   2.975   8.783  0.4755 -0.3767  0.3220
 5869SOL    HW229067   4.605   2.962   8.690 -0.3635 -0.9245  1.2126
 5870SOL     OW29068   2.510   1.165   9.288  0.1965 -0.1692  0.0130
 5870SOL    HW129069   2.544   1.135   9.373  0.9984 -1.7611 -0.8561
 5870SOL    HW229070   2.478   1.253   9.306 -0.4417 -0.4358  0.1518
 5871SOL     OW29071   1.704   1.602   5.700 -0.1060  0.0797  0.3815
 5871SOL    HW129072   1.789   1.593   5.657 -0.3797  0.6649 -0.2950
 5871SOL    HW229073   1.722   1.612   5.794  0.3716  0.2894  0.2666
 5872SOL     OW29074   4.131   1.747   5.165  0.2189  0.8829 -0.3718
 5872SOL    HW129075   4.188   1.806   5.215 -0.4408  1.7464 -0.6289
 5872SOL    HW229076   4.048   1.758   5.212  0.6957 -0.6800  0.8587
 5873SOL     OW29077   0.629   1.769   3.365 -0.3158  0.1022 -0.1376
 5873SOL    HW129078   0.549   1.748   3.317 -1.4913  0.3823  1.7200
 5873SOL    HW229079   0.605   1.749   3.455  2.5250 -1.6063  0.2562
 5874SOL     OW29080   1.474   1.835   6.040 -0.4607 -0.3975 -0.5310
 5874SOL    HW129081   1.434   1.799   5.961  0.4297  0.7668 -1.5240
 5874SOL    HW229082   1.522   1.912   6.009  0.3404 -1.1143 -1.0812
 5875SOL     OW29083   3.031   3.417  17.341  0.1798  0.8103  0.4655
 5875SOL    HW129084   3.058   3.455  17.425  0.4944 -0.9796  1.1773
 5875SOL    HW229085   2.957   3.470  17.313 -0.9606  1.0185  3.9224
 5876SOL     OW29086   1.913   0.962   8.573 -0.0572 -0.5011 -0.1920
 5876SOL    HW129087   1.927   0.928   8.485 -1.4406  0.3098 -0.7109
 5876SOL    HW229088   1.880   1.049   8.552  0.5793 -0.5429 -1.3337
 5877SOL     OW29089   1.395   2.402   8.869  0.0581  0.4945  0.6511
 5877SOL    HW129090   1.371   2.311   8.853 -1.4918  1.5270 -2.7755
 5877SOL    HW229091   1.433   2.389   8.956  0.9835  1.9110  0.4601
 5878SOL     OW29092   3.349   2.734  10.122  0.3321  0.1086 -0.2126
 5878SOL    HW129093   3.430   2.700  10.161 -0.8170  0.4134  2.4740
 5878SOL    HW229094   3.360   2.821  10.160 -2.2082 -0.5951  2.1321
 5879SOL     OW29095   2.883   0.467   9.050 -0.3650  0.0318 -0.1871
 5879SOL    HW129096   2.875   0.487   9.144 -3.2214  0.7090 -0.5759
 5879SOL    HW229097   2.806   0.510   9.013 -0.5432 -1.9378 -2.0698
 5880SOL     OW29098   4.223   1.564  12.767 -0.2606 -0.7235  0.3932
 5880SOL    HW129099   4.202   1.480  12.807 -1.1384  0.0156  1.4742
 5880SOL    HW229100   4.306   1.572  12.813  0.6097  0.2039 -1.3371
 5881SOL     OW29101   0.289   1.513   0.941 -0.4357  0.1813 -0.7954
 5881SOL    HW129102   0.248   1.588   0.986 -0.0387 -0.7901  1.1795
 5881SOL    HW229103   0.237   1.512   0.861 -1.6792  1.0615 -0.0005
 5882SOL     OW29104   0.094   1.840   8.305 -0.3392 -0.0334 -0.1726
 5882SOL    HW129105   0.098   1.852   8.399 -1.1448 -0.3742 -0.0984
 5882SOL    HW229106   0.086   1.931   8.274  0.5455 -0.2511 -1.0452
 5883SOL     OW29107   1.689   3.294   4.666  0.8791 -0.8049 -0.2881
 5883SOL    HW129108   1.666   3.271   4.756 -0.8451 -1.9498 -1.0300
 5883SOL    HW229109   1.669   3.388   4.662  1.3143 -0.7675 -1.5403
 5884SOL     OW29110   3.759   3.839   9.326  0.1110  0.0040 -0.5368
 5884SOL    HW129111   3.714   3.770   9.374  0.9073  0.1371  0.3979
 5884SOL    HW229112   3.806   3.877   9.400 -0.2873  1.4421 -1.0201
 5885SOL     OW29113   2.937   2.010  16.072 -0.4609 -0.0530  0.1836
 5885SOL    HW129114   3.012   1.952  16.060 -1.0644 -0.7651 -0.1166
 5885SOL    HW229115   2.892   2.006  15.987 -0.0793 -1.9275  0.0810
 5886SOL     OW29116   3.032   2.405   5.204 -0.2794  0.1473 -0.0157
 5886SOL    HW129117   3.080   2.363   5.132 -1.4375 -0.8873 -0.1797
 5886SOL    HW229118   2.982   2.472   5.157  2.3814  1.4285 -1.0416
 5887SOL     OW29119   0.060   1.017   8.909  0.4036 -0.2776  0.5493
 5887SOL    HW129120   0.105   0.966   8.841  0.5919  1.3095 -0.5249
 5887SOL    HW229121   0.000   1.079   8.867 -0.6519  0.3528  3.0070
 5888SOL     OW29122   3.077   0.797   5.090  0.4720  0.0266 -0.5585
 5888SOL    HW129123   3.167   0.828   5.099  0.4691 -0.6114  1.6343
 5888SOL    HW229124   3.044   0.798   5.179 -0.6928  1.5646 -1.0162
 5889SOL     OW29125   1.373   1.285   7.571  0.4338  0.4475  0.4060
 5889SOL    HW129126   1.368   1.209   7.513  1.1668  0.0063  0.9273
 5889SOL    HW229127   1.468   1.287   7.586  0.3828  1.3641  0.6424
 5890SOL     OW29128   2.903   1.538  13.490 -0.7054  0.3059 -0.0055
 5890SOL    HW129129   2.941   1.450  13.489 -0.0539  0.5688  0.8718
 5890SOL    HW229130   2.871   1.552  13.401 -0.2159 -0.5494 -0.3222
 5891SOL     OW29131   1.342   2.320  17.001 -0.5019  0.0670  0.5634
 5891SOL    HW129132   1.288   2.397  16.984 -0.9612 -0.7372 -1.5834
 5891SOL    HW229133   1.373   2.312  16.911 -3.1023  1.2048 -0.4169
 5892SOL     OW29134   3.985   3.540   3.237  1.2735  0.4389 -0.0045
 5892SOL    HW129135   4.072   3.544   3.195  0.8756 -0.9035 -0.9507
 5892SOL    HW229136   3.957   3.632   3.236  1.0968  0.3972  2.1876
 5893SOL     OW29137   2.320   1.541   6.259 -0.2090 -0.6821 -0.3216
 5893SOL    HW129138   2.362   1.560   6.175 -0.1139  0.3843 -0.0328
 5893SOL    HW229139   2.392   1.508   6.313 -0.3393 -0.6983 -0.1589
 5894SOL     OW29140   3.301   4.356   0.526  0.0822  0.0033 -0.8483
 5894SOL    HW129141   3.226   4.301   0.549  0.5404  0.6495  2.1376
 5894SOL    HW229142   3.304   4.361   0.430 -3.0946  2.7011 -0.8066
 5895SOL     OW29143   0.294   0.324  14.591  0.0533 -0.0511 -0.0429
 5895SOL    HW129144   0.347   0.263  14.643  0.5601 -0.1503 -0.6793
 5895SOL    HW229145   0.244   0.369  14.659  1.0072  1.1724 -0.1684
 5896SOL     OW29146   2.713   1.505  12.147  0.1571 -0.4514 -1.1835
 5896SOL    HW129147   2.749   1.417  12.141 -1.4208 -1.3024  1.8880
 5896SOL    HW229148   2.618   1.506  12.158  0.3696 -1.7361  0.5643
 5897SOL     OW29149   0.808   1.244   1.769  0.2361  0.0545  1.2259
 5897SOL    HW129150   0.877   1.292   1.814 -0.5165 -0.1120  2.5381
 5897SOL    HW229151   0.817   1.265   1.676 -0.0963 -1.9915  0.7206
 5898SOL     OW29152   1.836   3.185   2.974 -0.6944  0.0289 -0.0349
 5898SOL    HW129153   1.774   3.138   2.918 -1.2813  1.0438 -0.2451
 5898SOL    HW229154   1.893   3.211   2.902  1.2597 -0.7479  1.2570
 5899SOL     OW29155   3.427   3.102   3.843 -0.1101  0.5014 -0.4184
 5899SOL    HW129156   3.518   3.108   3.817  0.3991 -1.8279  0.7807
 5899SOL    HW229157   3.401   3.193   3.830  2.1561  0.9815 -1.6076
 5900SOL     OW29158   4.167   1.708   8.885 -0.4732  0.3702 -0.1011
 5900SOL    HW129159   4.094   1.651   8.909  1.3377 -0.1100  4.2346
 5900SOL    HW229160   4.221   1.698   8.964  0.9299  0.2267 -1.0672
 5901SOL     OW29161   2.580   1.296   6.043 -0.4567 -0.0004 -0.4042
 5901SOL    HW129162   2.610   1.306   6.133 -0.4418 -0.8864 -0.3123
 5901SOL    HW229163   2.513   1.231   6.064 -1.0896  0.5720 -0.6292
 5902SOL     OW29164   1.183   2.193   5.637 -0.7162 -0.4904  0.1063
 5902SOL    HW129165   1.231   2.263   5.592  0.1506 -2.3481 -1.8728
 5902SOL    HW229166   1.185   2.226   5.727  0.0221 -4.9972  1.7384
 5903SOL     OW29167   0.014   1.486  11.003  0.6649  0.2458 -0.3007
 5903SOL    HW129168   0.003   1.497  11.098 -2.0123 -1.7814 -0.3738
 5903SOL    HW229169   4.653   1.446  10.980  1.0218 -1.0174  0.6384
 5904SOL     OW29170   4.681   2.331  16.428  0.5227 -0.0993 -0.3931
 5904SOL    HW129171   4.693   2.269  16.499 -0.0918 -0.5693 -0.7003
 5904SOL    HW229172   4.717   2.413  16.462  0.0898 -0.2565  0.4389
 5905SOL     OW29173   3.675   2.796   6.761 -0.5370  0.3259  0.1471
 5905SOL    HW129174   3.699   2.888   6.753  3.0048 -0.7867 -2.1157
 5905SOL    HW229175   3.689   2.797   6.856  1.1396  2.7207 -0.1465
 5906SOL     OW29176   4.339   1.719   4.898 -0.0065  0.2558  0.0687
 5906SOL    HW129177   4.418   1.758   4.935  0.7608 -1.5946  0.3782
 5906SOL    HW229178   4.267   1.766   4.940  3.8381  3.3543  3.1293
 5907SOL     OW29179   3.184   0.531   4.131 -0.2875  0.0945  0.5186
 5907SOL    HW129180   3.263   0.570   4.096 -1.6258  0.2492 -2.2981
 5907SOL    HW229181   3.183   0.439   4.104  0.0555 -0.0095  0.8592
 5908SOL     OW29182   0.003   3.862   7.629 -0.2502  0.0926 -0.6938
 5908SOL    HW129183   4.668   3.890   7.558 -0.3905  0.2257 -0.5245
 5908SOL    HW229184   4.677   3.896   7.703  0.6481 -2.8910  1.2736
 5909SOL     OW29185   3.672   0.072  10.816  0.8465  0.4392  0.4553
 5909SOL    HW129186   3.744   0.034  10.766  1.5860  1.1294  0.9828
 5909SOL    HW229187   3.724   0.117  10.883 -1.4575 -1.0444  3.2228
 5910SOL     OW29188   2.092   2.626   9.405  0.5194 -0.5661  0.0567
 5910SOL    HW129189   2.032   2.694   9.373  0.7258  0.2806  1.4807
 5910SOL    HW229190   2.025   2.570   9.444 -0.1578  0.9908  1.1125
 5911SOL     OW29191   3.750   2.724  15.637 -0.2270 -0.1679  0.2297
 5911SOL    HW129192   3.656   2.711  15.653 -0.4416  0.1092 -0.8192
 5911SOL    HW229193   3.746   2.793  15.572  0.2448  1.5626  2.0255
 5912SOL     OW29194   2.938   3.008   2.892 -0.4356 -0.1884 -0.4847
 5912SOL    HW129195   2.868   2.957   2.933 -0.2877 -0.0296 -0.0322
 5912SOL    HW229196   3.006   2.990   2.956 -1.6419 -0.5755  0.6999
 5913SOL     OW29197   4.307   1.465  11.118  0.3971 -0.0602 -0.4547
 5913SOL    HW129198   4.401   1.476  11.126  0.1495  1.3761  0.4412
 5913SOL    HW229199   4.266   1.550  11.136  1.3232 -0.3153  2.8883
 5914SOL     OW29200   2.178   3.799  17.411 -0.3456  0.7491  0.0185
 5914SOL    HW129201   2.132   3.870  17.367 -0.6601 -0.5205 -1.7068
 5914SOL    HW229202   2.263   3.842  17.421  0.7078 -0.9364 -1.6749
 5915SOL     OW29203   0.745   4.148   6.092 -0.3511 -0.0573  0.1481
 5915SOL    HW129204   0.669   4.151   6.150  0.3793 -2.1562  1.2550
 5915SOL    HW229205   0.733   4.220   6.031  2.0562  0.7941  0.6555
 5916SOL     OW29206   3.266   4.581   5.902 -0.5572 -0.3598 -0.0344
 5916SOL    HW129207   3.321   4.646   5.858  1.3145 -1.6476  0.3781
 5916SOL    HW229208   3.247   4.534   5.820 -1.3091  1.3716 -0.8440
 5917SOL     OW29209   0.856   1.703   0.741 -0.2610 -0.0543  0.0520
 5917SOL    HW129210   0.932   1.647   0.728 -1.1432 -0.9218 -1.2891
 5917SOL    HW229211   0.901   1.788   0.740 -0.2477 -0.0627 -0.0981
 5918SOL     OW29212   1.561   2.285   6.793 -0.2104  0.3879 -0.7350
 5918SOL    HW129213   1.589   2.211   6.847 -1.3960  0.7483  0.3737
 5918SOL    HW229214   1.639   2.330   6.760  1.2402 -1.3531  0.3255
 5919SOL     OW29215   0.272   0.028   8.042  0.0652 -0.3534 -0.2504
 5919SOL    HW129216   0.304   0.117   8.053 -0.0755 -0.1378 -1.6853
 5919SOL    HW229217   0.287   4.716   8.130  0.0873  0.6032  0.1204
 5920SOL     OW29218   2.273   2.419   0.192  0.2777  0.4043  0.0373
 5920SOL    HW129219   2.317   2.355   0.248  0.8056 -0.2213 -1.0938
 5920SOL    HW229220   2.195   2.371   0.163  1.3476 -0.7170 -1.0023
 5921SOL     OW29221   4.346   1.125   1.103  0.0907 -0.2204 -0.3160
 5921SOL    HW129222   4.298   1.092   1.028 -1.0173  1.0724 -0.1646
 5921SOL    HW229223   4.341   1.051   1.164  0.5109  1.5934  1.9161
 5922SOL     OW29224   1.150   2.211  15.022  0.1687  0.0088  0.0690
 5922SOL    HW129225   1.113   2.257  14.947 -0.7192 -1.7492 -0.5581
 5922SOL    HW229226   1.141   2.276  15.092 -2.0431  0.3656 -0.5589
 5923SOL     OW29227   3.636   2.018   8.745  0.7650  0.0435 -0.2998
 5923SOL    HW129228   3.541   2.029   8.750  0.7701  0.1913 -0.5342
 5923SOL    HW229229   3.646   1.927   8.773  3.5572  0.9097  1.4672
 5924SOL     OW29230   4.671   4.390   5.865  0.2763 -1.0320  0.5192
 5924SOL    HW129231   4.640   4.449   5.934 -0.4057  0.1260 -0.7825
 5924SOL    HW229232   0.041   4.402   5.884  0.6940  0.1565 -2.3190
 5925SOL     OW29233   0.209   2.695   7.593 -0.2971 -0.3895 -0.2977
 5925SOL    HW129234   0.244   2.782   7.572 -0.6052 -0.1097  0.3168
 5925SOL    HW229235   0.123   2.687   7.553 -1.3697  2.1952  1.4638
 5926SOL     OW29236   0.138   3.437   5.842  0.1589 -0.5318 -0.0905
 5926SOL    HW129237   0.106   3.384   5.915 -1.8769  0.4072 -0.2968
 5926SOL    HW229238   0.229   3.444   5.872 -0.3614  2.7689  0.6887
 5927SOL     OW29239   2.091   0.262   5.764  0.5785 -0.0616  0.5926
 5927SOL    HW129240   2.176   0.281   5.805  0.3012 -1.2606  1.7186
 5927SOL    HW229241   2.092   0.167   5.758  0.8259  0.0874 -1.5073
 5928SOL     OW29242   4.312   2.269   2.175  0.3653 -1.0912 -0.3953
 5928SOL    HW129243   4.282   2.190   2.219 -0.1645 -0.4987  0.2961
 5928SOL    HW229244   4.234   2.324   2.168  1.4932  0.4452 -0.8468
 5929SOL     OW29245   1.586   0.083   2.121  0.6245 -0.3970  0.2150
 5929SOL    HW129246   1.522   0.043   2.063 -0.1249 -0.1377  0.8633
 5929SOL    HW229247   1.534   0.146   2.171 -0.1426  0.7539 -2.0614
 5930SOL     OW29248   4.374   3.482   9.193  0.0430 -0.1759  0.4194
 5930SOL    HW129249   4.419   3.500   9.111  0.4855 -0.6656  0.5542
 5930SOL    HW229250   4.427   3.410   9.226  0.0752 -0.5027 -0.3503
 5931SOL     OW29251   3.482   2.897   2.273 -0.7190 -0.2297 -0.0292
 5931SOL    HW129252   3.563   2.907   2.224 -0.8289  1.2980  0.1026
 5931SOL    HW229253   3.425   2.871   2.200 -2.6093  0.6031  1.1502
 5932SOL     OW29254   3.686   4.043   1.558 -0.5488  0.3623 -0.0154
 5932SOL    HW129255   3.741   4.033   1.480  1.3591 -1.4676  1.5824
 5932SOL    HW229256   3.694   4.138   1.564 -1.1090  0.4002  0.1312
 5933SOL     OW29257   0.874   3.061   8.575 -0.7162 -0.1033 -0.3118
 5933SOL    HW129258   0.884   3.100   8.489  1.3039  1.8261  0.7942
 5933SOL    HW229259   0.885   3.130   8.640 -1.1464 -1.4420  1.1954
 5934SOL     OW29260   1.904   3.467   8.269  0.3059  0.1242  0.1891
 5934SOL    HW129261   1.919   3.400   8.202  0.5551  1.8301 -1.4674
 5934SOL    HW229262   1.845   3.531   8.229 -0.8528 -0.3188  1.1566
 5935SOL     OW29263   3.993   1.667   5.432  0.5311 -0.3311 -0.0946
 5935SOL    HW129264   3.978   1.754   5.393 -0.2134  0.0318  0.9689
 5935SOL    HW229265   3.963   1.611   5.361 -0.6228 -0.6859  0.6651
 5936SOL     OW29266   2.937   0.215   9.182  0.5559 -0.3946  0.2443
 5936SOL    HW129267   2.874   0.275   9.141  0.1904 -0.6820  0.3890
 5936SOL    HW229268   2.994   0.213   9.105 -1.3376 -1.4029 -1.1431
 5937SOL     OW29269   4.087   3.061  14.350  0.3675  0.1679 -0.2402
 5937SOL    HW129270   4.020   3.121  14.380  1.5429  1.1659  0.3713
 5937SOL    HW229271   4.162   3.119  14.341 -1.0345  2.1934  1.2822
 5938SOL     OW29272   0.639   4.548   9.674 -0.1841  0.5917 -0.4230
 5938SOL    HW129273   0.624   4.454   9.682  2.4213  0.1854 -0.5314
 5938SOL    HW229274   0.649   4.571   9.766 -1.1125  0.6975 -0.3436
 5939SOL     OW29275   0.661   2.031   1.820 -0.2528 -0.2398  0.5188
 5939SOL    HW129276   0.593   2.084   1.861  0.6586  1.2752  0.1104
 5939SOL    HW229277   0.706   1.988   1.893 -0.3580  3.2421  2.6457
 5940SOL     OW29278   3.648   1.777   5.647  0.2489  0.5168 -0.4818
 5940SOL    HW129279   3.647   1.872   5.635  0.2778  0.8179  1.9798
 5940SOL    HW229280   3.601   1.770   5.730 -0.0171  2.7619 -0.4466
 5941SOL     OW29281   2.886   2.572  11.779 -0.1163  0.9133 -1.0299
 5941SOL    HW129282   2.820   2.615  11.833  0.8625  0.8650  0.2159
 5941SOL    HW229283   2.859   2.480  11.777 -0.6690  1.0496  0.1625
 5942SOL     OW29284   2.821   1.875   5.531 -0.3296 -0.2116 -0.2571
 5942SOL    HW129285   2.786   1.924   5.456 -0.2761  2.3098  1.3581
 5942SOL    HW229286   2.898   1.833   5.493 -0.9788 -1.1128 -0.5752
 5943SOL     OW29287   2.478   3.465   6.181 -0.3140 -0.2168  0.3156
 5943SOL    HW129288   2.394   3.496   6.146 -0.1997 -0.3536 -0.0799
 5943SOL    HW229289   2.526   3.439   6.102  0.2577 -1.4013  1.0556
 5944SOL     OW29290   4.487   1.091   6.370  0.5902 -0.7165  0.5785
 5944SOL    HW129291   4.422   1.024   6.347  1.2412 -0.9479 -0.5674
 5944SOL    HW229292   4.485   1.138   6.287 -1.4508 -3.2882 -0.8322
 5945SOL     OW29293   2.274   0.257   8.510 -0.4779 -0.0521 -0.0167
 5945SOL    HW129294   2.342   0.306   8.555 -1.3154  0.7891  0.3245
 5945SOL    HW229295   2.306   0.166   8.509  0.3414  0.2328  0.7502
 5946SOL     OW29296   4.127   2.600   2.345 -0.2245 -0.3998 -0.1690
 5946SOL    HW129297   4.144   2.580   2.252 -1.4493 -0.3339 -0.4094
 5946SOL    HW229298   4.038   2.635   2.345 -0.2745 -0.5261 -1.1370
 5947SOL     OW29299   0.034   0.074   5.181 -0.3729  0.4633  0.3000
 5947SOL    HW129300   0.017   0.144   5.118 -0.7164  2.7650  2.9478
 5947SOL    HW229301   4.665   0.047   5.185  0.2636 -1.6917  0.1438
 5948SOL     OW29302   3.860   3.111   2.419 -0.0980 -0.5929  0.2867
 5948SOL    HW129303   3.927   3.127   2.486 -0.2842  1.5872 -0.0364
 5948SOL    HW229304   3.847   3.205   2.402 -2.1358 -0.6652  1.3926
 5949SOL     OW29305   0.354   0.039   5.780 -0.3215 -0.0877  0.3777
 5949SOL    HW129306   0.259   0.045   5.767  0.3131  0.7198 -3.9465
 5949SOL    HW229307   0.393   0.096   5.713  2.6540 -2.6974 -0.0733
 5950SOL     OW29308   0.670   0.371   3.346  0.7645  0.3611  0.6879
 5950SOL    HW129309   0.686   0.298   3.286  0.0309 -0.6799  1.7623
 5950SOL    HW229310   0.609   0.328   3.406  2.5655 -1.9342  0.9211
 5951SOL     OW29311   0.876   0.749   4.168  0.2929  0.2841  0.0060
 5951SOL    HW129312   0.825   0.719   4.093 -2.6968  0.5468  1.9282
 5951SOL    HW229313   0.934   0.819   4.141 -0.6068  0.9633 -0.1626
 5952SOL     OW29314   2.873   2.686   3.603 -0.1656 -0.1317 -0.2504
 5952SOL    HW129315   2.860   2.604   3.555  1.0956 -1.1213  1.1086
 5952SOL    HW229316   2.919   2.740   3.539 -0.0918  0.6955  0.4984
 5953SOL     OW29317   4.349   1.760   8.292 -0.0990 -0.0656  0.0723
 5953SOL    HW129318   4.255   1.781   8.286 -0.5223 -1.7831  0.7961
 5953SOL    HW229319   4.368   1.816   8.216  0.4754 -2.8612 -1.8470
 5954SOL     OW29320   2.145   4.480   7.192  0.1267  0.3571  0.3046
 5954SOL    HW129321   2.095   4.471   7.111 -1.3335  0.0769  1.2402
 5954SOL    HW229322   2.072   4.489   7.253  0.2006 -0.3524  0.4991
 5955SOL     OW29323   4.002   3.260  17.003 -0.2110  0.4270 -0.2322
 5955SOL    HW129324   4.035   3.283  16.916  0.0828 -2.0508 -0.7749
 5955SOL    HW229325   3.911   3.232  16.990 -0.1929  0.3132 -0.1198
 5956SOL     OW29326   0.177   3.456   4.137 -0.4949  0.3250  0.2731
 5956SOL    HW129327   0.087   3.431   4.159  0.3475 -0.7337  2.4710
 5956SOL    HW229328   0.178   3.552   4.132 -0.3850  0.3046 -0.1341
 5957SOL     OW29329   0.482   1.921   5.064 -0.1939  0.3044 -0.1647
 5957SOL    HW129330   0.557   1.917   5.005 -0.5193  2.9659 -0.7765
 5957SOL    HW229331   0.508   1.863   5.136 -4.2891 -0.6915  0.4869
 5958SOL     OW29332   0.061   0.074   4.458  0.1142 -0.2100  0.5196
 5958SOL    HW129333   0.137   0.088   4.401 -0.7007 -0.8753 -0.7404
 5958SOL    HW229334   0.089   0.147   4.513  1.9491  0.6920 -1.6076
 5959SOL     OW29335   4.554   4.042   1.704  0.4083 -0.7892 -0.2314
 5959SOL    HW129336   4.618   4.109   1.682 -0.3635 -0.2997 -0.9997
 5959SOL    HW229337   4.564   3.993   1.622  0.7508  0.2709 -0.8203
 5960SOL     OW29338   4.459   0.063  14.415 -0.1252 -0.2143 -0.1607
 5960SOL    HW129339   4.422   0.025  14.494 -2.5413  0.2110 -1.0908
 5960SOL    HW229340   4.552   0.080  14.434 -0.8072  2.2780  0.8971
 5961SOL     OW29341   4.245   3.121   5.796  0.0447 -0.0803  0.5145
 5961SOL    HW129342   4.288   3.153   5.875  0.9558 -0.8850  0.3615
 5961SOL    HW229343   4.313   3.137   5.729 -2.0358  2.8721 -0.8713
 5962SOL     OW29344   3.200   3.310   2.138 -0.1685 -0.2332 -0.1212
 5962SOL    HW129345   3.190   3.404   2.154 -1.3578 -0.4064  0.1605
 5962SOL    HW229346   3.116   3.290   2.098  0.6824 -1.4298 -1.3059
 5963SOL     OW29347   2.820   1.756   3.140  0.1012  0.1163 -0.1665
 5963SOL    HW129348   2.728   1.783   3.133  0.7389  2.1035 -0.8640
 5963SOL    HW229349   2.844   1.801   3.221 -0.0287  0.3222 -0.2443
 5964SOL     OW29350   1.522   4.264   3.955 -0.1439  0.5391  0.4356
 5964SOL    HW129351   1.602   4.250   4.005 -0.1460 -1.9154 -0.2625
 5964SOL    HW229352   1.520   4.353   3.918  1.6910  0.6512  0.6274
 5965SOL     OW29353   1.551   0.841  16.404  0.2296 -0.4516  0.1470
 5965SOL    HW129354   1.634   0.889  16.399  0.5360 -0.9804  0.1412
 5965SOL    HW229355   1.494   0.916  16.390  1.2722 -0.1508 -2.3906
 5966SOL     OW29356   3.963   4.658   1.671  0.3497 -0.3221 -0.2538
 5966SOL    HW129357   3.955   4.671   1.576 -0.5714 -0.6620 -0.2184
 5966SOL    HW229358   3.870   4.657   1.693  0.4794  2.3458  0.3699
 5967SOL     OW29359   3.779   0.780   5.685 -0.0196  0.0080  0.5547
 5967SOL    HW129360   3.707   0.841   5.704  0.3417  0.1498  1.4699
 5967SOL    HW229361   3.740   0.739   5.608  1.2874  1.6172 -0.9430
 5968SOL     OW29362   4.188   4.368   1.857  0.0166 -0.2901 -0.2265
 5968SOL    HW129363   4.177   4.455   1.819 -0.4083 -0.2702 -0.0621
 5968SOL    HW229364   4.096   4.342   1.858  0.1907 -0.6805  3.6277
 5969SOL     OW29365   3.518   0.574   4.471  0.1012  0.4099  0.2013
 5969SOL    HW129366   3.555   0.613   4.392 -0.6377  2.6139  0.9175
 5969SOL    HW229367   3.426   0.581   4.446  0.4459  2.2038 -0.5757
 5970SOL     OW29368   2.005   2.212  14.182  0.9051  0.5110 -0.3245
 5970SOL    HW129369   1.941   2.162  14.130  0.8163 -1.2745  1.5070
 5970SOL    HW229370   1.981   2.300  14.151 -1.4066 -0.3651 -1.0608
 5971SOL     OW29371   2.448   4.445   7.923 -1.0751  0.0907 -0.1179
 5971SOL    HW129372   2.536   4.422   7.950 -1.0929  2.2556  1.8712
 5971SOL    HW229373   2.452   4.541   7.931  1.3183 -0.0577  0.2841
 5972SOL     OW29374   2.819   0.429   3.768 -0.4420 -0.4062  0.1113
 5972SOL    HW129375   2.782   0.361   3.824  1.8014 -1.3064  0.5160
 5972SOL    HW229376   2.765   0.505   3.789  1.8555  1.5512 -1.0408
 5973SOL     OW29377   3.554   4.130   0.962  0.1343  0.3638  0.3732
 5973SOL    HW129378   3.573   4.215   1.003 -2.3662  1.7854 -1.3861
 5973SOL    HW229379   3.537   4.151   0.870 -1.7795  2.2917  1.1597
 5974SOL     OW29380   1.461   2.696   3.662  0.1461 -0.1768  0.2199
 5974SOL    HW129381   1.462   2.778   3.613 -1.2652  0.5820  1.4357
 5974SOL    HW229382   1.529   2.705   3.729  0.2517 -1.5732  0.2998
 5975SOL     OW29383   2.342   4.175  12.827 -0.5180 -0.2449 -0.4362
 5975SOL    HW129384   2.382   4.255  12.861  0.1296 -1.6249  2.0336
 5975SOL    HW229385   2.250   4.200  12.835 -0.7693 -2.1413  2.3392
 5976SOL     OW29386   4.132   0.240   1.540  0.6466  0.0848 -0.0013
 5976SOL    HW129387   4.178   0.289   1.471 -0.8596 -2.1430 -2.6015
 5976SOL    HW229388   4.058   0.205   1.491  0.5190  1.4347 -0.7785
 5977SOL     OW29389   0.983   1.482   5.093  0.4240 -0.3446  0.6184
 5977SOL    HW129390   1.000   1.388   5.084 -2.5253 -0.7081 -1.1809
 5977SOL    HW229391   0.925   1.494   5.018  0.8657 -1.3176  0.1198
 5978SOL     OW29392   4.318   0.243   5.448  0.3075 -0.4308  0.4687
 5978SOL    HW129393   4.300   0.190   5.370  1.7052  0.0566 -0.1758
 5978SOL    HW229394   4.295   0.328   5.412 -1.0062 -2.4611 -3.5282
 5979SOL     OW29395   3.799   3.838   4.366 -0.0324 -0.1404 -0.2610
 5979SOL    HW129396   3.745   3.761   4.352 -1.5951  0.9115 -0.0410
 5979SOL    HW229397   3.815   3.860   4.274 -1.9085  0.9057 -0.3413
 5980SOL     OW29398   4.512   3.435   6.923  0.2381  0.5048  0.2641
 5980SOL    HW129399   4.588   3.377   6.932  1.0110  1.1224 -2.1184
 5980SOL    HW229400   4.568   3.507   6.894 -0.6603  2.3442  3.1949
 5981SOL     OW29401   4.422   0.919   1.619  0.1348  0.0682  0.0293
 5981SOL    HW129402   4.365   0.996   1.616 -0.5291 -0.3247  3.2235
 5981SOL    HW229403   4.507   0.962   1.610 -0.4130  1.1708  0.1065
 5982SOL     OW29404   2.900   4.402   7.398  0.1226  0.4047 -0.4696
 5982SOL    HW129405   2.968   4.339   7.373 -0.0019 -0.8126  2.1630
 5982SOL    HW229406   2.888   4.361   7.484  1.6086  0.0686 -0.4215
 5983SOL     OW29407   2.256   3.730   7.259  0.3531  0.2740  0.4750
 5983SOL    HW129408   2.219   3.662   7.203 -1.4204  1.4994  0.1686
 5983SOL    HW229409   2.327   3.682   7.303 -0.8840 -0.0969  2.0686
 5984SOL     OW29410   0.019   0.966   7.110 -0.2327  0.2322  0.2368
 5984SOL    HW129411   0.071   1.041   7.081 -0.8667 -0.7165 -3.3352
 5984SOL    HW229412   0.047   0.966   7.201 -1.9279 -0.0312  0.7594
 5985SOL     OW29413   4.094   4.524   5.677 -0.1525  0.2975 -0.2467
 5985SOL    HW129414   4.081   4.588   5.606  0.0270 -1.2687 -1.6835
 5985SOL    HW229415   4.189   4.520   5.682 -0.0509  1.4163 -1.1843
 5986SOL     OW29416   3.530   3.501   5.564 -0.0421  0.2369 -0.0078
 5986SOL    HW129417   3.478   3.553   5.627  1.9872  2.6656 -0.3364
 5986SOL    HW229418   3.611   3.551   5.574  0.2184 -0.3733  0.9269
 5987SOL     OW29419   3.074   4.539   5.234  0.4073 -0.4669  0.8397
 5987SOL    HW129420   3.165   4.517   5.216  0.1193  1.5759 -3.2180
 5987SOL    HW229421   3.053   4.594   5.158 -1.9116 -3.7901 -0.9004
 5988SOL     OW29422   4.537   0.104   4.620  0.2451 -0.1393 -0.3015
 5988SOL    HW129423   4.616   0.068   4.662  2.2840  1.2976 -2.8608
 5988SOL    HW229424   4.568   0.158   4.547 -0.4132  0.5651 -0.0545
 5989SOL     OW29425   0.216   3.514  17.675 -0.3143 -0.4109  0.4483
 5989SOL    HW129426   0.249   3.525  17.586 -0.4236 -1.6357  0.2503
 5989SOL    HW229427   0.121   3.520  17.665  0.0640 -1.2211 -3.6257
 5990SOL     OW29428   3.965   2.080   4.772  0.6299 -0.1108  0.1396
 5990SOL    HW129429   4.019   2.083   4.693 -0.5791  0.3513 -0.6631
 5990SOL    HW229430   3.912   2.159   4.776  1.2204  0.1878  2.5634
 5991SOL     OW29431   4.095   4.269   4.829 -1.0823 -0.1412  0.0041
 5991SOL    HW129432   4.046   4.327   4.888  0.1439 -0.0921  0.9755
 5991SOL    HW229433   4.058   4.192   4.872 -0.1101 -0.1745  0.7794
 5992SOL     OW29434   3.139   0.670  13.730  0.1725  0.8093  0.3994
 5992SOL    HW129435   3.206   0.607  13.758 -1.3207 -1.0125 -0.1705
 5992SOL    HW229436   3.144   0.745  13.789  0.4575  2.1003 -1.2607
 5993SOL     OW29437   2.582   1.732   0.720  0.0304  0.9533 -0.1467
 5993SOL    HW129438   2.522   1.719   0.646 -0.8796 -2.2054  1.1463
 5993SOL    HW229439   2.641   1.658   0.709 -2.8237 -1.6162  1.8853
 5994SOL     OW29440   3.267   3.371   4.891  0.3477 -0.0868 -0.3353
 5994SOL    HW129441   3.181   3.411   4.898 -0.1755 -0.5795 -3.9852
 5994SOL    HW229442   3.246   3.278   4.883  1.0946 -0.3734  1.0619
 5995SOL     OW29443   3.728   2.926  13.381 -0.0204  0.1258 -0.3442
 5995SOL    HW129444   3.750   3.011  13.421 -1.6863  0.3525  0.0943
 5995SOL    HW229445   3.793   2.927  13.311  1.0000  0.1705  0.6048
 5996SOL     OW29446   2.698   1.818   3.800  0.3502  0.2375 -0.5679
 5996SOL    HW129447   2.644   1.754   3.846  2.7416 -3.0199 -2.3056
 5996SOL    HW229448   2.764   1.767   3.753 -0.9686 -1.5297 -0.5193
 5997SOL     OW29449   1.060   0.245   8.435  0.4249 -0.4524  0.1270
 5997SOL    HW129450   1.071   0.278   8.524  0.2068  2.3495 -0.8710
 5997SOL    HW229451   1.037   0.153   8.448 -1.0592 -0.1531 -0.3574
 5998SOL     OW29452   2.924   2.465   5.468  0.4241 -0.4700 -0.2595
 5998SOL    HW129453   2.966   2.474   5.383 -0.4943  2.2857 -0.4373
 5998SOL    HW229454   2.903   2.372   5.465 -1.6951 -0.0355  0.9887
 5999SOL     OW29455   2.171   2.936   5.420 -0.0979 -0.5405 -0.3426
 5999SOL    HW129456   2.090   2.928   5.370  1.0634  1.1885 -2.4543
 5999SOL    HW229457   2.142   2.967   5.506  2.4632 -3.3536  1.5516
 6000SOL     OW29458   1.918   1.995   4.808  0.0727  0.5666 -0.8637
 6000SOL    HW129459   1.882   1.938   4.876  0.8016  3.1239  1.6857
 6000SOL    HW229460   1.855   1.980   4.737 -0.1071  1.3016 -0.8587
 6001SOL     OW29461   2.394   1.890  13.135 -0.1384  0.4813 -0.5238
 6001SOL    HW129462   2.425   1.950  13.203  1.5378 -0.4830 -0.4413
 6001SOL    HW229463   2.314   1.931  13.103  1.1431  3.3311 -0.1038
 6002SOL     OW29464   3.270   3.781  16.377 -0.3245  0.3142 -0.1495
 6002SOL    HW129465   3.319   3.839  16.319 -1.9173  1.2592 -0.5462
 6002SOL    HW229466   3.339   3.715  16.388 -0.1706  0.1768 -2.0175
 6003SOL     OW29467   3.011   3.815   9.556 -0.0486 -0.4926  0.5064
 6003SOL    HW129468   2.951   3.741   9.545  0.7408 -1.0291 -0.2705
 6003SOL    HW229469   2.986   3.853   9.639  0.7673  2.7121 -0.7374
 6004SOL     OW29470   4.427   0.301   8.481  0.8910  0.6775  0.1162
 6004SOL    HW129471   4.389   0.387   8.500 -1.1895  0.2303 -1.9266
 6004SOL    HW229472   4.452   0.306   8.388 -0.3794  1.5445 -0.1809
 6005SOL     OW29473   2.713   1.640   4.879 -0.6123 -0.1024 -0.0493
 6005SOL    HW129474   2.756   1.723   4.900 -0.4187 -0.1174 -0.3859
 6005SOL    HW229475   2.677   1.607   4.962  0.3439  1.0352  0.8201
 6006SOL     OW29476   3.949   2.130   6.240 -0.0560  0.2280 -0.9687
 6006SOL    HW129477   3.914   2.214   6.211  0.3974 -0.2910 -3.0519
 6006SOL    HW229478   3.879   2.065   6.242 -0.2460  0.4715  0.2824
 6007SOL     OW29479   4.634   3.981  12.163 -0.5513 -0.3786  0.1893
 6007SOL    HW129480   4.687   4.040  12.216 -2.0234  0.5038  0.6734
 6007SOL    HW229481   4.703   3.927  12.124  0.5799  0.3524  1.1824
 6008SOL     OW29482   3.896   4.421  11.279  0.0943  0.0353  0.1183
 6008SOL    HW129483   3.975   4.457  11.240  0.3620  0.9103  1.4712
 6008SOL    HW229484   3.910   4.415  11.373 -1.3092 -1.8687  0.2095
 6009SOL     OW29485   3.490   1.282   6.202  0.3939  0.0633 -0.0773
 6009SOL    HW129486   3.564   1.331   6.167  2.3801 -2.7034  0.2658
 6009SOL    HW229487   3.442   1.357   6.237 -0.4530 -1.1170  1.3155
 6010SOL     OW29488   2.141   0.940   4.917  0.0708 -0.4108 -0.2853
 6010SOL    HW129489   2.121   1.032   4.903  0.8809 -0.3266 -0.8176
 6010SOL    HW229490   2.061   0.892   4.893 -1.1582  1.8077 -0.6223
 6011SOL     OW29491   2.099   1.197   6.642 -0.1057 -0.1082 -0.2525
 6011SOL    HW129492   2.041   1.121   6.631 -0.9131  0.4002  0.4262
 6011SOL    HW229493   2.090   1.211   6.736  1.8515 -3.1776  0.3983
 6012SOL     OW29494   3.102   1.255   3.097  0.0995  0.3320  0.1977
 6012SOL    HW129495   3.083   1.316   3.026  1.4238 -0.6133 -0.9929
 6012SOL    HW229496   3.020   1.206   3.089 -0.7684  1.2814  3.2032
 6013SOL     OW29497   2.417   2.331   0.437  0.4912 -0.1603 -0.0044
 6013SOL    HW129498   2.332   2.287   0.440  0.3825  0.0580  0.0509
 6013SOL    HW229499   2.465   2.278   0.501  2.2495  0.6773 -0.6261
 6014SOL     OW29500   4.620   0.005  10.512 -0.3937 -0.7195 -0.2442
 6014SOL    HW129501   4.647   4.663  10.577  0.8579  0.6398  0.5892
 6014SOL    HW229502   4.687   4.703  10.448 -1.0188 -0.5734 -0.9588
 6015SOL     OW29503   1.117   4.558   7.202  0.5334 -0.1841 -0.0361
 6015SOL    HW129504   1.045   4.509   7.162  0.4550  0.1955 -0.3644
 6015SOL    HW229505   1.198   4.527   7.161  0.4862 -1.3687  0.7761
 6016SOL     OW29506   2.577   3.721   4.960 -0.6056  0.3345 -0.0929
 6016SOL    HW129507   2.546   3.644   4.912 -2.8457  1.0165  0.2478
 6016SOL    HW229508   2.527   3.710   5.041 -0.5300  1.6809  0.1426
 6017SOL     OW29509   0.060   2.948   4.830  0.5167 -0.8852  0.4778
 6017SOL    HW129510   4.693   2.917   4.829  0.1518  0.1375  1.3474
 6017SOL    HW229511   0.103   2.907   4.905 -1.4445  1.4818  2.9022
 6018SOL     OW29512   1.129   1.310  16.351 -0.1248 -0.3386  0.1340
 6018SOL    HW129513   1.183   1.242  16.391  1.2138  0.8803  0.3889
 6018SOL    HW229514   1.140   1.385  16.409  3.5072 -1.2425  0.6356
 6019SOL     OW29515   1.400   0.705  15.983 -0.1173 -0.2168 -0.4907
 6019SOL    HW129516   1.370   0.640  15.920  0.4394 -0.9133 -0.0421
 6019SOL    HW229517   1.316   0.745  16.007 -0.5569 -1.8633  0.6859
 6020SOL     OW29518   1.295   4.146   1.358  0.3870 -0.0658 -0.2520
 6020SOL    HW129519   1.334   4.198   1.428  0.6767 -0.6191  0.0025
 6020SOL    HW229520   1.334   4.196   1.287  0.1636 -0.1895 -0.4589
 6021SOL     OW29521   0.301   3.291   6.959  0.1373 -0.3110 -0.0186
 6021SOL    HW129522   0.328   3.299   7.051  0.6352  0.2833 -0.2114
 6021SOL    HW229523   0.370   3.347   6.924  0.0802 -1.1803 -1.5133
 6022SOL     OW29524   0.287   0.842  11.463 -0.2723 -0.3943  0.2189
 6022SOL    HW129525   0.193   0.862  11.462  0.3788  2.7093  0.3870
 6022SOL    HW229526   0.288   0.754  11.501 -0.2739  0.7100  2.7650
 6023SOL     OW29527   3.639   0.845   7.321  0.3458 -0.2853  0.2362
 6023SOL    HW129528   3.695   0.923   7.331  1.7134 -1.2335  0.0317
 6023SOL    HW229529   3.599   0.837   7.408  1.2347  0.1566  0.6993
 6024SOL     OW29530   3.925   1.157   8.967 -0.3153  0.3040 -0.0341
 6024SOL    HW129531   3.969   1.072   8.967  0.7599  0.8505 -0.0119
 6024SOL    HW229532   3.995   1.219   8.989 -0.1301 -0.4113  1.3732
 6025SOL     OW29533   1.984   2.657   3.238  0.1580  0.2451 -0.3352
 6025SOL    HW129534   2.016   2.741   3.206  0.9662  0.1001  0.0862
 6025SOL    HW229535   1.898   2.645   3.198  0.2601 -1.3496 -0.0614
 6026SOL     OW29536   4.691   3.075   5.551  0.2537 -0.0732 -0.0704
 6026SOL    HW129537   4.723   2.990   5.582 -1.4016 -1.2986 -1.7373
 6026SOL    HW229538   0.048   3.125   5.566 -0.2565 -0.1833  3.0494
 6027SOL     OW29539   0.511   4.457   0.610  0.5028  0.4950 -1.0795
 6027SOL    HW129540   0.597   4.481   0.576  1.1388 -2.1019 -1.2862
 6027SOL    HW229541   0.508   4.362   0.596 -2.3316  0.5985 -1.2430
 6028SOL     OW29542   2.328   2.665   3.995 -0.3924 -0.1010  1.1302
 6028SOL    HW129543   2.251   2.671   3.938 -1.4056  2.7175  2.7602
 6028SOL    HW229544   2.315   2.582   4.041 -0.7640 -0.9706 -0.5676
 6029SOL     OW29545   2.622   2.996  16.364  0.0250  0.2418  0.6370
 6029SOL    HW129546   2.715   3.017  16.374 -0.3614  1.4032  1.8845
 6029SOL    HW229547   2.582   3.083  16.352  1.1201  0.6505 -0.0139
 6030SOL     OW29548   1.867   0.976   0.528  0.0011  0.4846 -0.1221
 6030SOL    HW129549   1.784   0.969   0.576  0.7794 -0.8323  1.0345
 6030SOL    HW229550   1.847   1.059   0.485  1.8017  0.9667 -0.0488
 6031SOL     OW29551   3.799   0.510  10.923  0.3997  0.3496  0.2818
 6031SOL    HW129552   3.749   0.441  10.967  1.9371 -1.2239 -0.4283
 6031SOL    HW229553   3.818   0.479  10.834 -0.5567  1.2170 -0.2110
 6032SOL     OW29554   0.856   2.852   9.276 -0.0088  0.2135 -0.7344
 6032SOL    HW129555   0.897   2.934   9.303  0.9624  0.7045 -3.6883
 6032SOL    HW229556   0.865   2.860   9.181 -0.1636  1.2666 -0.6563
 6033SOL     OW29557   2.022   3.239   2.779 -0.7467  0.4045 -0.4740
 6033SOL    HW129558   2.078   3.316   2.789  0.1517 -0.4638  1.1928
 6033SOL    HW229559   2.032   3.213   2.687 -0.4974  0.9318 -0.5991
 6034SOL     OW29560   1.509   3.207   7.795  0.4657  0.3154  0.1392
 6034SOL    HW129561   1.511   3.205   7.699 -2.8161 -0.0686  0.0761
 6034SOL    HW229562   1.493   3.301   7.804  0.1432  0.1569  1.1840
 6035SOL     OW29563   2.816   4.381   2.236 -0.2153  0.1611  0.2288
 6035SOL    HW129564   2.884   4.371   2.169  0.5304  0.1325  1.0006
 6035SOL    HW229565   2.765   4.310   2.197 -1.6067  1.9268 -1.1954
 6036SOL     OW29566   2.445   0.657   6.425  0.4636  0.1434 -0.4347
 6036SOL    HW129567   2.478   0.584   6.372 -3.5686 -2.3413  0.4748
 6036SOL    HW229568   2.387   0.618   6.490 -0.6638  1.5181 -0.6173
 6037SOL     OW29569   3.413   2.696  11.414 -0.1933 -0.9342 -0.2653
 6037SOL    HW129570   3.339   2.637  11.403 -0.5284 -0.8231  1.3755
 6037SOL    HW229571   3.467   2.680  11.337  0.8378 -0.3268  0.3249
 6038SOL     OW29572   2.424   2.915   3.025 -0.6296 -0.0689  0.4189
 6038SOL    HW129573   2.338   2.939   2.990 -0.8989 -2.0423 -0.3032
 6038SOL    HW229574   2.417   2.820   3.035 -1.7198  0.0814  1.0103
 6039SOL     OW29575   3.966   4.467   3.258 -0.1906 -0.3780  0.0963
 6039SOL    HW129576   4.052   4.509   3.256  0.3601 -1.5226 -0.1903
 6039SOL    HW229577   3.930   4.529   3.322  2.5854 -0.9922  2.2681
 6040SOL     OW29578   4.663   2.687   8.419  0.0004  0.4366 -0.0950
 6040SOL    HW129579   4.644   2.764   8.365  1.5326  1.6233  1.0656
 6040SOL    HW229580   4.573   2.654   8.428 -0.4609  1.5356 -0.6034
 6041SOL     OW29581   1.403   3.692   7.909  1.1927 -0.2178  0.2499
 6041SOL    HW129582   1.330   3.655   7.959  0.4637  1.0076  0.0831
 6041SOL    HW229583   1.369   3.774   7.874  0.0497 -0.8588 -0.1434
 6042SOL     OW29584   2.558   1.042   8.601  0.3907  0.2193 -0.5047
 6042SOL    HW129585   2.522   1.129   8.613  1.3232  0.4224  0.9175
 6042SOL    HW229586   2.571   1.016   8.693 -1.9825  0.1338 -0.1949
 6043SOL     OW29587   1.889   2.893   4.353 -0.0645  0.7136 -0.1844
 6043SOL    HW129588   1.951   2.820   4.345  0.4147  1.1609 -0.5342
 6043SOL    HW229589   1.806   2.846   4.363  0.2044  0.4050  0.5665
 6044SOL     OW29590   0.956   4.295  11.324 -0.5879 -0.0451  0.1242
 6044SOL    HW129591   0.878   4.315  11.375  1.1552  0.4648  2.5919
 6044SOL    HW229592   1.002   4.228  11.376 -1.3410 -0.1448  0.6540
 6045SOL     OW29593   4.069   1.404   3.311 -0.2600 -0.2812  0.3451
 6045SOL    HW129594   4.005   1.347   3.269  0.4780 -0.3828 -0.6399
 6045SOL    HW229595   4.032   1.400   3.399  0.4718  0.1439  0.6706
 6046SOL     OW29596   3.117   4.264  14.379  0.0588  0.3811 -0.2165
 6046SOL    HW129597   3.146   4.239  14.467  0.9623 -2.3058 -1.2863
 6046SOL    HW229598   3.094   4.355  14.400  1.2756  0.3616  1.1910
 6047SOL     OW29599   1.417   2.278  17.252 -0.7910 -0.2526 -0.0868
 6047SOL    HW129600   1.364   2.200  17.270  0.3074 -0.8297  0.6844
 6047SOL    HW229601   1.375   2.294  17.167  0.5696 -2.6022 -1.1939
 6048SOL     OW29602   4.248   2.685   0.538  0.2404 -0.0989  0.8798
 6048SOL    HW129603   4.298   2.661   0.615 -0.3201 -1.7795  0.7318
 6048SOL    HW229604   4.293   2.620   0.483  1.5057  1.3688  0.1936
 6049SOL     OW29605   2.164   3.465  11.664  0.0735 -0.1453  0.0896
 6049SOL    HW129606   2.178   3.370  11.665  0.2825 -0.1315 -2.4972
 6049SOL    HW229607   2.171   3.484  11.758 -0.1808 -1.0609  0.2933
 6050SOL     OW29608   4.557   2.118   5.173 -0.8502  0.3070  0.1317
 6050SOL    HW129609   4.584   2.155   5.257  3.6190 -1.0734 -0.7214
 6050SOL    HW229610   4.616   2.165   5.115  0.8558 -2.6466 -0.5412
 6051SOL     OW29611   0.954   1.969   0.991  0.2862 -0.7707  0.5719
 6051SOL    HW129612   1.031   2.024   0.981 -0.1604 -0.1447  0.5829
 6051SOL    HW229613   0.980   1.885   0.955  0.0740 -0.0903 -1.1587
 6052SOL     OW29614   1.339   2.414   6.897  0.0958  0.4203 -0.1011
 6052SOL    HW129615   1.381   2.409   6.982  2.6542 -1.1763 -1.4546
 6052SOL    HW229616   1.400   2.355   6.854  0.4074  0.5231  0.2015
 6053SOL     OW29617   2.393   3.921  12.917  0.6186 -0.6910  0.3638
 6053SOL    HW129618   2.381   4.006  12.875  0.3119 -1.1634 -0.4837
 6053SOL    HW229619   2.332   3.932  12.991 -1.6300  0.8035 -1.7207
 6054SOL     OW29620   3.243   4.101   2.697 -0.1592  0.3953  0.2905
 6054SOL    HW129621   3.212   4.121   2.609 -0.4983 -0.0525  0.3084
 6054SOL    HW229622   3.218   4.182   2.742 -1.1481  0.2750 -0.0278
 6055SOL     OW29623   4.014   2.820   2.802  0.0485 -0.3927 -0.1720
 6055SOL    HW129624   4.043   2.731   2.781  0.2666 -0.6760  1.3424
 6055SOL    HW229625   3.926   2.801   2.835  0.2160 -3.7701 -1.6641
 6056SOL     OW29626   3.754   3.207  13.430  0.2140 -0.4797 -0.0583
 6056SOL    HW129627   3.713   3.284  13.392  1.3733 -0.2574 -0.8638
 6056SOL    HW229628   3.843   3.241  13.428  0.5072 -1.2426 -0.4026
 6057SOL     OW29629   2.673   4.320   5.572  0.2436 -0.1917 -0.3807
 6057SOL    HW129630   2.671   4.257   5.500 -0.0962 -1.1631  0.4746
 6057SOL    HW229631   2.606   4.286   5.630  1.0236 -1.6352 -0.3212
 6058SOL     OW29632   1.899   3.557  16.548 -0.1535 -0.0476  0.4034
 6058SOL    HW129633   1.971   3.538  16.609 -1.3198 -1.9802  1.1622
 6058SOL    HW229634   1.902   3.652  16.560  0.1458 -0.0039  0.0105
 6059SOL     OW29635   2.497   3.555   9.522 -0.2631 -0.1061  0.7610
 6059SOL    HW129636   2.550   3.483   9.488  1.4855  1.0204  1.0945
 6059SOL    HW229637   2.463   3.506   9.597  2.9882 -0.1483  2.2228
 6060SOL     OW29638   1.715   0.617   5.764  0.3139 -0.9059  0.2293
 6060SOL    HW129639   1.777   0.558   5.721  1.2107  1.6414 -2.0148
 6060SOL    HW229640   1.644   0.555   5.777 -1.7848  1.4468 -0.0796
 6061SOL     OW29641   1.886   4.242   4.230  0.8932  0.0010  0.1158
 6061SOL    HW129642   1.906   4.279   4.145  0.5673  1.6375  0.7507
 6061SOL    HW229643   1.863   4.322   4.276 -2.1894 -0.4136 -0.6748
 6062SOL     OW29644   0.966   0.038   7.785  0.4519 -0.6821  0.2917
 6062SOL    HW129645   0.884   0.069   7.822  0.6235  2.1003 -1.6399
 6062SOL    HW229646   0.943   4.671   7.765 -2.3077 -0.0054  0.3561
 6063SOL     OW29647   3.412   0.040   4.146  0.5044 -0.3489 -0.5005
 6063SOL    HW129648   3.493   0.009   4.187 -0.5855 -2.5878 -0.0160
 6063SOL    HW229649   3.351   0.017   4.216 -0.9038  0.5693 -1.4209
 6064SOL     OW29650   0.797   0.393   4.286  0.0869 -0.1774  0.1479
 6064SOL    HW129651   0.847   0.313   4.274 -0.0813 -0.3190  0.3843
 6064SOL    HW229652   0.861   0.457   4.318 -0.9664  0.3229  1.2375
 6065SOL     OW29653   2.032   1.786   5.780 -0.2823  0.0346  0.7553
 6065SOL    HW129654   2.107   1.748   5.826  0.8868  0.4209 -0.8330
 6065SOL    HW229655   2.012   1.707   5.729  0.0649  1.3282 -1.4151
 6066SOL     OW29656   2.731   2.322   6.699 -0.3352 -0.0064 -0.0316
 6066SOL    HW129657   2.669   2.345   6.631 -1.0786  1.3065  1.1092
 6066SOL    HW229658   2.734   2.227   6.684  1.1909 -0.0764  0.6933
 6067SOL     OW29659   4.590   1.664   3.731  0.2402 -0.2522  0.3614
 6067SOL    HW129660   4.685   1.676   3.726  0.0688  0.1489 -1.7036
 6067SOL    HW229661   4.603   1.582   3.779  2.0882  0.3420  0.8690
 6068SOL     OW29662   1.236   3.962   9.471 -0.6010  0.1534 -0.1598
 6068SOL    HW129663   1.299   3.912   9.523 -0.2572  0.9471  0.1850
 6068SOL    HW229664   1.207   3.900   9.404 -2.1052  0.2460  0.4156
 6069SOL     OW29665   4.674   0.124   0.574  1.0351  0.0804  0.3036
 6069SOL    HW129666   4.646   0.146   0.485 -0.0799  1.1238  0.9169
 6069SOL    HW229667   4.622   0.047   0.596 -0.5395  1.8010  2.6322
 6070SOL     OW29668   1.401   1.818  10.762 -0.0530  0.4248 -0.1842
 6070SOL    HW129669   1.463   1.890  10.752  0.3267 -0.2374 -2.6124
 6070SOL    HW229670   1.444   1.763  10.828  0.0756  0.9960  0.2100
 6071SOL     OW29671   3.907   1.049   2.427  0.0824  0.3416 -0.2160
 6071SOL    HW129672   3.943   1.019   2.510  1.3969 -0.0464 -0.9188
 6071SOL    HW229673   3.849   1.119   2.456  1.6943  1.1500  1.0449
 6072SOL     OW29674   4.149   4.320   7.768 -0.2078  0.5118 -0.3025
 6072SOL    HW129675   4.109   4.403   7.795 -1.3860  0.0610 -0.6657
 6072SOL    HW229676   4.197   4.301   7.848 -0.3077 -0.4945 -0.4901
 6073SOL     OW29677   1.098   2.288   2.566 -0.0593  0.0423  0.4391
 6073SOL    HW129678   1.132   2.203   2.538 -1.0679 -0.2404  0.0977
 6073SOL    HW229679   1.008   2.256   2.574 -0.2099 -0.2610 -2.5267
 6074SOL     OW29680   0.260   2.904   6.240 -0.1299 -0.2998  0.0461
 6074SOL    HW129681   0.348   2.867   6.234 -0.0182  0.1061 -0.8502
 6074SOL    HW229682   0.222   2.872   6.321 -0.9570 -0.5231 -0.4252
 6075SOL     OW29683   2.508   3.254   2.449  0.2868 -0.2241  0.1955
 6075SOL    HW129684   2.563   3.250   2.371  0.8227 -1.8288  0.6657
 6075SOL    HW229685   2.438   3.189   2.435 -0.4396  0.1892  1.9805
 6076SOL     OW29686   0.954   0.303  10.470 -0.2470  0.0726 -0.3540
 6076SOL    HW129687   0.890   0.285  10.539  0.1747 -1.0345 -0.2385
 6076SOL    HW229688   1.035   0.298  10.521  1.1481  2.6255 -2.3625
 6077SOL     OW29689   2.962   4.697   0.210 -0.3591  0.6394 -0.8628
 6077SOL    HW129690   2.919   4.718   0.292  0.3820 -0.9986 -0.0711
 6077SOL    HW229691   3.046   0.017   0.230 -1.3256  2.0627  0.0832
 6078SOL     OW29692   4.422   0.426  17.400 -0.0495  0.0856  0.4550
 6078SOL    HW129693   4.451   0.435  17.490  0.2911 -2.4626  0.6250
 6078SOL    HW229694   4.367   0.504  17.394 -0.5447 -0.1944  1.3366
 6079SOL     OW29695   0.353   2.761   7.284  0.0048  0.3465 -0.1764
 6079SOL    HW129696   0.370   2.671   7.311  0.1452  1.2708  2.9037
 6079SOL    HW229697   0.380   2.805   7.365 -0.1906  1.6808 -0.8388
 6080SOL     OW29698   1.023   2.260   9.397 -0.5133 -0.0742 -0.2767
 6080SOL    HW129699   1.111   2.276   9.431  0.6280 -2.5540 -2.0203
 6080SOL    HW229700   1.053   2.184   9.347 -1.5920 -1.0498  0.5739
 6081SOL     OW29701   3.105   2.040   5.023  0.5749 -0.0037 -0.2244
 6081SOL    HW129702   3.115   1.960   5.075  0.4104  0.5199  0.5990
 6081SOL    HW229703   3.188   2.031   4.975  0.3323 -1.1971 -0.4183
 6082SOL     OW29704   0.709   3.860   8.617 -0.3468 -0.6699  0.3221
 6082SOL    HW129705   0.627   3.880   8.572 -0.0388 -2.1268 -0.8773
 6082SOL    HW229706   0.759   3.820   8.546  0.8491  0.9057  0.2753
 6083SOL     OW29707   2.404   3.515   3.135  0.0575 -0.2650 -0.2964
 6083SOL    HW129708   2.416   3.461   3.213 -0.5949 -0.0571 -0.0514
 6083SOL    HW229709   2.374   3.595   3.179 -0.3425 -1.2943  1.2976
 6084SOL     OW29710   0.183   4.414  11.099 -0.6095 -0.0518 -0.3332
 6084SOL    HW129711   0.135   4.446  11.175  0.4961  2.4283 -0.6831
 6084SOL    HW229712   0.114   4.402  11.033 -2.7504  1.9692  1.5231
 6085SOL     OW29713   3.665   2.290   3.119  0.3816 -0.4114  0.3892
 6085SOL    HW129714   3.653   2.218   3.057 -1.8385  0.6065 -0.3668
 6085SOL    HW229715   3.759   2.306   3.125 -0.1120  1.6552  2.5364
 6086SOL     OW29716   1.103   3.229  13.931  0.1722  0.0823 -0.0546
 6086SOL    HW129717   1.046   3.167  13.976  1.1871  0.4344  1.7115
 6086SOL    HW229718   1.036   3.272  13.877 -0.4307  0.0382  0.6669
 6087SOL     OW29719   1.259   3.860   5.260  0.0726 -0.6144 -0.4656
 6087SOL    HW129720   1.208   3.890   5.335 -0.6202  0.6234 -1.4135
 6087SOL    HW229721   1.222   3.906   5.184 -0.7015  1.4566  1.1784
 6088SOL     OW29722   0.376   4.176   3.568 -0.2734 -0.1262 -0.2295
 6088SOL    HW129723   0.344   4.097   3.611 -1.8783 -0.3886 -1.9142
 6088SOL    HW229724   0.326   4.162   3.487 -0.0104  0.1451 -0.4395
 6089SOL     OW29725   4.011   1.213   9.991 -0.2990 -0.2009 -0.2959
 6089SOL    HW129726   4.083   1.235   9.932  0.5251 -0.5404  0.5876
 6089SOL    HW229727   3.998   1.119   9.982  1.1048 -0.1810 -2.5505
 6090SOL     OW29728   1.999   2.777   8.492  0.8020 -0.0649  0.6685
 6090SOL    HW129729   1.971   2.687   8.476 -0.9737  0.8483 -1.3981
 6090SOL    HW229730   1.954   2.806   8.571 -3.8728 -1.8336 -1.3274
 6091SOL     OW29731   4.709   1.543  16.204  0.1327 -0.0671  0.4126
 6091SOL    HW129732   0.070   1.500  16.191 -1.4282 -2.6132 -1.1762
 6091SOL    HW229733   4.695   1.575  16.114  0.0730  0.0136  0.4499
 6092SOL     OW29734   1.301   4.095  15.750 -0.0460  0.0240 -0.7241
 6092SOL    HW129735   1.390   4.069  15.727  0.6878  0.8627  1.1567
 6092SOL    HW229736   1.312   4.187  15.774  1.6745 -0.0741 -1.1769
 6093SOL     OW29737   3.413   3.463   8.169 -0.2139 -0.7372 -0.2511
 6093SOL    HW129738   3.389   3.538   8.224 -0.0056 -0.1121 -1.0170
 6093SOL    HW229739   3.429   3.386   8.225 -0.5365  1.2841  2.6172
 6094SOL     OW29740   2.056   4.169   6.182 -0.0088 -0.0183 -0.4664
 6094SOL    HW129741   2.061   4.082   6.142 -3.2348 -0.4085  0.0285
 6094SOL    HW229742   2.052   4.145   6.274  0.4461 -2.2987 -1.0265
 6095SOL     OW29743   2.837   1.858   6.550 -0.2002 -0.1620 -0.3009
 6095SOL    HW129744   2.881   1.805   6.483 -1.2725 -0.3963 -0.8210
 6095SOL    HW229745   2.877   1.944   6.540  0.6727 -0.6040 -0.6107
 6096SOL     OW29746   1.290   3.659  11.583 -0.0751  0.1726 -0.3198
 6096SOL    HW129747   1.198   3.642  11.606 -0.1061 -1.0272 -1.2742
 6096SOL    HW229748   1.286   3.744  11.540  0.3274  0.7843  0.8580
 6097SOL     OW29749   1.716   4.053   7.027 -0.2374  0.6283  0.0570
 6097SOL    HW129750   1.750   3.963   7.033 -0.4402  0.5019 -0.7115
 6097SOL    HW229751   1.795   4.097   6.997  0.7304  0.2869  2.0584
 6098SOL     OW29752   0.051   0.367  14.427 -0.1323  0.0832  0.3001
 6098SOL    HW129753   4.719   0.370  14.506  1.0525  0.4611  1.1080
 6098SOL    HW229754   0.127   0.416  14.457 -0.3392  0.4451  0.2477
 6099SOL     OW29755   3.545   0.097  15.309 -0.2916 -0.0677  0.2631
 6099SOL    HW129756   3.517   0.147  15.232 -0.5074  1.2146  1.1613
 6099SOL    HW229757   3.502   0.148  15.378 -2.7144  0.3994 -1.5945
 6100SOL     OW29758   0.242   1.060  16.322 -0.3238 -0.5279  0.4102
 6100SOL    HW129759   0.198   1.125  16.266 -0.3445 -1.2281 -0.3931
 6100SOL    HW229760   0.204   0.991  16.267 -1.3938  0.7710 -0.4752
 6101SOL     OW29761   0.521   2.614  14.392 -0.0106  0.0784 -0.0455
 6101SOL    HW129762   0.549   2.631  14.302 -0.2879  1.4067  0.1151
 6101SOL    HW229763   0.451   2.679  14.397  0.3453  0.4354  0.4277
 6102SOL     OW29764   0.050   1.564   5.999  0.4019  0.1909 -0.3627
 6102SOL    HW129765   0.118   1.558   5.932 -0.1390 -1.5366 -0.7415
 6102SOL    HW229766   4.702   1.558   5.936  0.8479 -0.8854 -0.7571
 6103SOL     OW29767   1.380   0.418  15.840  0.0256 -0.2271  0.1130
 6103SOL    HW129768   1.391   0.331  15.802  0.4422  0.6405 -1.7449
 6103SOL    HW229769   1.399   0.407  15.934 -0.2339 -3.2530 -0.1718
 6104SOL     OW29770   3.161   2.216   8.593 -0.0798  0.3440  0.0950
 6104SOL    HW129771   3.236   2.167   8.561 -0.5897 -0.6464  0.4404
 6104SOL    HW229772   3.086   2.165   8.563  0.5285 -0.7029  0.3857
 6105SOL     OW29773   3.915   2.409   3.025  0.1705  1.6518  0.0505
 6105SOL    HW129774   3.977   2.372   2.962 -3.9536 -2.6788 -1.4591
 6105SOL    HW229775   3.903   2.495   2.983  0.7520  2.4705  1.5506
 6106SOL     OW29776   4.604   1.127   8.671 -0.2668 -0.5811  0.3237
 6106SOL    HW129777   4.534   1.147   8.608 -1.6863 -0.0888  2.0747
 6106SOL    HW229778   4.667   1.194   8.642  1.1991 -1.4046  1.6416
 6107SOL     OW29779   2.901   2.997   9.193 -0.1602 -0.2036 -0.3921
 6107SOL    HW129780   2.887   3.049   9.272 -0.2019 -0.9671  0.1031
 6107SOL    HW229781   2.906   2.906   9.222  2.0069 -0.1920 -0.7582
 6108SOL     OW29782   0.335   4.302  10.632  0.3183  0.1953 -0.2293
 6108SOL    HW129783   0.261   4.343  10.677  0.1809  0.8604 -1.0427
 6108SOL    HW229784   0.309   4.323  10.542  0.0848  1.4965  0.1387
 6109SOL     OW29785   3.840   0.185   8.862  0.5538  0.7433 -0.1397
 6109SOL    HW129786   3.817   0.242   8.935 -1.5214 -1.3752  0.8635
 6109SOL    HW229787   3.823   0.241   8.786 -0.8798  1.0041  0.3705
 6110SOL     OW29788   2.715   2.288  13.142  0.2641  0.0756 -0.2493
 6110SOL    HW129789   2.667   2.248  13.070  1.1451 -0.8381 -0.3353
 6110SOL    HW229790   2.808   2.272  13.124  0.2705  0.2377 -0.3611
 6111SOL     OW29791   3.644   4.371   6.983  0.0528 -0.0028 -0.5144
 6111SOL    HW129792   3.704   4.311   7.028  0.3015 -1.3748 -2.6512
 6111SOL    HW229793   3.701   4.442   6.953  0.5895  0.0347  0.5998
 6112SOL     OW29794   0.415   3.913  17.429 -0.0855 -0.7358  0.3697
 6112SOL    HW129795   0.381   3.824  17.436 -0.6694 -0.5997 -0.8399
 6112SOL    HW229796   0.355   3.966  17.481 -0.6741 -1.0167 -0.0158
 6113SOL     OW29797   0.292   3.260  16.624 -0.3498  1.0039 -0.3605
 6113SOL    HW129798   0.338   3.232  16.703  1.3276 -2.6641 -2.6931
 6113SOL    HW229799   0.262   3.349  16.645  2.4088  1.5581  1.1672
 6114SOL     OW29800   3.007   0.030  13.040 -0.7051 -0.2647  0.0055
 6114SOL    HW129801   3.051   0.065  12.963  1.6665 -0.1283  1.4263
 6114SOL    HW229802   3.066   4.688  13.077  2.0701  2.1659 -0.1558
 6115SOL     OW29803   4.671   1.331  12.762 -0.0785 -0.3184  0.6307
 6115SOL    HW129804   4.597   1.358  12.708  1.5542  0.5408 -1.1937
 6115SOL    HW229805   0.003   1.409  12.764  0.3000 -0.5529 -0.9085
 6116SOL     OW29806   0.831   2.453   7.445  0.3803  0.7572  0.2221
 6116SOL    HW129807   0.829   2.360   7.424  1.5619  0.5844  0.8523
 6116SOL    HW229808   0.736   2.460   7.446  0.2418 -1.1584 -0.4817
 6117SOL     OW29809   2.728   3.613   6.244  0.1828 -0.3780 -0.1134
 6117SOL    HW129810   2.696   3.676   6.309 -3.1359  0.1215 -2.2393
 6117SOL    HW229811   2.662   3.543   6.243  0.2099 -0.4236  1.3463
 6118SOL     OW29812   4.137   2.915   4.581 -0.5006  0.1647  0.4556
 6118SOL    HW129813   4.049   2.918   4.543 -0.8017 -1.6889  1.0493
 6118SOL    HW229814   4.110   2.867   4.659 -0.4658  1.9830  1.6101
 6119SOL     OW29815   1.642   3.785   5.722  0.1800  0.2332  0.3710
 6119SOL    HW129816   1.713   3.822   5.669  1.7675 -0.0687  2.2912
 6119SOL    HW229817   1.627   3.854   5.786  1.6193 -0.3594  1.3566
 6120SOL     OW29818   1.300   1.272  14.017  0.2870 -0.0892 -0.4320
 6120SOL    HW129819   1.372   1.221  13.981  0.3499 -1.1409  1.1986
 6120SOL    HW229820   1.346   1.318  14.087  1.0511 -1.8459  0.1937
 6121SOL     OW29821   2.604   3.971   7.274 -0.1831  0.0057 -1.1320
 6121SOL    HW129822   2.527   4.020   7.302  0.2536 -0.0553  0.2006
 6121SOL    HW229823   2.622   4.015   7.192 -0.1856  0.0252 -1.1220
 6122SOL     OW29824   4.692   1.524  12.289  0.1893 -0.4681 -0.3465
 6122SOL    HW129825   4.615   1.539  12.235  0.3261 -2.8161 -1.1935
 6122SOL    HW229826   0.003   1.612  12.303  0.3630 -0.6511  0.3778
 6123SOL     OW29827   2.922   1.662  16.796  0.1552 -0.2287 -0.1791
 6123SOL    HW129828   2.977   1.584  16.798 -0.4261 -0.6069  1.5043
 6123SOL    HW229829   2.863   1.624  16.730 -1.1642 -0.3629  1.0755
 6124SOL     OW29830   2.666   3.197   6.968  0.0258 -0.3168  0.2706
 6124SOL    HW129831   2.708   3.144   6.900 -0.1182 -0.7577  0.5285
 6124SOL    HW229832   2.641   3.268   6.909  1.5626 -2.5726 -3.1112
 6125SOL     OW29833   4.462   2.188  14.066  0.2013 -0.0706 -0.2191
 6125SOL    HW129834   4.399   2.153  14.003  0.0987 -1.7616  0.8261
 6125SOL    HW229835   4.488   2.106  14.107  0.9033  0.3698  0.2293
 6126SOL     OW29836   0.608   1.833   7.772  0.4975  0.7517 -0.3824
 6126SOL    HW129837   0.683   1.887   7.796  0.9581  0.1769 -0.5356
 6126SOL    HW229838   0.646   1.793   7.694 -2.3411  0.2064 -1.4994
 6127SOL     OW29839   0.324   4.522  14.203 -0.0823 -0.1123  0.0244
 6127SOL    HW129840   0.229   4.515  14.206 -0.1494  1.4202  1.5127
 6127SOL    HW229841   0.337   4.616  14.220 -0.2380 -0.4748  2.1670
 6128SOL     OW29842   4.240   3.542   3.120 -0.1376 -0.1272  0.1975
 6128SOL    HW129843   4.330   3.510   3.116  0.4766  1.7518 -0.7119
 6128SOL    HW229844   4.196   3.479   3.062 -1.9446 -0.0644  1.5071
 6129SOL     OW29845   3.617   3.824   4.651 -0.6677 -0.0374  0.0126
 6129SOL    HW129846   3.542   3.766   4.648  0.1437 -1.1839  1.8276
 6129SOL    HW229847   3.567   3.899   4.619 -1.0107  0.7500  2.3509
 6130SOL     OW29848   3.699   1.970   6.015  0.2891  0.0901 -0.1388
 6130SOL    HW129849   3.755   1.915   5.961 -0.6993  0.9437 -2.0502
 6130SOL    HW229850   3.636   1.904   6.044  0.5328  0.4975  1.2920
 6131SOL     OW29851   2.305   3.284   4.419 -0.2231  0.2941  0.5300
 6131SOL    HW129852   2.240   3.352   4.398  0.1871  0.5042 -0.0424
 6131SOL    HW229853   2.377   3.334   4.458 -0.4211  0.8514  0.1783
 6132SOL     OW29854   2.807   3.751   4.568 -0.4166  0.0041  0.3592
 6132SOL    HW129855   2.737   3.742   4.503  0.4678 -1.5428 -0.3932
 6132SOL    HW229856   2.885   3.756   4.512 -0.7337 -1.8363 -0.2593
 6133SOL     OW29857   2.172   2.984   6.759 -0.3209 -0.6599 -0.0310
 6133SOL    HW129858   2.095   3.013   6.711 -0.9182  2.3501  2.7947
 6133SOL    HW229859   2.240   3.032   6.711  0.2473 -0.4709  0.9619
 6134SOL     OW29860   1.824   3.450  10.882 -0.2508  0.3677 -0.0492
 6134SOL    HW129861   1.844   3.403  10.963  2.5069 -0.0945 -0.9940
 6134SOL    HW229862   1.909   3.465  10.841 -0.4802  0.5473 -0.4560
 6135SOL     OW29863   2.435   1.915   2.902  0.0318 -0.1725  0.1322
 6135SOL    HW129864   2.365   1.980   2.902  0.9297  0.8165  1.4157
 6135SOL    HW229865   2.505   1.960   2.951  1.2832 -3.4650  1.3654
 6136SOL     OW29866   4.099   2.768   4.800  0.0143  0.1425 -0.0686
 6136SOL    HW129867   4.100   2.810   4.886  1.3948 -0.3135  0.1303
 6136SOL    HW229868   4.137   2.684   4.825 -1.1585 -0.8859 -1.6940
 6137SOL     OW29869   3.816   3.047   7.546 -0.6491 -1.2137  0.4906
 6137SOL    HW129870   3.898   3.003   7.570 -1.1587 -2.9383 -0.9055
 6137SOL    HW229871   3.843   3.138   7.554  0.4678 -1.2761 -2.7521
 6138SOL     OW29872   1.901   1.049   8.162  0.1339  0.5944 -0.1434
 6138SOL    HW129873   1.963   0.989   8.203 -0.2477  1.2792  1.4314
 6138SOL    HW229874   1.879   1.093   8.244  0.7689  0.7653 -0.0658
 6139SOL     OW29875   1.834   0.157  16.984  0.1694  0.3203  0.3190
 6139SOL    HW129876   1.817   0.117  17.069  0.5233  0.4796  0.4627
 6139SOL    HW229877   1.866   0.245  17.005 -0.1932  0.5992 -0.2926
 6140SOL     OW29878   4.379   3.850   8.026  0.0275  0.3081 -0.3102
 6140SOL    HW129879   4.472   3.873   8.032  0.8417 -2.6444 -1.0246
 6140SOL    HW229880   4.349   3.917   8.086 -2.1427 -1.2290  0.3244
 6141SOL     OW29881   0.206   2.695   1.474  0.4514 -0.4092 -0.4243
 6141SOL    HW129882   0.255   2.722   1.551 -0.2275  3.1043 -1.2205
 6141SOL    HW229883   0.273   2.722   1.411 -0.4246  2.1853 -0.2628
 6142SOL     OW29884   1.453   4.154   4.499 -0.3726  0.3338 -0.2236
 6142SOL    HW129885   1.489   4.236   4.463 -1.2688  1.0925  0.5887
 6142SOL    HW229886   1.358   4.166   4.506 -0.6421 -1.8196 -0.4017
 6143SOL     OW29887   4.480   1.528   8.863  0.6505  0.1053 -0.2685
 6143SOL    HW129888   4.422   1.523   8.787  1.0367  1.8343 -0.6927
 6143SOL    HW229889   4.436   1.592   8.918 -0.5656 -0.3508 -0.7160
 6144SOL     OW29890   0.334   2.844   7.020  0.4008  0.3138 -0.1760
 6144SOL    HW129891   0.351   2.935   7.043 -0.8201  0.4774  0.0815
 6144SOL    HW229892   0.327   2.803   7.107 -1.4420 -0.7728 -0.8348
 6145SOL     OW29893   2.586   3.390  10.264 -0.1636  0.3929  0.2373
 6145SOL    HW129894   2.543   3.393  10.349 -0.3296 -0.1944  0.1771
 6145SOL    HW229895   2.644   3.466  10.257 -1.7912  1.5945 -0.2482
 6146SOL     OW29896   4.171   2.782   0.109 -0.7961 -0.3426 -0.3707
 6146SOL    HW129897   4.240   2.822   0.161  0.4885 -0.9199 -1.6177
 6146SOL    HW229898   4.099   2.782   0.172 -0.4701 -2.9674 -0.0227
 6147SOL     OW29899   1.249   4.282  17.454  0.1203  0.5178 -0.0264
 6147SOL    HW129900   1.302   4.308  17.379 -0.4363 -1.8438 -1.2360
 6147SOL    HW229901   1.228   4.192  17.429 -0.7167  1.1080 -1.4526
 6148SOL     OW29902   2.650   0.478   5.574 -0.1520 -0.6320  0.2282
 6148SOL    HW129903   2.588   0.497   5.504  2.2319  2.0545 -1.1026
 6148SOL    HW229904   2.596   0.478   5.653 -1.1015 -0.7988 -0.4197
 6149SOL     OW29905   3.116   2.281  16.818  0.2055  0.5393  0.2371
 6149SOL    HW129906   3.063   2.206  16.843 -1.7397  0.7560 -3.1236
 6149SOL    HW229907   3.193   2.272  16.873  0.3362  0.1241 -0.0123
 6150SOL     OW29908   0.348   0.391  10.392  0.1238  0.7657 -0.0759
 6150SOL    HW129909   0.399   0.424  10.466  3.9171 -1.0970 -1.8518
 6150SOL    HW229910   0.358   0.297  10.408 -0.6156  0.9287  1.3418
 6151SOL     OW29911   4.083   2.265   5.625  0.0047 -0.9268 -0.8351
 6151SOL    HW129912   4.086   2.171   5.641  2.5782 -0.7335 -0.2890
 6151SOL    HW229913   4.101   2.296   5.713 -0.4625 -1.0601 -0.6900
 6152SOL     OW29914   0.657   3.197   5.950  0.0710  0.3091  0.2672
 6152SOL    HW129915   0.575   3.148   5.948 -1.0609  2.1773  0.2430
 6152SOL    HW229916   0.720   3.126   5.961 -0.3813 -0.3675 -1.4790
 6153SOL     OW29917   3.350   2.537   5.172  0.6873  0.0336 -0.2862
 6153SOL    HW129918   3.374   2.602   5.238 -0.1582  1.2982 -1.2218
 6153SOL    HW229919   3.288   2.586   5.118 -0.6275 -0.8216  0.4467
 6154SOL     OW29920   1.472   1.753   6.581 -0.3295  0.1476  0.1113
 6154SOL    HW129921   1.528   1.803   6.521  0.5894  1.9356  2.4596
 6154SOL    HW229922   1.461   1.821   6.647  0.3838 -0.0526  0.4410
 6155SOL     OW29923   3.786   2.411  15.748  0.0889  0.3876  0.4984
 6155SOL    HW129924   3.794   2.365  15.831  0.1867  0.5174  0.5615
 6155SOL    HW229925   3.718   2.476  15.765 -0.5005  0.5811 -2.5666
 6156SOL     OW29926   0.437   2.965   4.918 -0.6828  0.0142 -0.3306
 6156SOL    HW129927   0.353   2.932   4.888 -0.1594 -0.8106 -0.8795
 6156SOL    HW229928   0.467   2.909   4.990 -1.7391 -1.1395 -0.7915
 6157SOL     OW29929   1.841   4.120   4.473 -0.0298 -0.4149 -0.0130
 6157SOL    HW129930   1.879   4.167   4.398  0.2755 -1.6417 -0.6184
 6157SOL    HW229931   1.855   4.190   4.537  0.3920 -0.2252 -0.3096
 6158SOL     OW29932   1.372   3.956   7.095 -0.2596  0.1985  0.8931
 6158SOL    HW129933   1.407   4.045   7.100  1.0686 -0.3749  1.9019
 6158SOL    HW229934   1.405   3.920   7.177  1.5031  1.4276  0.7361
 6159SOL     OW29935   0.612   0.208   8.082  0.1282 -0.2461 -0.2097
 6159SOL    HW129936   0.524   0.235   8.110  0.0935 -0.5390 -0.0384
 6159SOL    HW229937   0.587   0.146   8.013  0.1512 -0.2392 -0.2243
 6160SOL     OW29938   3.806   3.045   6.998  0.5528  0.2811  0.3976
 6160SOL    HW129939   3.742   3.112   7.022  0.2353  0.3740 -0.7453
 6160SOL    HW229940   3.815   2.999   7.082  0.9387  1.0914  0.7995
 6161SOL     OW29941   1.706   3.623   8.176 -0.5145  0.5061 -0.0579
 6161SOL    HW129942   1.708   3.687   8.104 -1.9012  0.3297 -0.2379
 6161SOL    HW229943   1.613   3.602   8.169 -0.3458 -0.1332 -0.3684
 6162SOL     OW29944   3.015   0.230   6.916  0.2840  0.3013 -0.0148
 6162SOL    HW129945   3.062   0.173   6.977  0.9466  1.4000  0.5033
 6162SOL    HW229946   3.080   0.278   6.866 -1.4846  1.8535 -0.8230
 6163SOL     OW29947   1.959   0.624  17.274  0.5891  0.1026 -0.4353
 6163SOL    HW129948   2.020   0.581  17.335 -0.4052 -1.8686 -0.8436
 6163SOL    HW229949   2.020   0.658  17.208  0.2587 -0.0318 -0.8056
 6164SOL     OW29950   3.657   3.255   8.040 -0.4243  0.3720  0.0305
 6164SOL    HW129951   3.703   3.339   8.041  1.1957 -0.5389  1.3151
 6164SOL    HW229952   3.664   3.228   8.131 -1.3381  0.1964  0.0490
 6165SOL     OW29953   2.813   3.047  16.903  0.2391 -0.2376  0.1881
 6165SOL    HW129954   2.731   3.063  16.948 -0.0733 -0.1352 -0.4197
 6165SOL    HW229955   2.780   3.015  16.819 -2.7810  1.5634  0.7083
 6166SOL     OW29956   4.046   1.185   7.536  0.0819  0.6074  0.4179
 6166SOL    HW129957   3.963   1.147   7.506  0.6928 -0.9801  0.7657
 6166SOL    HW229958   4.017   1.268   7.574  2.8208  1.4463  0.6965
 6167SOL     OW29959   2.347   4.140   3.704 -0.0177 -0.1075  0.4105
 6167SOL    HW129960   2.316   4.180   3.785 -2.9299 -1.6323  0.0290
 6167SOL    HW229961   2.436   4.176   3.706  0.7881 -2.1325  2.3252
 6168SOL     OW29962   0.748   2.756   7.382  0.2247  0.1243  0.0904
 6168SOL    HW129963   0.682   2.798   7.327  0.1949 -0.3824 -0.2629
 6168SOL    HW229964   0.812   2.734   7.313 -0.5578 -2.1045  0.0949
 6169SOL     OW29965   3.940   2.216   3.428  0.1522 -0.3678  0.4452
 6169SOL    HW129966   3.949   2.302   3.388 -1.1578 -0.9234 -1.0653
 6169SOL    HW229967   4.029   2.184   3.411  0.2196  0.9384 -1.6646
 6170SOL     OW29968   3.312   4.085   5.076  0.0409  0.2731 -0.0351
 6170SOL    HW129969   3.292   4.004   5.029  0.5836  0.4261 -0.5410
 6170SOL    HW229970   3.245   4.067   5.141 -3.5725  3.5115 -2.9266
 6171SOL     OW29971   2.940   2.456   6.758  0.2185 -0.5240  0.0468
 6171SOL    HW129972   2.860   2.414   6.726 -0.8386  0.8015  0.9508
 6171SOL    HW229973   2.990   2.451   6.677 -0.1771 -1.1127 -0.1619
 6172SOL     OW29974   2.183   1.075   7.981 -0.2703  0.4901  0.2686
 6172SOL    HW129975   2.165   1.085   8.075  0.3820  1.0852  0.3304
 6172SOL    HW229976   2.112   1.015   7.957  1.7798 -1.3174 -1.2321
 6173SOL     OW29977   4.099   4.290   5.347 -0.1727  0.1850 -0.2241
 6173SOL    HW129978   4.012   4.289   5.307  0.2453  0.5772 -1.1346
 6173SOL    HW229979   4.121   4.380   5.325  0.1389  0.1099 -0.2198
 6174SOL     OW29980   3.133   4.664   8.008 -0.4136  0.4110 -0.5676
 6174SOL    HW129981   3.051   4.703   8.036  0.1149 -0.4942  2.2026
 6174SOL    HW229982   3.187   4.718   8.065 -0.1994 -0.8355  0.4129
 6175SOL     OW29983   0.357   0.371  10.695  0.1407  0.3682  0.3460
 6175SOL    HW129984   0.268   0.403  10.709 -0.6796 -0.9169 -1.9527
 6175SOL    HW229985   0.351   0.283  10.657  0.0994 -0.9626  3.4674
 6176SOL     OW29986   3.742   1.157   4.064 -0.3245 -0.0792 -0.1226
 6176SOL    HW129987   3.781   1.116   4.141 -2.2345 -2.8884 -0.6450
 6176SOL    HW229988   3.706   1.079   4.022  0.8819 -0.9718  0.4867
 6177SOL     OW29989   2.078   2.339   5.671  0.2556  0.2994  0.1655
 6177SOL    HW129990   1.987   2.311   5.665 -0.1665  1.4796  1.2770
 6177SOL    HW229991   2.079   2.413   5.731  0.2502 -1.2204  2.0549
 6178SOL     OW29992   1.141   0.774  16.044  0.5413  0.3692 -0.0072
 6178SOL    HW129993   1.156   0.724  16.125 -0.4343 -0.9138 -0.6259
 6178SOL    HW229994   1.075   0.836  16.074 -1.3794 -1.9692  0.5482
 6179SOL     OW29995   4.604   1.328   2.893 -0.1979  0.4592  0.1867
 6179SOL    HW129996   4.525   1.335   2.947  0.2627  1.1700  0.7728
 6179SOL    HW229997   4.611   1.233   2.892 -0.4378  0.4817 -1.9089
 6180SOL     OW29998   2.514   1.953  12.537  0.3580  0.5448  0.7296
 6180SOL    HW129999   2.497   1.891  12.608  1.4372  0.4172  0.8726
 6180SOL    HW230000   2.423   1.976  12.517  0.4765 -0.2327 -0.7709
 6181SOL     OW30001   0.978   3.464  10.526 -0.2466 -0.3911  0.0514
 6181SOL    HW130002   0.990   3.557  10.547  1.5524 -0.2472 -1.7131
 6181SOL    HW230003   1.068   3.439  10.508  0.8224  1.9077  2.2246
 6182SOL     OW30004   0.215   4.068  16.425 -0.4873  0.7173 -0.0197
 6182SOL    HW130005   0.239   4.141  16.368  1.2988 -0.6842 -1.0525
 6182SOL    HW230006   0.270   4.090  16.500  0.5953 -2.8143  0.1815
 6183SOL     OW30007   0.686   1.153  16.836 -0.5809  0.3116  0.1405
 6183SOL    HW130008   0.593   1.153  16.859 -0.5430 -0.6468  0.2858
 6183SOL    HW230009   0.706   1.233  16.885  0.3526 -0.1689  0.5303
 6184SOL     OW30010   1.362   4.579   5.346 -0.2727 -0.1802 -0.6893
 6184SOL    HW130011   1.270   4.601   5.336 -0.8369 -2.3445 -0.3984
 6184SOL    HW230012   1.373   4.563   5.440  0.2502  1.5646 -0.4556
 6185SOL     OW30013   0.954   3.207  10.611 -0.3526  0.1976  0.0519
 6185SOL    HW130014   0.971   3.295  10.579 -0.1159  0.8890  2.0713
 6185SOL    HW230015   1.027   3.168  10.562  0.4302 -0.6524  1.8750
 6186SOL     OW30016   2.226   4.685   2.273  0.0138  0.7584  0.6210
 6186SOL    HW130017   2.301   4.685   2.332  0.3008  1.5819  0.2598
 6186SOL    HW230018   2.239   0.044   2.225 -0.3873 -1.5414 -3.4311
 6187SOL     OW30019   4.381   4.377   2.867  0.4699  0.1857 -0.5225
 6187SOL    HW130020   4.459   4.391   2.814  0.7477  1.1392  0.1164
 6187SOL    HW230021   4.312   4.415   2.812 -1.4829  0.6261  2.2024
 6188SOL     OW30022   3.467   3.546  14.808  0.3759  0.1260 -0.0459
 6188SOL    HW130023   3.451   3.553  14.713 -2.7337  0.2527  0.4847
 6188SOL    HW230024   3.414   3.622  14.831  0.7503  0.1292  0.7842
 6189SOL     OW30025   2.536   4.407  14.602 -0.4881 -0.1159  0.6137
 6189SOL    HW130026   2.601   4.339  14.618  1.6295  1.8562  0.4745
 6189SOL    HW230027   2.547   4.474  14.670 -1.3083  0.2281  0.4082
 6190SOL     OW30028   1.314   2.063   4.947 -0.0660 -0.1626 -0.3008
 6190SOL    HW130029   1.269   2.144   4.972  0.0218 -0.7167  1.6254
 6190SOL    HW230030   1.234   2.016   4.924  0.5482 -1.9086  1.1704
 6191SOL     OW30031   2.192   0.411   3.876  0.0975  0.0372  0.0359
 6191SOL    HW130032   2.149   0.325   3.880  2.4307 -1.0804  1.3133
 6191SOL    HW230033   2.118   0.465   3.852 -2.6740 -1.5556  4.8582
 6192SOL     OW30034   3.581   0.387   2.651  0.3056 -0.2736 -0.0371
 6192SOL    HW130035   3.561   0.477   2.625  2.1588 -0.3471 -1.7505
 6192SOL    HW230036   3.672   0.381   2.681  0.1041 -0.8618  0.4558
 6193SOL     OW30037   0.854   1.276   3.395 -0.4538 -0.5421  0.2503
 6193SOL    HW130038   0.801   1.251   3.320 -1.3198  2.7888 -0.2673
 6193SOL    HW230039   0.788   1.335   3.431 -0.2848  0.5081 -1.1446
 6194SOL     OW30040   3.264   0.866   4.361 -0.3263  0.2052  0.2061
 6194SOL    HW130041   3.331   0.913   4.311  0.2671 -1.0773 -0.1973
 6194SOL    HW230042   3.183   0.894   4.317  0.8234 -0.3596 -2.2793
 6195SOL     OW30043   2.642   3.346   9.451  0.5378  0.1190  0.4158
 6195SOL    HW130044   2.701   3.271   9.442  0.4485  0.1790 -0.7444
 6195SOL    HW230045   2.592   3.337   9.370  1.2953 -4.3225  0.4670
 6196SOL     OW30046   0.597   4.370   2.859  0.3534  1.0468 -0.7373
 6196SOL    HW130047   0.608   4.460   2.829  1.7092  1.8640  2.1751
 6196SOL    HW230048   0.687   4.339   2.850 -0.6332 -1.8494 -0.7755
 6197SOL     OW30049   0.622   0.784  13.661 -0.4407 -0.0005 -0.1377
 6197SOL    HW130050   0.591   0.867  13.626 -1.1433 -0.5275 -0.7668
 6197SOL    HW230051   0.599   0.783  13.754  2.0444 -1.5160  0.4714
 6198SOL     OW30052   3.951   0.378   6.490  0.4422 -0.3383  0.1290
 6198SOL    HW130053   3.894   0.431   6.435 -3.3464 -4.8430 -0.2838
 6198SOL    HW230054   4.038   0.400   6.456  0.2796  1.1051  0.6469
 6199SOL     OW30055   0.579   2.324  16.744 -0.5998  0.1207  0.3586
 6199SOL    HW130056   0.488   2.326  16.775 -0.3895  2.4371  0.8383
 6199SOL    HW230057   0.622   2.355  16.824 -1.3678 -1.5370  1.4084
 6200SOL     OW30058   3.224   2.193  12.101  0.2645 -0.5502 -0.3567
 6200SOL    HW130059   3.164   2.192  12.176 -0.5769  1.2311 -1.0061
 6200SOL    HW230060   3.209   2.278  12.061 -1.2375 -0.4042  0.5185
 6201SOL     OW30061   1.083   4.160  13.464  0.7705 -0.5501 -0.0281
 6201SOL    HW130062   1.167   4.154  13.508  0.8069  0.0890 -0.0173
 6201SOL    HW230063   1.114   4.216  13.393 -0.9248 -0.3350 -0.6093
 6202SOL     OW30064   0.810   0.000   6.631  0.2552 -0.4884 -0.1792
 6202SOL    HW130065   0.846   0.072   6.579 -1.1343 -1.9319 -3.1153
 6202SOL    HW230066   0.725   4.711   6.588  0.7386 -0.4161 -1.1582
 6203SOL     OW30067   4.251   2.345   8.454  0.0255  0.2866 -0.2998
 6203SOL    HW130068   4.202   2.338   8.373 -3.3604  0.7176  1.6980
 6203SOL    HW230069   4.178   2.320   8.512 -0.5928  0.9296 -0.8118
 6204SOL     OW30070   0.766   2.126   9.449  0.4320 -0.0838 -0.7074
 6204SOL    HW130071   0.671   2.132   9.460  0.5305  1.4649 -0.6125
 6204SOL    HW230072   0.801   2.105   9.536  0.5915 -1.6343 -1.1462
 6205SOL     OW30073   3.260   0.389   6.887 -0.6111 -0.2694  0.1669
 6205SOL    HW130074   3.280   0.480   6.906  1.8350 -0.2506 -2.5632
 6205SOL    HW230075   3.296   0.376   6.800 -0.6673  2.2712 -0.2286
 6206SOL     OW30076   0.846   3.237   6.205 -0.4258 -0.2174 -0.0478
 6206SOL    HW130077   0.815   3.204   6.121  1.2280 -0.5772 -0.5245
 6206SOL    HW230078   0.860   3.153   6.248 -1.6874 -0.5605 -0.3181
 6207SOL     OW30079   3.103   3.565   3.703 -0.2812  0.1610 -0.1291
 6207SOL    HW130080   3.133   3.487   3.657 -1.1422 -0.0649 -0.3122
 6207SOL    HW230081   3.043   3.524   3.765 -1.5379 -0.8079 -1.9828
 6208SOL     OW30082   3.781   4.409   5.753  0.2778  0.3756 -0.2206
 6208SOL    HW130083   3.699   4.444   5.718 -0.0048  1.7685  1.8078
 6208SOL    HW230084   3.836   4.487   5.748 -1.9027  1.8306 -1.6084
 6209SOL     OW30085   2.891   2.313   9.468 -0.0185 -0.3398  0.6865
 6209SOL    HW130086   2.801   2.300   9.439  0.9237 -0.7461 -2.0298
 6209SOL    HW230087   2.914   2.224   9.492 -2.7116 -0.9491  1.0007
 6210SOL     OW30088   2.205   0.021   7.970 -0.4483  0.1536  0.2764
 6210SOL    HW130089   2.154   4.667   7.994  0.9114 -0.9046 -0.2145
 6210SOL    HW230090   2.206   0.064   8.056  0.6567  0.5177  0.0884
 6211SOL     OW30091   0.337   2.367  16.408  0.2237 -0.1168  0.6953
 6211SOL    HW130092   0.283   2.418  16.469  0.9524 -1.2905  2.3311
 6211SOL    HW230093   0.419   2.395  16.450  2.0281 -0.8679 -2.3664
 6212SOL     OW30094   1.940   2.374   8.098  0.6879  0.4362 -0.1906
 6212SOL    HW130095   2.010   2.332   8.146  0.8396  0.0665 -0.7414
 6212SOL    HW230096   1.972   2.464   8.092 -0.4596  0.6666 -2.7351
 6213SOL     OW30097   3.397   4.466  11.308 -0.2878  0.1628 -0.4060
 6213SOL    HW130098   3.411   4.393  11.368  2.0858  0.5309 -0.5241
 6213SOL    HW230099   3.479   4.463  11.259 -0.0627  3.0172 -0.2176
 6214SOL     OW30100   4.038   3.408   6.579 -0.2810  0.1336  0.2823
 6214SOL    HW130101   4.119   3.357   6.582 -0.5328 -0.1743  1.8884
 6214SOL    HW230102   4.047   3.465   6.656 -1.4664 -0.7402  1.0544
 6215SOL     OW30103   3.116   1.504   9.643 -0.3001  0.4208 -0.5803
 6215SOL    HW130104   3.135   1.530   9.553 -0.4105  0.4581 -0.5932
 6215SOL    HW230105   3.178   1.433   9.658 -1.8067 -0.5056  1.1956
 6216SOL     OW30106   4.596   2.744   5.147  0.3375 -0.2389 -0.1650
 6216SOL    HW130107   4.624   2.663   5.189  0.8773 -0.1495 -0.3477
 6216SOL    HW230108   4.593   2.800   5.224 -0.0380  1.0980 -1.1539
 6217SOL     OW30109   2.414   0.924   5.034  0.0232  0.3302 -0.3961
 6217SOL    HW130110   2.445   0.834   5.033  1.1678  0.7043  0.3059
 6217SOL    HW230111   2.342   0.937   4.973 -0.4606 -2.7197 -0.4772
 6218SOL     OW30112   1.733   3.432   0.337 -0.1200  0.3136 -0.7486
 6218SOL    HW130113   1.685   3.511   0.311 -0.6341  1.0240  2.2762
 6218SOL    HW230114   1.670   3.377   0.384 -1.4010  0.2449 -2.5783
 6219SOL     OW30115   3.858   1.276   3.823 -0.2244  0.0085  0.7009
 6219SOL    HW130116   3.814   1.257   3.906  1.5388 -1.0767  1.3831
 6219SOL    HW230117   3.859   1.371   3.813 -0.8289 -0.3471 -2.7836
 6220SOL     OW30118   4.273   0.193  12.358  0.1563  0.3260 -0.1641
 6220SOL    HW130119   4.307   0.241  12.433 -0.2783  2.2753 -1.2211
 6220SOL    HW230120   4.282   0.259  12.290  1.0715 -0.7615 -1.1116
 6221SOL     OW30121   0.051   1.112   3.453 -0.1867  0.7465  0.5172
 6221SOL    HW130122   0.044   1.028   3.408 -0.2452  1.1333 -0.2031
 6221SOL    HW230123   0.111   1.093   3.524 -2.2375 -1.1164  1.7371
 6222SOL     OW30124   3.085   0.779   5.382  0.3923 -0.6465 -0.3259
 6222SOL    HW130125   3.107   0.752   5.471 -0.5218  0.7503  0.3414
 6222SOL    HW230126   2.990   0.789   5.391  0.5112 -0.1763  0.4605
 6223SOL     OW30127   1.682   1.817   6.436  0.1940  0.2468 -0.5676
 6223SOL    HW130128   1.752   1.758   6.465  0.8966  2.3057  1.8727
 6223SOL    HW230129   1.731   1.899   6.437 -1.0559  0.9893  0.1438
 6224SOL     OW30130   0.320   1.656  15.944 -0.1088  1.1002 -0.1041
 6224SOL    HW130131   0.355   1.739  15.976  0.3793 -0.2212  2.7933
 6224SOL    HW230132   0.276   1.688  15.865 -0.0651 -0.5564 -0.8132
 6225SOL     OW30133   0.822   1.894  12.423 -0.5563 -0.5008 -0.8428
 6225SOL    HW130134   0.881   1.848  12.483 -0.2268 -1.8196 -2.1743
 6225SOL    HW230135   0.884   1.945  12.372 -0.7315  0.2324 -0.3149
 6226SOL     OW30136   1.131   2.664   7.339  0.3013 -0.0072  0.2823
 6226SOL    HW130137   1.187   2.682   7.264  0.3685  1.1340  0.5994
 6226SOL    HW230138   1.145   2.747   7.386 -1.5215 -0.8670  2.3137
 6227SOL     OW30139   4.563   0.118   6.205  0.4505 -0.4434  0.1324
 6227SOL    HW130140   4.637   0.062   6.229  1.7523  0.9308 -0.6615
 6227SOL    HW230141   4.580   0.205   6.240  3.3223 -0.9552  0.0495
 6228SOL     OW30142   1.741   0.103   6.107 -0.3722 -0.4011 -0.0603
 6228SOL    HW130143   1.822   0.107   6.058 -1.0546  1.4990 -1.0183
 6228SOL    HW230144   1.712   0.015   6.085 -0.9797  0.2319 -1.7630
 6229SOL     OW30145   1.892   2.024   3.155  0.5300 -0.3410  0.2583
 6229SOL    HW130146   1.872   2.108   3.196 -2.7111 -0.2369 -1.4620
 6229SOL    HW230147   1.844   1.965   3.213 -1.3802  0.9655  0.0157
 6230SOL     OW30148   0.029   4.516   4.199  0.5753  0.5272 -0.4028
 6230SOL    HW130149   0.036   4.602   4.158 -0.4261  1.2007  0.8182
 6230SOL    HW230150   4.698   4.538   4.275  0.9993  2.1067 -0.5569
 6231SOL     OW30151   0.498   3.148   1.087 -0.2196  0.6884 -0.7404
 6231SOL    HW130152   0.413   3.136   1.128  1.6083 -0.9541  2.5983
 6231SOL    HW230153   0.544   3.067   1.109 -0.2099  0.9452  0.1884
 6232SOL     OW30154   2.065   4.301  12.897 -0.0270 -0.6467 -0.2717
 6232SOL    HW130155   2.126   4.369  12.923  1.6769 -2.7948  1.3484
 6232SOL    HW230156   1.982   4.349  12.893  0.1236 -0.3086  0.8409
 6233SOL     OW30157   3.701   0.083   6.993 -0.8214  0.1257 -0.1644
 6233SOL    HW130158   3.677   0.102   7.084 -0.3908 -0.6171  0.1018
 6233SOL    HW230159   3.639   0.145   6.953 -0.7228 -0.3262 -1.0004
 6234SOL     OW30160   0.684   4.521   3.094 -0.3801 -0.4419 -0.5078
 6234SOL    HW130161   0.607   4.572   3.120  1.2322  0.7929  1.7600
 6234SOL    HW230162   0.709   4.559   3.009  0.5328  1.4794  0.6185
 6235SOL     OW30163   2.445   3.835   0.435  0.5695 -0.9672  0.3941
 6235SOL    HW130164   2.371   3.868   0.384 -0.0678  1.1602  2.6678
 6235SOL    HW230165   2.429   3.890   0.512 -1.4582 -2.0406  0.7202
 6236SOL     OW30166   2.228   0.696   2.900 -0.2734 -0.0473  0.5753
 6236SOL    HW130167   2.158   0.759   2.883 -0.8700 -1.1772 -1.0837
 6236SOL    HW230168   2.305   0.752   2.897 -0.2072 -0.1132  1.0028
 6237SOL     OW30169   0.276   4.597   8.671 -0.2201 -0.1003 -0.1076
 6237SOL    HW130170   0.370   4.606   8.652  0.3296 -1.1040  2.2037
 6237SOL    HW230171   0.247   4.688   8.669 -0.8138 -0.3445 -2.7744
 6238SOL     OW30172   4.181   3.289  16.793 -0.0337  0.1353 -0.1115
 6238SOL    HW130173   4.239   3.327  16.727  2.7785 -0.6910  1.8784
 6238SOL    HW230174   4.236   3.219  16.829 -1.2150 -0.9074 -0.3339
 6239SOL     OW30175   0.039   1.496   7.858  0.4460 -0.1964 -0.4679
 6239SOL    HW130176   4.688   1.540   7.900  1.2271 -1.5960  2.4299
 6239SOL    HW230177   0.045   1.420   7.916 -1.3676  0.0387  0.0361
 6240SOL     OW30178   1.823   0.152   0.688 -0.1964  0.0570  0.3181
 6240SOL    HW130179   1.769   0.140   0.610 -0.8310  2.1189  0.4571
 6240SOL    HW230180   1.759   0.180   0.753  2.4484 -0.0319  2.9744
 6241SOL     OW30181   0.590   4.198  11.274 -0.2488 -0.5585  0.1482
 6241SOL    HW130182   0.654   4.223  11.208 -0.3138 -1.3330 -0.2054
 6241SOL    HW230183   0.612   4.254  11.349  0.0272 -0.5136  0.0320
 6242SOL     OW30184   1.018   1.772   7.399  0.1072  0.1070 -0.1906
 6242SOL    HW130185   1.004   1.685   7.361  1.6448  0.2146 -1.0065
 6242SOL    HW230186   0.937   1.815   7.372  0.4120  1.5215  1.1414
 6243SOL     OW30187   1.197   2.016   5.959 -0.1150  0.0449  0.1289
 6243SOL    HW130188   1.243   2.098   5.977 -0.8468  0.7604 -1.2914
 6243SOL    HW230189   1.264   1.971   5.908 -1.4740 -1.2704 -0.5249
 6244SOL     OW30190   1.581   1.870  15.958 -0.2674 -0.3973 -0.1494
 6244SOL    HW130191   1.533   1.943  15.919  1.8480  0.3586 -1.3322
 6244SOL    HW230192   1.576   1.891  16.051  0.4589  1.3614 -0.5108
 6245SOL     OW30193   4.374   3.951  12.930 -0.1345  0.3990 -0.1805
 6245SOL    HW130194   4.383   3.925  13.021 -0.7593  0.0008 -0.2380
 6245SOL    HW230195   4.463   3.948  12.895 -0.9042  2.5805 -2.3568
 6246SOL     OW30196   1.141   3.229   1.589  0.0282  0.0789 -0.4189
 6246SOL    HW130197   1.073   3.296   1.589 -1.3806 -1.3330  0.2378
 6246SOL    HW230198   1.147   3.224   1.493 -3.3252 -0.2057 -0.6287
 6247SOL     OW30199   3.966   1.746   8.571  0.0298 -0.5273 -0.2495
 6247SOL    HW130200   3.895   1.770   8.512 -1.8447 -0.8261  1.8783
 6247SOL    HW230201   3.922   1.767   8.654  0.6250 -1.2393  0.2393
 6248SOL     OW30202   3.134   0.836   7.465 -0.2122  0.0908  0.5039
 6248SOL    HW130203   3.169   0.888   7.393 -1.4674  4.2702  2.9284
 6248SOL    HW230204   3.150   0.899   7.535 -1.5878  0.0708  0.8350
 6249SOL     OW30205   3.762   2.185   2.664 -0.0046  0.1979  0.5214
 6249SOL    HW130206   3.759   2.278   2.643 -0.7384  0.4727  1.8505
 6249SOL    HW230207   3.849   2.164   2.628  0.7562  1.3947  1.6527
 6250SOL     OW30208   3.010   4.268   5.428  0.0548 -0.2862 -0.2872
 6250SOL    HW130209   3.025   4.345   5.373  1.1123 -1.5083 -1.7280
 6250SOL    HW230210   2.984   4.307   5.511 -1.8727  2.6984 -2.2854
 6251SOL     OW30211   4.313   1.423   9.145  0.3814 -0.2673 -0.1757
 6251SOL    HW130212   4.277   1.378   9.221 -2.1495  3.1797  0.6523
 6251SOL    HW230213   4.346   1.503   9.185 -0.3680  0.3172 -0.7487
 6252SOL     OW30214   1.405   3.706   5.004  0.8445  0.6239  0.1225
 6252SOL    HW130215   1.433   3.741   4.919 -0.4587  0.7848 -0.2444
 6252SOL    HW230216   1.312   3.724   5.013  1.3969  2.8375  1.5487
 6253SOL     OW30217   2.449   1.425  12.033 -0.4355 -0.1822 -0.1704
 6253SOL    HW130218   2.471   1.395  11.945  0.3064 -2.0196  0.6634
 6253SOL    HW230219   2.354   1.438  12.030 -0.2046  1.8582  0.9917
 6254SOL     OW30220   3.877   1.059   8.581  0.0474 -0.4728  0.0379
 6254SOL    HW130221   3.941   0.990   8.599  0.6462  0.2584  0.7312
 6254SOL    HW230222   3.902   1.093   8.495 -0.9653 -1.0252 -0.4567
 6255SOL     OW30223   4.324   4.283   6.279  0.6223 -0.3004  0.1414
 6255SOL    HW130224   4.282   4.199   6.259  2.7874 -1.4471  0.3797
 6255SOL    HW230225   4.319   4.277   6.374  1.8374 -2.1298  0.0992
 6256SOL     OW30226   4.066   0.119   6.259  0.0564 -0.0531 -0.3024
 6256SOL    HW130227   4.130   0.148   6.324 -1.6778 -1.4247  2.0244
 6256SOL    HW230228   4.073   0.025   6.275 -0.7355 -0.0625 -0.0381
 6257SOL     OW30229   0.139   2.664   5.233  0.0675  0.3251 -0.4569
 6257SOL    HW130230   0.216   2.711   5.265  1.3599 -1.5912 -0.7654
 6257SOL    HW230231   0.182   2.583   5.205 -0.0415  0.2189 -0.3197
 6258SOL     OW30232   3.934   0.097   7.301 -0.5343  0.1058  0.2289
 6258SOL    HW130233   3.892   0.012   7.312 -2.5707  1.3840  2.4293
 6258SOL    HW230234   4.017   0.077   7.259 -0.1298 -1.5382  1.8347
 6259SOL     OW30235   3.564   0.816   3.089  0.2929 -0.2384 -0.3021
 6259SOL    HW130236   3.588   0.773   3.007  0.3785 -2.6169  0.9943
 6259SOL    HW230237   3.535   0.901   3.054  0.7535 -0.5999 -1.5890
 6260SOL     OW30238   0.382   3.066   7.199  0.5578 -0.3960  0.5015
 6260SOL    HW130239   0.432   3.144   7.174  0.4273 -0.0555  1.3193
 6260SOL    HW230240   0.330   3.108   7.267  1.3837  1.3591  0.0465
 6261SOL     OW30241   3.084   4.496  13.126 -0.2173 -0.0925  0.2519
 6261SOL    HW130242   3.013   4.452  13.171  0.6787 -1.2829  0.5055
 6261SOL    HW230243   3.164   4.459  13.163 -0.7764  0.1134  1.6642
 6262SOL     OW30244   1.952   3.555   5.868 -0.0566 -0.4456  0.0569
 6262SOL    HW130245   1.900   3.501   5.808 -1.8352  0.8872  0.3854
 6262SOL    HW230246   1.986   3.627   5.814 -1.1650 -0.2714 -0.4210
 6263SOL     OW30247   1.795   1.593   5.959 -0.5806 -0.9134 -0.0621
 6263SOL    HW130248   1.742   1.626   6.031 -0.1682 -0.3228 -0.0318
 6263SOL    HW230249   1.858   1.538   6.006  0.5057  0.4072  0.0272
 6264SOL     OW30250   3.613   2.389   5.969  0.2232 -0.8026  0.0878
 6264SOL    HW130251   3.684   2.344   5.923  1.6813 -1.8015  3.3473
 6264SOL    HW230252   3.544   2.327   5.991  1.1439 -1.5969  0.7255
 6265SOL     OW30253   4.413   1.032   3.363  0.2136 -0.0629 -0.4847
 6265SOL    HW130254   4.399   1.119   3.324 -2.2960 -0.4891 -0.5650
 6265SOL    HW230255   4.482   0.993   3.309  0.1966  0.0764 -0.6097
 6266SOL     OW30256   2.461   1.837   6.622 -0.3180  0.3980  0.0902
 6266SOL    HW130257   2.403   1.878   6.557 -1.1029 -0.8818 -0.0127
 6266SOL    HW230258   2.470   1.902   6.691  0.8231 -0.7589  1.0206
 6267SOL     OW30259   1.627   0.688   3.545 -0.3296 -0.0667 -0.5521
 6267SOL    HW130260   1.637   0.603   3.504  2.8720 -0.6280  1.3671
 6267SOL    HW230261   1.553   0.664   3.600 -0.5390  0.5063 -0.5842
 6268SOL     OW30262   1.096   1.431   7.313  0.1795 -0.3608  0.3844
 6268SOL    HW130263   1.063   1.490   7.246  2.2355 -1.3453 -1.4824
 6268SOL    HW230264   1.052   1.352   7.281  2.0722 -1.1700 -0.1923
 6269SOL     OW30265   4.020   1.896   6.137  0.1537  0.3701 -0.3112
 6269SOL    HW130266   4.009   1.863   6.048 -0.0182  1.3858 -0.6582
 6269SOL    HW230267   3.928   1.901   6.163  0.5688 -0.7376  1.4303
 6270SOL     OW30268   3.197   3.611  10.531 -0.1462 -0.2810 -0.4270
 6270SOL    HW130269   3.135   3.662  10.584 -2.6676 -2.7472 -1.0065
 6270SOL    HW230270   3.270   3.673  10.536 -1.6409  1.5333 -0.9501
 6271SOL     OW30271   0.870   0.563   5.637 -0.1954 -0.4141 -0.1772
 6271SOL    HW130272   0.895   0.486   5.688  1.5458 -0.6282 -1.3450
 6271SOL    HW230273   0.775   0.550   5.631  0.0500 -2.2945 -0.0485
 6272SOL     OW30274   1.214   0.906   7.255 -0.3775  0.3665 -0.5902
 6272SOL    HW130275   1.246   0.996   7.252  2.5614 -0.6965 -0.8629
 6272SOL    HW230276   1.250   0.861   7.178  0.8897  0.4748 -0.0586
 6273SOL     OW30277   0.109   4.491   3.069  0.7535 -0.0151 -0.6677
 6273SOL    HW130278   0.196   4.455   3.052  0.8338 -0.5446  0.8789
 6273SOL    HW230279   0.135   4.538   3.149  0.3770 -0.2709 -0.3929
 6274SOL     OW30280   3.110   1.263   1.639 -0.0800 -0.1657 -0.1814
 6274SOL    HW130281   3.193   1.233   1.603 -0.1872 -0.2916 -0.3231
 6274SOL    HW230282   3.048   1.231   1.573 -1.4253  1.9285  0.0484
 6275SOL     OW30283   2.012   3.269   0.399 -0.0142  0.2021  0.2280
 6275SOL    HW130284   1.959   3.189   0.403  0.4712 -0.2088 -1.5341
 6275SOL    HW230285   1.966   3.339   0.445 -1.5805 -1.4958  1.2310
 6276SOL     OW30286   3.985   2.788   1.805  0.2344 -0.2643  0.1208
 6276SOL    HW130287   3.924   2.716   1.787  1.1452 -1.5737  2.3186
 6276SOL    HW230288   4.039   2.790   1.726  3.6475  0.1205  2.4621
 6277SOL     OW30289   3.628   2.264   0.271 -0.1877  0.2742  0.5700
 6277SOL    HW130290   3.631   2.244   0.365 -1.8530 -0.2092  0.5195
 6277SOL    HW230291   3.689   2.200   0.234 -0.9217 -0.9073  1.3981
 6278SOL     OW30292   0.835   0.012   6.267  0.1214 -0.2110  0.1838
 6278SOL    HW130293   0.809   4.684   6.344  0.7469 -2.4497 -1.0829
 6278SOL    HW230294   0.930   0.021   6.278  0.1496  0.0004 -0.2579
 6279SOL     OW30295   1.968   1.940   5.269 -0.5847  0.1172  0.1596
 6279SOL    HW130296   1.897   2.001   5.251  2.2009  2.9061 -1.5169
 6279SOL    HW230297   1.975   1.946   5.364 -1.2590 -1.2147  0.2903
 6280SOL     OW30298   2.353   1.538   9.802 -0.0130  0.4983  0.0585
 6280SOL    HW130299   2.346   1.499   9.715 -2.1191  1.5187 -0.2379
 6280SOL    HW230300   2.291   1.489   9.855  2.0486 -2.3646 -0.1989
 6281SOL     OW30301   1.071   4.501   3.595  0.0933  0.2821  0.2822
 6281SOL    HW130302   1.116   4.547   3.524 -0.4777  1.6624  0.8037
 6281SOL    HW230303   1.128   4.425   3.606  0.3790  0.4924  0.2610
 6282SOL     OW30304   0.948   3.622   6.603  0.0236  0.2790 -0.0363
 6282SOL    HW130305   0.978   3.601   6.515  0.1135 -1.0947  0.3215
 6282SOL    HW230306   0.914   3.541   6.640 -0.3565  0.9918  1.1909
 6283SOL     OW30307   2.000   0.714   7.578  0.6208  0.5750 -0.3448
 6283SOL    HW130308   1.934   0.763   7.627  0.7750 -1.3157  1.7281
 6283SOL    HW230309   2.083   0.741   7.618  0.3797 -1.6934  1.6212
 6284SOL     OW30310   1.196   2.608   8.446 -0.1174 -0.1177  0.4874
 6284SOL    HW130311   1.255   2.624   8.520  2.4802 -0.2746 -1.5770
 6284SOL    HW230312   1.132   2.678   8.461 -0.3543 -0.0799 -0.7534
 6285SOL     OW30313   2.780   4.036   3.040  0.2024  0.7862  0.5516
 6285SOL    HW130314   2.725   3.982   2.983  0.7416  0.5724  0.2251
 6285SOL    HW230315   2.825   4.101   2.986  1.2830 -0.8894 -0.5684
 6286SOL     OW30316   2.399   1.188   5.217  0.1991 -0.1659 -0.1759
 6286SOL    HW130317   2.412   1.110   5.163  0.4842 -0.7440  0.7317
 6286SOL    HW230318   2.331   1.159   5.277 -1.9752  1.1849 -1.9771
 6287SOL     OW30319   3.734   4.441   6.098  0.2353  0.2320  0.1239
 6287SOL    HW130320   3.732   4.485   6.013 -1.9744  1.6230  0.9053
 6287SOL    HW230321   3.814   4.392   6.082  0.1995 -0.0071  0.6531
 6288SOL     OW30322   0.407   2.500   7.387 -0.4117 -0.1728  0.7282
 6288SOL    HW130323   0.365   2.428   7.340  1.3279 -0.9535  0.3888
 6288SOL    HW230324   0.463   2.463   7.455  0.7516  1.1548  0.5045
 6289SOL     OW30325   0.218   1.844   3.009  0.2616 -0.2684 -0.5223
 6289SOL    HW130326   0.200   1.831   3.102 -2.5233 -0.8668 -1.1549
 6289SOL    HW230327   0.229   1.939   3.015 -0.5657 -0.2091  0.0141
 6290SOL     OW30328   4.665   1.161  10.210  0.1023  0.1573 -0.8304
 6290SOL    HW130329   4.719   1.089  10.242 -0.3380  1.3766  2.6807
 6290SOL    HW230330   4.707   1.236  10.252 -0.7490 -0.4312  1.0732
 6291SOL     OW30331   0.973   1.719   7.712 -0.2912  0.3174  0.5034
 6291SOL    HW130332   1.014   1.731   7.626  0.0825 -1.5753  0.4093
 6291SOL    HW230333   0.882   1.742   7.696 -0.7201 -0.0307  2.4744
 6292SOL     OW30334   3.521   2.759   4.436 -0.2071 -0.4451 -0.0581
 6292SOL    HW130335   3.581   2.742   4.509  0.2905 -0.3005 -0.4332
 6292SOL    HW230336   3.521   2.677   4.387 -0.1346 -0.3370 -0.2381
 6293SOL     OW30337   3.347   0.679   6.615  0.0337  0.1010  0.4029
 6293SOL    HW130338   3.300   0.686   6.532  0.6195 -1.4783 -0.0590
 6293SOL    HW230339   3.422   0.732   6.588 -0.5717  0.8826  0.2592
 6294SOL     OW30340   2.818   4.455   3.005 -0.1654 -0.0505  0.0035
 6294SOL    HW130341   2.879   4.411   3.064  1.1965  0.9804 -0.6516
 6294SOL    HW230342   2.767   4.381   2.972 -0.6850  0.0383  0.6087
 6295SOL     OW30343   1.994   3.126   4.952 -0.4105  0.4694 -0.0239
 6295SOL    HW130344   1.907   3.147   4.919 -0.4889  1.4082  0.7539
 6295SOL    HW230345   2.016   3.039   4.918  1.9266  0.7529  0.7393
 6296SOL     OW30346   0.718   1.659   8.935  0.5901  0.6445 -0.6718
 6296SOL    HW130347   0.640   1.619   8.896 -0.8421  2.5942  0.1570
 6296SOL    HW230348   0.710   1.753   8.919  0.7581  0.9931  1.2541
 6297SOL     OW30349   2.037   3.596   9.502  0.0859  0.4534 -0.1050
 6297SOL    HW130350   2.070   3.612   9.590 -1.6458 -0.2283  0.6550
 6297SOL    HW230351   1.948   3.630   9.512 -0.9959 -1.6555 -2.6365
 6298SOL     OW30352   4.351   3.576   3.651 -0.4429 -0.5414 -0.5474
 6298SOL    HW130353   4.289   3.516   3.610  1.3309 -2.8040  0.1059
 6298SOL    HW230354   4.423   3.514   3.663  1.3865  1.9888  1.4623
 6299SOL     OW30355   1.040   3.526  10.868 -0.0261  0.1327  0.5021
 6299SOL    HW130356   1.111   3.523  10.931 -0.1587  3.2219  0.7760
 6299SOL    HW230357   1.040   3.620  10.849  1.0869 -0.1494 -0.8632
 6300SOL     OW30358   0.323   4.313  12.277 -0.3418  0.1281  0.6936
 6300SOL    HW130359   0.299   4.269  12.359  0.5353  1.0131  1.4127
 6300SOL    HW230360   0.392   4.370  12.310 -0.2193 -0.5941  1.7052
 6301SOL     OW30361   3.222   3.517   9.806 -0.2128  0.6065  0.1980
 6301SOL    HW130362   3.177   3.543   9.726  0.3575 -0.5790 -0.5127
 6301SOL    HW230363   3.263   3.599   9.834  1.8169 -0.7422  1.1885
 6302SOL     OW30364   3.819   0.820  10.015 -0.2586  0.2111 -0.3884
 6302SOL    HW130365   3.773   0.737  10.025 -0.6378  0.0756 -3.1130
 6302SOL    HW230366   3.865   0.831  10.098 -1.0402  1.5593 -0.1220
 6303SOL     OW30367   1.602   1.558  13.157 -0.0566  0.1034 -1.2707
 6303SOL    HW130368   1.530   1.497  13.140  0.1975 -0.6732  0.4854
 6303SOL    HW230369   1.592   1.571  13.251 -0.7740 -1.7564 -1.0868
 6304SOL     OW30370   1.750   0.923   2.895  0.7511 -0.1257  0.2795
 6304SOL    HW130371   1.681   0.984   2.920  0.1917 -0.1489 -1.1568
 6304SOL    HW230372   1.800   0.913   2.976 -1.5858  0.5639  1.8010
 6305SOL     OW30373   0.255   4.221   0.471 -0.6770 -0.0104 -0.5356
 6305SOL    HW130374   0.321   4.234   0.402 -0.9465  0.9703 -0.5984
 6305SOL    HW230375   0.311   4.187   0.541 -0.7396  1.8072  0.3670
 6306SOL     OW30376   1.720   4.126  15.659  0.1560 -0.1600  0.2381
 6306SOL    HW130377   1.647   4.188  15.661  2.1329  2.1720 -0.5586
 6306SOL    HW230378   1.742   4.118  15.566  1.4600 -1.4416  0.6394
 6307SOL     OW30379   0.742   3.371  10.387 -0.5556  0.5653  0.3579
 6307SOL    HW130380   0.686   3.448  10.377 -0.4714  0.5198 -0.4436
 6307SOL    HW230381   0.813   3.418  10.429  0.7828 -2.5708  1.5729
 6308SOL     OW30382   3.288   4.597  12.285 -0.1592 -0.0031 -0.4327
 6308SOL    HW130383   3.241   4.544  12.221  0.2576 -0.2535 -0.5360
 6308SOL    HW230384   3.292   4.688  12.255 -1.4547  0.3619  0.4948
 6309SOL     OW30385   0.225   1.984   9.018 -0.2184  0.5018 -0.1598
 6309SOL    HW130386   0.184   2.053   8.966 -1.5159 -0.3321 -0.2349
 6309SOL    HW230387   0.291   1.948   8.959 -1.0056 -2.8141  0.9604
 6310SOL     OW30388   0.062   4.335   6.813 -0.0702 -0.0685  0.7889
 6310SOL    HW130389   0.003   4.265   6.842  0.3539 -1.1146 -0.8789
 6310SOL    HW230390   0.034   4.414   6.858 -1.1361  1.0282 -1.7735
 6311SOL     OW30391   1.554   0.079   9.313 -0.1950  0.2330 -0.0048
 6311SOL    HW130392   1.470   0.075   9.268  1.0035  1.3924 -2.3194
 6311SOL    HW230393   1.542   0.022   9.389 -1.4384  2.1531  1.2282
 6312SOL     OW30394   0.446   3.349   8.705  0.2723  0.0614  0.4365
 6312SOL    HW130395   0.450   3.254   8.706 -4.0766 -0.0887  0.1076
 6312SOL    HW230396   0.483   3.377   8.789 -0.2639 -0.3283  0.7969
 6313SOL     OW30397   3.644   4.552  14.710  0.1682  0.0077 -0.6070
 6313SOL    HW130398   3.696   4.536  14.789 -0.6715 -1.0793 -0.2664
 6313SOL    HW230399   3.615   4.466  14.680 -1.4667  1.2335 -2.5027
 6314SOL     OW30400   0.119   0.879  16.166  0.4589  0.0212  0.3051
 6314SOL    HW130401   0.091   0.854  16.078  0.9903 -0.5030  0.2836
 6314SOL    HW230402   0.144   0.793  16.199  3.6669  1.4258  1.5719
 6315SOL     OW30403   2.858   2.890  12.885  0.1077  0.3283 -0.2837
 6315SOL    HW130404   2.858   2.875  12.790 -0.3414 -4.8171  0.5214
 6315SOL    HW230405   2.935   2.946  12.897 -0.2836  0.4731  1.5060
 6316SOL     OW30406   3.503   1.320   5.873  0.2442 -0.4411 -0.7405
 6316SOL    HW130407   3.533   1.300   5.784  0.4327 -1.9226 -0.3515
 6316SOL    HW230408   3.407   1.318   5.868  0.0719  0.9956  1.9400
 6317SOL     OW30409   2.137   0.385   4.453  0.2756 -0.0711  0.1372
 6317SOL    HW130410   2.211   0.414   4.400  1.6665 -3.4124  0.2642
 6317SOL    HW230411   2.070   0.394   4.386 -0.0405 -2.3446  0.1750
 6318SOL     OW30412   3.184   4.468  12.537  0.4889 -0.1372 -0.3102
 6318SOL    HW130413   3.206   4.528  12.466  2.0790  0.2352  0.5073
 6318SOL    HW230414   3.119   4.516  12.589 -0.1568 -0.7082 -0.5920
 6319SOL     OW30415   1.286   4.123  14.926  0.1315  0.2395 -0.3985
 6319SOL    HW130416   1.327   4.201  14.965  1.7071 -0.7206 -0.1199
 6319SOL    HW230417   1.204   4.155  14.889 -0.7057 -1.7679 -0.2872
 6320SOL     OW30418   2.708   3.730   8.992  0.1324  0.3533 -0.2831
 6320SOL    HW130419   2.614   3.747   8.995  0.1787  0.7107 -0.8300
 6320SOL    HW230420   2.722   3.710   8.899 -0.0086 -3.4710  0.5070
 6321SOL     OW30421   0.407   4.239   7.649  0.5159 -0.2843 -0.7819
 6321SOL    HW130422   0.358   4.162   7.621  0.6134 -1.0706  1.2473
 6321SOL    HW230423   0.380   4.242   7.740  1.4146 -1.2131 -0.4814
 6322SOL     OW30424   4.332   3.008   8.469  0.1854  0.0040 -0.6182
 6322SOL    HW130425   4.417   3.042   8.442  0.2046  1.4113  1.2709
 6322SOL    HW230426   4.337   2.997   8.564 -0.7596 -0.4526 -0.6139
 6323SOL     OW30427   2.022   4.036   5.366  0.0835  0.0512 -0.0177
 6323SOL    HW130428   2.078   4.113   5.377 -0.1691  0.1871  0.3573
 6323SOL    HW230429   1.937   4.078   5.353  0.2930  0.6076  0.3759
 6324SOL     OW30430   0.952   3.927   8.982  0.0113 -0.6382  0.2181
 6324SOL    HW130431   0.904   3.847   9.004  0.3506 -0.7168  0.6785
 6324SOL    HW230432   0.881   3.968   8.932  0.9348 -0.1183 -0.6706
 6325SOL     OW30433   4.322   0.018   1.481 -0.1385  0.1380  0.2780
 6325SOL    HW130434   4.413   0.038   1.461 -0.5837 -0.8613 -2.6375
 6325SOL    HW230435   4.287   0.097   1.523 -1.1073 -0.9094  1.4786
 6326SOL     OW30436   3.190   2.085   9.980  0.2576  1.2814  0.5955
 6326SOL    HW130437   3.218   2.157  10.036  0.9122  1.9296 -0.5788
 6326SOL    HW230438   3.132   2.134   9.922 -1.1581 -1.5189 -0.3657
 6327SOL     OW30439   1.873   0.950   4.133  0.3703 -0.8832 -0.2990
 6327SOL    HW130440   1.900   0.894   4.061 -2.8628 -1.9466 -0.6808
 6327SOL    HW230441   1.877   0.885   4.203 -0.0303  0.5817  1.0925
 6328SOL     OW30442   1.578   1.871   5.287  0.1210 -0.0385  0.0424
 6328SOL    HW130443   1.611   1.961   5.287 -2.7675  1.0211 -1.4986
 6328SOL    HW230444   1.629   1.839   5.362 -3.2961 -1.8377  1.5966
 6329SOL     OW30445   2.634   4.373   3.720  0.0052 -0.5150 -0.2362
 6329SOL    HW130446   2.703   4.383   3.785 -0.0033  0.6442 -0.4136
 6329SOL    HW230447   2.564   4.426   3.758  0.0279 -1.1191  0.6485
 6330SOL     OW30448   2.300   0.348   6.050 -0.2983 -0.5271  0.3469
 6330SOL    HW130449   2.338   0.435   6.043 -1.8559  0.1972  0.9570
 6330SOL    HW230450   2.233   0.356   6.118 -0.5488  2.6742 -0.2755
 6331SOL     OW30451   2.679   3.534   8.147 -0.5354  0.1032  0.0334
 6331SOL    HW130452   2.583   3.528   8.143 -0.5377 -1.0180  1.6705
 6331SOL    HW230453   2.701   3.498   8.062 -0.8516  0.8552 -0.3623
 6332SOL     OW30454   1.248   0.895   5.429  0.3168 -0.4875 -0.0529
 6332SOL    HW130455   1.237   0.840   5.351  1.7596 -1.8224  0.6895
 6332SOL    HW230456   1.162   0.875   5.466  0.1487 -0.4568 -0.4268
 6333SOL     OW30457   1.904   0.104  14.826  0.4443 -0.3065  0.0596
 6333SOL    HW130458   1.834   0.169  14.837 -1.0162 -1.7177 -0.8618
 6333SOL    HW230459   1.981   0.159  14.837 -0.5688  1.1844 -0.2798
 6334SOL     OW30460   4.361   4.172   9.055 -0.0277  0.0893 -0.0587
 6334SOL    HW130461   4.452   4.201   9.045  0.6902 -2.0465  0.3849
 6334SOL    HW230462   4.323   4.203   8.973  1.2852 -1.4401 -1.2397
 6335SOL     OW30463   4.192   4.694  12.200  0.5027 -1.1106 -0.7120
 6335SOL    HW130464   4.251   0.032  12.243 -0.0406 -2.3832  1.8230
 6335SOL    HW230465   4.237   4.672  12.118  1.9322  0.1044 -0.2452
 6336SOL     OW30466   2.595   4.591   6.476  0.1234  0.2577 -0.2596
 6336SOL    HW130467   2.504   4.599   6.447 -0.2957 -1.4016  0.5755
 6336SOL    HW230468   2.579   4.595   6.570  0.8906 -0.5133 -0.1009
 6337SOL     OW30469   2.756   1.823   0.906 -0.3029 -0.2733  0.0907
 6337SOL    HW130470   2.712   1.787   0.828  2.7045 -1.5744 -0.9991
 6337SOL    HW230471   2.701   1.901   0.908  1.3772  0.8612  2.3022
 6338SOL     OW30472   3.279   1.800   6.281  0.0079  0.3323 -0.6607
 6338SOL    HW130473   3.363   1.826   6.318  0.0884 -0.0759 -0.5497
 6338SOL    HW230474   3.249   1.886   6.252  0.5128  0.5881 -0.4268
 6339SOL     OW30475   0.553   0.333   5.039 -0.4263  0.3648  0.3005
 6339SOL    HW130476   0.531   0.395   4.969  0.4833 -2.5314 -2.5727
 6339SOL    HW230477   0.472   0.281   5.038 -0.2033  0.0203 -0.7047
 6340SOL     OW30478   3.833   1.044   7.381  0.2029 -0.2752 -0.0695
 6340SOL    HW130479   3.773   1.114   7.353 -0.5950 -0.5598  0.9328
 6340SOL    HW230480   3.877   1.040   7.296  3.1789  0.6705  1.4054
 6341SOL     OW30481   1.524   3.214   5.928  0.1179  0.4034  0.4957
 6341SOL    HW130482   1.587   3.226   5.858  0.8866 -2.2089  0.7371
 6341SOL    HW230483   1.588   3.163   5.977  0.0573  0.3916  0.5621
 6342SOL     OW30484   4.109   1.394   8.989 -0.0026  0.4243  0.0694
 6342SOL    HW130485   4.153   1.340   8.924  1.2786  2.1226 -0.4608
 6342SOL    HW230486   4.175   1.423   9.052  1.6958 -1.1651 -0.9724
 6343SOL     OW30487   0.356   2.791   6.758 -0.2907  0.1256 -0.1728
 6343SOL    HW130488   0.350   2.794   6.854  3.1148 -1.0204  0.0481
 6343SOL    HW230489   0.271   2.750   6.740 -1.1712  0.8860  2.1893
 6344SOL     OW30490   3.276   1.763   2.610 -0.1117  0.0355 -0.1047
 6344SOL    HW130491   3.249   1.814   2.533  0.3766  2.1664  1.1335
 6344SOL    HW230492   3.202   1.704   2.626 -0.8885  0.6237 -1.5428
 6345SOL     OW30493   1.643   2.763   0.450  0.3709 -0.1337  0.2733
 6345SOL    HW130494   1.632   2.842   0.397  2.2298  0.8709  1.4211
 6345SOL    HW230495   1.589   2.700   0.402 -1.8629  1.5485  0.5861
 6346SOL     OW30496   3.028   3.335   8.656  0.1477 -0.0466  0.6267
 6346SOL    HW130497   3.001   3.350   8.566  1.3851  2.3324  0.6718
 6346SOL    HW230498   3.006   3.242   8.663  0.4041 -0.0629  1.2416
 6347SOL     OW30499   0.278   3.570   6.821 -1.0293 -0.0053  0.4180
 6347SOL    HW130500   0.371   3.561   6.841 -1.2662  1.6241  2.2167
 6347SOL    HW230501   0.266   3.665   6.819 -0.6875  0.0101 -0.7993
 6348SOL     OW30502   0.033   0.668   0.555 -0.7055  0.2737  0.2950
 6348SOL    HW130503   0.121   0.694   0.528 -0.6372  0.0508  0.3026
 6348SOL    HW230504   0.007   0.737   0.617 -4.3546 -1.4222  0.6726
 6349SOL     OW30505   1.857   2.274   3.248 -0.0414  0.3051  0.8019
 6349SOL    HW130506   1.788   2.306   3.307  1.3094 -1.9993  3.6174
 6349SOL    HW230507   1.815   2.305   3.167  0.5040 -3.7361 -0.9900
 6350SOL     OW30508   2.440   3.369   8.898 -0.0925 -0.0158 -0.0155
 6350SOL    HW130509   2.393   3.450   8.919 -3.2386 -1.0199 -3.2313
 6350SOL    HW230510   2.368   3.319   8.860 -0.7034  0.3706  0.6310
 6351SOL     OW30511   2.297   1.574   6.720 -0.2336  0.3276 -0.2772
 6351SOL    HW130512   2.330   1.488   6.695  0.9989  0.5968  0.4539
 6351SOL    HW230513   2.372   1.630   6.703 -0.4094  0.6015 -0.1561
 6352SOL     OW30514   0.890   3.909   5.859 -0.5081 -0.0772  0.0520
 6352SOL    HW130515   0.840   3.887   5.938  0.0300  0.6681  0.5984
 6352SOL    HW230516   0.877   4.004   5.867 -0.5809 -0.0331 -0.5773
 6353SOL     OW30517   4.518   0.878   9.871 -0.1883  0.0194 -0.3105
 6353SOL    HW130518   4.485   0.837   9.951 -1.0226 -0.2423 -0.7949
 6353SOL    HW230519   4.563   0.960   9.890  0.5257  0.1370 -2.5062
 6354SOL     OW30520   2.856   3.598   1.722  0.5948 -0.2504  0.3820
 6354SOL    HW130521   2.908   3.650   1.662  0.6347  1.2559  1.7430
 6354SOL    HW230522   2.816   3.654   1.788 -0.1019 -0.6117  0.2671
 6355SOL     OW30523   3.124   4.347   6.781  0.2526 -0.2630 -0.2947
 6355SOL    HW130524   3.109   4.261   6.820  1.5807  0.9084  2.8096
 6355SOL    HW230525   3.125   4.402   6.860 -2.3213 -0.4303 -0.1646
 6356SOL     OW30526   3.260   4.453   3.259 -0.7608 -0.2751  0.3575
 6356SOL    HW130527   3.323   4.478   3.327  0.3304 -0.3920 -0.6030
 6356SOL    HW230528   3.295   4.368   3.233  0.3944  0.1191  0.5888
 6357SOL     OW30529   3.506   3.648  16.404 -0.1885  0.0328  0.9533
 6357SOL    HW130530   3.598   3.634  16.384 -0.0551  0.2693  1.3979
 6357SOL    HW230531   3.511   3.688  16.491  0.4939  1.3960  0.2867
 6358SOL     OW30532   3.519   3.480   2.153 -0.1271 -0.0910  0.5382
 6358SOL    HW130533   3.465   3.490   2.075  1.7593  2.9081 -0.4003
 6358SOL    HW230534   3.469   3.409   2.195 -1.4067  0.4411 -0.0805
 6359SOL     OW30535   0.664   1.271   3.702  0.0291 -0.4984  0.2365
 6359SOL    HW130536   0.642   1.187   3.662 -0.6642  0.8316 -2.1634
 6359SOL    HW230537   0.728   1.241   3.767 -0.6584 -1.0889  0.6454
 6360SOL     OW30538   2.892   3.951   5.303  0.2866  0.5058  0.1853
 6360SOL    HW130539   2.848   3.866   5.310  0.2437  0.5141  0.0092
 6360SOL    HW230540   2.842   4.010   5.359 -0.1105 -0.1205  0.4939
 6361SOL     OW30541   0.880   3.760   7.552 -0.4939 -0.3628  0.1947
 6361SOL    HW130542   0.927   3.838   7.523 -2.2000  0.9878  1.0625
 6361SOL    HW230543   0.789   3.788   7.559 -0.3396  0.1685  0.0724
 6362SOL     OW30544   0.589   0.658   4.454 -0.2148  0.2436  0.3345
 6362SOL    HW130545   0.605   0.654   4.360  0.0610  0.7139  0.3600
 6362SOL    HW230546   0.579   0.753   4.465  0.7669  0.6287 -2.2455
 6363SOL     OW30547   4.181   3.770   5.586 -0.6818  0.2931 -0.0318
 6363SOL    HW130548   4.143   3.822   5.515  1.4681  0.2592 -1.2117
 6363SOL    HW230549   4.172   3.680   5.554  2.0859 -0.7895  2.3012
 6364SOL     OW30550   3.492   0.221   8.097 -0.1600  0.3090  0.3438
 6364SOL    HW130551   3.505   0.298   8.042  0.5869  0.8077  1.2086
 6364SOL    HW230552   3.503   0.243   8.190  0.0933 -1.0685  0.6426
 6365SOL     OW30553   0.395   0.218   3.067 -0.0508 -0.3668  0.0949
 6365SOL    HW130554   0.429   0.273   2.996 -0.1624 -0.4659 -0.0373
 6365SOL    HW230555   0.305   0.218   3.033 -0.5009  0.5397  1.3181
 6366SOL     OW30556   3.935   1.591   9.006 -0.1603  0.3222 -0.6244
 6366SOL    HW130557   3.911   1.570   9.096  0.2776  2.3205 -0.0275
 6366SOL    HW230558   3.985   1.513   8.984 -0.7854 -0.7941  2.0146
 6367SOL     OW30559   1.556   1.439  12.805 -0.1541  0.0945 -0.0472
 6367SOL    HW130560   1.593   1.527  12.810 -1.9694  0.7599  1.3727
 6367SOL    HW230561   1.467   1.450  12.838  0.0533 -1.4338  1.0201
 6368SOL     OW30562   3.187   0.598  10.774  0.2721 -0.3032  0.1254
 6368SOL    HW130563   3.158   0.519  10.820  1.9081 -0.9581  0.0436
 6368SOL    HW230564   3.158   0.670  10.831 -1.6559 -1.6296  0.8386
 6369SOL     OW30565   3.554   0.850  17.676  0.3293 -0.0795  0.1668
 6369SOL    HW130566   3.634   0.893   0.010 -1.1474  1.4632  1.9944
 6369SOL    HW230567   3.507   0.851   0.065  1.2586  1.1575  0.6823
 6370SOL     OW30568   3.305   4.422   7.461  0.6318 -0.2182  0.2270
 6370SOL    HW130569   3.228   4.473   7.485  2.5340  2.0360  1.4850
 6370SOL    HW230570   3.280   4.385   7.376  1.3315  1.1904 -0.5948
 6371SOL     OW30571   1.571   2.690   7.984 -0.1204 -0.1861 -0.1653
 6371SOL    HW130572   1.492   2.636   7.986 -0.6904  0.5881 -1.9609
 6371SOL    HW230573   1.544   2.773   7.944  1.6623 -0.1150 -1.2088
 6372SOL     OW30574   0.976   0.809   2.669  0.6166 -0.2447 -0.0405
 6372SOL    HW130575   0.998   0.902   2.674  0.7591 -0.2561 -0.4804
 6372SOL    HW230576   1.060   0.764   2.671 -0.0330 -1.3945  1.2163
 6373SOL     OW30577   0.638   0.512   6.053  0.0681  0.7539  0.2564
 6373SOL    HW130578   0.611   0.474   5.970 -0.8542 -0.1720  0.9721
 6373SOL    HW230579   0.699   0.580   6.026  0.1560  0.5643 -0.0170
 6374SOL     OW30580   3.925   2.173   7.139  0.1332 -0.6274  0.0301
 6374SOL    HW130581   3.968   2.117   7.204  0.0614 -2.1316 -1.2122
 6374SOL    HW230582   3.996   2.202   7.083  1.0529 -1.3156  0.8467
 6375SOL     OW30583   0.314   0.031   9.812  0.2639  0.1356  0.2427
 6375SOL    HW130584   0.219   0.042   9.821  0.2490  0.5013 -0.3819
 6375SOL    HW230585   0.334   0.104   9.754  0.2771 -0.0019  0.0744
 6376SOL     OW30586   2.673   4.063  13.368 -0.6263  0.0799 -0.3020
 6376SOL    HW130587   2.607   4.124  13.401 -0.5571 -0.4971  0.9208
 6376SOL    HW230588   2.637   4.067  13.280 -1.4691  0.3018  0.0602
 6377SOL     OW30589   1.932   3.479   2.274  0.1672  0.8222 -0.2847
 6377SOL    HW130590   1.899   3.529   2.349 -0.9489 -1.9566  1.0932
 6377SOL    HW230591   2.008   3.445   2.322  1.4909  0.1806 -2.8647
 6378SOL     OW30592   3.954   3.004   5.914  0.6688  0.3107 -0.0912
 6378SOL    HW130593   3.958   3.068   5.986  0.4326  3.2348 -2.6502
 6378SOL    HW230594   4.042   2.968   5.904 -0.5928 -1.8680 -3.3220
 6379SOL     OW30595   1.833   2.235   5.703  0.1028 -0.2033  0.0365
 6379SOL    HW130596   1.838   2.193   5.788 -0.2915 -1.5529 -0.6094
 6379SOL    HW230597   1.748   2.279   5.712  0.3018  0.0592  0.6346
 6380SOL     OW30598   0.483   3.456  13.791  0.3496  0.1352  0.2198
 6380SOL    HW130599   0.542   3.400  13.842 -0.0758 -1.0367 -0.5677
 6380SOL    HW230600   0.539   3.531  13.772 -0.3959  0.3333 -1.1936
 6381SOL     OW30601   0.684   3.923   5.537  0.2181  0.3033  0.0031
 6381SOL    HW130602   0.775   3.952   5.546  1.3624 -2.9948 -0.9574
 6381SOL    HW230603   0.697   3.837   5.496  1.7862 -0.1119  1.3525
 6382SOL     OW30604   1.202   4.244   6.413  0.2413 -0.1140  0.3601
 6382SOL    HW130605   1.165   4.309   6.352 -1.6218 -0.3589  1.2153
 6382SOL    HW230606   1.121   4.222   6.459  0.0116 -0.0806 -0.0202
 6383SOL     OW30607   3.430   2.299   4.176 -0.3280 -0.5004 -0.3686
 6383SOL    HW130608   3.433   2.206   4.201 -0.9868 -0.1505  0.9690
 6383SOL    HW230609   3.514   2.315   4.132  0.7810 -2.6235  0.9169
 6384SOL     OW30610   4.495   3.624  10.434  0.0506 -0.2397 -0.5590
 6384SOL    HW130611   4.467   3.558  10.497  0.0748  0.6801  0.4059
 6384SOL    HW230612   4.537   3.563  10.374  0.4573  1.6596 -2.2250
 6385SOL     OW30613   2.983   0.801   9.385  0.1031  0.2687 -0.2436
 6385SOL    HW130614   2.901   0.775   9.343  0.5338 -1.2072 -0.1475
 6385SOL    HW230615   2.989   0.751   9.466  0.8357 -0.1695 -0.5691
 6386SOL     OW30616   2.870   0.219  12.734 -0.3346 -0.8662  0.3664
 6386SOL    HW130617   2.931   0.287  12.763  1.7725 -3.2844  1.5601
 6386SOL    HW230618   2.922   0.169  12.671 -1.0639 -2.4199  1.0261
 6387SOL     OW30619   3.074   3.125   7.824  0.8376  0.0216 -0.0528
 6387SOL    HW130620   3.056   3.070   7.748  1.3255  0.0486 -0.1880
 6387SOL    HW230621   2.988   3.126   7.866  1.8038  0.1638  1.9273
 6388SOL     OW30622   0.123   0.520   1.916  0.2053  0.2973  0.0624
 6388SOL    HW130623   0.163   0.496   2.000 -1.1011 -0.4558  0.4611
 6388SOL    HW230624   0.035   0.548   1.940  0.6436  0.1864  1.7689
 6389SOL     OW30625   4.145   0.935   7.326  1.0371  0.4436  0.4614
 6389SOL    HW130626   4.151   1.030   7.338  2.0824  0.1321  2.3145
 6389SOL    HW230627   4.226   0.911   7.282 -0.2416 -1.8412 -0.6456
 6390SOL     OW30628   1.072   1.221   3.560 -0.3685 -0.3849 -0.6903
 6390SOL    HW130629   1.007   1.241   3.494 -0.6341  0.3559 -0.2076
 6390SOL    HW230630   1.073   1.126   3.573  1.2718 -0.4683 -1.3959
 6391SOL     OW30631   4.693   1.408   4.107 -0.2946 -0.2791  0.3300
 6391SOL    HW130632   4.706   1.314   4.119  1.6157 -0.1637 -0.8469
 6391SOL    HW230633   0.016   1.439   4.185  1.6496  1.4468 -1.5011
 6392SOL     OW30634   0.642   1.423  10.695 -0.1565  0.4537  0.0111
 6392SOL    HW130635   0.629   1.499  10.638 -1.0869  0.4307  0.1835
 6392SOL    HW230636   0.734   1.414  10.672 -0.3262  0.1759 -0.5583
 6393SOL     OW30637   4.071   0.539   7.769  0.0605 -0.3224  0.3580
 6393SOL    HW130638   4.081   0.542   7.674  0.9316  0.6317  0.4800
 6393SOL    HW230639   4.043   0.625   7.801  0.1796 -0.5520  1.0738
 6394SOL     OW30640   2.018   0.030   5.620 -0.1986  0.0595 -0.9146
 6394SOL    HW130641   2.111   0.053   5.620 -0.1492 -0.1419 -0.1884
 6394SOL    HW230642   1.979   0.062   5.539 -2.3563  1.1136  0.5305
 6395SOL     OW30643   3.906   1.021  11.865 -0.3387 -0.2325 -0.1481
 6395SOL    HW130644   3.876   1.009  11.775  2.5918  0.2360 -1.1790
 6395SOL    HW230645   3.823   1.026  11.913  0.8804  0.7417  1.8504
 6396SOL     OW30646   1.846   0.387   5.980  0.1431 -0.1338 -0.0466
 6396SOL    HW130647   1.769   0.339   6.009 -0.8175  2.1143  1.1398
 6396SOL    HW230648   1.813   0.464   5.935 -0.3611  0.6931  1.7539
 6397SOL     OW30649   2.056   0.701   6.833  0.1955 -0.2017 -0.2009
 6397SOL    HW130650   2.098   0.786   6.849 -2.0860  0.2224  3.7508
 6397SOL    HW230651   2.124   0.670   6.773  0.8271  0.4875  0.1495
 6398SOL     OW30652   4.172   3.357   9.326  0.1400  0.4008  0.0032
 6398SOL    HW130653   4.231   3.410   9.273 -0.0218  0.1850 -0.3942
 6398SOL    HW230654   4.230   3.286   9.350  1.6038  2.0184  1.2642
 6399SOL     OW30655   2.636   0.487   8.111  0.0539  0.3091  0.2838
 6399SOL    HW130656   2.701   0.473   8.180 -1.6347 -0.9038  1.6347
 6399SOL    HW230657   2.664   0.576   8.088  0.7079  0.1599  0.5083
 6400SOL     OW30658   4.500   3.813   7.258 -0.9706  0.1628  0.1653
 6400SOL    HW130659   4.453   3.848   7.333  1.2183  0.9295  1.1978
 6400SOL    HW230660   4.473   3.722   7.244 -0.3109  0.1168 -0.7951
 6401SOL     OW30661   3.292   4.484   9.547 -0.2110  0.1453  0.1129
 6401SOL    HW130662   3.330   4.503   9.461  1.1716  0.7352  0.8398
 6401SOL    HW230663   3.236   4.408   9.533 -0.4864  0.0368  1.7872
 6402SOL     OW30664   3.107   3.682  12.571 -0.2999  0.1143  0.1718
 6402SOL    HW130665   3.048   3.737  12.518 -2.8362 -3.7995 -1.1014
 6402SOL    HW230666   3.103   3.720  12.659 -1.2320  2.6543 -0.9684
 6403SOL     OW30667   1.146   0.024   5.304 -0.6079  0.1470  0.3516
 6403SOL    HW130668   1.147   0.114   5.337  2.5923 -0.4636  1.9544
 6403SOL    HW230669   1.139   0.047   5.212 -1.6211 -1.2492  0.0903
 6404SOL     OW30670   3.105   1.447  12.905 -0.4274 -0.9191 -0.6761
 6404SOL    HW130671   3.156   1.498  12.842 -1.0096 -0.5202 -0.8271
 6404SOL    HW230672   3.167   1.429  12.975 -1.7038  1.8323  1.1759
 6405SOL     OW30673   4.490   4.493   6.638 -0.1450 -0.2735 -0.5286
 6405SOL    HW130674   4.509   4.422   6.577  1.1369  1.6549 -2.3769
 6405SOL    HW230675   4.395   4.495   6.626 -0.0852  1.4042 -0.7698
 6406SOL     OW30676   4.383   3.370   8.519  0.3526  0.3652 -0.6378
 6406SOL    HW130677   4.297   3.405   8.495  1.3935  3.8865  0.8237
 6406SOL    HW230678   4.371   3.354   8.613  1.0870  2.8559 -0.1454
 6407SOL     OW30679   2.314   4.147   7.667 -0.9304 -0.1196  0.1460
 6407SOL    HW130680   2.259   4.172   7.741  1.3124  0.4317  1.6294
 6407SOL    HW230681   2.388   4.108   7.714 -0.1839  1.0578 -0.0334
 6408SOL     OW30682   1.034   2.377  14.807  0.1676 -0.0743 -0.6666
 6408SOL    HW130683   1.017   2.324  14.729 -1.2730 -0.3265 -0.1861
 6408SOL    HW230684   0.962   2.439  14.818  0.8436 -0.0753  3.8314
 6409SOL     OW30685   4.694   0.062   0.014 -0.1061  0.3134 -0.6311
 6409SOL    HW130686   4.666   4.697   0.036 -0.7535  0.3621 -1.2459
 6409SOL    HW230687   4.607   0.094  17.687 -0.8380  0.1538  2.1049
 6410SOL     OW30688   0.130   2.280  16.237  0.2096 -0.3284 -0.3733
 6410SOL    HW130689   0.051   2.285  16.290 -1.0893  0.3730 -2.3907
 6410SOL    HW230690   0.195   2.294  16.306  1.9199  0.9805 -2.2218
 6411SOL     OW30691   3.850   3.341  13.888 -0.0855 -0.7441  0.7585
 6411SOL    HW130692   3.806   3.313  13.968 -2.8352  0.1614 -0.4267
 6411SOL    HW230693   3.798   3.303  13.816  1.8691 -2.0677  0.0652
 6412SOL     OW30694   3.058   2.407  13.486  0.6784 -0.6546 -0.0597
 6412SOL    HW130695   3.095   2.336  13.435 -2.1545 -0.4390 -2.4126
 6412SOL    HW230696   3.027   2.354  13.560  2.2525  0.5124  1.4468
 6413SOL     OW30697   1.832   1.394  12.644 -0.2580  0.0918  0.1622
 6413SOL    HW130698   1.804   1.485  12.650  1.2694  0.4228  2.1352
 6413SOL    HW230699   1.757   1.355  12.599 -0.6832  2.1589 -0.9043
 6414SOL     OW30700   2.134   1.764   2.349 -0.5078  0.0919  0.1474
 6414SOL    HW130701   2.203   1.778   2.283 -1.9159  1.5104 -1.0264
 6414SOL    HW230702   2.165   1.805   2.429  0.5438  0.4657 -0.4549
 6415SOL     OW30703   3.415   1.526   7.438  0.3077  0.2288 -0.3993
 6415SOL    HW130704   3.326   1.554   7.459  0.8018  0.2427  1.7112
 6415SOL    HW230705   3.405   1.442   7.482  0.3769  0.8626  0.8353
 6416SOL     OW30706   4.596   4.284  12.637 -0.1116  0.3339 -0.2856
 6416SOL    HW130707   4.525   4.321  12.584 -1.0556 -0.8316  0.1576
 6416SOL    HW230708   4.657   4.357  12.638  1.3176 -0.8791  2.7690
 6417SOL     OW30709   0.908   1.414   6.623 -0.1815 -0.3352  0.7938
 6417SOL    HW130710   0.958   1.334   6.608 -0.4238 -0.2157 -0.5973
 6417SOL    HW230711   0.856   1.420   6.543  0.1464  1.1830  0.6888
 6418SOL     OW30712   2.034   3.672   8.372 -0.0501  0.0888  0.2282
 6418SOL    HW130713   1.972   3.735   8.409 -0.8082 -0.4546 -0.1106
 6418SOL    HW230714   1.979   3.596   8.352 -0.0358 -0.1845  1.2062
 6419SOL     OW30715   1.626   2.600   4.561  0.0477  0.4757 -0.4267
 6419SOL    HW130716   1.603   2.585   4.653 -0.0119 -0.7203 -0.6377
 6419SOL    HW230717   1.595   2.517   4.525 -0.6302  1.4901 -2.1728
 6420SOL     OW30718   1.763   4.427   3.703 -0.2994  0.2533  0.2444
 6420SOL    HW130719   1.827   4.483   3.747  1.5832 -0.8566 -1.1085
 6420SOL    HW230720   1.782   4.355   3.763  0.1483  0.7102  0.6515
 6421SOL     OW30721   0.362   2.100   6.082 -0.5839 -0.2689  0.1469
 6421SOL    HW130722   0.345   2.176   6.026  0.9873  0.2154  0.3156
 6421SOL    HW230723   0.353   2.024   6.024  2.1965  0.0315 -0.7200
 6422SOL     OW30724   3.084   3.751  15.392 -0.2127 -0.2563 -0.4239
 6422SOL    HW130725   3.110   3.710  15.310 -1.3250 -0.9338 -0.4496
 6422SOL    HW230726   3.084   3.845  15.376  0.0330 -0.1208  0.3468
 6423SOL     OW30727   1.085   0.142   5.034 -0.3218  0.4821 -0.2369
 6423SOL    HW130728   1.014   0.111   4.977  0.2229 -0.9103 -0.1707
 6423SOL    HW230729   1.075   0.237   5.032 -0.4436  0.3994 -3.7216
 6424SOL     OW30730   3.411   4.382   9.865 -0.2952  0.1985 -0.2442
 6424SOL    HW130731   3.381   4.470   9.843 -0.6402  0.5690  1.6826
 6424SOL    HW230732   3.473   4.400   9.935 -1.6163 -0.4186  1.0875
 6425SOL     OW30733   2.946   2.323   2.503 -0.3002 -0.1134 -0.7108
 6425SOL    HW130734   2.912   2.389   2.442 -0.0280  0.4014 -0.2994
 6425SOL    HW230735   3.039   2.345   2.502 -0.4666  0.6232  0.8765
 6426SOL     OW30736   3.021   3.795   8.819 -0.5494  0.1450 -0.7873
 6426SOL    HW130737   3.051   3.801   8.729 -0.4604 -1.3742 -0.8577
 6426SOL    HW230738   3.097   3.834   8.862  0.3804 -1.8160 -0.6639
 6427SOL     OW30739   4.218   3.384   5.278  0.5648 -0.0853  0.2069
 6427SOL    HW130740   4.227   3.305   5.225 -1.3865  0.7593 -1.4117
 6427SOL    HW230741   4.124   3.402   5.272  0.5663 -0.6747 -1.7621
 6428SOL     OW30742   0.380   0.295   7.519  0.2750  0.5977 -0.0827
 6428SOL    HW130743   0.414   0.210   7.494  0.2102  0.2341  1.0433
 6428SOL    HW230744   0.373   0.298   7.615 -3.1911 -0.1264 -0.2918
 6429SOL     OW30745   0.695   3.861  15.732 -0.7803  0.4907  0.1833
 6429SOL    HW130746   0.618   3.890  15.683 -2.3567 -0.7883  1.9243
 6429SOL    HW230747   0.752   3.819  15.668  0.4793  1.4675  0.6609
 6430SOL     OW30748   2.687   4.067   1.885  0.2373 -0.1616 -0.1118
 6430SOL    HW130749   2.707   4.159   1.904  2.1597 -0.5132 -0.4358
 6430SOL    HW230750   2.636   4.078   1.805  1.4831  1.0225 -0.7404
 6431SOL     OW30751   4.613   4.292   9.392 -0.4204  0.1805 -0.1522
 6431SOL    HW130752   4.538   4.235   9.372  0.2417 -0.9732  0.6476
 6431SOL    HW230753   4.577   4.375   9.359  0.3475  1.1880  1.5427
 6432SOL     OW30754   2.509   2.428   0.006 -0.1138  0.0993 -0.2709
 6432SOL    HW130755   2.580   2.484   0.038 -0.2092 -0.6266  1.2331
 6432SOL    HW230756   2.441   2.440   0.072  0.3066 -1.6522  0.4957
 6433SOL     OW30757   0.095   1.852   0.567  0.3335 -0.3730  0.8768
 6433SOL    HW130758   0.154   1.776   0.569  0.1733 -0.4681  2.0590
 6433SOL    HW230759   0.152   1.907   0.514  0.8481 -1.0665  0.7070
 6434SOL     OW30760   2.307   2.381   5.277  0.1253  0.6303 -0.2543
 6434SOL    HW130761   2.279   2.296   5.311 -1.7538  0.2295 -2.7991
 6434SOL    HW230762   2.274   2.440   5.344  1.0032  0.9335 -0.0823
 6435SOL     OW30763   3.505   2.083   3.349 -0.0059  0.2810 -1.0429
 6435SOL    HW130764   3.517   1.988   3.353 -0.7327  0.1851 -1.0511
 6435SOL    HW230765   3.489   2.117   3.437  0.4457  0.5352 -1.0619
 6436SOL     OW30766   0.254   4.522   7.891  0.3432  0.4088 -0.2987
 6436SOL    HW130767   0.187   4.547   7.826 -1.8342  0.5497  2.0206
 6436SOL    HW230768   0.259   4.595   7.952  3.0121 -0.0299 -0.0109
 6437SOL     OW30769   3.316   0.415   8.709  0.2088 -0.0620 -0.1254
 6437SOL    HW130770   3.251   0.452   8.768 -0.8635 -1.0093 -0.7061
 6437SOL    HW230771   3.390   0.467   8.740  0.4307 -0.0753 -0.6254
 6438SOL     OW30772   0.379   2.737   1.702 -0.2002  0.3940 -0.9219
 6438SOL    HW130773   0.463   2.725   1.747 -1.7252 -4.2183  0.6249
 6438SOL    HW230774   0.355   2.826   1.728 -1.4181 -0.4538  0.7598
 6439SOL     OW30775   4.356   3.419   4.405  0.3626  0.1883 -0.2623
 6439SOL    HW130776   4.437   3.400   4.452  0.8015  1.3472 -0.5608
 6439SOL    HW230777   4.378   3.505   4.370 -0.0002  0.6713  0.6857
 6440SOL     OW30778   2.336   3.427   5.192 -0.0045 -0.4940 -0.1025
 6440SOL    HW130779   2.254   3.381   5.211  0.6257 -1.0139  1.4051
 6440SOL    HW230780   2.374   3.360   5.137 -0.7201  0.1508 -1.3979
 6441SOL     OW30781   4.343   1.308  10.714 -0.5760 -0.2452 -0.0234
 6441SOL    HW130782   4.380   1.222  10.693 -3.5642 -1.3679 -0.7493
 6441SOL    HW230783   4.307   1.348  10.634  0.3621  2.2230  0.7953
 6442SOL     OW30784   0.516   4.486   6.213  0.1276 -0.9202  0.8081
 6442SOL    HW130785   0.497   4.528   6.129 -0.4944 -0.7375  1.0422
 6442SOL    HW230786   0.464   4.538   6.274 -0.0735  0.8431 -0.8531
 6443SOL     OW30787   2.711   1.494   5.777  0.2995  0.0039  0.2734
 6443SOL    HW130788   2.705   1.483   5.872  2.5334  0.5981  0.4689
 6443SOL    HW230789   2.784   1.553   5.760  2.4331 -2.8387 -0.5643
 6444SOL     OW30790   1.584   2.990  10.295  0.6177 -0.1201  0.2507
 6444SOL    HW130791   1.631   3.011  10.376  4.2055 -0.9216 -1.6420
 6444SOL    HW230792   1.609   3.068  10.245  3.3486  0.9749  3.3080
 6445SOL     OW30793   1.538   1.268   9.071  0.6531 -0.9022  0.4640
 6445SOL    HW130794   1.599   1.268   9.145 -1.5932  0.0021  2.3236
 6445SOL    HW230795   1.486   1.346   9.090  2.0511 -0.2396  1.5735
 6446SOL     OW30796   4.305   4.326   2.135 -0.9078 -0.1080 -0.5486
 6446SOL    HW130797   4.260   4.323   2.051  1.1867  1.8150 -1.7418
 6446SOL    HW230798   4.235   4.332   2.201  0.7386 -0.6316  1.2429
 6447SOL     OW30799   3.856   3.768   1.321 -0.1640  0.2243 -0.0643
 6447SOL    HW130800   3.890   3.858   1.330 -0.7059  0.4680 -0.4680
 6447SOL    HW230801   3.929   3.713   1.349 -2.1768 -1.2312  2.3527
 6448SOL     OW30802   0.076   2.022  10.946 -0.0835  0.4020  0.1104
 6448SOL    HW130803   0.032   1.939  10.959  1.5137 -0.0829  2.3454
 6448SOL    HW230804   4.720   2.071  10.924 -0.9525 -0.9886  0.2040
 6449SOL     OW30805   3.174   3.849   4.658  0.4175  0.2126 -0.1082
 6449SOL    HW130806   3.256   3.804   4.639 -0.9268 -1.9950 -0.6968
 6449SOL    HW230807   3.122   3.832   4.579  0.8821 -0.9910 -0.1596
 6450SOL     OW30808   0.844   2.235   1.693  0.1143 -0.0196 -0.1310
 6450SOL    HW130809   0.824   2.204   1.605 -0.1787  0.6051 -0.2907
 6450SOL    HW230810   0.781   2.177   1.735 -1.0199  0.6362 -0.9176
 6451SOL     OW30811   0.613   3.274   9.104  0.0210  0.1075 -0.0386
 6451SOL    HW130812   0.649   3.246   9.020  1.0037 -0.3835  0.5421
 6451SOL    HW230813   0.620   3.368   9.089  1.2084  0.1271  0.6411
 6452SOL     OW30814   0.046   4.220   8.460 -0.4549 -0.3347 -0.6722
 6452SOL    HW130815   0.111   4.291   8.459  1.2168 -1.8714 -0.2384
 6452SOL    HW230816   0.095   4.143   8.434 -0.8172 -1.0154  0.6657
 6453SOL     OW30817   4.344   1.913   5.213 -0.3432 -0.4529 -0.5871
 6453SOL    HW130818   4.379   2.002   5.203 -2.3380  0.1848 -1.6664
 6453SOL    HW230819   4.416   1.854   5.190  0.4204  0.3972 -0.3927
 6454SOL     OW30820   2.821   0.394   1.577  0.2068  0.4026 -0.3749
 6454SOL    HW130821   2.865   0.385   1.661  1.5088 -2.7754 -1.3898
 6454SOL    HW230822   2.810   0.489   1.569  2.7558  0.8003  0.8506
 6455SOL     OW30823   0.316   3.927   8.820  0.3997  0.4730 -0.2707
 6455SOL    HW130824   0.267   3.915   8.902  0.2392 -0.4691 -0.5031
 6455SOL    HW230825   0.295   4.018   8.801  0.1417  0.5860  0.5299
 6456SOL     OW30826   4.260   4.137   3.273  0.2549 -0.1594  0.0666
 6456SOL    HW130827   4.296   4.201   3.212  1.7061 -2.6045 -1.6378
 6456SOL    HW230828   4.166   4.137   3.255  1.1847 -1.3304 -4.9762
 6457SOL     OW30829   0.645   2.237   5.000  0.9882 -0.5557  0.4726
 6457SOL    HW130830   0.568   2.294   4.991  1.4979  0.0265 -0.1841
 6457SOL    HW230831   0.669   2.240   4.908  3.3450  0.9546  1.1120
 6458SOL     OW30832   0.016   3.699   0.731  0.9059  0.1506  0.1502
 6458SOL    HW130833   0.039   3.734   0.817  0.5592 -0.4419  0.4850
 6458SOL    HW230834   4.695   3.776   0.696 -2.1481 -0.6643  2.2286
 6459SOL     OW30835   2.054   1.096   3.248  0.2376 -0.0717  0.4182
 6459SOL    HW130836   1.986   1.040   3.210 -1.0380  1.7382  0.0355
 6459SOL    HW230837   2.043   1.055   3.334  1.2935 -0.6851  0.2549
 6460SOL     OW30838   3.063   2.549   8.270  0.6194  0.3481  0.0416
 6460SOL    HW130839   3.145   2.501   8.281  1.6897  2.0651 -0.4948
 6460SOL    HW230840   3.067   2.582   8.180 -1.8583 -0.0072 -0.2220
 6461SOL     OW30841   1.452   3.626   1.109  0.1017 -0.4772  0.3015
 6461SOL    HW130842   1.540   3.663   1.097  0.2657 -0.3358  1.9983
 6461SOL    HW230843   1.469   3.580   1.191  0.8441 -0.4624  0.1638
 6462SOL     OW30844   3.748   2.922  13.752 -0.0306 -0.5943  0.1139
 6462SOL    HW130845   3.835   2.912  13.791  0.6996 -1.0648 -1.6479
 6462SOL    HW230846   3.728   2.829  13.740 -4.7711  0.4589  0.0027
 6463SOL     OW30847   3.736   0.194   3.604  0.0338  0.3830 -0.4967
 6463SOL    HW130848   3.676   0.263   3.575 -0.4520 -0.4206 -1.3790
 6463SOL    HW230849   3.697   0.159   3.684  1.3875  0.5942  0.2535
 6464SOL     OW30850   0.497   3.552   3.522 -0.1603  0.1156  0.2487
 6464SOL    HW130851   0.414   3.575   3.480 -1.1117 -1.6750  1.1368
 6464SOL    HW230852   0.555   3.553   3.446  0.2416 -2.0694  0.5114
 6465SOL     OW30853   4.555   2.544   1.525  0.1363  0.5814 -0.1827
 6465SOL    HW130854   4.544   2.628   1.568 -0.1631 -0.9686  2.7360
 6465SOL    HW230855   4.602   2.574   1.447  2.3167  1.2021  1.3855
 6466SOL     OW30856   0.721   1.831   2.042  0.6344  0.2624  0.4627
 6466SOL    HW130857   0.796   1.869   2.088  0.4720 -1.0065  1.7988
 6466SOL    HW230858   0.770   1.767   1.991  1.4874  0.7107  0.7155
 6467SOL     OW30859   0.308   3.323   4.883  0.5530  0.5295 -0.0957
 6467SOL    HW130860   0.256   3.331   4.803 -0.6624  1.0103  0.7479
 6467SOL    HW230861   0.360   3.243   4.870 -2.4659 -1.4378  0.0230
 6468SOL     OW30862   1.219   2.016  15.854  0.0384 -0.5904 -0.4691
 6468SOL    HW130863   1.166   2.081  15.901 -0.6396 -1.0951 -0.5420
 6468SOL    HW230864   1.304   2.041  15.890 -0.2760  0.3779 -0.3835
 6469SOL     OW30865   0.239   2.762   7.860  0.0021  0.2984 -0.0959
 6469SOL    HW130866   0.146   2.783   7.854 -0.0608  0.8237  2.6354
 6469SOL    HW230867   0.244   2.726   7.771  1.4467  0.9348 -0.2647
 6470SOL     OW30868   0.568   2.723  11.625 -0.4478 -0.3080  0.2809
 6470SOL    HW130869   0.595   2.664  11.555  0.0792  1.2176 -0.8082
 6470SOL    HW230870   0.587   2.811  11.592  1.5429 -0.9662 -0.3746
 6471SOL     OW30871   1.991   2.559   2.326  0.2665  0.3451 -0.2998
 6471SOL    HW130872   1.942   2.524   2.401  1.9989 -1.0742  0.1582
 6471SOL    HW230873   1.930   2.550   2.252 -0.4358 -0.3330  0.3536
 6472SOL     OW30874   4.483   4.621  14.187  0.1037 -0.0106 -0.2737
 6472SOL    HW130875   4.401   4.651  14.148  1.0248  0.2211 -2.0410
 6472SOL    HW230876   4.480   4.665  14.272  1.1993 -0.9812  0.2546
 6473SOL     OW30877   1.944   4.388   4.027  0.4806  0.1767 -0.2026
 6473SOL    HW130878   1.881   4.457   4.046  0.2952 -0.2951  0.9135
 6473SOL    HW230879   2.020   4.407   4.083  1.8061  0.0725 -1.9757
 6474SOL     OW30880   0.711   3.190   8.866 -0.0727  0.6271  0.1669
 6474SOL    HW130881   0.654   3.157   8.796 -0.2962 -2.7508  1.9638
 6474SOL    HW230882   0.780   3.239   8.821  0.5234  0.6430  1.1003
 6475SOL     OW30883   2.842   1.802   5.781  0.6492  0.7012 -0.9399
 6475SOL    HW130884   2.781   1.862   5.824  0.2462  0.9569 -1.8747
 6475SOL    HW230885   2.833   1.830   5.690 -0.7528  1.4951 -0.5452
 6476SOL     OW30886   3.207   0.427   1.707  0.7901 -0.2069 -0.3484
 6476SOL    HW130887   3.211   0.384   1.621 -0.3086 -2.1422  0.5561
 6476SOL    HW230888   3.130   0.483   1.703  0.0250 -1.0159  2.9485
 6477SOL     OW30889   1.875   2.850  13.034  0.5281  0.5370  0.6376
 6477SOL    HW130890   1.913   2.926  13.078 -0.5004 -0.2119  2.8123
 6477SOL    HW230891   1.896   2.868  12.942  0.9436 -0.3084  0.5667
 6478SOL     OW30892   4.001   3.629   2.400  0.7690  0.3097 -0.7713
 6478SOL    HW130893   3.981   3.686   2.326  1.0802  2.3302  0.6858
 6478SOL    HW230894   4.083   3.672   2.423  1.5474 -1.1978 -0.7370
 6479SOL     OW30895   2.692   3.040   4.178  0.3047 -0.1269 -0.0555
 6479SOL    HW130896   2.705   2.950   4.208 -1.4797 -0.5424 -0.5336
 6479SOL    HW230897   2.631   3.019   4.107  1.2739  1.7933 -1.4622
 6480SOL     OW30898   4.399   0.765   4.950  0.1035  0.1871 -0.3393
 6480SOL    HW130899   4.425   0.708   4.879  2.7274  1.6889 -0.5685
 6480SOL    HW230900   4.414   0.711   5.027  1.1480  1.2140  0.1810
 6481SOL     OW30901   3.768   2.430   1.228  0.1334 -0.3335  0.1029
 6481SOL    HW130902   3.708   2.365   1.263  1.4274 -0.7240  1.5929
 6481SOL    HW230903   3.731   2.514   1.255  0.3567  0.0581 -0.7764
 6482SOL     OW30904   4.250   0.293   2.763 -0.1858 -0.3544 -0.0521
 6482SOL    HW130905   4.252   0.383   2.730  2.2343 -1.0809 -1.9420
 6482SOL    HW230906   4.207   0.245   2.692  0.0355 -0.6292 -0.0012
 6483SOL     OW30907   3.055   1.882   0.066 -0.2018  0.0319 -1.1263
 6483SOL    HW130908   3.144   1.860   0.095 -0.8217 -0.6774  0.2394
 6483SOL    HW230909   3.075   1.962   0.017  0.9798  1.4162  1.5876
 6484SOL     OW30910   0.831   2.987   2.943 -0.0376  0.0295 -0.2469
 6484SOL    HW130911   0.819   3.079   2.917 -1.7202 -0.4365 -1.1112
 6484SOL    HW230912   0.814   2.996   3.037  2.1320  0.3637  0.1216
 6485SOL     OW30913   3.249   1.594  13.477 -1.0649  0.5467 -0.1123
 6485SOL    HW130914   3.339   1.592  13.510 -2.0453 -3.0288  2.4271
 6485SOL    HW230915   3.193   1.585  13.555  1.6521  0.3229  1.8053
 6486SOL     OW30916   3.572   3.213   5.911 -0.7097 -0.1330  0.0719
 6486SOL    HW130917   3.588   3.269   5.835 -2.4957  0.9375  0.4965
 6486SOL    HW230918   3.587   3.266   5.988  0.1753  2.5035 -1.9251
 6487SOL     OW30919   0.919   3.517  13.616 -0.3137 -0.1338 -0.6085
 6487SOL    HW130920   0.998   3.561  13.648  0.3961 -0.5090 -1.8723
 6487SOL    HW230921   0.936   3.505  13.523  0.7550  2.0191 -0.7027
 6488SOL     OW30922   1.014   3.811   4.205 -0.1407 -0.4061  0.2796
 6488SOL    HW130923   1.100   3.842   4.234  0.0787  0.4744 -1.3195
 6488SOL    HW230924   0.992   3.889   4.154 -1.0855 -0.8038  0.0704
 6489SOL     OW30925   2.414   1.831   3.664  0.2012 -1.2432  0.2501
 6489SOL    HW130926   2.347   1.824   3.596  2.2235  1.4133 -1.9880
 6489SOL    HW230927   2.471   1.763   3.629  1.2032 -0.2068 -0.1424
 6490SOL     OW30928   0.299   3.844   6.539 -0.1748 -0.1224  0.4029
 6490SOL    HW130929   0.376   3.798   6.572  1.3512  2.9076  1.0359
 6490SOL    HW230930   0.338   3.901   6.474 -1.1043  1.9083  1.6377
 6491SOL     OW30931   1.825   0.179  15.996  0.2122  0.3560 -0.1510
 6491SOL    HW130932   1.771   0.174  16.075  0.6495 -1.2161  0.0612
 6491SOL    HW230933   1.819   0.271  15.972 -0.9243  0.5279  0.8183
 6492SOL     OW30934   2.616   0.178   5.833  0.0609 -0.8882 -0.0900
 6492SOL    HW130935   2.612   0.089   5.867 -1.2286 -1.5273 -1.9263
 6492SOL    HW230936   2.634   0.165   5.740 -1.5272  0.1425 -0.5337
 6493SOL     OW30937   4.574   4.579  11.993 -0.2733 -0.5137  0.0098
 6493SOL    HW130938   4.665   4.581  12.022 -0.0192  1.3984 -0.8894
 6493SOL    HW230939   4.579   4.503  11.936 -1.1087 -0.9472  0.5231
 6494SOL     OW30940   1.763   1.984   0.775 -0.1400  0.1605 -0.7967
 6494SOL    HW130941   1.693   2.046   0.752 -1.9448 -1.2543  0.8279
 6494SOL    HW230942   1.749   1.977   0.869  2.2409 -1.0473 -0.5350
 6495SOL     OW30943   1.578   4.654   4.521  0.0792  0.0646  0.2451
 6495SOL    HW130944   1.645   4.694   4.577  0.3280 -1.2046  0.8565
 6495SOL    HW230945   1.509   4.645   4.587  1.4091 -0.9750  1.5125
 6496SOL     OW30946   0.857   0.812   1.623  0.2350  0.2076  0.2064
 6496SOL    HW130947   0.888   0.743   1.565 -1.0433  1.2217 -1.6867
 6496SOL    HW230948   0.892   0.879   1.564  2.5544 -0.9788  0.2203
 6497SOL     OW30949   2.681   0.170   9.359  0.2209 -0.5695 -0.6760
 6497SOL    HW130950   2.710   0.079   9.354 -1.2582 -1.0550 -0.6057
 6497SOL    HW230951   2.693   0.175   9.264  2.2339  2.1178 -0.2922
 6498SOL     OW30952   4.628   3.270   5.379  0.1735 -0.0021 -0.6466
 6498SOL    HW130953   4.663   3.238   5.296  1.2679 -2.5319  0.8060
 6498SOL    HW230954   4.659   3.199   5.435  1.2613  0.7784 -0.2644
 6499SOL     OW30955   2.869   2.196  13.583 -0.1890 -0.4091 -0.1131
 6499SOL    HW130956   2.838   2.165  13.668  1.4562 -3.2524 -0.5292
 6499SOL    HW230957   2.900   2.110  13.553 -1.7179 -1.5948  1.7137
 6500SOL     OW30958   4.624   0.780  16.431 -0.3035  0.0566  0.0564
 6500SOL    HW130959   4.691   0.777  16.499 -1.7138 -1.9950  1.3900
 6500SOL    HW230960   4.604   0.689  16.407 -1.3985  0.2891  0.0588
 6501SOL     OW30961   3.431   1.690   9.076  0.2193 -0.2366 -0.1845
 6501SOL    HW130962   3.372   1.745   9.128 -0.0647 -1.0423  0.3436
 6501SOL    HW230963   3.450   1.632   9.150 -0.0609  1.3546  1.1440
 6502SOL     OW30964   1.660   4.346  10.417  0.1606  0.7406  0.3256
 6502SOL    HW130965   1.589   4.371  10.477 -2.5916 -0.7749 -2.2750
 6502SOL    HW230966   1.621   4.284  10.356 -2.0533 -0.4428  2.9393
 6503SOL     OW30967   1.670   0.213   0.917 -0.0108  0.2100 -0.0888
 6503SOL    HW130968   1.635   0.293   0.954  0.2425 -0.3017  1.2502
 6503SOL    HW230969   1.726   0.182   0.988  0.9969  1.4874 -0.3303
 6504SOL     OW30970   3.636   0.956   4.719  0.2698  0.0807  0.4766
 6504SOL    HW130971   3.559   0.965   4.663  0.7230 -1.7261 -0.4296
 6504SOL    HW230972   3.648   1.043   4.758  0.3472 -0.4619  1.6747
 6505SOL     OW30973   3.705   2.782   7.040  0.0193 -0.7274 -0.0594
 6505SOL    HW130974   3.728   2.694   7.070  0.3132 -0.1991  1.2558
 6505SOL    HW230975   3.611   2.793   7.055  0.0165  2.9327 -2.9233
 6506SOL     OW30976   3.886   3.380   2.384 -0.5357  0.3707  0.3076
 6506SOL    HW130977   3.919   3.469   2.400 -0.4270  0.2746  0.6231
 6506SOL    HW230978   3.938   3.346   2.311  0.0475  2.3934 -0.2235
 6507SOL     OW30979   1.041   1.315   1.914  0.2981  0.1165  0.0072
 6507SOL    HW130980   1.092   1.235   1.926 -0.9982 -0.5936  0.9049
 6507SOL    HW230981   1.113   1.359   1.869 -0.3296  2.1300  0.9491
 6508SOL     OW30982   0.655   3.485   7.105 -0.0343 -0.0719  0.2528
 6508SOL    HW130983   0.644   3.576   7.077  0.5719 -1.0893 -3.2417
 6508SOL    HW230984   0.749   3.474   7.088 -0.3087 -0.1632 -1.2007
 6509SOL     OW30985   4.636   0.520  17.214  0.0553  0.1031 -0.3378
 6509SOL    HW130986   4.561   0.486  17.263  0.4645  0.0426  0.2394
 6509SOL    HW230987   4.655   0.440  17.164 -0.6792  0.3883 -1.0684
 6510SOL     OW30988   1.725   0.747   1.357 -0.1054 -0.0517 -0.3949
 6510SOL    HW130989   1.702   0.772   1.446  1.3908  0.4297 -0.1391
 6510SOL    HW230990   1.656   0.682   1.347 -0.5679  0.6321 -1.6197
 6511SOL     OW30991   1.215   1.699   7.197 -0.0609 -0.0228  0.4623
 6511SOL    HW130992   1.190   1.699   7.289 -0.2965 -0.4295  0.3976
 6511SOL    HW230993   1.167   1.778   7.171  0.6107  0.4779  0.7344
 6512SOL     OW30994   0.237   1.251  12.206  0.3811  0.4577 -0.5927
 6512SOL    HW130995   0.320   1.291  12.233 -0.4053  1.6856  0.0015
 6512SOL    HW230996   0.169   1.282  12.266  2.7583  0.4292  2.1329
 6513SOL     OW30997   4.489   0.904   1.000  0.6719 -0.8067 -0.3053
 6513SOL    HW130998   4.552   0.920   1.070  1.3519 -1.6348 -0.7224
 6513SOL    HW230999   4.480   0.989   0.958 -1.1636 -0.2291  1.2552
 6514SOL     OW31000   0.155   1.168   6.525  0.3499  0.1315 -0.2700
 6514SOL    HW131001   0.073   1.127   6.554  0.3331 -0.0456 -0.5608
 6514SOL    HW231002   0.151   1.131   6.436  2.2390 -1.1004  0.1623
 6515SOL     OW31003   3.177   1.791  11.043 -0.0878 -0.1755  0.6025
 6515SOL    HW131004   3.138   1.842  10.971  1.5487 -0.0488 -0.1821
 6515SOL    HW231005   3.179   1.859  11.111  0.5228  1.2240 -0.8091
 6516SOL     OW31006   0.949   0.450  16.119  0.7067 -0.4307  0.5860
 6516SOL    HW131007   0.946   0.358  16.144 -0.8993 -0.6894 -0.5798
 6516SOL    HW231008   1.026   0.487  16.162  0.3657 -3.0452  3.4026
 6517SOL     OW31009   0.877   3.651   1.362 -0.0522  0.2190 -0.0263
 6517SOL    HW131010   0.881   3.739   1.400 -2.1925 -0.1162  0.9821
 6517SOL    HW231011   0.940   3.660   1.290 -1.5521  0.0502 -1.3533
 6518SOL     OW31012   0.417   0.691  12.802 -0.4086  0.5072 -0.7765
 6518SOL    HW131013   0.488   0.754  12.788 -0.4461  1.0297  1.4334
 6518SOL    HW231014   0.353   0.749  12.843  0.4290  0.1514  1.0632
 6519SOL     OW31015   3.074   1.321   7.712 -0.3542  0.4735  0.1584
 6519SOL    HW131016   2.984   1.298   7.687  0.3356 -0.4921 -1.4521
 6519SOL    HW231017   3.063   1.340   7.805 -0.7542  0.3476  0.1403
 6520SOL     OW31018   2.616   4.436   8.984  0.2434 -0.7493  0.1935
 6520SOL    HW131019   2.580   4.349   8.968 -0.2355 -0.1319 -1.9875
 6520SOL    HW231020   2.532   4.482   8.984  0.4105 -0.4438 -0.5769
 6521SOL     OW31021   2.405   0.565  17.154  0.0343  0.0079  0.0379
 6521SOL    HW131022   2.351   0.641  17.178  0.5778  1.0087 -1.8581
 6521SOL    HW231023   2.481   0.581  17.209  0.8539 -1.4757 -0.6585
 6522SOL     OW31024   4.672   3.067   7.255 -0.0924 -0.4638 -0.4319
 6522SOL    HW131025   4.628   3.091   7.337  1.1639  0.7809 -0.1255
 6522SOL    HW231026   0.034   3.109   7.269  0.5061 -1.3257 -1.4576
 6523SOL     OW31027   1.706   1.858   5.509  0.0054 -0.6198 -0.0429
 6523SOL    HW131028   1.678   1.814   5.589  1.5382 -1.4738  0.0264
 6523SOL    HW231029   1.793   1.887   5.536 -1.3616  1.5818  1.9161
 6524SOL     OW31030   1.363   4.225   6.006  0.0414 -0.5135  0.4775
 6524SOL    HW131031   1.401   4.276   6.078 -0.8169  1.7158 -0.6748
 6524SOL    HW231032   1.284   4.194   6.052 -0.3190 -0.9351 -0.4291
 6525SOL     OW31033   3.158   3.310   3.607  0.1554 -0.7866 -0.0467
 6525SOL    HW131034   3.147   3.215   3.605  0.0724 -0.7756 -0.1336
 6525SOL    HW231035   3.082   3.334   3.554 -0.4730 -0.0833  1.1807
 6526SOL     OW31036   1.294   3.484  13.494 -0.1149  0.6621 -0.5068
 6526SOL    HW131037   1.299   3.389  13.479 -1.6816  0.4432  0.3769
 6526SOL    HW231038   1.213   3.518  13.456 -0.5613 -0.9339 -0.9999
 6527SOL     OW31039   2.090   3.079   8.175  0.0860  0.4253  0.5874
 6527SOL    HW131040   2.133   3.014   8.119 -0.4848  1.2667 -0.8200
 6527SOL    HW231041   2.050   3.025   8.243 -0.7969  0.2394 -0.0868
 6528SOL     OW31042   3.894   4.034   1.311  0.2189  0.6851 -0.7315
 6528SOL    HW131043   3.982   4.060   1.284  0.3536  0.3358 -0.6262
 6528SOL    HW231044   3.848   4.085   1.245 -0.9263  2.5471  1.4843
 6529SOL     OW31045   1.521   3.313   8.142  0.0547  0.1382 -0.3935
 6529SOL    HW131046   1.494   3.405   8.151 -1.3131 -0.2852 -0.1695
 6529SOL    HW231047   1.587   3.326   8.073 -0.2730  2.5619 -0.2690
 6530SOL     OW31048   3.862   4.515   2.943  0.1241 -0.0129 -0.0728
 6530SOL    HW131049   3.854   4.427   2.979  0.9539 -0.6182 -1.3614
 6530SOL    HW231050   3.817   4.510   2.858 -2.8232  0.7106  1.4357
 6531SOL     OW31051   1.283   2.451   6.521 -0.3559  0.0165  0.1446
 6531SOL    HW131052   1.195   2.450   6.483 -1.0864  2.1106  1.7489
 6531SOL    HW231053   1.306   2.359   6.509  0.1380 -0.1464  2.2988
 6532SOL     OW31054   0.108   4.053   6.380  0.0390  0.0224  0.1526
 6532SOL    HW131055   0.094   4.063   6.475  0.5460 -2.1497  0.4777
 6532SOL    HW231056   0.083   3.962   6.365  1.3391 -0.3140 -0.0298
 6533SOL     OW31057   1.607   2.547  11.042  0.7621 -0.2546  0.4560
 6533SOL    HW131058   1.540   2.523  11.106  1.5864  0.0321  1.4328
 6533SOL    HW231059   1.566   2.496  10.972  0.4857 -1.9036  1.8060
 6534SOL     OW31060   0.780   2.920  16.100 -0.1540  0.3121 -0.1819
 6534SOL    HW131061   0.711   2.984  16.083  0.7318  1.2679 -0.1557
 6534SOL    HW231062   0.789   2.933  16.194  2.7316  3.1512 -0.8627
 6535SOL     OW31063   3.613   2.003   7.355 -0.2973 -0.0194  0.3685
 6535SOL    HW131064   3.633   2.095   7.338  0.1202  0.2520  2.3524
 6535SOL    HW231065   3.694   1.956   7.335  0.8558  1.3609  1.8352
 6536SOL     OW31066   0.996   0.617  15.830  0.2870  0.5232  0.2584
 6536SOL    HW131067   0.998   0.711  15.812 -1.1318  0.4799 -0.0958
 6536SOL    HW231068   0.992   0.624  15.925 -0.4804  0.2805  0.2417
 6537SOL     OW31069   0.302   2.720   8.412  0.3769 -0.6083  0.6167
 6537SOL    HW131070   0.230   2.749   8.357  0.8755  1.1067  0.8705
 6537SOL    HW231071   0.314   2.797   8.466  0.3449 -0.5819  0.5862
 6538SOL     OW31072   1.698   1.877  17.685 -0.6691 -0.0370  0.4366
 6538SOL    HW131073   1.653   1.827  17.617 -0.3847  2.7390 -1.7996
 6538SOL    HW231074   1.765   1.818   0.023 -0.6342 -0.6662 -0.7609
 6539SOL     OW31075   0.077   4.454   8.231  0.4138 -0.2176 -0.1716
 6539SOL    HW131076   0.051   4.544   8.215 -1.8743 -1.1643 -1.7467
 6539SOL    HW231077   0.137   4.471   8.304 -0.0899  1.8278 -0.2418
 6540SOL     OW31078   4.408   3.481   0.551 -0.1959 -0.3095 -0.2145
 6540SOL    HW131079   4.323   3.518   0.530  0.1081  0.3060 -0.3680
 6540SOL    HW231080   4.421   3.432   0.470 -1.5498  3.0048 -2.4379
 6541SOL     OW31081   2.474   0.676  12.993 -0.2144 -0.0179 -0.7211
 6541SOL    HW131082   2.499   0.726  13.070  0.2211  0.5865 -1.2616
 6541SOL    HW231083   2.402   0.726  12.955  1.1475  0.6085 -2.4502
 6542SOL     OW31084   3.433   0.656   4.944 -0.1596  0.0602 -0.4007
 6542SOL    HW131085   3.511   0.642   4.890 -0.3823  0.5982 -0.8631
 6542SOL    HW231086   3.397   0.567   4.949 -2.1103  0.9493  1.2616
 6543SOL     OW31087   4.276   0.119   2.388  0.4126  0.5349  0.2044
 6543SOL    HW131088   4.356   0.077   2.357  0.0786 -0.2182  0.3595
 6543SOL    HW231089   4.217   0.107   2.314 -0.4757 -2.1495  1.3722
 6544SOL     OW31090   3.159   0.812   1.898  0.2978 -0.0284  0.5741
 6544SOL    HW131091   3.126   0.862   1.972 -0.1588  0.8820 -0.2414
 6544SOL    HW231092   3.242   0.776   1.928 -0.5387 -1.9302  0.5830
 6545SOL     OW31093   2.830   0.871   7.288 -0.5718  0.1976 -0.2407
 6545SOL    HW131094   2.744   0.828   7.282 -1.2064  1.3485  0.5703
 6545SOL    HW231095   2.867   0.816   7.357  0.2055 -1.0590 -1.6595
 6546SOL     OW31096   0.552   4.491   4.116 -0.2702  0.0936 -0.2517
 6546SOL    HW131097   0.482   4.426   4.125  0.8008 -0.8828  1.0079
 6546SOL    HW231098   0.558   4.477   4.021  0.7032  0.4375 -0.2496
 6547SOL     OW31099   4.702   3.153   2.604 -0.0028  0.2221 -0.3830
 6547SOL    HW131100   4.690   3.155   2.509  1.3661 -1.3413 -0.6023
 6547SOL    HW231101   4.672   3.065   2.629  0.7086 -0.0128 -0.3522
 6548SOL     OW31102   1.004   2.595   8.023 -0.0457 -0.3337 -0.5867
 6548SOL    HW131103   0.914   2.599   8.056  0.9167 -1.6029  2.1838
 6548SOL    HW231104   0.995   2.626   7.933  3.1429  3.5258  0.4420
 6549SOL     OW31105   1.205   4.670   4.857 -0.4529  0.5339  0.1730
 6549SOL    HW131106   1.111   4.669   4.836  0.1391  1.5243 -2.4958
 6549SOL    HW231107   1.213   0.040   4.874 -0.7759  0.6604 -0.3823
 6550SOL     OW31108   2.056   3.852   2.174 -0.3365 -0.2826  0.3597
 6550SOL    HW131109   2.079   3.759   2.164  0.0719 -0.2116  0.6237
 6550SOL    HW231110   1.960   3.852   2.171 -0.3161  2.2385  0.2808
 6551SOL     OW31111   1.956   2.105   1.708 -0.3507 -0.3040  0.5053
 6551SOL    HW131112   1.890   2.157   1.755  0.0048  1.5495 -1.0318
 6551SOL    HW231113   2.019   2.099   1.780  1.6386  2.1664 -1.0148
 6552SOL     OW31114   1.921   0.599   6.542  0.3435 -0.3788 -0.0926
 6552SOL    HW131115   1.942   0.508   6.563  0.8317 -0.5261 -1.2295
 6552SOL    HW231116   1.946   0.610   6.450 -3.5507  0.3918 -1.0612
 6553SOL     OW31117   1.444   3.185   8.815  0.1590  0.3999  0.6547
 6553SOL    HW131118   1.464   3.164   8.906  1.3853  1.4994  0.6426
 6553SOL    HW231119   1.435   3.094   8.785  0.8072  0.7708 -0.6849
 6554SOL     OW31120   2.828   3.985   6.391  0.1010  0.5742 -0.3285
 6554SOL    HW131121   2.833   4.040   6.469 -1.3993  0.7844 -0.3896
 6554SOL    HW231122   2.920   3.995   6.365  0.5740  1.9600  1.8766
 6555SOL     OW31123   0.648   3.526   7.885  0.1938 -0.4667  0.3260
 6555SOL    HW131124   0.714   3.461   7.859  0.0467 -0.6239  0.3425
 6555SOL    HW231125   0.575   3.505   7.826  1.1806  0.8920 -1.3762
 6556SOL     OW31126   3.184   0.347  15.590 -0.0625  0.2203  0.6475
 6556SOL    HW131127   3.265   0.327  15.544 -0.5899 -0.4079 -0.0131
 6556SOL    HW231128   3.114   0.309  15.538  0.1688  2.4080 -1.2672
 6557SOL     OW31129   2.618   0.100   5.572 -0.3805  0.1104 -0.4055
 6557SOL    HW131130   2.615   0.009   5.544  0.6461  0.2583 -1.0172
 6557SOL    HW231131   2.669   0.126   5.496 -0.0807  1.7709  0.3602
 6558SOL     OW31132   2.850   3.507   3.034  0.0672 -0.2221 -0.4959
 6558SOL    HW131133   2.768   3.528   2.989  0.8248  1.0505 -1.2865
 6558SOL    HW231134   2.854   3.418   2.998  0.4990 -0.4517  0.1132
 6559SOL     OW31135   3.284   0.066   8.202  0.6026  0.2060  0.2660
 6559SOL    HW131136   3.345   4.717   8.213 -0.8968 -1.0571  0.3263
 6559SOL    HW231137   3.340   0.123   8.150  0.0966  0.7988  0.3575
 6560SOL     OW31138   1.269   2.349   3.991  0.3790  0.0039 -0.4909
 6560SOL    HW131139   1.266   2.255   4.008  1.0303  0.0926  0.1609
 6560SOL    HW231140   1.336   2.371   3.926  0.9260 -0.7686 -0.1934
 6561SOL     OW31141   3.447   1.394   8.232 -0.2798 -0.2305  0.0508
 6561SOL    HW131142   3.492   1.462   8.281 -0.6030  0.1200 -0.1325
 6561SOL    HW231143   3.361   1.428   8.259  0.5107  1.8415 -0.0223
 6562SOL     OW31144   2.418   4.180  11.030 -0.3819  0.5684  0.0549
 6562SOL    HW131145   2.512   4.170  11.043  0.0362  2.0452 -1.7071
 6562SOL    HW231146   2.413   4.113  10.962  1.0749 -0.7718  1.2840
 6563SOL     OW31147   1.714   2.657  12.965 -0.0207 -0.2309 -0.3528
 6563SOL    HW131148   1.744   2.622  12.881 -0.6635  2.5536 -1.7573
 6563SOL    HW231149   1.779   2.722  12.993 -1.2102  0.6491  0.3692
 6564SOL     OW31150   2.658   2.228   9.347 -0.3164  0.4365 -0.1847
 6564SOL    HW131151   2.567   2.217   9.375 -0.0710  0.1413  0.4845
 6564SOL    HW231152   2.667   2.159   9.282  1.5998  1.2230 -0.7676
 6565SOL     OW31153   0.252   4.165   3.902  0.1463 -0.5646  0.3960
 6565SOL    HW131154   0.169   4.202   3.871  1.7488  2.4314 -0.3859
 6565SOL    HW231155   0.244   4.071   3.889 -0.0791 -0.1770 -2.3095
 6566SOL     OW31156   3.633   2.605  11.535 -0.1611  0.1320 -0.3399
 6566SOL    HW131157   3.646   2.660  11.613 -1.1779 -1.3371  0.8593
 6566SOL    HW231158   3.549   2.639  11.506  0.2492 -0.5687 -2.3167
 6567SOL     OW31159   3.989   2.983   4.206 -0.5944  0.2030 -0.0497
 6567SOL    HW131160   4.028   3.026   4.131  0.4573  1.6889  1.3596
 6567SOL    HW231161   3.923   3.051   4.217  0.0060  0.8206 -0.2480
 6568SOL     OW31162   3.699   1.539   6.300 -0.4507 -0.1836  0.2437
 6568SOL    HW131163   3.669   1.519   6.211  2.7685  1.4310 -1.2165
 6568SOL    HW231164   3.731   1.626   6.277  1.9660 -1.1787 -0.1243
 6569SOL     OW31165   0.737   1.767   6.926  0.1792  0.2061 -0.2285
 6569SOL    HW131166   0.803   1.801   6.986 -0.5831  2.5101 -0.7284
 6569SOL    HW231167   0.789   1.710   6.869  0.5291 -1.7543  2.0448
 6570SOL     OW31168   2.953   4.515   2.749  0.5615 -0.0566 -0.0926
 6570SOL    HW131169   2.918   4.487   2.834  1.9213  0.4420  0.6330
 6570SOL    HW231170   2.923   4.607   2.750  0.3275 -0.1157 -1.6861
 6571SOL     OW31171   4.674   2.029   5.952  0.1601  0.1739  0.6172
 6571SOL    HW131172   0.036   1.986   5.956 -0.7828 -1.6469  1.1440
 6571SOL    HW231173   4.619   1.964   5.997 -1.4507 -0.2583 -2.0041
 6572SOL     OW31174   3.200   0.242   4.082 -0.3536  0.5403  0.2082
 6572SOL    HW131175   3.235   0.208   4.164  1.8953  1.4769 -0.3669
 6572SOL    HW231176   3.149   0.167   4.050  2.4063 -0.9014 -0.7773
 6573SOL     OW31177   2.568   1.803  12.778  0.7715  0.0864  0.0262
 6573SOL    HW131178   2.629   1.760  12.837 -0.8550 -0.2452  1.4502
 6573SOL    HW231179   2.491   1.747  12.774 -0.8719  2.3508 -0.0724
 6574SOL     OW31180   4.701   0.330   1.749  0.0698 -0.3006 -0.3621
 6574SOL    HW131181   0.043   0.264   1.729  0.0483 -0.7523  1.0736
 6574SOL    HW231182   0.015   0.352   1.834  1.0474  0.8188 -1.0669
 6575SOL     OW31183   1.478   2.571  14.028 -0.0293 -0.1171 -0.1256
 6575SOL    HW131184   1.418   2.506  13.992 -0.0403 -0.8095  1.1504
 6575SOL    HW231185   1.518   2.513  14.092  0.2804  0.9641  0.6672
 6576SOL     OW31186   3.763   0.178   7.952 -0.2702 -0.8914 -0.5519
 6576SOL    HW131187   3.736   0.125   7.876 -2.8833 -0.2914 -0.0632
 6576SOL    HW231188   3.723   0.119   8.016 -0.8833 -0.3803 -0.4569
 6577SOL     OW31189   0.607   2.301   2.474 -0.1503  0.1046  0.0631
 6577SOL    HW131190   0.599   2.386   2.517  1.3065  0.2737  0.0044
 6577SOL    HW231191   0.617   2.324   2.382  1.7814  1.0300  0.5034
 6578SOL     OW31192   3.711   4.189  14.194 -0.0383  0.6470  0.1057
 6578SOL    HW131193   3.780   4.125  14.176  0.2013  0.9859 -0.1846
 6578SOL    HW231194   3.754   4.254  14.250  2.0054 -1.7181  1.2304
 6579SOL     OW31195   2.381   2.352   4.349  0.5339 -0.4098  0.1116
 6579SOL    HW131196   2.466   2.310   4.360  0.9117  0.4408  0.4390
 6579SOL    HW231197   2.330   2.314   4.420 -0.9371  2.9094  0.8628
 6580SOL     OW31198   1.160   3.385   7.867  0.1838  0.6748  0.1181
 6580SOL    HW131199   1.073   3.425   7.863 -0.3534 -0.2961  2.1627
 6580SOL    HW231200   1.177   3.360   7.776  0.6765 -0.7855  0.6075
 6581SOL     OW31201   0.923   3.205  14.728  0.6617 -0.2370  1.0946
 6581SOL    HW131202   0.929   3.270  14.797 -0.3558  0.1943  0.7727
 6581SOL    HW231203   0.931   3.123  14.778  2.8411 -1.5983 -1.4476
 6582SOL     OW31204   2.245   0.822   5.607 -0.1249  0.0391  0.3271
 6582SOL    HW131205   2.168   0.765   5.596 -0.1090 -0.5073  3.0363
 6582SOL    HW231206   2.209   0.899   5.564 -0.2068  0.0087  0.3394
 6583SOL     OW31207   4.018   2.633  13.702  0.6305  0.0878 -0.2271
 6583SOL    HW131208   4.077   2.643  13.627  0.9508 -0.6860 -0.0761
 6583SOL    HW231209   4.020   2.719  13.745  1.8046 -1.4036  2.6529
 6584SOL     OW31210   1.198   2.455  17.694 -0.0222  0.5031 -0.1518
 6584SOL    HW131211   1.279   2.410  17.670  1.8663  3.1534  1.2815
 6584SOL    HW231212   1.161   2.392   0.060 -0.2301  0.4095 -0.3755
 6585SOL     OW31213   0.502   1.365   3.385  0.9032  0.1617  0.5448
 6585SOL    HW131214   0.536   1.292   3.334 -1.2692 -0.8528  0.5618
 6585SOL    HW231215   0.440   1.396   3.319  0.7719 -0.6716  0.2831
 6586SOL     OW31216   0.094   0.917   7.978 -0.4274  0.8727 -0.0574
 6586SOL    HW131217   0.136   0.999   8.004  2.0458 -0.6287  0.7112
 6586SOL    HW231218   0.149   0.890   7.904 -1.7078  0.7560 -0.9614
 6587SOL     OW31219   4.503   0.022   6.684 -0.1948  0.0975  0.3990
 6587SOL    HW131220   4.456   0.057   6.608 -0.2770  1.0713  0.9030
 6587SOL    HW231221   4.519   4.656   6.653 -1.6895 -0.3087  0.7834
 6588SOL     OW31222   0.671   2.628   9.143  0.1067  0.2233  0.5014
 6588SOL    HW131223   0.662   2.702   9.083 -0.8763 -1.1626 -1.1036
 6588SOL    HW231224   0.633   2.659   9.225 -0.3166 -0.0533  0.4152
 6589SOL     OW31225   3.975   4.428   1.204  0.0085  0.4012  0.1229
 6589SOL    HW131226   3.927   4.346   1.188 -1.5351  1.1022  1.1497
 6589SOL    HW231227   3.902   4.486   1.224 -0.4471  0.6040 -2.1192
 6590SOL     OW31228   4.251   1.876   7.755 -0.0489 -0.1115  0.0989
 6590SOL    HW131229   4.276   1.965   7.728  1.4720 -0.8416 -0.9109
 6590SOL    HW231230   4.191   1.844   7.687  0.7787 -0.2774 -0.5570
 6591SOL     OW31231   3.050   4.214  10.477  0.1645  0.5611  0.5871
 6591SOL    HW131232   3.092   4.289  10.518 -1.2676  2.6149 -1.6907
 6591SOL    HW231233   3.014   4.250  10.396  1.6893 -1.6487 -1.0743
 6592SOL     OW31234   1.538   0.508   2.030 -0.5499  0.4459  0.6215
 6592SOL    HW131235   1.519   0.541   1.942 -2.5267 -1.9046  0.1941
 6592SOL    HW231236   1.445   0.512   2.052  0.0639  1.3597  3.1401
 6593SOL     OW31237   3.542   1.630  12.627 -0.2087  0.4282 -0.0621
 6593SOL    HW131238   3.514   1.721  12.622 -2.8058 -0.5536 -4.0028
 6593SOL    HW231239   3.612   1.621  12.562  2.1711  0.7918  2.4731
 6594SOL     OW31240   3.364   0.717   7.596 -0.1834  0.1306  0.0797
 6594SOL    HW131241   3.339   0.650   7.659 -1.7229  0.8065  0.1731
 6594SOL    HW231242   3.290   0.725   7.536  1.1626 -1.2120 -1.7629
 6595SOL     OW31243   1.516   3.564   4.375 -0.3776  0.6053 -0.1638
 6595SOL    HW131244   1.433   3.589   4.416  0.0989 -0.4328  1.4790
 6595SOL    HW231245   1.537   3.487   4.429  0.4177  0.6139 -0.4714
 6596SOL     OW31246   4.627   2.759   4.232 -0.0017  0.2340 -0.2038
 6596SOL    HW131247   4.612   2.712   4.314 -0.9607  1.3904  0.2956
 6596SOL    HW231248   4.585   2.842   4.255  1.1255  1.0543 -1.0408
 6597SOL     OW31249   2.504   0.146   4.067 -0.0593 -0.4190  1.1483
 6597SOL    HW131250   2.600   0.153   4.064  0.0277 -1.3296  1.8972
 6597SOL    HW231251   2.487   0.239   4.053 -3.3897 -1.1843  0.0631
 6598SOL     OW31252   2.332   1.061   1.809  0.0433 -0.6296 -0.4158
 6598SOL    HW131253   2.298   0.973   1.821 -1.5453 -0.0217 -0.4025
 6598SOL    HW231254   2.420   1.049   1.774 -0.3660 -2.2659 -0.8580
 6599SOL     OW31255   2.189   0.576  12.236  0.8919  0.2614 -0.2614
 6599SOL    HW131256   2.108   0.627  12.241  0.0979 -1.2712  2.6292
 6599SOL    HW231257   2.163   0.486  12.256  1.7961  0.4673  1.7963
 6600SOL     OW31258   1.240   1.596   0.739 -0.0497 -0.6400 -0.0551
 6600SOL    HW131259   1.224   1.534   0.668  0.3377 -0.0773 -0.6317
 6600SOL    HW231260   1.335   1.588   0.738 -0.0518 -0.3372 -1.5937
 6601SOL     OW31261   2.492   1.594   4.225  0.1143  0.0277  0.4903
 6601SOL    HW131262   2.417   1.577   4.282  1.1778  1.7742  2.3735
 6601SOL    HW231263   2.573   1.605   4.275  0.3000  0.9333 -0.0103
 6602SOL     OW31264   4.308   4.073  17.687  0.6281 -0.4710  0.1016
 6602SOL    HW131265   4.376   4.080   0.059 -0.0238  2.1414  0.4658
 6602SOL    HW231266   4.238   4.035   0.045  0.0674 -2.5499 -2.1141
 6603SOL     OW31267   1.730   0.755   8.359 -0.3983  0.0029 -0.0480
 6603SOL    HW131268   1.766   0.668   8.376 -1.5026 -0.8922 -2.3687
 6603SOL    HW231269   1.807   0.796   8.320  0.7031  0.1821  2.3222
 6604SOL     OW31270   0.228   3.759   7.940 -0.0443  0.0710 -0.3151
 6604SOL    HW131271   0.316   3.790   7.963  0.9588 -2.8011 -0.3028
 6604SOL    HW231272   0.210   3.712   8.022 -1.9748  1.8560  0.2820
 6605SOL     OW31273   2.012   4.389   5.959 -0.2591 -0.2744 -0.2361
 6605SOL    HW131274   2.015   4.339   6.041  2.4649 -0.4949 -0.4677
 6605SOL    HW231275   1.917   4.399   5.952 -0.4689 -1.5087  0.9673
 6606SOL     OW31276   3.929   4.209  13.508  0.2413 -0.1381  0.1961
 6606SOL    HW131277   3.962   4.153  13.438  0.3941  0.0141  0.1477
 6606SOL    HW231278   3.924   4.296  13.468 -0.2441  0.3742  1.3759
 6607SOL     OW31279   4.521   0.069   6.950 -0.0798  0.0766  0.1278
 6607SOL    HW131280   4.485   0.070   6.862 -0.8372 -2.0516  0.4130
 6607SOL    HW231281   4.448   0.117   6.990 -0.1307  0.1535 -0.0573
 6608SOL     OW31282   0.521   1.274  14.427 -0.0521  0.7343  0.2547
 6608SOL    HW131283   0.555   1.190  14.457 -1.8455  0.4456  1.4685
 6608SOL    HW231284   0.586   1.335  14.462 -2.2506  2.6438  1.0251
 6609SOL     OW31285   2.615   0.424   5.951 -0.1039  0.1293 -0.1028
 6609SOL    HW131286   2.678   0.411   6.022 -0.8413 -0.9438  0.3554
 6609SOL    HW231287   2.609   0.336   5.914 -1.3781  0.4892 -0.7269
 6610SOL     OW31288   3.404   0.438   9.205 -0.2240  0.0953  0.5445
 6610SOL    HW131289   3.396   0.391   9.288  4.2105  0.6259  1.2450
 6610SOL    HW231290   3.458   0.510   9.236  1.4354 -0.9713  0.0873
 6611SOL     OW31291   0.160   3.573   8.134 -0.0170  0.2626 -0.5974
 6611SOL    HW131292   0.172   3.619   8.217  0.3085  1.1190 -1.1260
 6611SOL    HW231293   0.064   3.565   8.131 -0.1783  3.2163 -3.2434
 6612SOL     OW31294   3.841   1.802   8.805 -0.3436  0.3099  0.0151
 6612SOL    HW131295   3.810   1.839   8.887  0.9626  0.3432  0.4899
 6612SOL    HW231296   3.905   1.743   8.845  0.9691  2.1672  0.6649
 6613SOL     OW31297   3.007   3.309   6.770 -0.1857  0.0604  0.2289
 6613SOL    HW131298   2.943   3.353   6.825  0.9552  0.2960  1.3461
 6613SOL    HW231299   3.028   3.232   6.823  1.1148  1.2723  1.4790
 6614SOL     OW31300   3.687   3.412   9.567  0.1551 -0.2660 -0.4581
 6614SOL    HW131301   3.599   3.391   9.537  0.5100 -1.1340 -0.9006
 6614SOL    HW231302   3.696   3.334   9.621  0.4176  0.8432  1.0780
 6615SOL     OW31303   2.035   1.987   3.831 -0.1977 -0.3058  0.1014
 6615SOL    HW131304   2.124   1.986   3.797 -0.1721 -0.1164  0.1605
 6615SOL    HW231305   1.981   2.033   3.766 -0.3351 -0.8620 -0.1746
 6616SOL     OW31306   1.965   2.908   4.769 -0.1230 -0.1869  0.1319
 6616SOL    HW131307   2.046   2.922   4.720 -1.4837  0.9120 -1.7701
 6616SOL    HW231308   1.900   2.945   4.709 -1.8848 -1.1777  1.4198
 6617SOL     OW31309   4.250   3.894  13.341 -0.1309  0.0937 -0.0932
 6617SOL    HW131310   4.227   3.833  13.412  0.3177  0.2303  0.1744
 6617SOL    HW231311   4.167   3.934  13.317 -0.2516 -0.5609 -0.7515
 6618SOL     OW31312   1.519   2.876   7.112  0.3452  0.0357 -0.1092
 6618SOL    HW131313   1.527   2.836   7.025 -2.6997 -0.0706 -0.3392
 6618SOL    HW231314   1.441   2.829   7.141  1.3700 -0.9756  0.9483
 6619SOL     OW31315   4.290   0.740   9.497 -0.1696  0.1922  0.1180
 6619SOL    HW131316   4.266   0.827   9.530  0.3375  0.2724  0.2696
 6619SOL    HW231317   4.284   0.759   9.403 -0.8052  0.4728  0.2101
 6620SOL     OW31318   0.046   4.278   5.119  0.8763 -0.1769 -0.6324
 6620SOL    HW131319   0.043   4.369   5.091 -0.8365 -0.6509 -1.9745
 6620SOL    HW231320   4.711   4.287   5.194  1.3832  0.8874 -0.3618
 6621SOL     OW31321   2.803   1.579  16.136 -0.2746 -0.1414  0.4566
 6621SOL    HW131322   2.872   1.522  16.103  0.5755  1.2769 -0.2386
 6621SOL    HW231323   2.807   1.554  16.228  0.2073 -2.5839 -0.2332
 6622SOL     OW31324   0.336   2.897  12.741  0.3553  0.0952  0.9614
 6622SOL    HW131325   0.387   2.952  12.681  0.2065  0.1072  0.8460
 6622SOL    HW231326   0.364   2.811  12.711 -0.9826  0.3339 -0.9462
 6623SOL     OW31327   3.666   4.381   3.545  0.7398  0.6461 -0.2433
 6623SOL    HW131328   3.590   4.409   3.495 -0.4268 -0.2522  1.0460
 6623SOL    HW231329   3.643   4.298   3.586  0.2616  1.2801  0.7770
 6624SOL     OW31330   0.479   1.309  17.161 -0.0253 -0.3120 -0.3872
 6624SOL    HW131331   0.411   1.376  17.159  1.3262  1.0339 -1.5815
 6624SOL    HW231332   0.557   1.365  17.155  0.0910 -0.5667 -1.3295
 6625SOL     OW31333   4.210   0.624   6.033 -0.6961 -0.5527 -0.0727
 6625SOL    HW131334   4.264   0.579   6.099 -0.5570 -0.8829 -0.4105
 6625SOL    HW231335   4.274   0.668   5.978 -0.8387 -1.2034 -0.7568
 6626SOL     OW31336   3.265   2.756   9.597  0.1868 -0.0325 -0.2165
 6626SOL    HW131337   3.250   2.740   9.690 -1.5602  0.9318 -0.3328
 6626SOL    HW231338   3.323   2.681   9.583 -2.7068 -2.7381  2.5168
 6627SOL     OW31339   4.293   3.841   1.482 -0.1919 -0.3752 -0.0528
 6627SOL    HW131340   4.276   3.796   1.399 -2.3326 -0.3937  0.4015
 6627SOL    HW231341   4.388   3.833   1.478 -0.0788 -0.0340  2.0232
 6628SOL     OW31342   0.383   2.828   5.309  0.3139  0.4211  0.0145
 6628SOL    HW131343   0.436   2.800   5.383  1.0327  2.3072  0.2318
 6628SOL    HW231344   0.358   2.915   5.340  0.2513  0.0740  0.9374
 6629SOL     OW31345   3.490   2.666   7.739  0.2197  0.5852  0.0693
 6629SOL    HW131346   3.448   2.751   7.745 -3.2115 -1.0223 -1.3403
 6629SOL    HW231347   3.571   2.695   7.781 -0.3181 -1.1724  2.3648
 6630SOL     OW31348   1.942   4.171   5.728  0.5614  0.2544  0.3390
 6630SOL    HW131349   1.871   4.204   5.673 -0.0624 -0.3910  0.7692
 6630SOL    HW231350   1.910   4.195   5.815  1.6181 -0.0781  0.8209
 6631SOL     OW31351   2.232   3.083   0.416 -0.1715  0.1033  0.5094
 6631SOL    HW131352   2.185   3.002   0.437  1.8897 -0.6760  2.1793
 6631SOL    HW231353   2.158   3.127   0.375 -1.2133  0.6548  3.0428
 6632SOL     OW31354   3.719   4.292  12.242  0.5361 -0.2267  0.0611
 6632SOL    HW131355   3.692   4.284  12.151 -0.6302  0.4869  0.3510
 6632SOL    HW231356   3.814   4.299  12.238  0.1645  3.8893 -1.4736
 6633SOL     OW31357   1.019   2.019  15.260  0.2799  0.3621 -0.5167
 6633SOL    HW131358   1.100   2.006  15.310  1.2368 -0.0230 -2.1398
 6633SOL    HW231359   0.970   2.082  15.312 -1.6312 -1.1402 -0.4756
 6634SOL     OW31360   3.925   4.568  14.567 -0.1035 -0.5554  0.2608
 6634SOL    HW131361   3.893   4.497  14.623 -2.1323  0.9888  1.0659
 6634SOL    HW231362   4.015   4.585  14.594 -0.0504 -0.9053  0.3077
 6635SOL     OW31363   4.469   3.420   3.963  0.4114 -0.2931  0.1988
 6635SOL    HW131364   4.380   3.456   3.969 -0.1766 -1.8148  0.6968
 6635SOL    HW231365   4.442   3.343   3.914 -0.5515  0.6918 -0.8227
 6636SOL     OW31366   3.486   0.596  16.417 -0.2887  0.8548  0.4069
 6636SOL    HW131367   3.476   0.624  16.508 -0.4590  0.6674  0.4459
 6636SOL    HW231368   3.395   0.585  16.392 -0.5535  1.9656  0.8969
 6637SOL     OW31369   0.564   1.978  12.719 -0.2359  0.0313 -0.0058
 6637SOL    HW131370   0.524   2.054  12.677 -0.3868  1.1720  2.1961
 6637SOL    HW231371   0.659   1.993  12.716 -0.8615  3.2556 -3.0498
 6638SOL     OW31372   1.581   0.931   5.665  0.0032 -0.0893 -0.1055
 6638SOL    HW131373   1.550   0.977   5.743 -1.2212  0.5330 -0.9503
 6638SOL    HW231374   1.553   0.840   5.672  0.3659 -0.2263 -0.4246
 6639SOL     OW31375   1.756   1.268   3.027 -0.0150  0.6513 -0.0516
 6639SOL    HW131376   1.730   1.294   3.116 -0.9314 -0.7558  0.0893
 6639SOL    HW231377   1.678   1.267   2.971 -0.4362 -3.7575  0.6383
 6640SOL     OW31378   0.343   0.615   3.053 -0.7206  0.1022  0.1590
 6640SOL    HW131379   0.349   0.689   2.992 -1.0984 -1.1150 -1.3625
 6640SOL    HW231380   0.275   0.571   3.003  0.2272 -2.1205  0.8473
 6641SOL     OW31381   3.483   0.275   4.437  0.5905  0.2460 -0.3202
 6641SOL    HW131382   3.520   0.275   4.349  0.0980  0.5831 -0.5271
 6641SOL    HW231383   3.493   0.368   4.458 -0.7194  0.4038 -0.3718
 6642SOL     OW31384   0.414   0.138  10.530  0.1479 -0.3239  0.6551
 6642SOL    HW131385   0.381   0.048  10.533  0.2919 -0.4383 -1.9456
 6642SOL    HW231386   0.494   0.120  10.579 -0.4911 -0.6378  1.5887
 6643SOL     OW31387   3.559   1.001   4.251 -0.1829  0.2018 -0.0647
 6643SOL    HW131388   3.524   1.062   4.316  2.8631  1.0632  0.7755
 6643SOL    HW231389   3.521   1.043   4.174 -0.4249 -0.5914 -0.3808
 6644SOL     OW31390   4.021   0.254  15.379 -0.1959 -0.6904 -0.4410
 6644SOL    HW131391   3.977   0.187  15.432  0.6560 -2.3088 -1.7867
 6644SOL    HW231392   4.068   0.305  15.444  1.3637 -0.6485 -1.5936
 6645SOL     OW31393   3.984   2.548   9.046 -0.1168  0.1111  0.1937
 6645SOL    HW131394   4.019   2.466   9.079  2.7265  0.6438 -1.4330
 6645SOL    HW231395   3.928   2.575   9.118 -0.2109  0.2832  0.0579
 6646SOL     OW31396   3.943   2.755   5.612 -0.0772  0.5851 -0.5446
 6646SOL    HW131397   3.983   2.675   5.647  1.0890  0.5807 -1.8773
 6646SOL    HW231398   4.020   2.812   5.610  0.6277 -0.4612 -2.8659
 6647SOL     OW31399   3.360   1.702   6.576 -0.0929 -0.3519 -0.3619
 6647SOL    HW131400   3.304   1.711   6.653 -3.1099 -0.3298 -2.5766
 6647SOL    HW231401   3.336   1.613   6.553  0.2489 -0.6663  0.5096
 6648SOL     OW31402   0.643   2.126   6.637 -0.0484  0.4206 -0.0304
 6648SOL    HW131403   0.569   2.162   6.687  1.0977  2.0072  0.5112
 6648SOL    HW231404   0.712   2.143   6.701  0.8326 -0.9526 -0.6325
 6649SOL     OW31405   1.638   4.392   0.390 -0.2154  0.0595 -0.2084
 6649SOL    HW131406   1.695   4.409   0.465 -0.1031 -2.5093  0.2889
 6649SOL    HW231407   1.643   4.477   0.346 -1.2464  0.3531  0.2300
 6650SOL     OW31408   1.170   2.576   8.894  0.1629  0.3535  0.0549
 6650SOL    HW131409   1.189   2.564   8.987 -0.5557  0.9528  0.2810
 6650SOL    HW231410   1.253   2.536   8.868  1.4949  1.6679  2.3173
 6651SOL     OW31411   0.948   1.266  15.325 -0.4863 -0.1590  0.1465
 6651SOL    HW131412   0.895   1.345  15.318  1.1068  1.0157  1.2124
 6651SOL    HW231413   0.963   1.260  15.420  0.9646  2.6989  0.1083
 6652SOL     OW31414   0.713   3.916   7.969 -0.7719 -0.0265  0.2343
 6652SOL    HW131415   0.749   4.004   7.959 -0.0774 -0.3662 -0.2254
 6652SOL    HW231416   0.646   3.919   7.901 -1.1870  0.5010  0.6704
 6653SOL     OW31417   3.470   3.759   6.478  0.5324  0.9550 -0.2812
 6653SOL    HW131418   3.416   3.764   6.557  1.1473 -1.2871  0.2776
 6653SOL    HW231419   3.409   3.756   6.405 -0.7986  1.0097  0.8327
 6654SOL     OW31420   4.260   0.873   5.264 -0.1295  0.0527 -0.1469
 6654SOL    HW131421   4.285   0.965   5.273 -3.4138  0.9255 -0.1288
 6654SOL    HW231422   4.218   0.861   5.349 -1.1182 -1.2072 -0.8112
 6655SOL     OW31423   2.634   2.444   5.710 -0.0629  0.2193  0.0772
 6655SOL    HW131424   2.718   2.488   5.709 -0.8157  1.7029  1.4668
 6655SOL    HW231425   2.647   2.369   5.652 -0.0026  0.2489  0.0533
 6656SOL     OW31426   3.516   0.245  13.609 -0.0368  0.2297 -0.5426
 6656SOL    HW131427   3.608   0.254  13.632 -0.0177 -1.0954 -0.0732
 6656SOL    HW231428   3.506   0.262  13.515 -1.0199  2.3138 -0.0656
 6657SOL     OW31429   0.569   1.979   3.665 -0.0012  0.5682 -0.2051
 6657SOL    HW131430   0.599   2.020   3.583  3.1709 -0.8611  0.2400
 6657SOL    HW231431   0.549   2.049   3.726  2.6705  0.2512  1.0126
 6658SOL     OW31432   1.290   1.014  16.775 -0.2373  0.4542 -0.1401
 6658SOL    HW131433   1.377   0.974  16.775 -0.2062  0.5231  0.2743
 6658SOL    HW231434   1.265   1.014  16.867  0.6109  1.1859  0.0836
 6659SOL     OW31435   1.436   1.068  11.422 -0.1531 -0.0457 -0.0405
 6659SOL    HW131436   1.369   1.086  11.356  1.5816  0.5171 -1.6262
 6659SOL    HW231437   1.455   0.982  11.385 -1.0184  0.1102 -0.8228
 6660SOL     OW31438   0.846   1.784   8.001  0.3276  0.0482 -0.3845
 6660SOL    HW131439   0.809   1.823   8.080  2.5220 -0.1302  0.7430
 6660SOL    HW231440   0.817   1.692   8.004 -2.6251  0.9366 -1.5943
 6661SOL     OW31441   2.280   1.693   5.818  0.2747  0.4266 -0.8397
 6661SOL    HW131442   2.325   1.618   5.855 -1.1309 -0.4272 -0.8548
 6661SOL    HW231443   2.342   1.758   5.850  0.9591 -0.4519 -0.4076
 6662SOL     OW31444   0.438   2.895  10.637  0.0851 -0.1153  0.5358
 6662SOL    HW131445   0.374   2.950  10.681  0.3002  0.9135 -0.4195
 6662SOL    HW231446   0.390   2.867  10.558  0.8624  0.3398 -0.1028
 6663SOL     OW31447   3.849   3.396   8.489  0.3323  0.0512 -0.2481
 6663SOL    HW131448   3.886   3.371   8.573  1.3040  1.4210 -0.2639
 6663SOL    HW231449   3.756   3.403   8.512  1.0549 -1.3671  3.0482
 6664SOL     OW31450   3.210   1.875   2.933 -0.0299  0.0800 -0.7061
 6664SOL    HW131451   3.164   1.902   3.012  1.8423  1.6711 -0.1423
 6664SOL    HW231452   3.169   1.935   2.871 -2.3122 -2.4743 -1.6758
 6665SOL     OW31453   3.747   3.327   6.431 -0.3447 -0.7121 -0.0698
 6665SOL    HW131454   3.673   3.382   6.458 -0.2778  0.8613 -3.1173
 6665SOL    HW231455   3.812   3.373   6.484 -0.3419 -1.6189  0.7082
 6666SOL     OW31456   0.718   3.149  13.060 -0.0915 -0.2742 -0.2987
 6666SOL    HW131457   0.654   3.216  13.037  1.4966  0.9706 -1.0424
 6666SOL    HW231458   0.663   3.073  13.041 -0.4248  0.1372 -0.9804
 6667SOL     OW31459   1.055   1.043   5.887 -0.0552 -0.1274  1.0897
 6667SOL    HW131460   1.106   1.087   5.818 -1.0550 -1.4349 -0.4784
 6667SOL    HW231461   1.074   1.111   5.951 -3.5067 -0.5007  2.4825
 6668SOL     OW31462   3.082   1.562  13.720  0.1770  0.3140 -0.5037
 6668SOL    HW131463   3.031   1.542  13.641 -2.0410  0.2871  0.9543
 6668SOL    HW231464   3.052   1.486  13.770 -0.9210 -1.9774 -4.6283
 6669SOL     OW31465   3.506   1.760  10.520  0.0173  0.2160 -0.7491
 6669SOL    HW131466   3.591   1.804  10.531 -0.4247  0.7229  0.7043
 6669SOL    HW231467   3.537   1.671  10.505 -1.5617 -0.2969 -0.9959
 6670SOL     OW31468   4.217   3.480  13.335  0.2052 -0.4505  0.5594
 6670SOL    HW131469   4.261   3.529  13.404  0.4397 -0.8651  0.6992
 6670SOL    HW231470   4.237   3.387  13.347 -1.6877 -0.4477  3.8061
 6671SOL     OW31471   2.102   3.600   3.829  0.0141 -0.0895  0.0922
 6671SOL    HW131472   2.008   3.594   3.812  0.0533  0.1291 -0.2073
 6671SOL    HW231473   2.123   3.662   3.759 -0.2089 -0.9875 -0.7571
 6672SOL     OW31474   0.033   2.066   2.708 -0.3516 -0.4851 -1.0524
 6672SOL    HW131475   4.701   1.988   2.719 -1.1773  0.0787 -1.2551
 6672SOL    HW231476   0.041   2.074   2.613  0.3318  1.8150 -0.8019
 6673SOL     OW31477   1.482   0.781   4.446  0.1549 -0.0774  0.2024
 6673SOL    HW131478   1.558   0.768   4.502  1.3435  1.8361 -0.9536
 6673SOL    HW231479   1.491   0.704   4.390  0.2571  0.9245 -1.1690
 6674SOL     OW31480   2.619   4.220  12.080  0.4082 -0.1186  0.3182
 6674SOL    HW131481   2.628   4.141  12.027  0.8017 -0.3311  0.6997
 6674SOL    HW231482   2.581   4.175  12.156 -0.0552  2.0147  1.3613
 6675SOL     OW31483   3.503   0.843   1.507  0.3954  0.1229 -0.0575
 6675SOL    HW131484   3.415   0.856   1.543  0.9358 -2.0265  2.0539
 6675SOL    HW231485   3.529   0.763   1.553  1.0302  0.4805  0.2009
 6676SOL     OW31486   0.353   2.873   2.337 -0.0883 -0.3542 -0.0594
 6676SOL    HW131487   0.400   2.826   2.406  0.8373  2.3370  1.1187
 6676SOL    HW231488   0.287   2.909   2.395  1.1691 -0.8062  1.6356
 6677SOL     OW31489   2.212   2.968  11.165  0.2445 -0.0468  0.5611
 6677SOL    HW131490   2.180   2.999  11.080 -0.4107 -2.6426 -0.1491
 6677SOL    HW231491   2.177   2.879  11.156  0.6781 -0.0439 -1.1853
 6678SOL     OW31492   2.339   2.393  14.152  0.3450  0.7423 -0.6253
 6678SOL    HW131493   2.429   2.422  14.165 -0.3756  4.1604 -3.1570
 6678SOL    HW231494   2.306   2.466  14.099  1.8138  2.8107  1.3299
 6679SOL     OW31495   1.769   3.121   6.315 -0.1339  0.2906  0.0957
 6679SOL    HW131496   1.676   3.099   6.304 -0.0580 -0.6606  1.3399
 6679SOL    HW231497   1.796   3.032   6.338 -0.8939 -0.1623 -0.7514
 6680SOL     OW31498   0.362   4.659  15.834  0.2197  0.2925 -0.8842
 6680SOL    HW131499   0.372   4.592  15.901 -3.1530 -1.2908 -1.9878
 6680SOL    HW231500   0.302   4.615  15.774 -0.1518  1.0598 -1.0765
 6681SOL     OW31501   0.705   2.866   6.811  0.2059 -0.7230  0.0041
 6681SOL    HW131502   0.653   2.808   6.867 -0.7898 -0.5483 -0.7482
 6681SOL    HW231503   0.635   2.895   6.753  1.4880  2.1220 -0.1382
 6682SOL     OW31504   3.186   3.404   1.745 -0.2429  0.1546 -0.1197
 6682SOL    HW131505   3.187   3.435   1.654  0.7190  0.9875  0.1789
 6682SOL    HW231506   3.113   3.343   1.742 -0.0412  0.0370 -2.3609
 6683SOL     OW31507   0.299   0.724   5.096 -0.7522 -0.0317  0.3273
 6683SOL    HW131508   0.393   0.725   5.108 -0.3876  2.6941 -2.8229
 6683SOL    HW231509   0.289   0.819   5.090 -1.5999 -0.1177  0.3090
 6684SOL     OW31510   3.725   0.823  15.528 -0.3732  0.5217  0.0439
 6684SOL    HW131511   3.813   0.788  15.517  0.8088  2.8016  2.3761
 6684SOL    HW231512   3.718   0.790  15.618 -1.0098 -2.7767 -1.2037
 6685SOL     OW31513   0.235   4.093   4.647  0.5718 -0.3251 -0.4762
 6685SOL    HW131514   0.280   4.124   4.568  1.1378 -0.1426 -0.0830
 6685SOL    HW231515   0.230   4.164   4.711 -0.4281 -0.2019 -0.6998
 6686SOL     OW31516   1.956   0.900   2.107 -0.4564 -0.1686  0.0649
 6686SOL    HW131517   1.958   0.904   2.011  0.7442  1.2920  0.1607
 6686SOL    HW231518   1.899   0.973   2.133 -0.6268  0.9527 -3.4602
 6687SOL     OW31519   1.872   0.263  12.260  0.1205  0.2964 -0.2338
 6687SOL    HW131520   1.875   0.345  12.309  0.1232 -1.2750  2.4419
 6687SOL    HW231521   1.893   0.195  12.324  0.2657  0.1099 -0.4798
 6688SOL     OW31522   3.235   1.663   3.111  0.4065  0.1405  0.0227
 6688SOL    HW131523   3.300   1.597   3.086  1.5623  0.9776  0.7884
 6688SOL    HW231524   3.226   1.715   3.031  1.6568  1.4430  0.7213
 6689SOL     OW31525   2.078   4.390   8.357 -0.4567  0.7207  0.3132
 6689SOL    HW131526   2.110   4.445   8.429  1.4392 -0.7202  0.5547
 6689SOL    HW231527   2.110   4.306   8.390 -1.6113  1.1475  2.5465
 6690SOL     OW31528   1.985   2.682   1.252 -0.0575 -0.1487  0.0755
 6690SOL    HW131529   2.022   2.672   1.340 -1.2906  1.5212  0.7827
 6690SOL    HW231530   1.913   2.738   1.282  0.5418  1.6997 -1.9249
 6691SOL     OW31531   4.246   1.063   7.654  0.1967 -0.4365 -0.0508
 6691SOL    HW131532   4.188   1.107   7.592 -1.2091 -0.0670  1.5189
 6691SOL    HW231533   4.262   0.983   7.606  2.7261 -0.4213  0.7738
 6692SOL     OW31534   0.303   0.458   7.814  0.4313  0.1096 -0.2010
 6692SOL    HW131535   0.256   0.376   7.799 -1.5908  1.0661  0.8803
 6692SOL    HW231536   0.245   0.489   7.884 -2.5926  0.7889 -3.0720
 6693SOL     OW31537   2.185   4.649  13.533 -0.4706  0.0817 -0.2701
 6693SOL    HW131538   2.244   4.713  13.574 -0.4878 -0.6615  0.9115
 6693SOL    HW231539   2.125   4.634  13.606  0.2036  1.6415  0.6195
 6694SOL     OW31540   3.164   1.978   3.790 -0.4890 -0.2365  0.0024
 6694SOL    HW131541   3.144   1.910   3.853  0.8536 -0.2698  0.3905
 6694SOL    HW231542   3.236   2.030   3.825 -0.3052  0.3053 -1.1646
 6695SOL     OW31543   0.941   0.540   4.627 -0.0014 -0.1075 -0.6565
 6695SOL    HW131544   0.956   0.459   4.675  0.5773  1.0872  1.1971
 6695SOL    HW231545   0.847   0.534   4.612 -0.1664  0.0632  0.3210
 6696SOL     OW31546   0.364   3.295   4.451  0.3889 -0.4699 -0.1109
 6696SOL    HW131547   0.429   3.297   4.521 -1.3493  1.4608  1.4724
 6696SOL    HW231548   0.286   3.305   4.505 -0.4440  1.0981 -1.5623
 6697SOL     OW31549   3.419   1.558   5.007  0.2748  0.2897  0.7277
 6697SOL    HW131550   3.484   1.575   4.939 -0.7986 -1.1931 -0.6770
 6697SOL    HW231551   3.347   1.614   4.976  1.9872  2.4238  0.6263
 6698SOL     OW31552   4.471   0.719   9.167  0.0628  0.3961 -0.1702
 6698SOL    HW131553   4.530   0.711   9.241 -0.6083 -1.6317  0.1466
 6698SOL    HW231554   4.430   0.803   9.185  0.5711  0.5618  0.2050
 6699SOL     OW31555   0.189   2.896  16.298 -0.6126 -0.9001 -0.1122
 6699SOL    HW131556   0.259   2.956  16.273 -1.7186  1.0964  1.5344
 6699SOL    HW231557   0.195   2.831  16.228  1.7483  1.0543 -1.7247
 6700SOL     OW31558   2.691   2.708  12.231 -0.2061  0.0551  0.5110
 6700SOL    HW131559   2.697   2.643  12.300 -0.8902  0.6644  1.1507
 6700SOL    HW231560   2.624   2.766  12.267 -0.8848 -1.8788  2.3551
 6701SOL     OW31561   2.027   1.751  12.936  0.0587 -0.2241 -0.2188
 6701SOL    HW131562   1.941   1.776  12.970 -0.3183  0.1929 -1.4774
 6701SOL    HW231563   2.090   1.800  12.989 -0.8957  0.2520  0.4786
 6702SOL     OW31564   3.367   3.073   9.055 -0.2363  0.0594  0.5652
 6702SOL    HW131565   3.331   3.008   9.116  0.6333 -0.9894 -0.0479
 6702SOL    HW231566   3.462   3.068   9.050 -0.1841  2.2611 -0.7479
 6703SOL     OW31567   1.775   4.162   3.972  0.3474  0.6367 -0.3064
 6703SOL    HW131568   1.849   4.196   3.921  0.9691 -2.1707 -1.2597
 6703SOL    HW231569   1.786   4.068   3.985 -2.3902  0.5508  1.3340
 6704SOL     OW31570   2.219   1.383   4.261 -0.1600 -0.0048 -0.0506
 6704SOL    HW131571   2.275   1.395   4.185 -2.3570  1.1560 -1.4953
 6704SOL    HW231572   2.255   1.452   4.317  0.9416 -0.8421  0.2693
 6705SOL     OW31573   0.166   1.203   7.757 -0.3567 -0.2479 -0.4310
 6705SOL    HW131574   0.253   1.191   7.719 -0.0559 -0.7140  0.3998
 6705SOL    HW231575   0.181   1.179   7.848 -0.9329 -1.6207 -0.6949
 6706SOL     OW31576   3.054   1.281   0.449 -0.3229 -0.6675 -0.4485
 6706SOL    HW131577   3.061   1.238   0.533 -2.1419 -1.7429 -0.8377
 6706SOL    HW231578   3.096   1.366   0.461 -2.1249 -0.0550  1.4857
 6707SOL     OW31579   3.833   1.305  15.656 -0.7780  0.5910  0.2428
 6707SOL    HW131580   3.814   1.391  15.693  0.1050  1.2977 -0.9600
 6707SOL    HW231581   3.926   1.307  15.676 -1.1217  1.3873  1.7787
 6708SOL     OW31582   3.138   4.416   4.439  0.1239  0.1771 -0.2388
 6708SOL    HW131583   3.124   4.325   4.412 -0.9729  0.5016 -0.7497
 6708SOL    HW231584   3.132   4.402   4.534  1.1525  1.5377  0.0160
 6709SOL     OW31585   3.322   3.968  10.659  0.3316  0.1268 -0.2495
 6709SOL    HW131586   3.336   3.874  10.651  1.0502 -0.0283  2.5463
 6709SOL    HW231587   3.284   3.979  10.572  0.1512 -0.1088 -0.2001
 6710SOL     OW31588   4.096   0.939  17.059 -0.3537 -0.0320 -0.1132
 6710SOL    HW131589   4.093   1.026  17.099  3.0925 -0.8121  1.8037
 6710SOL    HW231590   4.117   0.960  16.968 -1.4434 -0.3024 -0.4311
 6711SOL     OW31591   4.030   0.067   2.952  0.2612 -0.0936  0.8362
 6711SOL    HW131592   3.972   4.715   2.943 -0.0830  0.2086  0.4605
 6711SOL    HW231593   3.964   0.134   2.930 -0.6275 -0.9747  0.8290
 6712SOL     OW31594   4.157   2.560   3.381 -0.1778 -0.3641  0.2806
 6712SOL    HW131595   4.067   2.528   3.375  0.3214 -2.1152  1.8372
 6712SOL    HW231596   4.194   2.537   3.296 -2.4062 -0.6541 -0.5874
 6713SOL     OW31597   0.781   4.678   8.361  0.3587  0.2051  0.2844
 6713SOL    HW131598   0.861   4.679   8.413 -0.0648  0.6450  0.9168
 6713SOL    HW231599   0.801   0.025   8.300 -0.5625  0.4491  0.2605
 6714SOL     OW31600   3.148   2.571  13.162  0.8138  0.3281 -0.2397
 6714SOL    HW131601   3.065   2.607  13.133  1.5597  1.1261 -1.3596
 6714SOL    HW231602   3.194   2.601  13.084  0.0471  0.0494 -0.8028
 6715SOL     OW31603   2.772   2.447   4.383 -0.1608  0.4005 -0.6162
 6715SOL    HW131604   2.736   2.467   4.297  0.4090 -2.3161 -1.4924
 6715SOL    HW231605   2.718   2.370   4.403  0.0255  0.6494  0.8483
 6716SOL     OW31606   1.826   0.418   3.000 -0.0858  0.5020  0.2405
 6716SOL    HW131607   1.890   0.488   2.986  2.2390 -1.5595  0.5516
 6716SOL    HW231608   1.894   0.352   2.993  0.3641  0.9565  0.2994
 6717SOL     OW31609   0.031   2.955  10.989 -0.2749 -0.1445 -0.1633
 6717SOL    HW131610   4.690   3.024  10.972 -1.6256 -0.9734  1.6138
 6717SOL    HW231611   0.009   2.945  11.081  0.7092  1.5991  0.2620
 6718SOL     OW31612   3.156   4.306   8.702  0.7688 -0.3463  0.1240
 6718SOL    HW131613   3.219   4.260   8.759 -1.5717 -2.2446  1.1512
 6718SOL    HW231614   3.145   4.237   8.637 -0.7434 -0.0077  0.0346
 6719SOL     OW31615   3.272   3.921   4.119  0.0713 -0.4553 -0.4926
 6719SOL    HW131616   3.321   3.849   4.079  0.5093 -0.7335  0.5579
 6719SOL    HW231617   3.242   3.972   4.044  0.5407  0.0195 -0.3557
 6720SOL     OW31618   4.666   3.712   3.397  0.5369 -0.4265  0.4541
 6720SOL    HW131619   4.646   3.619   3.382  0.4340 -0.3636  0.2047
 6720SOL    HW231620   4.615   3.748   3.324 -1.9671 -2.0000  1.4184
 6721SOL     OW31621   3.480   4.195   3.663 -0.2266 -0.1490 -0.0776
 6721SOL    HW131622   3.405   4.241   3.702  1.0493  2.2828 -0.5086
 6721SOL    HW231623   3.459   4.102   3.667 -0.9469  0.0945  2.0182
 6722SOL     OW31624   3.563   2.610   4.673 -0.2050  0.3768 -0.4513
 6722SOL    HW131625   3.476   2.578   4.650 -0.4108  0.6940 -0.1174
 6722SOL    HW231626   3.560   2.591   4.767 -2.1353 -0.4066 -0.6648
 6723SOL     OW31627   0.246   4.571  12.414  0.7869 -0.0912 -0.0953
 6723SOL    HW131628   0.172   4.627  12.395  0.7649 -0.3894 -0.8986
 6723SOL    HW231629   0.314   4.638  12.404 -0.8295  1.6134  0.4042
 6724SOL     OW31630   4.634   0.639   2.044 -0.1220  0.1045  0.0116
 6724SOL    HW131631   4.618   0.709   2.107 -1.0570  0.6143 -0.8082
 6724SOL    HW231632   4.609   0.688   1.966  1.1732  0.6453 -0.0509
 6725SOL     OW31633   3.142   2.491   8.784 -0.1363  0.3725 -0.6625
 6725SOL    HW131634   3.052   2.495   8.817  0.3752 -1.3583  0.9581
 6725SOL    HW231635   3.149   2.398   8.761 -2.4626  0.4466 -1.6869
 6726SOL     OW31636   0.543   3.263   7.464  0.4165 -0.5917  0.2708
 6726SOL    HW131637   0.574   3.192   7.520  1.6924 -1.3241 -1.3617
 6726SOL    HW231638   0.628   3.287   7.428  0.5842 -1.1247  0.3142
 6727SOL     OW31639   1.867   4.688   7.027 -0.3599 -0.5998  0.7844
 6727SOL    HW131640   1.890   0.003   7.111 -1.7216  0.6699  0.5784
 6727SOL    HW231641   1.773   4.670   7.034 -0.3509 -1.8694 -2.1909
 6728SOL     OW31642   0.047   3.296   2.130  0.1688  0.3774 -0.4074
 6728SOL    HW131643   4.714   3.222   2.152  0.7194 -0.2311 -1.0329
 6728SOL    HW231644   4.716   3.370   2.157  0.8801  1.1167 -0.9885
 6729SOL     OW31645   1.310   3.875   3.006 -0.8730  0.4633  0.2608
 6729SOL    HW131646   1.319   3.961   2.963 -2.6255 -0.6487 -2.3390
 6729SOL    HW231647   1.355   3.806   2.957 -0.7952  0.6487  0.0676
 6730SOL     OW31648   1.216   4.398   4.037 -0.4960  0.0818  0.4118
 6730SOL    HW131649   1.130   4.365   4.011  0.1276 -0.4882 -0.9258
 6730SOL    HW231650   1.265   4.316   4.039 -1.6117 -0.5616  1.6671
 6731SOL     OW31651   1.512   3.706  17.484 -0.0049 -0.3800 -0.4551
 6731SOL    HW131652   1.494   3.703  17.390  1.5292  0.2227 -0.7687
 6731SOL    HW231653   1.551   3.793  17.488 -0.8432 -0.0647  0.8734
 6732SOL     OW31654   2.564   4.244   6.898 -0.5895  0.5169 -0.5370
 6732SOL    HW131655   2.553   4.319   6.957 -3.0708  0.8224 -1.4266
 6732SOL    HW231656   2.476   4.224   6.869 -0.1797 -3.0046  0.6277
 6733SOL     OW31657   2.607   0.660   7.269  0.0166 -0.5055  0.2472
 6733SOL    HW131658   2.648   0.576   7.247 -0.4237 -0.4392 -0.8443
 6733SOL    HW231659   2.514   0.646   7.282 -0.7584  1.2951 -3.2771
 6734SOL     OW31660   3.316   0.412   4.925 -0.3527  0.0899 -0.0764
 6734SOL    HW131661   3.302   0.319   4.910  0.1055 -0.2265  1.4067
 6734SOL    HW231662   3.232   0.455   4.908 -0.0922  0.2163 -1.0321
 6735SOL     OW31663   4.301   2.729  12.626 -0.1755  0.0565  0.2923
 6735SOL    HW131664   4.209   2.730  12.599  0.2177 -1.0264 -1.1141
 6735SOL    HW231665   4.344   2.774  12.553  1.2288  0.4329  1.3663
 6736SOL     OW31666   0.852   3.682   7.075  0.0532 -0.0355  0.7926
 6736SOL    HW131667   0.893   3.671   7.160  0.6603 -1.7658  0.2706
 6736SOL    HW231668   0.901   3.621   7.018  1.3021  0.7524  1.0192
 6737SOL     OW31669   2.144   2.665   0.981 -0.4038  0.2635 -0.5179
 6737SOL    HW131670   2.145   2.760   0.975  0.5901  0.2948  0.1373
 6737SOL    HW231671   2.083   2.659   1.055 -0.7551 -2.2685 -1.0144
 6738SOL     OW31672   1.868   1.042  12.318 -0.2412 -0.1419 -0.3861
 6738SOL    HW131673   1.773   1.055  12.327  0.0231  0.8410  0.9740
 6738SOL    HW231674   1.880   0.957  12.360  2.5929 -0.1974 -1.3223
 6739SOL     OW31675   0.119   2.785   2.682 -0.6981 -0.0617  0.2754
 6739SOL    HW131676   0.056   2.767   2.612  0.9692  0.2071 -1.2732
 6739SOL    HW231677   0.179   2.843   2.636 -0.0713 -0.3969  0.6674
 6740SOL     OW31678   4.668   1.069   1.807  0.2111 -0.3758  0.4190
 6740SOL    HW131679   4.704   1.158   1.808 -1.2234  0.2040  0.0317
 6740SOL    HW231680   4.681   1.029   1.721 -0.6350 -1.6056  0.8589
 6741SOL     OW31681   2.401   4.298   2.010 -0.8927 -0.3199 -0.0135
 6741SOL    HW131682   2.386   4.204   2.020  0.1714 -0.4281  0.6112
 6741SOL    HW231683   2.490   4.301   2.045 -1.1535 -0.2204  0.6291
 6742SOL     OW31684   2.775   4.471   0.146 -0.0709 -0.2204  0.2422
 6742SOL    HW131685   2.708   4.539   0.144 -1.3690 -1.5513 -1.8710
 6742SOL    HW231686   2.845   4.530   0.173 -0.9317  1.3721 -0.9598
 6743SOL     OW31687   1.540   1.327   6.944  0.6670  0.6888 -0.1884
 6743SOL    HW131688   1.596   1.395   6.982  0.5824 -0.2909  1.6318
 6743SOL    HW231689   1.601   1.262   6.909  1.6148  1.8041 -0.6163
 6744SOL     OW31690   1.994   3.163   3.226  0.0396 -0.6951 -0.3393
 6744SOL    HW131691   2.090   3.156   3.225 -0.0655 -1.9172 -1.6647
 6744SOL    HW231692   1.984   3.182   3.132  2.0616 -0.2668 -0.4733
 6745SOL     OW31693   2.376   4.502   6.092  0.3197 -0.0245 -0.5868
 6745SOL    HW131694   2.364   4.417   6.051 -0.1420 -0.1061 -0.2871
 6745SOL    HW231695   2.290   4.529   6.125  0.3908 -1.5908  0.8740
 6746SOL     OW31696   4.060   1.639   9.355 -0.6358 -0.4191 -0.4060
 6746SOL    HW131697   4.015   1.663   9.436  0.2614 -0.4006  0.0924
 6746SOL    HW231698   3.997   1.574   9.324  1.5445 -1.8906 -1.7284
 6747SOL     OW31699   1.344   3.676  12.473 -0.3815  0.1451 -0.2352
 6747SOL    HW131700   1.426   3.659  12.518  0.3803  3.7748 -0.2396
 6747SOL    HW231701   1.366   3.766  12.446 -0.6518  0.7615  1.5923
 6748SOL     OW31702   2.943   0.327   1.826 -0.2875  0.7344 -0.5339
 6748SOL    HW131703   3.035   0.317   1.853  0.4759 -0.5249 -3.5575
 6748SOL    HW231704   2.911   0.382   1.898  0.4637 -1.1776  1.2722
 6749SOL     OW31705   3.003   2.222   6.065  0.2311  1.0880  0.6089
 6749SOL    HW131706   2.992   2.300   6.120 -0.3996  0.9111  0.7346
 6749SOL    HW231707   2.932   2.236   6.002 -2.3396 -4.3624  2.3044
 6750SOL     OW31708   2.341   1.224   2.520 -0.1229  0.3222 -0.0888
 6750SOL    HW131709   2.295   1.277   2.455  0.7509  0.4822 -0.5779
 6750SOL    HW231710   2.374   1.288   2.583  1.9440 -1.6951  0.8515
 6751SOL     OW31711   3.158   4.562   3.041 -0.0472  0.1252  0.1371
 6751SOL    HW131712   3.148   4.475   3.002 -0.0372 -0.0717  0.5696
 6751SOL    HW231713   3.184   4.526   3.126  1.9015  1.9989  0.3287
 6752SOL     OW31714   2.431   4.398   8.658  0.0749 -0.4301 -0.4949
 6752SOL    HW131715   2.466   4.441   8.580  0.8544 -1.5430 -0.7514
 6752SOL    HW231716   2.476   4.315   8.646  0.8503  0.1215 -1.3973
 6753SOL     OW31717   3.874   0.049   9.299 -0.1737  0.2508  0.6510
 6753SOL    HW131718   3.778   0.059   9.300 -0.3783 -1.6685 -0.2311
 6753SOL    HW231719   3.882   4.683   9.333 -0.7453 -0.0634 -0.0233
 6754SOL     OW31720   4.231   0.244  11.808  0.3872  0.0608  0.2478
 6754SOL    HW131721   4.291   0.269  11.878 -3.3356  0.9811  3.1643
 6754SOL    HW231722   4.194   0.161  11.837  0.1665  0.5687  1.4452
 6755SOL     OW31723   4.325   1.078   5.501  0.6743 -0.6427  0.6531
 6755SOL    HW131724   4.396   1.074   5.438  1.5125 -2.5653  1.6963
 6755SOL    HW231725   4.274   1.145   5.455  0.4805 -1.7359 -0.7378
 6756SOL     OW31726   0.478   2.984   2.709 -0.4141  0.0429 -0.3872
 6756SOL    HW131727   0.559   2.935   2.696 -0.6531 -0.6345  0.7089
 6756SOL    HW231728   0.504   3.050   2.774  0.6978 -0.1513 -0.6350
 6757SOL     OW31729   3.660   3.649  14.322 -0.4309 -0.0475  0.4244
 6757SOL    HW131730   3.726   3.644  14.253 -0.1504  1.5932  0.5818
 6757SOL    HW231731   3.595   3.699  14.272 -0.6899 -0.1209  0.6846
 6758SOL     OW31732   4.504   1.091   4.702  0.4253 -0.1394  0.2765
 6758SOL    HW131733   4.476   1.018   4.648  3.3365 -1.0467 -0.0243
 6758SOL    HW231734   4.491   1.168   4.647 -1.5873 -0.2498  0.6140
 6759SOL     OW31735   0.780   3.668  17.053  0.3751 -0.2787  0.1106
 6759SOL    HW131736   0.690   3.703  17.049 -0.2789 -2.0220 -0.3617
 6759SOL    HW231737   0.757   3.577  17.036 -1.1608 -0.7547  4.5149
 6760SOL     OW31738   3.758   0.518   8.281  0.6991  0.0374 -0.6468
 6760SOL    HW131739   3.666   0.497   8.298  0.8468 -0.3421 -0.2985
 6760SOL    HW231740   3.783   0.589   8.340 -0.4437  0.3561 -0.5520
 6761SOL     OW31741   3.941   3.335   6.931 -0.2058 -0.0231 -0.1483
 6761SOL    HW131742   3.955   3.422   6.893 -0.4726  0.6890  1.3759
 6761SOL    HW231743   4.023   3.315   6.975 -0.2287  2.6066  1.0997
 6762SOL     OW31744   3.772   2.487   4.452 -0.1292 -0.0436  0.4402
 6762SOL    HW131745   3.790   2.398   4.423  1.2455  0.4125 -0.0958
 6762SOL    HW231746   3.677   2.495   4.452 -0.2055 -1.0412 -0.1759
 6763SOL     OW31747   3.152   1.573   7.557  0.2519 -0.0310  0.0881
 6763SOL    HW131748   3.081   1.626   7.520  0.8572  0.7091 -0.0003
 6763SOL    HW231749   3.112   1.486   7.562  0.4343 -0.1197 -0.0192
 6764SOL     OW31750   1.940   2.896   9.363  0.3910 -0.7017 -0.1003
 6764SOL    HW131751   1.943   2.970   9.425  0.0120 -1.2073  0.5177
 6764SOL    HW231752   1.930   2.942   9.280 -2.0368 -2.0285 -0.5192
 6765SOL     OW31753   0.067   0.873   6.605  0.0594  0.0027  0.1202
 6765SOL    HW131754   0.137   0.904   6.662 -0.5199  1.2084  0.1679
 6765SOL    HW231755   0.008   0.948   6.615  2.1790  1.5802  0.6916
 6766SOL     OW31756   3.366   2.127  11.872  0.0796  0.1330  0.2068
 6766SOL    HW131757   3.349   2.146  11.964 -1.2049 -0.7726  0.1552
 6766SOL    HW231758   3.312   2.049  11.867 -0.4828  0.6274 -1.4927
 6767SOL     OW31759   4.065   1.100   3.024  0.1008  0.5147 -0.2279
 6767SOL    HW131760   4.040   1.030   2.964 -0.2730 -0.3580  0.9377
 6767SOL    HW231761   4.071   1.057   3.109 -0.5891 -1.8297 -1.3622
 6768SOL     OW31762   1.935   0.123   4.360 -0.2939  0.1095 -0.0711
 6768SOL    HW131763   1.932   0.180   4.283 -0.4469  1.7904  1.1581
 6768SOL    HW231764   2.025   0.089   4.358 -0.5112 -0.4366 -0.3299
 6769SOL     OW31765   3.592   3.403   7.441 -0.7741 -0.0462 -0.1702
 6769SOL    HW131766   3.576   3.315   7.406  0.3577 -1.0561  1.8263
 6769SOL    HW231767   3.685   3.408   7.419 -0.0252 -0.4165  2.9903
 6770SOL     OW31768   0.331   2.175  16.736 -0.8123  0.2308 -0.3257
 6770SOL    HW131769   0.304   2.249  16.791 -0.4414 -0.9514  1.4223
 6770SOL    HW231770   0.358   2.114  16.803  0.6187 -0.5576 -1.6205
 6771SOL     OW31771   2.553   2.567   8.541 -0.0390 -0.3689 -0.3056
 6771SOL    HW131772   2.458   2.560   8.542 -0.1076  0.4676 -1.0244
 6771SOL    HW231773   2.565   2.561   8.636 -4.5544  0.0712  0.2893
 6772SOL     OW31774   2.925   2.078  10.051  0.0853 -0.1657 -0.0996
 6772SOL    HW131775   3.020   2.074  10.037  0.1966  0.6911  0.4103
 6772SOL    HW231776   2.907   2.172  10.058  0.5779 -0.0756 -0.0320
 6773SOL     OW31777   0.311   2.732   5.975 -0.0441  0.1635  0.7154
 6773SOL    HW131778   0.231   2.725   6.028 -0.4390  1.3582  0.2898
 6773SOL    HW231779   0.332   2.825   5.985 -0.0598  0.1947  0.4417
 6774SOL     OW31780   0.043   0.287   1.192  0.2674 -0.1115 -0.1159
 6774SOL    HW131781   0.046   0.318   1.283  1.0212 -1.1357  0.2084
 6774SOL    HW231782   0.136   0.266   1.184  0.1393 -0.9677  0.6202
 6775SOL     OW31783   3.642   3.783  11.881  0.0260  0.3176 -0.2659
 6775SOL    HW131784   3.705   3.782  11.954 -0.1078 -0.0170 -0.1582
 6775SOL    HW231785   3.700   3.767  11.807  0.6645 -2.9149  0.9556
 6776SOL     OW31786   0.924   4.197   5.796 -0.0102  0.2622 -0.2752
 6776SOL    HW131787   0.865   4.243   5.856  0.8739  0.6083  0.3280
 6776SOL    HW231788   0.996   4.259   5.782 -1.7903  1.8730 -2.3024
 6777SOL     OW31789   3.242   0.580  14.687  0.1485 -0.1261 -0.1941
 6777SOL    HW131790   3.171   0.619  14.636 -0.6053 -0.6375  0.4538
 6777SOL    HW231791   3.314   0.560  14.627  0.0106 -1.6683  0.1599
 6778SOL     OW31792   3.905   1.199   2.080  0.4849  0.0705 -0.2294
 6778SOL    HW131793   3.835   1.249   2.123  1.2597  1.5697 -0.7248
 6778SOL    HW231794   3.953   1.279   2.060  1.4426 -0.4672 -0.0930
 6779SOL     OW31795   0.904   1.335   1.528 -0.0567 -0.1684 -0.0287
 6779SOL    HW131796   0.874   1.358   1.440 -0.6340  2.1526  0.7889
 6779SOL    HW231797   0.983   1.285   1.509 -0.5513 -1.7684  2.1863
 6780SOL     OW31798   4.717   2.978  11.243  0.0491 -0.2096 -0.2240
 6780SOL    HW131799   4.715   3.070  11.266  1.2669 -0.2525  0.0402
 6780SOL    HW231800   4.676   2.946  11.324 -0.9184  2.2815  0.2521
 6781SOL     OW31801   1.067   0.749  16.923  0.6297 -0.2592 -0.4453
 6781SOL    HW131802   1.114   0.831  16.940  2.7870 -1.6906  0.5076
 6781SOL    HW231803   0.980   0.749  16.962  1.5727 -0.3852  1.6387
 6782SOL     OW31804   3.185   3.501   5.811  0.4385 -0.6905 -0.1299
 6782SOL    HW131805   3.225   3.582   5.842  0.7703 -1.6004  1.8274
 6782SOL    HW231806   3.143   3.463   5.888 -0.2885  0.5165  0.0704
 6783SOL     OW31807   3.467   1.921   2.948  0.4176  0.3168  1.2053
 6783SOL    HW131808   3.374   1.901   2.939  0.4865  0.2081  0.7383
 6783SOL    HW231809   3.492   1.872   3.027 -0.2486 -2.7831 -0.5169
 6784SOL     OW31810   4.383   1.074   2.641 -0.6673  0.3898  0.0524
 6784SOL    HW131811   4.346   0.987   2.651 -0.7210  0.6527  2.1636
 6784SOL    HW231812   4.361   1.094   2.550  0.1967  1.5674  0.0997
 6785SOL     OW31813   2.749   4.018   4.753 -0.0010  0.1791 -0.2299
 6785SOL    HW131814   2.691   3.943   4.743 -0.2950  0.3118  0.4898
 6785SOL    HW231815   2.680   4.084   4.746 -1.3335 -1.4919 -2.8398
 6786SOL     OW31816   0.759   3.643   4.269 -0.0018 -0.6238 -0.0278
 6786SOL    HW131817   0.673   3.682   4.253 -0.0879 -0.9047 -0.2500
 6786SOL    HW231818   0.818   3.718   4.278 -0.6602 -0.2389  1.1585
 6787SOL     OW31819   3.733   0.713  10.326  0.6487 -0.4378  0.6880
 6787SOL    HW131820   3.657   0.671  10.367  0.5999 -0.9825  0.0534
 6787SOL    HW231821   3.784   0.634  10.307  0.3754 -0.4279 -0.1102
 6788SOL     OW31822   1.419   0.591   3.696  0.2065 -1.0148 -0.0006
 6788SOL    HW131823   1.329   0.570   3.670  0.8430 -2.6353 -0.9128
 6788SOL    HW231824   1.455   0.505   3.717  0.9721 -0.8594 -0.6335
 6789SOL     OW31825   1.627   2.796   4.367  0.2695  0.2562  0.0074
 6789SOL    HW131826   1.536   2.819   4.383  0.7061  0.9484  1.5096
 6789SOL    HW231827   1.630   2.720   4.425 -1.3352 -0.9319 -1.4893
 6790SOL     OW31828   2.722   3.443   4.689 -0.1090  0.0273  0.1379
 6790SOL    HW131829   2.736   3.538   4.689 -1.1492  0.1814 -1.2390
 6790SOL    HW231830   2.801   3.424   4.639 -0.4199 -3.2040  0.8330
 6791SOL     OW31831   4.084   0.203   2.564  0.5938  0.3532 -0.1067
 6791SOL    HW131832   4.002   0.200   2.514  1.7772  1.8175 -2.1140
 6791SOL    HW231833   4.147   0.164   2.504 -1.2338 -1.4064 -0.9201
 6792SOL     OW31834   1.096   3.534   4.358 -0.6303  0.3839  0.1949
 6792SOL    HW131835   1.003   3.557   4.354 -0.5286  1.1501  2.3229
 6792SOL    HW231836   1.125   3.527   4.267 -0.5425 -0.2366  0.2728
 6793SOL     OW31837   2.352   3.090   6.585  0.2862 -0.3481 -0.0632
 6793SOL    HW131838   2.388   3.040   6.512 -0.7613 -1.2485  0.0415
 6793SOL    HW231839   2.329   3.166   6.532  1.3650 -0.3836 -0.5943
 6794SOL     OW31840   1.892   1.151   7.916  0.1640 -0.3184  0.0755
 6794SOL    HW131841   1.796   1.151   7.916  0.1680 -0.5565  0.8615
 6794SOL    HW231842   1.902   1.120   8.006 -0.7418  0.2364  0.3798
 6795SOL     OW31843   0.157   0.341   7.352  0.6382  0.2906 -0.3032
 6795SOL    HW131844   0.230   0.330   7.413 -0.0999 -0.1566  0.5066
 6795SOL    HW231845   0.202   0.383   7.279  0.7502 -2.7084 -1.9521
 6796SOL     OW31846   1.503   3.716   2.032  0.0105 -0.2778  0.4151
 6796SOL    HW131847   1.555   3.757   1.962 -2.3210  2.3279  0.2344
 6796SOL    HW231848   1.557   3.644   2.065 -0.9110 -0.7524  0.8719
 6797SOL     OW31849   0.490   3.499   4.639  0.5799  0.2039  0.2559
 6797SOL    HW131850   0.417   3.526   4.693 -0.0859 -1.4753  0.2053
 6797SOL    HW231851   0.552   3.465   4.704 -1.9416 -3.1241  0.9327
 6798SOL     OW31852   4.473   2.458  11.151  0.2549 -0.9117 -0.2806
 6798SOL    HW131853   4.528   2.397  11.200 -0.6946 -1.0457  0.6211
 6798SOL    HW231854   4.395   2.457  11.207 -0.0674 -1.6209 -0.7415
 6799SOL     OW31855   2.386   2.778   6.101 -0.6962  0.0838 -0.5299
 6799SOL    HW131856   2.408   2.725   6.177  0.2347  2.7896  1.0946
 6799SOL    HW231857   2.462   2.772   6.043 -0.7349 -0.2720 -0.5451
 6800SOL     OW31858   0.384   1.578   8.664 -0.3599  0.2134 -0.3090
 6800SOL    HW131859   0.311   1.526   8.697 -0.0352 -0.1729 -0.1881
 6800SOL    HW231860   0.414   1.625   8.741  0.1503 -0.1704 -0.2727
 6801SOL     OW31861   2.978   1.977   3.588  0.1132  0.0243  0.3479
 6801SOL    HW131862   3.039   2.009   3.522  0.4867 -0.4182  0.4810
 6801SOL    HW231863   3.037   1.960   3.661 -1.1173 -0.8491  1.1288
 6802SOL     OW31864   4.639   4.249   9.076 -0.5874 -0.1088  0.2137
 6802SOL    HW131865   4.723   4.266   9.118  0.0240 -0.1411 -1.0038
 6802SOL    HW231866   4.641   4.154   9.079 -1.0388 -0.1155  0.3400
 6803SOL     OW31867   1.534   3.534   6.358 -0.1389  0.5226  0.3703
 6803SOL    HW131868   1.527   3.489   6.274 -0.2546  0.1247  0.5943
 6803SOL    HW231869   1.618   3.578   6.344 -0.4235  1.2718  1.0002
 6804SOL     OW31870   1.555   3.547   4.658 -0.4336  0.1255 -0.4741
 6804SOL    HW131871   1.582   3.638   4.648 -0.0129  0.3560  2.7556
 6804SOL    HW231872   1.462   3.559   4.680 -0.2158  0.9667 -0.0209
 6805SOL     OW31873   1.867   3.661   0.064  0.1625 -0.1719  0.4333
 6805SOL    HW131874   1.788   3.607   0.058  0.3635 -0.1155 -2.6988
 6805SOL    HW231875   1.846   3.732   0.004 -0.7239  0.1742  1.1441
 6806SOL     OW31876   3.407   3.256   8.368 -0.0714  0.0622  0.2456
 6806SOL    HW131877   3.490   3.208   8.375 -1.4906 -2.3332  0.7435
 6806SOL    HW231878   3.394   3.289   8.457 -0.8082  1.8018 -0.5050
 6807SOL     OW31879   2.361   3.303   6.425  0.5735 -0.1577  0.3464
 6807SOL    HW131880   2.306   3.367   6.378 -2.0406 -0.9215  2.3763
 6807SOL    HW231881   2.442   3.352   6.432  0.4938 -0.0024  0.1886
 6808SOL     OW31882   3.064   0.880   5.908 -0.4784  0.2456  0.3621
 6808SOL    HW131883   3.134   0.945   5.922  0.8070 -1.2780  0.9899
 6808SOL    HW231884   2.981   0.921   5.932 -1.3207 -0.7621 -0.8649
 6809SOL     OW31885   1.256   2.530   5.576 -0.1457 -0.7232 -0.2283
 6809SOL    HW131886   1.162   2.535   5.564 -0.2993  0.0110  1.3060
 6809SOL    HW231887   1.266   2.595   5.646 -2.0651 -1.2494  0.5379
 6810SOL     OW31888   0.164   4.029  12.331  0.5742 -0.1566 -0.6869
 6810SOL    HW131889   0.216   4.098  12.370 -2.1364  0.9012  0.9905
 6810SOL    HW231890   0.138   3.977  12.407 -1.2804  2.0565  0.1820
 6811SOL     OW31891   3.763   1.857   4.614  0.1674 -0.8578 -0.1536
 6811SOL    HW131892   3.838   1.899   4.656 -0.9252  0.9986 -0.0096
 6811SOL    HW231893   3.801   1.824   4.534  2.4053 -2.1448  1.4609
 6812SOL     OW31894   2.695   1.640  11.906  0.3704  0.1684 -0.6458
 6812SOL    HW131895   2.674   1.594  11.988 -0.1456  1.0281 -0.3002
 6812SOL    HW231896   2.610   1.636  11.862 -0.7214  2.2649  1.2432
 6813SOL     OW31897   0.600   1.804   6.218 -0.0457  0.0738  0.1806
 6813SOL    HW131898   0.516   1.761   6.236  0.6908 -1.6407 -0.5141
 6813SOL    HW231899   0.605   1.852   6.302  0.0457  1.1940 -0.4625
 6814SOL     OW31900   2.364   0.886   6.125 -0.2905  0.6278 -0.3972
 6814SOL    HW131901   2.341   0.907   6.034  1.4024 -0.7746 -1.1254
 6814SOL    HW231902   2.397   0.798   6.107 -1.1427  0.4142 -0.9413
 6815SOL     OW31903   1.384   4.163  17.666  0.9011 -0.8033  0.2558
 6815SOL    HW131904   1.302   4.168   0.020  1.8749  1.9098  1.6230
 6815SOL    HW231905   1.354   4.228  17.601  1.1842  1.0829  2.0295
 6816SOL     OW31906   2.575   4.714   3.465  0.1901 -0.2192  0.3864
 6816SOL    HW131907   2.527   4.674   3.538 -1.1942 -0.5038 -0.6969
 6816SOL    HW231908   2.579   0.079   3.501 -1.4347 -0.3574  0.9193
 6817SOL     OW31909   4.107   3.408   3.840  0.0098 -0.2471 -0.0607
 6817SOL    HW131910   4.182   3.357   3.810  2.1780  2.9206 -0.1405
 6817SOL    HW231911   4.141   3.471   3.904  0.8514 -0.8411  0.0631
 6818SOL     OW31912   1.238   3.902   7.824  1.2285  0.0096 -0.0086
 6818SOL    HW131913   1.190   3.933   7.901 -0.6707 -1.3742 -0.6275
 6818SOL    HW231914   1.298   3.975   7.809 -1.7486  2.0838 -1.7065
 6819SOL     OW31915   1.391   2.005  17.546 -0.2554  0.4230 -0.4477
 6819SOL    HW131916   1.430   1.919  17.558  0.5978  0.8588 -0.1257
 6819SOL    HW231917   1.366   2.013  17.454  0.6297  0.1707 -0.7105
 6820SOL     OW31918   1.146   1.997   7.730  0.2959  0.1444 -0.4505
 6820SOL    HW131919   1.151   1.972   7.822  0.1787  1.2364 -0.1487
 6820SOL    HW231920   1.228   1.964   7.693  1.7047  2.7392  0.3381
 6821SOL     OW31921   4.396   4.406   4.460 -0.3987 -0.0507  0.2415
 6821SOL    HW131922   4.419   4.482   4.406 -0.5064 -0.3996 -0.2962
 6821SOL    HW231923   4.338   4.446   4.524  1.0002  0.9546  0.8798
 6822SOL     OW31924   4.135   3.742   4.200  0.0766 -0.3628 -0.2637
 6822SOL    HW131925   4.183   3.809   4.248  0.3576 -0.8189  0.0889
 6822SOL    HW231926   4.081   3.809   4.158 -1.9121  0.1534  3.1536
 6823SOL     OW31927   3.793   1.318   0.930 -0.1750 -0.2346  0.2109
 6823SOL    HW131928   3.870   1.272   0.895 -2.9836 -4.7840  0.0148
 6823SOL    HW231929   3.769   1.362   0.848  1.1693  0.4485  0.1683
 6824SOL     OW31930   0.186   0.096   1.693 -0.5619 -0.2443 -0.5990
 6824SOL    HW131931   0.184   0.006   1.725 -1.7952 -0.3415 -0.9475
 6824SOL    HW231932   0.228   0.144   1.764 -3.5514  1.6619 -0.1240
 6825SOL     OW31933   2.878   1.153   3.844  0.6707 -0.2778 -0.3640
 6825SOL    HW131934   2.924   1.083   3.892 -0.4740 -1.5298 -1.0967
 6825SOL    HW231935   2.873   1.225   3.907 -0.6925  0.0920 -0.9039
 6826SOL     OW31936   3.118   2.425   0.703 -0.2218 -0.3480  0.7131
 6826SOL    HW131937   3.172   2.451   0.777  0.2926 -0.0439  0.2259
 6826SOL    HW231938   3.128   2.330   0.704  0.7651 -0.1894  3.2480
 6827SOL     OW31939   3.570   0.225  14.390 -0.4576  0.5193  0.4967
 6827SOL    HW131940   3.519   0.159  14.343  0.5730  0.1441 -0.0986
 6827SOL    HW231941   3.642   0.182  14.434  0.3478 -1.8334 -3.1311
 6828SOL     OW31942   4.001   3.725   2.004  0.0138 -0.2073  0.3327
 6828SOL    HW131943   3.975   3.637   2.030 -0.8354 -0.4532 -1.3593
 6828SOL    HW231944   3.927   3.771   2.045  1.1235  2.8942 -1.1641
 6829SOL     OW31945   0.175   1.938  17.326 -0.0060 -0.2525  0.2245
 6829SOL    HW131946   0.241   1.877  17.360 -0.3026 -1.5803 -1.6092
 6829SOL    HW231947   0.149   1.900  17.242  0.8443 -1.1512  0.3636
 6830SOL     OW31948   0.582   0.903   6.559  0.3622 -0.4153 -0.1907
 6830SOL    HW131949   0.581   0.964   6.633 -2.9994 -0.0303 -0.5400
 6830SOL    HW231950   0.489   0.899   6.538  0.3607 -0.5723 -0.1535
 6831SOL     OW31951   1.829   2.290   3.584 -0.6040  0.0670 -0.4995
 6831SOL    HW131952   1.862   2.299   3.674 -1.2455 -0.5981 -0.2015
 6831SOL    HW231953   1.777   2.370   3.572 -3.7160 -1.8022  0.6838
 6832SOL     OW31954   3.242   1.865  12.886  0.0097  0.3662  0.5859
 6832SOL    HW131955   3.241   1.960  12.871  0.9196  0.3352  0.3252
 6832SOL    HW231956   3.334   1.847  12.868 -0.9781 -1.4921 -2.5565
 6833SOL     OW31957   2.536   2.687  15.008  0.7523 -0.2192  0.3901
 6833SOL    HW131958   2.500   2.726  15.088 -0.2183 -0.5927  0.1364
 6833SOL    HW231959   2.576   2.605  15.037  0.9057 -1.1778 -2.4881
 6834SOL     OW31960   1.818   3.391   9.594 -0.5476 -0.0049 -0.5528
 6834SOL    HW131961   1.898   3.409   9.544 -0.6233  3.3163  0.5035
 6834SOL    HW231962   1.743   3.402   9.536 -1.5385 -0.1674  0.7112
 6835SOL     OW31963   1.176   4.215   4.540 -0.5196 -0.1836 -0.2569
 6835SOL    HW131964   1.114   4.203   4.468 -2.3922  1.7069  1.0916
 6835SOL    HW231965   1.153   4.294   4.588  0.1866 -0.1416  0.0197
 6836SOL     OW31966   2.861   0.326   5.530 -0.1129  0.5392  0.4707
 6836SOL    HW131967   2.788   0.386   5.542 -0.6007  0.2105 -0.8624
 6836SOL    HW231968   2.817   0.270   5.466 -2.4704 -1.3205  3.7444
 6837SOL     OW31969   3.254   1.002   2.588  0.7490 -0.0185 -0.1356
 6837SOL    HW131970   3.292   0.916   2.607 -1.8066 -1.3442 -1.0532
 6837SOL    HW231971   3.194   1.007   2.663  3.1808  1.3057  1.7208
 6838SOL     OW31972   3.342   1.150  15.072 -0.4124  0.4380  0.7217
 6838SOL    HW131973   3.392   1.232  15.068  0.2626  0.1297  3.0706
 6838SOL    HW231974   3.318   1.153  15.164  0.2107 -1.3695  0.9389
 6839SOL     OW31975   1.829   2.356   2.489  0.6097 -0.2209 -0.1131
 6839SOL    HW131976   1.760   2.363   2.422 -1.1240  2.2015  1.9158
 6839SOL    HW231977   1.787   2.297   2.551 -2.3706 -0.6204 -2.4553
 6840SOL     OW31978   0.982   3.630   6.319 -0.0321  0.0099 -0.0013
 6840SOL    HW131979   0.928   3.696   6.277 -0.7141 -0.6853 -0.2083
 6840SOL    HW231980   1.069   3.665   6.299  0.6629  0.3157  3.4096
 6841SOL     OW31981   0.449   2.576  13.688  0.2900 -0.5618 -0.3828
 6841SOL    HW131982   0.383   2.507  13.685  0.1796 -0.2990 -3.5252
 6841SOL    HW231983   0.431   2.639  13.619 -0.1949 -0.0520  0.2159
 6842SOL     OW31984   4.118   3.378  13.917  0.7295  0.4062  0.0060
 6842SOL    HW131985   4.136   3.384  13.823 -0.1874 -3.0577 -0.4215
 6842SOL    HW231986   4.023   3.362  13.916  0.8990 -0.5227 -3.7574
 6843SOL     OW31987   4.371   3.844   8.943 -0.0180  0.1881  0.4727
 6843SOL    HW131988   4.333   3.797   9.017 -1.8752 -1.2717 -1.3762
 6843SOL    HW231989   4.317   3.923   8.950  0.9486  0.8556  0.3021
 6844SOL     OW31990   0.911   1.667   3.504  1.0446 -0.8478 -0.3651
 6844SOL    HW131991   0.939   1.637   3.417  0.4801  2.3495 -1.6152
 6844SOL    HW231992   0.828   1.620   3.515  0.1232  0.5072 -1.5549
 6845SOL     OW31993   1.407   1.215   6.265 -0.1740 -0.2221  0.1198
 6845SOL    HW131994   1.379   1.213   6.356  1.9406 -1.7254  0.7392
 6845SOL    HW231995   1.459   1.136   6.252  0.0424  0.5423 -3.5922
 6846SOL     OW31996   3.683   1.549  12.225  0.0228  0.1571 -0.0937
 6846SOL    HW131997   3.735   1.468  12.216 -1.0281 -0.4868 -0.3338
 6846SOL    HW231998   3.720   1.607  12.158 -1.8330  1.3009 -0.1149
 6847SOL     OW31999   4.534   1.631   6.747 -0.3644  0.2000  0.3735
 6847SOL    HW132000   4.560   1.613   6.657  2.2199 -0.8465  1.3355
 6847SOL    HW232001   4.493   1.717   6.741 -0.2840  0.2969  1.1714
 6848SOL     OW32002   3.147   3.250   9.099  0.1964 -0.1401  0.3055
 6848SOL    HW132003   3.138   3.319   9.033 -2.7808 -1.2572 -0.4367
 6848SOL    HW232004   3.227   3.202   9.077  0.6097  1.4569 -1.6731
 6849SOL     OW32005   1.991   1.213   3.966  0.2028  0.1218 -0.1737
 6849SOL    HW132006   1.910   1.231   3.917  0.6099  1.2878 -0.4218
 6849SOL    HW232007   2.040   1.292   3.943 -0.5168  0.9821  1.2703
 6850SOL     OW32008   2.571   0.682   5.007  0.0975 -0.7119  0.4680
 6850SOL    HW132009   2.641   0.669   5.070  0.1137  1.0992  0.8170
 6850SOL    HW232010   2.620   0.712   4.930 -0.8814 -0.9390 -0.2491
 6851SOL     OW32011   0.086   1.222   3.184 -0.6848 -0.0007 -0.0938
 6851SOL    HW132012   0.049   1.151   3.131 -0.8709  0.0950 -0.0931
 6851SOL    HW232013   0.092   1.185   3.272 -0.8912  1.0599  0.3627
 6852SOL     OW32014   0.067   0.029   6.336  0.2287  0.3405  0.0915
 6852SOL    HW132015   0.089   4.706   6.417 -0.1707  0.5162  0.3037
 6852SOL    HW232016   0.059   0.119   6.370 -2.0952  0.0855  0.2068
 6853SOL     OW32017   1.129   3.963   5.488 -0.1004 -0.4181 -0.2834
 6853SOL    HW132018   1.069   3.906   5.536  0.8988 -0.1023  1.3701
 6853SOL    HW232019   1.073   4.039   5.478 -0.3863 -0.5308  0.4234
 6854SOL     OW32020   3.846   2.608   4.758  0.3919 -0.0786  0.4332
 6854SOL    HW132021   3.784   2.621   4.685  0.0530  0.0601  0.7447
 6854SOL    HW232022   3.879   2.696   4.777 -0.8649  0.2611  1.0920
 6855SOL     OW32023   0.191   1.711   6.808  0.0629  0.0403  0.0660
 6855SOL    HW132024   0.121   1.671   6.757 -1.4745 -0.7370  2.7446
 6855SOL    HW232025   0.234   1.749   6.732  0.4227  1.2356  0.8647
 6856SOL     OW32026   0.031   2.575   9.067  0.0032 -0.1027 -0.0323
 6856SOL    HW132027   0.066   2.574   9.156  0.7528  1.5535 -0.2943
 6856SOL    HW232028   0.004   2.667   9.067 -1.7081 -0.6065 -0.8120
 6857SOL     OW32029   0.300   3.964   7.192  0.2812 -0.1695  0.2144
 6857SOL    HW132030   0.329   3.929   7.275  1.4549  1.5924  0.5432
 6857SOL    HW232031   0.206   3.943   7.195  0.9704 -2.8984  2.5961
 6858SOL     OW32032   3.037   0.166   8.940 -0.4285  0.4793  0.1541
 6858SOL    HW132033   3.028   0.079   8.902 -0.1491 -0.5162  2.3478
 6858SOL    HW232034   2.972   0.205   8.881  0.8128  1.5825 -0.4615
 6859SOL     OW32035   1.001   3.909  13.956 -0.5083  0.0407  0.2474
 6859SOL    HW132036   0.914   3.914  13.916 -1.1866  1.6799  1.9170
 6859SOL    HW232037   1.058   3.905  13.879  0.0688  2.0146  0.5655
 6860SOL     OW32038   0.003   0.306   6.409  0.4897 -0.4849  0.5369
 6860SOL    HW132039   0.094   0.328   6.428  0.7716 -0.8508 -0.3588
 6860SOL    HW232040   4.682   0.338   6.487  0.1566  0.7912 -0.1574
 6861SOL     OW32041   1.511   3.284   5.144  0.1744 -0.0620  0.3818
 6861SOL    HW132042   1.428   3.327   5.123 -0.8191 -1.6062  1.1812
 6861SOL    HW232043   1.521   3.312   5.235 -1.7935 -0.3816  0.6882
 6862SOL     OW32044   3.917   3.587   3.731 -0.5742  0.4366 -0.4249
 6862SOL    HW132045   3.966   3.539   3.798 -0.1203 -0.1903 -1.2098
 6862SOL    HW232046   3.918   3.524   3.659  1.4537  0.0579 -0.0760
 6863SOL     OW32047   4.592   2.503  13.308 -0.2070  0.8767  0.4992
 6863SOL    HW132048   4.554   2.566  13.246  0.9766  0.3795 -0.7368
 6863SOL    HW232049   4.628   2.439  13.246 -2.3814 -0.0599  0.2098
 6864SOL     OW32050   1.301   3.971  16.044  0.0887 -0.3709 -0.7207
 6864SOL    HW132051   1.326   4.023  15.968  0.0612 -1.1098 -1.2280
 6864SOL    HW232052   1.365   3.901  16.031  0.6738 -0.3384  1.8683
 6865SOL     OW32053   0.516   2.144   6.895 -0.2187 -0.3778 -0.0920
 6865SOL    HW132054   0.446   2.190   6.849  1.5572  0.6572 -1.7026
 6865SOL    HW232055   0.503   2.050   6.880  1.1236 -0.4660 -0.6915
 6866SOL     OW32056   1.405   1.899   5.529  0.1940 -0.5635  0.0290
 6866SOL    HW132057   1.402   1.926   5.437  1.2907  0.6601  0.3516
 6866SOL    HW232058   1.436   1.810   5.514 -1.1175 -0.9341 -0.5233
 6867SOL     OW32059   0.606   1.523   7.112  0.5487  0.5047 -0.0730
 6867SOL    HW132060   0.591   1.479   7.028 -0.4095 -1.4163  1.0901
 6867SOL    HW232061   0.565   1.609   7.101 -0.5643  0.1518  1.3840
 6868SOL     OW32062   3.490   4.375  16.377 -0.3023  0.2818  0.2778
 6868SOL    HW132063   3.479   4.359  16.283  0.4121  1.2908  0.0202
 6868SOL    HW232064   3.572   4.333  16.402 -1.3261 -0.7659  1.8368
 6869SOL     OW32065   3.540   4.554   2.315 -0.6446 -0.6521  0.5377
 6869SOL    HW132066   3.479   4.551   2.241  1.4880  1.1139 -1.3209
 6869SOL    HW232067   3.490   4.598   2.383 -1.8765  0.6622 -1.2142
 6870SOL     OW32068   2.834   4.494  12.112 -0.6982  0.3102 -0.3885
 6870SOL    HW132069   2.865   4.564  12.054 -0.0713 -0.9728 -1.6054
 6870SOL    HW232070   2.895   4.423  12.093 -0.4649  0.6134 -0.7771
 6871SOL     OW32071   2.166   0.549  17.428  0.3909 -0.2737 -0.0218
 6871SOL    HW132072   2.250   0.513  17.456 -0.1325 -0.0540  1.7943
 6871SOL    HW232073   2.192   0.628  17.380  0.2140  0.8493  1.7403
 6872SOL     OW32074   2.202   2.003  16.576  0.3108  0.0451 -0.6524
 6872SOL    HW132075   2.237   2.001  16.665 -0.1788 -0.5149 -0.4693
 6872SOL    HW232076   2.143   2.078  16.577  0.8165  0.4447 -1.0686
 6873SOL     OW32077   2.955   3.313  11.536  0.1113  0.1763  0.3036
 6873SOL    HW132078   2.933   3.289  11.626 -0.4099  1.0443  0.4065
 6873SOL    HW232079   3.050   3.322  11.540  0.1168  1.3884 -2.1747
 6874SOL     OW32080   2.728   2.867   2.979  0.5960  0.2008  0.1765
 6874SOL    HW132081   2.682   2.930   3.034  2.1988  0.6613  0.9744
 6874SOL    HW232082   2.674   2.869   2.900 -1.6957 -1.1057  1.6918
 6875SOL     OW32083   3.030   3.871   3.821  0.5420  0.1174  0.3809
 6875SOL    HW132084   3.063   3.782   3.818  1.6279  0.5066  0.7501
 6875SOL    HW232085   2.940   3.861   3.790 -0.5939  0.3914  3.5798
 6876SOL     OW32086   0.587   2.593   3.483  0.3675  0.0433 -0.0476
 6876SOL    HW132087   0.617   2.516   3.530  0.9317 -0.8158 -1.8083
 6876SOL    HW232088   0.533   2.632   3.551  0.0658 -0.1658 -0.1717
 6877SOL     OW32089   4.699   2.310   8.929  0.6426 -0.0730 -0.1741
 6877SOL    HW132090   0.013   2.382   8.980 -0.5201 -0.3529  1.0402
 6877SOL    HW232091   0.052   2.262   8.897  0.4695  0.0336 -0.7451
 6878SOL     OW32092   3.276   4.419   2.529 -0.0496  0.0265 -0.2952
 6878SOL    HW132093   3.301   4.509   2.509  1.5755 -0.7855 -1.8513
 6878SOL    HW232094   3.251   4.388   2.442  0.7123  0.7332 -0.7549
 6879SOL     OW32095   4.593   1.753   5.273  0.3272 -0.3110  0.2612
 6879SOL    HW132096   4.676   1.718   5.240 -0.4673 -2.5039  0.5719
 6879SOL    HW232097   4.533   1.679   5.260 -0.7002  0.2095  2.0424
 6880SOL     OW32098   0.752   0.289  10.652 -0.1604 -0.4220 -0.5085
 6880SOL    HW132099   0.717   0.201  10.665  0.4992 -0.6645 -0.3733
 6880SOL    HW232100   0.818   0.305  10.719 -0.2382  1.7410 -0.9435
 6881SOL     OW32101   0.949   2.702  14.976 -0.4545 -0.1560 -0.3714
 6881SOL    HW132102   1.031   2.655  14.992  0.2989  0.9895 -0.8981
 6881SOL    HW232103   0.919   2.656  14.897 -0.2833 -0.0819 -0.4796
 6882SOL     OW32104   4.393   2.589   8.470 -0.1439 -0.1541 -0.4848
 6882SOL    HW132105   4.385   2.496   8.450  0.8386 -0.4605  0.5723
 6882SOL    HW232106   4.379   2.588   8.564  1.8037  0.6536 -0.1848
 6883SOL     OW32107   0.222   1.189   8.016  0.5480 -0.2525 -0.0384
 6883SOL    HW132108   0.184   1.231   8.094  0.9283  0.2227 -0.1131
 6883SOL    HW232109   0.314   1.205   8.034  0.2518  1.4144  0.0333
 6884SOL     OW32110   0.238   0.854   5.691  0.8515  0.4329  0.3646
 6884SOL    HW132111   0.177   0.869   5.619 -3.5649 -1.0162  3.8387
 6884SOL    HW232112   0.250   0.942   5.727 -1.5952  0.0219  2.1871
 6885SOL     OW32113   2.753   3.310   1.131  0.2217 -0.2053  0.8011
 6885SOL    HW132114   2.788   3.399   1.137 -0.4856  0.1471 -0.2717
 6885SOL    HW232115   2.740   3.296   1.037  2.0295  0.3640  0.4833
 6886SOL     OW32116   4.654   3.301   4.133 -0.0639 -0.2008 -0.0947
 6886SOL    HW132117   4.635   3.222   4.082 -1.0151  1.5195 -2.3880
 6886SOL    HW232118   4.602   3.366   4.086 -2.1049 -0.9059  1.1577
 6887SOL     OW32119   0.548   0.424   2.875  0.0919 -0.2736  0.2792
 6887SOL    HW132120   0.612   0.410   2.806 -1.5668 -1.1717 -1.0859
 6887SOL    HW232121   0.487   0.470   2.817  0.2245  0.7257  0.9355
 6888SOL     OW32122   2.199   3.349  15.332  0.3670 -0.5634  0.2951
 6888SOL    HW132123   2.224   3.306  15.414  3.2719  0.4215 -0.0545
 6888SOL    HW232124   2.263   3.420  15.332  0.8059 -0.9458 -1.6524
 6889SOL     OW32125   0.691   2.467   8.272  0.2132 -0.1607  0.2407
 6889SOL    HW132126   0.719   2.399   8.210 -1.6457  0.8764 -1.7531
 6889SOL    HW232127   0.748   2.443   8.345 -1.0220  0.0976  1.2924
 6890SOL     OW32128   3.907   1.643   1.247 -0.0624 -0.2334  0.1491
 6890SOL    HW132129   3.897   1.653   1.153 -1.2977 -0.4145  0.2646
 6890SOL    HW232130   3.821   1.679   1.267  2.1964  3.8307  2.6656
 6891SOL     OW32131   4.151   4.005   2.136 -0.0865 -0.1516 -0.1689
 6891SOL    HW132132   4.172   4.073   2.201  4.9656 -1.5783 -0.3530
 6891SOL    HW232133   4.089   3.948   2.181  0.4142 -0.8644 -0.3865
 6892SOL     OW32134   1.922   2.812   4.060 -0.0514 -0.0430 -0.2961
 6892SOL    HW132135   1.909   2.866   4.138  1.6212 -0.1698  0.0656
 6892SOL    HW232136   2.010   2.835   4.029 -0.7183 -0.5546 -2.5845
 6893SOL     OW32137   3.562   0.002   4.384  0.2255 -0.7220  0.0062
 6893SOL    HW132138   3.543   0.096   4.378  0.4466 -0.6220  0.9156
 6893SOL    HW232139   3.521   4.693   4.464  1.8856 -1.8209  0.4144
 6894SOL     OW32140   1.514   0.855   4.748  0.1614  0.4162 -0.2008
 6894SOL    HW132141   1.482   0.841   4.837  1.6873  0.4686  0.3515
 6894SOL    HW232142   1.599   0.811   4.751 -0.1106 -0.1494 -0.7576
 6895SOL     OW32143   3.175   3.158   6.946 -0.3030 -0.4312  0.4966
 6895SOL    HW132144   3.219   3.087   6.900 -0.3280 -0.0258 -0.1625
 6895SOL    HW232145   3.248   3.218   6.961 -0.2880 -0.6423  1.2682
 6896SOL     OW32146   2.503   2.780   0.723  0.2572 -0.0490  0.4752
 6896SOL    HW132147   2.427   2.800   0.778  2.5155  1.2287  3.0973
 6896SOL    HW232148   2.540   2.698   0.755 -0.7304 -0.7746 -0.2510
 6897SOL     OW32149   2.510   2.663  13.870 -0.4188 -0.6549 -0.7649
 6897SOL    HW132150   2.530   2.714  13.948 -0.5449  3.2852 -3.3084
 6897SOL    HW232151   2.433   2.620  13.907 -0.7460  2.7572  2.4792
 6898SOL     OW32152   0.890   3.626  15.912  0.0731  0.3858  0.5353
 6898SOL    HW132153   0.860   3.557  15.853  0.1786  1.8199 -1.2185
 6898SOL    HW232154   0.843   3.598  15.990 -0.2220 -1.6923 -0.3748
 6899SOL     OW32155   2.489   3.630  14.395  0.3871 -0.3142 -0.6992
 6899SOL    HW132156   2.424   3.574  14.437  2.3996 -0.2219  2.5203
 6899SOL    HW232157   2.460   3.640  14.304 -0.7315  0.3078 -0.2732
 6900SOL     OW32158   0.273   0.443   4.547 -0.5396  0.2994 -0.5531
 6900SOL    HW132159   0.218   0.521   4.555 -2.6371 -1.1597 -0.6757
 6900SOL    HW232160   0.318   0.466   4.465  1.9346  1.3265  1.0977
 6901SOL     OW32161   1.480   3.490   1.371  0.6073  0.5045 -0.1096
 6901SOL    HW132162   1.404   3.484   1.429  2.1089  2.1041  1.9997
 6901SOL    HW232163   1.543   3.448   1.430  0.3133  0.4660  0.1772
 6902SOL     OW32164   2.974   4.108  16.686  0.4941 -0.5088  0.0696
 6902SOL    HW132165   3.022   4.122  16.605 -1.8407  0.1137 -1.1837
 6902SOL    HW232166   3.013   4.030  16.726 -0.2915 -0.4691  0.9327
 6903SOL     OW32167   0.107   3.129   9.710 -0.0053 -0.3763 -0.0659
 6903SOL    HW132168   0.140   3.124   9.800 -0.7305 -3.0426  0.0431
 6903SOL    HW232169   0.062   3.214   9.711 -1.3534 -1.0964  0.0705
 6904SOL     OW32170   0.572   3.121   5.540 -0.1116  0.1361  0.0238
 6904SOL    HW132171   0.501   3.166   5.495  0.2302  0.2890 -0.3615
 6904SOL    HW232172   0.619   3.186   5.591  1.4181 -0.3052 -0.8106
 6905SOL     OW32173   0.656   1.191   3.229 -0.4427  0.8205  0.4090
 6905SOL    HW132174   0.659   1.228   3.141 -0.9766 -1.3946 -0.5296
 6905SOL    HW232175   0.683   1.100   3.217  0.6709  1.3036 -0.7667
 6906SOL     OW32176   4.695   1.646   5.730 -0.0638  0.2143 -0.6581
 6906SOL    HW132177   4.698   1.710   5.659  0.5466 -0.7669 -1.5213
 6906SOL    HW232178   4.627   1.686   5.785  2.4448  2.1754  1.0339
 6907SOL     OW32179   0.784   2.347  11.171  0.1190  0.1793 -0.1337
 6907SOL    HW132180   0.755   2.289  11.099 -1.1000  0.8876 -0.2184
 6907SOL    HW232181   0.725   2.304  11.233 -0.0625  2.5313  1.3142
 6908SOL     OW32182   0.241   3.258  12.572  0.2083  0.1084 -0.0066
 6908SOL    HW132183   0.323   3.302  12.592  0.3099 -1.2710  2.5994
 6908SOL    HW232184   0.194   3.265  12.655 -0.7375  0.4285 -0.5672
 6909SOL     OW32185   2.964   3.530   8.941 -0.2239 -0.1128  0.0931
 6909SOL    HW132186   2.895   3.505   8.879  0.5984 -0.6739 -0.6008
 6909SOL    HW232187   2.987   3.614   8.902 -1.1831  0.2637  0.3438
 6910SOL     OW32188   3.333   4.561   4.591  0.3449  0.5319  0.3704
 6910SOL    HW132189   3.248   4.531   4.623  1.5780 -0.7777  2.4207
 6910SOL    HW232190   3.311   4.654   4.585  0.2948  0.5104  0.2228
 6911SOL     OW32191   3.518   1.614   8.440  0.7647  0.0447 -0.1166
 6911SOL    HW132192   3.441   1.646   8.486 -0.7743 -0.3022 -2.4283
 6911SOL    HW232193   3.531   1.667   8.361  0.9899  1.1697  0.6849
 6912SOL     OW32194   0.147   4.462  10.760  0.0737  0.1009  0.3580
 6912SOL    HW132195   0.071   4.406  10.776 -1.3358  2.2413  1.1025
 6912SOL    HW232196   0.153   4.530  10.827  0.2943  0.1316  0.3083
 6913SOL     OW32197   0.070   3.597   7.601  0.4719  0.0196 -0.0257
 6913SOL    HW132198   0.101   3.564   7.685 -0.3341 -2.3098 -0.6457
 6913SOL    HW232199   0.058   3.688   7.626  2.3918  0.1589  0.4306
 6914SOL     OW32200   3.644   0.929   1.313 -0.2410 -0.0408  0.0261
 6914SOL    HW132201   3.728   0.888   1.333  0.3969  1.4484  0.4046
 6914SOL    HW232202   3.594   0.897   1.388 -2.3511  2.2976 -0.3510
 6915SOL     OW32203   1.063   1.896   0.691  0.1389  0.0003 -0.4262
 6915SOL    HW132204   1.152   1.903   0.655  0.7294 -0.4225  0.9194
 6915SOL    HW232205   1.048   1.982   0.731 -0.9283 -0.8672  1.0482
 6916SOL     OW32206   1.206   3.302  16.553 -0.0413 -0.1197 -0.1085
 6916SOL    HW132207   1.259   3.327  16.628  0.1650 -1.4548  0.1917
 6916SOL    HW232208   1.219   3.207  16.560  1.5225  0.1023 -0.0940
 6917SOL     OW32209   3.700   1.151  14.877  0.1607 -0.3976  0.2062
 6917SOL    HW132210   3.709   1.152  14.781  0.6884  2.6132  0.3098
 6917SOL    HW232211   3.771   1.092  14.902  0.0078 -0.4147  0.5876
 6918SOL     OW32212   3.185   4.112   9.208 -0.1352 -0.3490  0.4664
 6918SOL    HW132213   3.269   4.151   9.230 -0.3811  0.5360 -0.1845
 6918SOL    HW232214   3.134   4.180   9.251 -1.9813 -0.6868 -1.1823
 6919SOL     OW32215   3.292   1.825   0.181  0.2038  0.0755  0.4694
 6919SOL    HW132216   3.380   1.860   0.175 -0.0250  0.4616 -0.7021
 6919SOL    HW232217   3.316   1.739   0.214 -0.9366 -0.1736  0.6703
 6920SOL     OW32218   4.227   2.566   4.909  0.1464  0.1838  1.1047
 6920SOL    HW132219   4.272   2.567   4.993 -0.0321  0.8868  1.1970
 6920SOL    HW232220   4.291   2.523   4.852 -1.1555 -2.6644  1.8089
 6921SOL     OW32221   0.577   3.600   5.487  0.1723  0.3888 -0.5824
 6921SOL    HW132222   0.506   3.596   5.550 -1.6481  0.9429 -2.6219
 6921SOL    HW232223   0.621   3.516   5.498 -1.7052 -0.1773  2.5626
 6922SOL     OW32224   1.856   4.166   2.773  0.1694 -0.5391  0.4110
 6922SOL    HW132225   1.774   4.192   2.731  1.1723 -0.2782 -1.3722
 6922SOL    HW232226   1.895   4.250   2.748  2.0713 -1.3519  0.6584
 6923SOL     OW32227   1.287   3.129   4.387 -0.0615  0.1214  0.3756
 6923SOL    HW132228   1.342   3.191   4.338  1.0348 -0.6817  0.5974
 6923SOL    HW232229   1.253   3.178   4.462 -0.4507  0.4494 -0.0163
 6924SOL     OW32230   3.099   3.981   3.191  0.4441 -0.3630  0.0674
 6924SOL    HW132231   3.066   3.935   3.114  0.4909 -0.9711  0.4088
 6924SOL    HW232232   3.139   4.060   3.154  1.6441 -0.5887  0.8713
 6925SOL     OW32233   4.610   4.063   0.554  0.0368 -0.0002 -0.5891
 6925SOL    HW132234   4.644   4.141   0.598 -0.9899  0.4610 -0.6037
 6925SOL    HW232235   4.659   4.063   0.472  0.6053 -3.1716 -0.2352
 6926SOL     OW32236   1.961   4.011   8.642  0.6985  0.1336  0.4065
 6926SOL    HW132237   1.883   4.022   8.696  1.8776  0.8412  1.9767
 6926SOL    HW232238   1.981   4.104   8.649 -2.4540  0.7686  1.0108
 6927SOL     OW32239   0.286   2.125   5.122  0.0140  0.1447 -0.1890
 6927SOL    HW132240   0.238   2.042   5.125  2.0440 -1.0589 -0.5536
 6927SOL    HW232241   0.367   2.088   5.087 -1.3260 -1.9983 -1.0801
 6928SOL     OW32242   0.860   2.392   7.778  0.2883 -0.1627 -0.1750
 6928SOL    HW132243   0.914   2.332   7.727  0.8300  1.1105 -1.1029
 6928SOL    HW232244   0.896   2.472   7.740 -2.0031  1.2199  0.5532
 6929SOL     OW32245   3.658   1.487   6.042  0.2459  0.0208  0.1318
 6929SOL    HW132246   3.612   1.431   5.979 -2.8739  1.7019  0.8938
 6929SOL    HW232247   3.738   1.490   5.990  0.9119  1.8448  1.2631
 6930SOL     OW32248   0.903   3.401  13.848 -0.0336 -0.3964 -0.6707
 6930SOL    HW132249   0.899   3.488  13.888  2.0356 -0.1772 -0.9060
 6930SOL    HW232250   0.906   3.432  13.758  0.5248  0.0135 -0.5124
 6931SOL     OW32251   1.145   2.457  10.687 -0.1357  0.5506 -0.3680
 6931SOL    HW132252   1.219   2.402  10.661  0.2558  2.0146 -2.3144
 6931SOL    HW232253   1.112   2.416  10.767  0.1079 -0.0951 -0.6001
 6932SOL     OW32254   1.229   2.489  16.707  0.1957  0.2602 -0.3205
 6932SOL    HW132255   1.315   2.531  16.707 -0.8222  2.3782 -0.3389
 6932SOL    HW232256   1.202   2.513  16.796 -0.5490  1.2309 -0.7972
 6933SOL     OW32257   3.571   2.779   7.479  0.3446 -0.9280  0.4742
 6933SOL    HW132258   3.645   2.831   7.450  0.3681 -0.3787  1.5313
 6933SOL    HW232259   3.598   2.693   7.445  0.2659 -0.2648 -1.2371
 6934SOL     OW32260   3.982   3.093   6.530  0.0940  1.0259  0.5923
 6934SOL    HW132261   3.906   3.077   6.475 -0.3573 -0.0670  1.5256
 6934SOL    HW232262   3.944   3.128   6.611 -1.7225  0.0469  0.1590
 6935SOL     OW32263   1.083   1.330   4.595  0.4293  0.4000  0.1836
 6935SOL    HW132264   1.169   1.309   4.557  0.9220  2.2930  0.2401
 6935SOL    HW232265   1.046   1.251   4.634 -0.8032 -0.4618 -2.8082
 6936SOL     OW32266   4.225   3.003   3.303  0.3652  0.4447 -0.0498
 6936SOL    HW132267   4.219   2.932   3.367  1.0934  2.8644  2.7182
 6936SOL    HW232268   4.134   3.009   3.273  0.6217 -0.2917 -0.9418
 6937SOL     OW32269   4.602   3.916  10.328 -0.4438 -0.5746  0.1647
 6937SOL    HW132270   4.576   3.985  10.389  0.3745 -0.2446  0.1518
 6937SOL    HW232271   4.669   3.960  10.275  0.1021 -0.7491  0.7062
 6938SOL     OW32272   0.869   2.160   5.140 -0.1126  0.2022  0.1180
 6938SOL    HW132273   0.883   2.107   5.061 -3.1485 -0.0984 -0.2096
 6938SOL    HW232274   0.791   2.200   5.103 -0.4536 -0.7955 -0.2454
 6939SOL     OW32275   3.559   3.558   9.152 -0.3785 -0.1394  0.2098
 6939SOL    HW132276   3.627   3.532   9.090 -1.4837 -1.0613 -0.6086
 6939SOL    HW232277   3.491   3.604   9.104  0.0336  1.1712  0.8812
 6940SOL     OW32278   3.984   3.833  17.205 -0.4443  0.1207 -0.1961
 6940SOL    HW132279   3.944   3.882  17.133  1.3551 -0.4621 -1.5847
 6940SOL    HW232280   4.066   3.879  17.220 -0.9275  1.0216 -0.2995
 6941SOL     OW32281   4.030   4.123   8.537 -0.2154 -0.1200 -0.3589
 6941SOL    HW132282   3.970   4.123   8.611  0.7749 -1.1836  0.4201
 6941SOL    HW232283   4.031   4.031   8.513 -1.3298 -0.0593 -0.6486
 6942SOL     OW32284   4.355   1.497  10.054  0.7193  0.1409 -0.6591
 6942SOL    HW132285   4.446   1.523  10.040 -0.1935  2.7814 -1.5896
 6942SOL    HW232286   4.354   1.480  10.148 -1.0256  0.5056 -0.6057
 6943SOL     OW32287   3.476   0.733   9.554 -0.0621 -0.0471  0.1031
 6943SOL    HW132288   3.526   0.710   9.633 -2.4123 -0.9121  1.3441
 6943SOL    HW232289   3.470   0.829   9.563 -1.3188 -0.5462  4.8423
 6944SOL     OW32290   0.713   0.925   3.234  0.3184 -0.2045 -0.6003
 6944SOL    HW132291   0.794   0.883   3.264  0.0956 -0.1667  0.0448
 6944SOL    HW232292   0.650   0.855   3.252 -0.1693  0.6624  1.0484
 6945SOL     OW32293   3.106   2.035  13.515  0.5743 -0.0566  0.1433
 6945SOL    HW132294   3.091   1.947  13.481 -0.5653  0.4935 -0.8024
 6945SOL    HW232295   3.160   2.036  13.594  0.2352  0.6261  0.3673
 6946SOL     OW32296   0.369   0.294   6.045 -0.1409  0.0367  0.4215
 6946SOL    HW132297   0.306   0.225   6.066 -0.7877  0.2973 -0.6482
 6946SOL    HW232298   0.423   0.307   6.123  2.9661  0.4919 -1.8289
 6947SOL     OW32299   1.930   1.555   3.474 -0.2234  0.2844 -0.1745
 6947SOL    HW132300   1.841   1.522   3.488  0.1372  0.1604  1.7707
 6947SOL    HW232301   1.918   1.649   3.462 -0.2993  0.2112 -0.6794
 6948SOL     OW32302   0.233   3.003  10.791 -0.1370  0.3632  0.0030
 6948SOL    HW132303   0.182   3.076  10.756 -1.1518  0.0716  0.8675
 6948SOL    HW232304   0.181   2.975  10.866  1.7588  0.2491  1.2726
 6949SOL     OW32305   1.299   3.294   8.401 -0.3025  0.1941  0.0923
 6949SOL    HW132306   1.260   3.332   8.322  2.0439  1.9281 -0.2549
 6949SOL    HW232307   1.346   3.226   8.355  2.0017  1.2320  0.9146
 6950SOL     OW32308   4.593   0.309  16.696 -0.0883  0.0819  0.0886
 6950SOL    HW132309   4.533   0.263  16.755  0.9217 -1.7433 -0.3048
 6950SOL    HW232310   4.546   0.284  16.617 -0.4788 -0.2865  0.4326
 6951SOL     OW32311   2.829   3.829  10.819 -0.0273  0.6917 -0.2655
 6951SOL    HW132312   2.831   3.828  10.914  0.0940 -3.1988 -0.2948
 6951SOL    HW232313   2.903   3.888  10.809 -0.6551  1.3590 -1.0141
 6952SOL     OW32314   4.059   0.136   7.924 -0.3022  0.1896  0.1382
 6952SOL    HW132315   3.968   0.129   7.954 -0.0580 -0.4969  0.7237
 6952SOL    HW232316   4.078   0.220   7.966 -1.1944  0.1068  0.7112
 6953SOL     OW32317   4.500   3.910   3.601 -0.2672 -0.2935  0.0835
 6953SOL    HW132318   4.445   3.934   3.675  1.2780  1.6757  0.5887
 6953SOL    HW232319   4.425   3.899   3.542 -0.8606 -0.9416  0.9540
 6954SOL     OW32320   4.471   3.605   4.671  0.0240 -0.2533  0.1283
 6954SOL    HW132321   4.377   3.618   4.657  0.5610  1.6060 -1.7433
 6954SOL    HW232322   4.480   3.526   4.724 -2.5070 -1.5750 -1.4546
 6955SOL     OW32323   1.312   1.322   2.741  0.1052  0.1241 -0.6403
 6955SOL    HW132324   1.269   1.334   2.656  1.5482 -1.0642 -1.5226
 6955SOL    HW232325   1.243   1.356   2.798 -0.4970 -0.5411 -0.9798
 6956SOL     OW32326   2.180   0.145   6.839  1.2592 -0.2969  0.4493
 6956SOL    HW132327   2.189   0.120   6.931  1.1051  1.6390  0.9737
 6956SOL    HW232328   2.192   0.240   6.845 -1.8290  0.3397 -3.6621
 6957SOL     OW32329   2.732   2.135  16.177  0.7652 -0.2198  0.3932
 6957SOL    HW132330   2.697   2.179  16.099  0.6188 -0.0877  0.5328
 6957SOL    HW232331   2.820   2.105  16.155 -0.3286 -1.0273 -2.9611
 6958SOL     OW32332   2.676   1.237  13.217  0.4108  0.6747  0.2647
 6958SOL    HW132333   2.588   1.234  13.179  0.2141  0.9975  0.7021
 6958SOL    HW232334   2.728   1.171  13.171  0.0199 -0.1869  1.0489
 6959SOL     OW32335   2.908   4.163  16.408 -0.5691 -0.2238 -1.3747
 6959SOL    HW132336   2.874   4.195  16.324 -0.0022  1.2077 -1.0525
 6959SOL    HW232337   2.965   4.088  16.390 -0.1851 -0.0162 -1.0142
 6960SOL     OW32338   2.929   4.544   6.374 -0.5266 -0.6423  0.1916
 6960SOL    HW132339   2.971   4.526   6.290 -0.5774 -0.4321  0.1212
 6960SOL    HW232340   2.989   4.501   6.434  0.9906 -2.2301 -2.4595
 6961SOL     OW32341   0.063   1.319  12.439 -0.2755  0.2145 -0.0409
 6961SOL    HW132342   4.713   1.258  12.449 -0.1023  0.7042  4.0698
 6961SOL    HW232343   0.024   1.399  12.406 -0.2565  1.0079  1.8420
 6962SOL     OW32344   3.013   2.055  12.927  0.7409 -0.0027 -0.0329
 6962SOL    HW132345   2.969   2.089  13.005  0.5738 -0.7749  0.2198
 6962SOL    HW232346   3.089   2.111  12.917  0.6918  0.1203  0.2915
 6963SOL     OW32347   1.983   3.769   5.218 -0.2719  0.5776  0.1918
 6963SOL    HW132348   1.988   3.827   5.293 -1.1428 -0.9652  1.4504
 6963SOL    HW232349   1.901   3.806   5.186  0.1916  1.3282 -0.1133
 6964SOL     OW32350   3.236   1.832   9.700  0.0289 -0.3340  0.0464
 6964SOL    HW132351   3.195   1.763   9.648  1.1406 -1.7790  1.0831
 6964SOL    HW232352   3.302   1.782   9.749 -2.1877 -1.5859  1.7345
 6965SOL     OW32353   4.653   0.606  12.896 -0.3909  0.4106 -0.0899
 6965SOL    HW132354   4.631   0.614  12.803  0.6620 -0.7195 -0.4232
 6965SOL    HW232355   0.022   0.629  12.886 -0.0743 -0.5543  0.6882
 6966SOL     OW32356   1.212   3.965   6.096  0.2863 -0.6128  0.2940
 6966SOL    HW132357   1.192   3.917   6.016  3.5650 -0.6303 -0.4972
 6966SOL    HW232358   1.130   4.013   6.110  0.2241 -0.4271 -0.6661
 6967SOL     OW32359   2.582   2.518   7.459  0.3585 -0.1575  0.1664
 6967SOL    HW132360   2.486   2.517   7.464  0.3449  2.1197  0.1798
 6967SOL    HW232361   2.613   2.552   7.542  2.0161 -3.2029  0.8097
 6968SOL     OW32362   4.383   0.143  10.046  0.5957  0.1594 -0.3180
 6968SOL    HW132363   4.446   0.161  10.116 -1.0214 -0.1570  1.2291
 6968SOL    HW232364   4.399   0.049  10.034 -2.2180 -0.4759  0.8235
 6969SOL     OW32365   3.061   3.810   4.395  0.0077 -0.0162  0.2078
 6969SOL    HW132366   3.152   3.838   4.391  0.3999 -1.4591 -0.7036
 6969SOL    HW232367   3.017   3.853   4.321  2.9662  2.9759  0.1934
 6970SOL     OW32368   3.604   1.711   9.574  0.7680  1.0301 -0.1491
 6970SOL    HW132369   3.696   1.693   9.597  0.3671  0.1598  0.8090
 6970SOL    HW232370   3.578   1.766   9.648 -1.5777 -0.9692  0.5206
 6971SOL     OW32371   0.102   2.709   6.778  0.1800 -0.1288  0.4076
 6971SOL    HW132372   0.018   2.740   6.746  0.3324  0.6170  0.7340
 6971SOL    HW232373   0.074   2.639   6.837 -1.4111  1.5619  1.6235
 6972SOL     OW32374   3.044   2.721   8.030 -0.0874 -0.0337  0.7128
 6972SOL    HW132375   3.062   2.808   8.066  0.8538  0.2284 -0.3994
 6972SOL    HW232376   3.131   2.697   7.998 -0.6339 -0.3643 -0.5533
 6973SOL     OW32377   1.832   0.589   7.359 -0.1925  0.3183  0.3572
 6973SOL    HW132378   1.853   0.497   7.374 -1.4164 -0.1578 -0.8863
 6973SOL    HW232379   1.869   0.628   7.438  3.7654 -1.2978 -0.6718
 6974SOL     OW32380   0.327   0.924   6.458  0.2948 -0.9495  0.5102
 6974SOL    HW132381   0.288   1.009   6.474 -2.0717 -1.6864 -1.2827
 6974SOL    HW232382   0.261   0.866   6.419 -0.7299  0.2229  0.4886
 6975SOL     OW32383   3.847   1.379   1.224 -0.3671 -0.0772 -0.0323
 6975SOL    HW132384   3.862   1.471   1.248 -0.0692 -0.0772 -0.2121
 6975SOL    HW232385   3.924   1.337   1.262 -0.1159  1.4093  1.1216
 6976SOL     OW32386   2.263   0.475   9.943 -0.3380 -0.5708  0.5090
 6976SOL    HW132387   2.172   0.466   9.971 -0.5465  0.1419  0.0574
 6976SOL    HW232388   2.267   0.552   9.886 -1.0122 -0.3473  0.7694
 6977SOL     OW32389   4.595   4.080   3.970 -0.2115  0.5618  0.1422
 6977SOL    HW132390   4.625   4.007   3.915  1.0396  1.6903 -0.6649
 6977SOL    HW232391   4.500   4.076   3.960 -0.0088 -1.1613 -1.1605
 6978SOL     OW32392   4.680   0.768   6.314  0.5171  0.5880 -0.0941
 6978SOL    HW132393   0.042   0.770   6.271  1.1041 -0.6600  1.0525
 6978SOL    HW232394   4.641   0.849   6.280 -0.0975 -0.6097 -2.2089
 6979SOL     OW32395   1.300   0.498  17.686  0.5640  0.2012 -0.1168
 6979SOL    HW132396   1.219   0.525  17.645  1.1216  0.7459 -0.8563
 6979SOL    HW232397   1.356   0.575  17.675  0.2444  0.6641  1.5333
 6980SOL     OW32398   1.507   4.101  12.965  0.3280  0.4538 -0.0301
 6980SOL    HW132399   1.429   4.134  13.010 -0.4267  1.6160 -2.1831
 6980SOL    HW232400   1.562   4.080  13.040 -1.8138  1.1858  1.7340
 6981SOL     OW32401   1.862   1.108  17.289 -0.1522  0.1313  0.4881
 6981SOL    HW132402   1.939   1.050  17.291 -0.6958 -0.6200 -0.6691
 6981SOL    HW232403   1.855   1.134  17.381 -0.9489 -1.2377  0.8059
 6982SOL     OW32404   2.944   1.648   3.772  0.2186 -0.0867 -0.2064
 6982SOL    HW132405   2.982   1.563   3.794 -1.0466 -1.0349 -1.6754
 6982SOL    HW232406   2.933   1.633   3.678 -1.9162  0.1102  0.0011
 6983SOL     OW32407   3.008   2.297  13.108  0.1426 -0.3598  0.6710
 6983SOL    HW132408   3.051   2.379  13.081  1.0561 -1.7221 -2.0197
 6983SOL    HW232409   3.059   2.278  13.187 -0.9402 -0.8968  1.2286
 6984SOL     OW32410   0.162   1.592  10.778 -0.1368 -0.3200  0.0797
 6984SOL    HW132411   0.129   1.538  10.850 -1.2390  1.5261  0.9575
 6984SOL    HW232412   0.253   1.596  10.807 -0.1944 -0.3414  0.2647
 6985SOL     OW32413   0.041   3.619  10.798  0.2008 -0.0367 -0.7516
 6985SOL    HW132414   0.066   3.671  10.721  2.1311 -0.2937 -0.2897
 6985SOL    HW232415   0.031   3.534  10.756 -1.6955 -0.1697 -0.0005
 6986SOL     OW32416   2.327   4.515   0.425  0.4076  0.6242  0.0419
 6986SOL    HW132417   2.403   4.497   0.370 -0.5917 -0.0921 -1.1053
 6986SOL    HW232418   2.277   4.576   0.372  1.4157  1.2680 -0.1689
 6987SOL     OW32419   0.241   0.633   4.101 -0.6444 -0.6994  0.6746
 6987SOL    HW132420   0.231   0.635   4.006 -0.3076 -0.7336  0.6393
 6987SOL    HW232421   0.326   0.676   4.110  0.7111 -3.1099 -0.4652
 6988SOL     OW32422   3.327   2.157   3.120  0.0433 -0.1031  0.0231
 6988SOL    HW132423   3.377   2.102   3.060  0.3880 -0.6470  0.8160
 6988SOL    HW232424   3.402   2.196   3.164  0.4056  1.0220 -1.5838
 6989SOL     OW32425   3.998   3.581   6.809 -0.4127 -0.1449  0.4769
 6989SOL    HW132426   4.029   3.620   6.891 -0.7899  1.6201 -0.2251
 6989SOL    HW232427   3.959   3.662   6.777  0.3474  0.2279  0.5006
 6990SOL     OW32428   4.190   0.042   7.701  0.1869  0.3717 -0.5940
 6990SOL    HW132429   4.137   0.075   7.774  0.1321  0.2861 -0.5949
 6990SOL    HW232430   4.244   0.118   7.681  2.7234 -0.8830  1.4510
 6991SOL     OW32431   0.248   0.441   8.736  0.9708  0.3303 -0.1596
 6991SOL    HW132432   0.196   0.519   8.754  0.0746 -0.5005  0.8715
 6991SOL    HW232433   0.324   0.470   8.685  2.8838 -2.9569  0.8009
 6992SOL     OW32434   2.823   0.378   4.286  0.2992 -0.0903  0.3709
 6992SOL    HW132435   2.885   0.387   4.214  3.4109 -0.2346  3.0449
 6992SOL    HW232436   2.786   0.466   4.276 -1.9266 -0.9820  0.7332
 6993SOL     OW32437   0.079   0.096   5.693 -0.1277 -0.3209 -0.3430
 6993SOL    HW132438   0.057   0.084   5.600 -1.5283  2.2783 -0.3574
 6993SOL    HW232439   0.076   0.191   5.694 -0.4732 -0.3112 -2.0740
 6994SOL     OW32440   3.505   2.935   8.447 -0.7404  0.0031  0.3850
 6994SOL    HW132441   3.504   2.945   8.352 -0.0749 -1.4726  0.2271
 6994SOL    HW232442   3.415   2.956   8.470 -0.6275 -2.3123  2.9233
 6995SOL     OW32443   4.243   1.230   7.359 -0.2303 -0.1884 -0.0946
 6995SOL    HW132444   4.190   1.232   7.439 -0.9565  0.1110 -0.5794
 6995SOL    HW232445   4.319   1.279   7.389  0.6982 -1.4818 -0.3579
 6996SOL     OW32446   3.399   1.392   9.148  0.5220  0.2629 -0.1917
 6996SOL    HW132447   3.390   1.313   9.201 -0.1839  1.1754  1.0508
 6996SOL    HW232448   3.384   1.346   9.066  3.2349 -0.2619 -0.3953
 6997SOL     OW32449   2.171   0.150   7.384 -0.4159 -0.4873  0.2317
 6997SOL    HW132450   2.177   0.073   7.440  2.5896 -0.2810  0.2220
 6997SOL    HW232451   2.211   0.210   7.447  1.8610 -1.9386  0.1874
 6998SOL     OW32452   0.681   1.660   7.564 -0.2248  0.0924  0.1254
 6998SOL    HW132453   0.735   1.582   7.572  0.7456  0.6984 -0.4134
 6998SOL    HW232454   0.616   1.644   7.495 -0.2531 -0.0742  0.1912
 6999SOL     OW32455   1.070   0.375   3.946  0.1246 -0.0406  0.0766
 6999SOL    HW132456   0.990   0.407   3.904  0.3828  1.3349  0.6393
 6999SOL    HW232457   1.114   0.337   3.870 -2.1527 -1.0454 -0.7437
 7000SOL     OW32458   1.407   4.115   7.918 -0.7875 -0.2385 -0.2807
 7000SOL    HW132459   1.328   4.138   7.967 -0.0435 -1.2454  1.3689
 7000SOL    HW232460   1.475   4.117   7.985 -0.2513 -0.0017 -0.8369
 7001SOL     OW32461   1.987   2.429   1.689 -0.4893  0.1559  0.0762
 7001SOL    HW132462   1.983   2.407   1.596  1.0525  1.5330 -0.3144
 7001SOL    HW232463   1.924   2.502   1.689  0.0890  0.6576  0.0283
 7002SOL     OW32464   2.180   0.117   5.174  0.5370  0.5499 -0.2252
 7002SOL    HW132465   2.220   0.133   5.259 -0.4012  0.7202  0.1833
 7002SOL    HW232466   2.085   0.121   5.184  0.4692 -1.0384 -0.2557
 7003SOL     OW32467   3.115   3.139   5.807 -0.1888 -0.5250 -0.3146
 7003SOL    HW132468   3.049   3.071   5.822 -0.0881 -0.7103 -0.7389
 7003SOL    HW232469   3.150   3.120   5.720  2.3028 -1.9766  1.0133
 7004SOL     OW32470   0.926   0.480  17.358  0.8713  0.3866 -0.1361
 7004SOL    HW132471   0.949   0.443  17.273 -0.6469 -1.4067  0.2157
 7004SOL    HW232472   0.832   0.497  17.353  1.1501  1.8442 -0.4646
 7005SOL     OW32473   4.044   3.154  13.647  0.8144  0.2628 -0.4520
 7005SOL    HW132474   4.094   3.102  13.710  0.3806  0.6236  0.1857
 7005SOL    HW232475   4.068   3.246  13.661 -0.5432  0.4498  0.7099
 7006SOL     OW32476   1.069   3.390   6.134 -0.0082 -0.7250 -0.3451
 7006SOL    HW132477   0.986   3.345   6.153  1.0249 -2.4834 -0.0170
 7006SOL    HW232478   1.055   3.455   6.203 -0.6319  1.2176 -2.2958
 7007SOL     OW32479   2.963   3.431   8.188  0.2417  0.3059 -0.2757
 7007SOL    HW132480   2.893   3.484   8.150 -1.9607 -0.7010  2.3522
 7007SOL    HW232481   3.037   3.492   8.186 -0.9536  1.7393 -0.9429
 7008SOL     OW32482   1.282   1.122   5.713 -0.6755  0.2874  0.2567
 7008SOL    HW132483   1.374   1.133   5.738 -0.9204  1.2483  0.7283
 7008SOL    HW232484   1.288   1.136   5.619 -2.3098 -1.3038 -0.0796
 7009SOL     OW32485   1.191   3.235   4.635 -0.3083  0.0475  0.4634
 7009SOL    HW132486   1.243   3.198   4.706  1.4426  1.2637 -0.1916
 7009SOL    HW232487   1.104   3.220   4.671 -0.5787 -0.5275 -0.4217
 7010SOL     OW32488   1.925   4.184   6.916  0.1985  0.0849  0.3894
 7010SOL    HW132489   1.895   4.269   6.885 -0.0664 -0.3727 -0.6262
 7010SOL    HW232490   1.958   4.150   6.832  0.4818  2.8157 -0.6062
 7011SOL     OW32491   2.772   0.355   2.111  0.5154  0.9151 -0.3794
 7011SOL    HW132492   2.746   0.295   2.181  1.6628  0.4751 -0.3355
 7011SOL    HW232493   2.689   0.357   2.064  0.3787 -1.2354 -0.2236
 7012SOL     OW32494   1.345   1.310   3.561  0.1492 -0.1241 -0.4352
 7012SOL    HW132495   1.251   1.297   3.562  0.1803 -0.3738 -0.9062
 7012SOL    HW232496   1.382   1.230   3.599  1.8645 -0.1919 -2.1990
 7013SOL     OW32497   1.251   3.227   2.402 -0.2379  0.4408  0.0495
 7013SOL    HW132498   1.293   3.243   2.486  1.4986  2.9061 -1.3189
 7013SOL    HW232499   1.319   3.250   2.339  0.9859  1.6686  1.8420
 7014SOL     OW32500   2.323   4.692  12.693 -0.3334  0.2531  0.0658
 7014SOL    HW132501   2.371   4.672  12.774  1.7522 -0.0739 -1.2400
 7014SOL    HW232502   2.364   4.624  12.638  2.0017  2.1121 -0.4927
 7015SOL     OW32503   2.618   0.012  15.102 -0.0213 -0.2025  0.0702
 7015SOL    HW132504   2.559   4.660  15.106 -0.0144 -0.1787  0.6621
 7015SOL    HW232505   2.592   0.044  15.189 -1.9024  0.4066 -0.7152
 7016SOL     OW32506   0.203   3.890   5.668  0.0774 -0.4507  0.4513
 7016SOL    HW132507   0.116   3.929   5.676 -0.3176 -1.0615 -0.7672
 7016SOL    HW232508   0.209   3.892   5.572 -0.0376 -2.1500  0.4084
 7017SOL     OW32509   1.068   1.029   3.311 -0.3093  0.9622  0.2693
 7017SOL    HW132510   1.151   1.012   3.355  0.3233  0.5726 -1.0727
 7017SOL    HW232511   1.050   0.940   3.278 -2.5430  1.1110  1.0626
 7018SOL     OW32512   4.254   3.702   6.152 -0.0658  0.2677 -0.0746
 7018SOL    HW132513   4.239   3.624   6.098 -0.0903  0.4541 -0.3393
 7018SOL    HW232514   4.262   3.765   6.081 -0.3451  1.6347  1.1090
 7019SOL     OW32515   0.273   4.213  10.099  0.1109 -0.1797  0.0676
 7019SOL    HW132516   0.296   4.146  10.035  0.8869  2.1768 -2.1444
 7019SOL    HW232517   0.254   4.281  10.034  0.5147 -0.7216 -0.6173
 7020SOL     OW32518   1.316   3.376  14.460 -0.6268  0.0583 -0.5928
 7020SOL    HW132519   1.387   3.328  14.417 -0.7990 -0.9918  0.2794
 7020SOL    HW232520   1.330   3.362  14.554 -0.0791  2.9049 -0.2420
 7021SOL     OW32521   4.334   1.339   6.674  0.2411  0.3083 -0.5406
 7021SOL    HW132522   4.278   1.407   6.711 -0.3662  0.1146 -1.0827
 7021SOL    HW232523   4.361   1.371   6.588 -0.0488  0.7464 -0.4707
 7022SOL     OW32524   3.677   4.274   9.274 -0.3733 -0.5674 -0.0512
 7022SOL    HW132525   3.689   4.182   9.249  1.9132 -0.5090  0.9103
 7022SOL    HW232526   3.697   4.280   9.367  1.3827 -1.2591 -0.4058
 7023SOL     OW32527   1.707   1.789   3.695 -0.5334 -0.2174 -0.1465
 7023SOL    HW132528   1.775   1.746   3.747 -0.8989 -1.3754 -0.6340
 7023SOL    HW232529   1.743   1.774   3.608  2.0138  0.2230  0.8199
 7024SOL     OW32530   2.500   0.301   2.192 -0.5866  0.0966  0.0838
 7024SOL    HW132531   2.430   0.246   2.157  1.1089 -1.5851 -0.6534
 7024SOL    HW232532   2.454   0.384   2.184  0.3520  0.4676 -1.4748
 7025SOL     OW32533   0.938   3.791  17.232  0.3650 -0.0760  0.0628
 7025SOL    HW132534   0.873   3.755  17.172  0.8315  1.5456 -1.4219
 7025SOL    HW232535   0.881   3.798  17.308 -0.1548  1.2634 -0.4412
 7026SOL     OW32536   0.265   2.521   4.764  0.1193 -0.6056 -0.6870
 7026SOL    HW132537   0.280   2.480   4.679  0.5831 -1.3136 -0.2611
 7026SOL    HW232538   0.204   2.586   4.729 -0.2112 -0.1895  0.6604
 7027SOL     OW32539   2.417   3.497  13.876 -0.9121 -0.1224  0.0407
 7027SOL    HW132540   2.406   3.562  13.806  0.1326  0.0251  0.0197
 7027SOL    HW232541   2.394   3.415  13.832  0.2062 -0.5548  0.2798
 7028SOL     OW32542   2.796   2.961  16.129 -0.0621  0.1844 -0.1854
 7028SOL    HW132543   2.716   3.007  16.104 -0.1687  1.2221  2.0321
 7028SOL    HW232544   2.842   3.029  16.179 -0.3372  0.9458 -0.9632
 7029SOL     OW32545   2.183   4.664   0.907  0.4893  0.5355 -0.2029
 7029SOL    HW132546   2.090   4.640   0.904  0.6549 -0.0088 -1.1206
 7029SOL    HW232547   2.190   4.682   0.813  2.2487  2.7162  0.3481
 7030SOL     OW32548   2.603   1.344  12.924  0.1688 -0.0173 -0.2394
 7030SOL    HW132549   2.692   1.345  12.957 -0.9020  3.4435  2.4558
 7030SOL    HW232550   2.575   1.434  12.941 -0.3456 -0.6463  2.2519
 7031SOL     OW32551   2.732   0.389   8.358 -0.2239  0.0547  0.0072
 7031SOL    HW132552   2.762   0.312   8.408  2.1646  0.8180 -0.2220
 7031SOL    HW232553   2.696   0.445   8.427 -1.9773 -1.1104  0.0412
 7032SOL     OW32554   3.110   4.417  13.696  0.4078 -0.1386  0.1941
 7032SOL    HW132555   3.053   4.363  13.750 -0.7743  0.4721 -0.4573
 7032SOL    HW232556   3.126   4.349  13.631 -0.5947 -0.5534  0.3876
 7033SOL     OW32557   3.095   1.007  10.488 -1.0188 -0.1636 -0.2094
 7033SOL    HW132558   3.120   0.991  10.579  0.1838  3.0851  0.0063
 7033SOL    HW232559   3.119   0.930  10.437 -0.9632 -1.7913  2.2246
 7034SOL     OW32560   2.526   1.099   6.599 -0.0184 -0.7904  0.0461
 7034SOL    HW132561   2.506   1.089   6.692 -0.2822  0.6228  0.1396
 7034SOL    HW232562   2.622   1.100   6.598  0.0095  1.3693  1.8566
 7035SOL     OW32563   2.402   4.615  11.405 -1.0500 -0.0299  0.1002
 7035SOL    HW132564   2.417   4.569  11.323  1.8994  0.4333  0.3925
 7035SOL    HW232565   2.307   4.628  11.406 -1.2052 -1.2487  1.0478
 7036SOL     OW32566   2.367   3.971   5.466  0.2199 -0.1313  0.4491
 7036SOL    HW132567   2.317   4.048   5.438 -2.9664 -1.2152  3.1628
 7036SOL    HW232568   2.349   3.914   5.392  1.3544 -0.6809  0.5983
 7037SOL     OW32569   0.491   4.112   7.069  0.5229 -0.1391  0.2589
 7037SOL    HW132570   0.411   4.060   7.079  0.8069 -0.5393  0.4048
 7037SOL    HW232571   0.560   4.047   7.078  0.6622  0.1927  1.5877
 7038SOL     OW32572   3.471   1.148   8.499  0.0825  0.3514 -0.3935
 7038SOL    HW132573   3.483   1.225   8.554  0.9921 -0.8524  1.0761
 7038SOL    HW232574   3.376   1.139   8.507 -0.0528  1.4458 -0.8083
 7039SOL     OW32575   3.817   4.516   6.404 -0.1885  0.3407  0.8785
 7039SOL    HW132576   3.755   4.573   6.449  0.7386  1.3852  0.8298
 7039SOL    HW232577   3.766   4.495   6.325 -0.3319  3.1227  0.2509
 7040SOL     OW32578   4.307   1.082   5.792  0.2451  0.4336 -0.6694
 7040SOL    HW132579   4.336   1.088   5.701 -0.4372 -0.2917 -0.9328
 7040SOL    HW232580   4.226   1.032   5.779  0.9100 -1.2027  1.5120
 7041SOL     OW32581   3.492   4.292   1.429 -0.2080  0.4787  0.0779
 7041SOL    HW132582   3.501   4.226   1.361 -0.9911 -0.2198  0.6515
 7041SOL    HW232583   3.582   4.286   1.464  0.0609 -2.1919 -1.0893
 7042SOL     OW32584   0.517   0.187  17.393 -0.2958 -0.0469 -0.3652
 7042SOL    HW132585   0.552   0.266  17.352  1.8852 -0.5728  0.4980
 7042SOL    HW232586   0.545   0.203  17.483  1.8521  1.4011 -1.2985
 7043SOL     OW32587   3.234   1.082   8.207  0.3361 -0.0287  0.3178
 7043SOL    HW132588   3.237   1.003   8.261 -1.2591 -0.2672  0.0632
 7043SOL    HW232589   3.292   1.142   8.253  1.2928 -0.2753 -0.5735
 7044SOL     OW32590   0.776   4.432   6.389  0.0857  0.1806 -0.5948
 7044SOL    HW132591   0.734   4.440   6.475  3.0141  1.4104  0.7066
 7044SOL    HW232592   0.712   4.466   6.327  0.4343 -0.2303 -1.1759
 7045SOL     OW32593   0.982   3.763   5.614 -0.1788  0.4360 -0.2446
 7045SOL    HW132594   1.032   3.686   5.641 -2.8559 -1.9405 -2.0322
 7045SOL    HW232595   0.952   3.781   5.703  1.0764 -2.4295  0.7684
 7046SOL     OW32596   2.354   2.694   7.953  0.2751 -0.2713  0.0334
 7046SOL    HW132597   2.288   2.624   7.955 -2.2733  2.0859 -2.8210
 7046SOL    HW232598   2.427   2.648   7.995  1.6508  2.2931  0.4506
 7047SOL     OW32599   0.564   0.563  12.021  0.3862  0.2219  0.0722
 7047SOL    HW132600   0.587   0.480  12.062  0.4420 -0.6591 -1.7030
 7047SOL    HW232601   0.631   0.581  11.955  0.4029  0.0451  0.0408
 7048SOL     OW32602   2.422   1.382   8.886  0.5136  0.9020 -0.3914
 7048SOL    HW132603   2.488   1.441   8.851  2.0991 -0.7575 -0.2340
 7048SOL    HW232604   2.355   1.446   8.908  1.8437  1.9090  0.7159
 7049SOL     OW32605   0.764   2.558   2.636  0.6224 -0.3763  0.0957
 7049SOL    HW132606   0.808   2.486   2.682 -0.0422  0.6799  2.3657
 7049SOL    HW232607   0.751   2.618   2.709  1.4190 -0.4348  0.2822
 7050SOL     OW32608   4.318   0.123   0.236  0.0189 -0.1072 -0.3672
 7050SOL    HW132609   4.266   0.147   0.160  0.3357  1.6561 -0.0310
 7050SOL    HW232610   4.308   0.028   0.227  0.3536 -0.3250  1.5031
 7051SOL     OW32611   1.970   4.259   3.803 -0.3384  0.1272 -0.4724
 7051SOL    HW132612   2.007   4.319   3.738  1.0284  0.1479  0.3200
 7051SOL    HW232613   1.974   4.308   3.885  0.4709  0.4853 -0.7187
 7052SOL     OW32614   1.324   3.037   5.443  0.2312 -0.5161  0.6546
 7052SOL    HW132615   1.400   2.988   5.411 -0.7352 -0.8541 -1.1463
 7052SOL    HW232616   1.251   2.993   5.400  0.6483  0.2982 -0.9083
 7053SOL     OW32617   0.537   3.164   2.893  0.0328  0.2339  0.7169
 7053SOL    HW132618   0.526   3.110   2.971 -2.8351 -1.0843 -0.5765
 7053SOL    HW232619   0.606   3.222   2.925 -0.7515  1.4245  0.2494
 7054SOL     OW32620   4.300   1.570   5.413 -0.1653 -0.8602 -0.9199
 7054SOL    HW132621   4.234   1.594   5.349 -0.0419  0.5760 -0.5282
 7054SOL    HW232622   4.371   1.538   5.357  2.0256 -0.2261  1.4702
 7055SOL     OW32623   4.210   0.355   3.036 -0.5390 -0.9449 -0.7698
 7055SOL    HW132624   4.222   0.324   2.946  0.9875 -1.4964 -0.3747
 7055SOL    HW232625   4.264   0.433   3.048 -1.1259 -0.7370  0.5488
 7056SOL     OW32626   0.260   3.669   3.380 -0.3942 -0.1990  0.4451
 7056SOL    HW132627   0.198   3.710   3.320 -0.2627  1.8685  1.7243
 7056SOL    HW232628   0.289   3.743   3.433 -0.6370 -0.6011  1.1442
 7057SOL     OW32629   4.563   4.671   1.289 -0.0741 -0.8721 -0.1953
 7057SOL    HW132630   4.650   4.684   1.328  0.2671 -0.6225 -1.0612
 7057SOL    HW232631   4.558   0.019   1.226  0.9174 -0.1918  0.5024
 7058SOL     OW32632   1.280   4.602   5.605 -0.0955 -0.0096 -0.5996
 7058SOL    HW132633   1.190   4.632   5.590  0.1380  1.3523  0.7067
 7058SOL    HW232634   1.296   4.632   5.695 -0.9266 -1.7813  0.1567
 7059SOL     OW32635   1.317   0.717   2.994  0.0982 -0.2208 -0.4089
 7059SOL    HW132636   1.352   0.637   2.955  0.1624 -0.5278  0.2743
 7059SOL    HW232637   1.361   0.708   3.079  1.7509  1.5461 -1.0564
 7060SOL     OW32638   4.580   3.174   5.830  0.1752 -0.3788  0.6933
 7060SOL    HW132639   4.605   3.111   5.763  2.8562  0.3244  1.0343
 7060SOL    HW232640   4.593   3.256   5.781  2.9786 -2.0565 -1.3585
 7061SOL     OW32641   2.290   3.362   6.886  0.1330 -0.0344 -0.4872
 7061SOL    HW132642   2.377   3.397   6.870 -0.7557  1.8608 -1.1033
 7061SOL    HW232643   2.258   3.386   6.799  2.1412  0.5857 -1.0590
 7062SOL     OW32644   0.926   4.456   3.207 -0.0564 -0.6618  0.4569
 7062SOL    HW132645   0.945   4.390   3.139  1.9967  0.7234 -0.3076
 7062SOL    HW232646   0.846   4.496   3.172  1.7303  2.8650  0.4974
 7063SOL     OW32647   0.522   1.512   5.165  0.4113 -0.5689  0.5279
 7063SOL    HW132648   0.613   1.502   5.193 -0.5352 -0.4767  3.5783
 7063SOL    HW232649   0.520   1.607   5.177  1.0985 -0.3503 -1.0857
 7064SOL     OW32650   4.697   4.261   0.124 -0.7877  0.6555 -0.3801
 7064SOL    HW132651   4.695   4.324   0.051  1.0184 -0.2445 -1.2115
 7064SOL    HW232652   0.030   4.312   0.182 -0.9897  0.4498 -0.0014
 7065SOL     OW32653   2.444   1.377   7.167 -0.2902  0.8032 -0.6166
 7065SOL    HW132654   2.412   1.300   7.121 -0.1925  0.2053  0.3075
 7065SOL    HW232655   2.535   1.370   7.140 -0.9534 -0.5292 -2.4954
 7066SOL     OW32656   0.481   0.766   6.779  0.3041 -0.6920 -0.3180
 7066SOL    HW132657   0.465   0.845   6.831 -0.4330 -1.0368 -0.0266
 7066SOL    HW232658   0.557   0.728   6.823  0.1347 -0.0828  0.4924
 7067SOL     OW32659   0.978   4.391   2.057  0.2810  0.3165  0.0018
 7067SOL    HW132660   1.028   4.442   1.994  0.6653 -1.1773 -0.8969
 7067SOL    HW232661   0.891   4.420   2.033 -0.8465 -4.2172 -1.3816
 7068SOL     OW32662   1.350   0.983   3.379 -0.0717 -0.4731  0.4004
 7068SOL    HW132663   1.387   0.901   3.346 -0.6214 -0.1285 -1.0868
 7068SOL    HW232664   1.398   1.006   3.458 -3.0931  1.3258  1.7163
 7069SOL     OW32665   0.254   0.759   9.016  0.3147  0.1334 -0.1803
 7069SOL    HW132666   0.171   0.782   9.058 -0.2728  0.0965 -1.3328
 7069SOL    HW232667   0.228   0.718   8.933  1.5083  0.3698 -0.6709
 7070SOL     OW32668   3.521   0.303   3.440 -0.0244  0.2648  0.8355
 7070SOL    HW132669   3.458   0.374   3.453 -1.5823 -1.0293  0.3837
 7070SOL    HW232670   3.526   0.307   3.344 -2.2975  0.1632  0.7084
 7071SOL     OW32671   1.487   2.937  12.356 -0.5008  0.0711 -0.0824
 7071SOL    HW132672   1.520   3.000  12.420  2.2130 -0.4378 -0.9408
 7071SOL    HW232673   1.576   2.908  12.335 -0.1458  0.1969  1.2289
 7072SOL     OW32674   0.562   0.262  14.721  0.7897 -0.2811 -0.0454
 7072SOL    HW132675   0.648   0.227  14.701 -0.6810 -4.1889  0.3651
 7072SOL    HW232676   0.523   0.194  14.777 -2.3774  0.7417 -1.0197
 7073SOL     OW32677   1.216   3.029  16.551 -0.5128 -0.1054 -0.2153
 7073SOL    HW132678   1.208   3.000  16.642 -1.2320 -2.0288 -0.9052
 7073SOL    HW232679   1.247   2.943  16.524  0.4980  0.3127 -0.4024
 7074SOL     OW32680   2.527   3.101   7.913  0.1769 -0.3251  0.1433
 7074SOL    HW132681   2.519   3.039   7.986  2.2390 -2.1489 -1.2040
 7074SOL    HW232682   2.460   3.167   7.934  2.4777  1.7193  1.1548
 7075SOL     OW32683   2.357   2.263  13.013  0.4237 -0.3882 -0.0955
 7075SOL    HW132684   2.401   2.193  12.965 -0.1862 -1.3792  0.7701
 7075SOL    HW232685   2.294   2.292  12.947 -0.2905  1.9424  1.6047
 7076SOL     OW32686   0.719   0.449  15.976 -0.0781 -0.7254  0.9492
 7076SOL    HW132687   0.704   0.526  15.922  0.7833 -0.7162  0.7300
 7076SOL    HW232688   0.803   0.461  16.020  0.2820  1.2166 -0.2766
 7077SOL     OW32689   4.111   2.025   4.537 -0.3183 -0.0040  0.1712
 7077SOL    HW132690   4.160   1.958   4.489 -0.9566 -1.1546  1.1246
 7077SOL    HW232691   4.036   2.014   4.478 -0.5240 -3.0658  1.0361
 7078SOL     OW32692   3.326   1.752  10.730  0.2864 -0.0733  0.0905
 7078SOL    HW132693   3.381   1.751  10.652  0.8011  0.4453  0.4505
 7078SOL    HW232694   3.398   1.788  10.781 -0.9680  1.1059  1.0542
 7079SOL     OW32695   1.627   3.766   2.359 -0.0896  0.0949 -0.6024
 7079SOL    HW132696   1.658   3.814   2.282 -0.4447 -0.1879 -0.9261
 7079SOL    HW232697   1.536   3.755   2.330 -0.1295  1.1768 -0.8966
 7080SOL     OW32698   1.273   2.051  16.981  0.1761 -0.7035 -0.0338
 7080SOL    HW132699   1.207   2.084  16.920  0.0935 -1.2068 -0.2234
 7080SOL    HW232700   1.318   2.132  17.003 -1.4066 -0.3067  1.7291
 7081SOL     OW32701   0.394   3.552   5.918 -0.5941 -0.0480 -0.2680
 7081SOL    HW132702   0.487   3.551   5.942 -0.5177  0.4743 -0.5372
 7081SOL    HW232703   0.355   3.585   5.999 -1.2242  0.5650 -0.8296
 7082SOL     OW32704   2.875   4.528   4.716  0.3410 -0.5613 -0.2692
 7082SOL    HW132705   2.802   4.511   4.777 -0.3115  0.2747 -0.8171
 7082SOL    HW232706   2.830   4.502   4.636 -0.9210  0.0427  0.2402
 7083SOL     OW32707   0.919   4.695   4.832 -0.1421 -0.7449  0.0384
 7083SOL    HW132708   0.881   0.024   4.761 -2.6091 -0.0320  1.9228
 7083SOL    HW232709   0.871   4.613   4.837 -0.8098 -0.2582  1.4308
 7084SOL     OW32710   2.907   3.191   5.194  0.4810 -0.1082  0.0873
 7084SOL    HW132711   2.934   3.158   5.109 -2.0868  0.2075 -0.8439
 7084SOL    HW232712   2.813   3.169   5.189  0.3132  0.7516 -0.4351
 7085SOL     OW32713   3.825   0.295   8.553 -0.1391 -0.0500 -0.6436
 7085SOL    HW132714   3.830   0.349   8.474 -0.9874  0.2263 -0.5048
 7085SOL    HW232715   3.840   0.209   8.514 -0.7218 -1.4695  2.2683
 7086SOL     OW32716   0.700   3.474  14.452 -0.2034 -0.1324 -0.2994
 7086SOL    HW132717   0.674   3.467  14.360 -2.9085 -0.1414  0.4623
 7086SOL    HW232718   0.738   3.561  14.443 -0.2563  0.0113  0.9594
 7087SOL     OW32719   0.763   0.065  14.628  0.1429 -0.0823 -0.6887
 7087SOL    HW132720   0.838   0.121  14.650 -1.1093  0.6849  1.6934
 7087SOL    HW232721   0.780   0.050  14.535 -0.4581  0.7044 -0.9261
 7088SOL     OW32722   4.471   4.199   7.420  0.4056  0.7003 -0.7741
 7088SOL    HW132723   4.386   4.223   7.382 -1.2067  0.7478  2.8698
 7088SOL    HW232724   4.523   4.279   7.407 -0.3141  1.1109 -1.0982
 7089SOL     OW32725   2.177   3.904   2.434  0.2577 -0.7153 -0.2452
 7089SOL    HW132726   2.143   3.876   2.349  0.2387 -0.2480 -0.3922
 7089SOL    HW232727   2.089   3.929   2.463  0.7159 -0.3437  0.8291
 7090SOL     OW32728   3.241   3.593   3.081 -0.3765 -0.0831  0.4201
 7090SOL    HW132729   3.331   3.601   3.050  0.2863 -1.4620  2.0242
 7090SOL    HW232730   3.195   3.605   2.998 -0.1111 -0.3446  0.2358
 7091SOL     OW32731   1.711   2.295   4.431  0.0842  0.1361 -0.2399
 7091SOL    HW132732   1.797   2.329   4.457 -1.6849  3.5948  1.1462
 7091SOL    HW232733   1.740   2.219   4.381 -0.8805  1.0261 -2.1409
 7092SOL     OW32734   1.785   4.225   6.351  0.0641  0.0795  0.8167
 7092SOL    HW132735   1.855   4.286   6.325 -0.9154  1.0147  0.3756
 7092SOL    HW232736   1.744   4.274   6.422 -2.2846 -1.0849  0.2460
 7093SOL     OW32737   4.477   1.909   9.156  0.3157 -0.0365 -0.1353
 7093SOL    HW132738   4.430   1.988   9.183  0.9482  0.3793 -0.2516
 7093SOL    HW232739   4.512   1.888   9.243  3.1745  0.4363 -1.1828
 7094SOL     OW32740   1.548   2.386   4.254  0.1191 -0.5036  0.0209
 7094SOL    HW132741   1.554   2.336   4.172  1.6134  2.5954 -1.7628
 7094SOL    HW232742   1.610   2.346   4.315  0.8301  1.4385  0.5807
 7095SOL     OW32743   3.531   3.406   8.564 -0.0855 -0.5144 -0.0039
 7095SOL    HW132744   3.548   3.395   8.658  2.3288 -0.5419 -0.4285
 7095SOL    HW232745   3.578   3.489   8.554 -0.9575  0.1040  1.0044
 7096SOL     OW32746   0.307   2.193   9.204 -0.0187 -0.0638  0.3548
 7096SOL    HW132747   0.296   2.103   9.172  0.8031 -0.4150  1.0587
 7096SOL    HW232748   0.282   2.178   9.295 -1.5629 -0.7299 -0.1839
 7097SOL     OW32749   2.976   1.758   7.448  0.0754 -0.2621  0.4265
 7097SOL    HW132750   2.990   1.801   7.363  0.6029 -0.8641  0.2158
 7097SOL    HW232751   2.910   1.820   7.480 -0.6680 -1.9574  2.1770
 7098SOL     OW32752   4.091   0.962   3.287  0.9869  0.1616 -0.1541
 7098SOL    HW132753   4.072   1.036   3.345  0.9643  0.3495 -0.4022
 7098SOL    HW232754   4.172   0.920   3.315  0.5658 -0.5128  0.0638
 7099SOL     OW32755   3.319   2.460   4.609  0.7879 -0.5986  0.5137
 7099SOL    HW132756   3.327   2.375   4.653  0.6161 -1.1932 -0.5841
 7099SOL    HW232757   3.248   2.497   4.661  0.3267 -1.3113  0.3824
 7100SOL     OW32758   1.702   0.696   7.618 -0.3699 -0.3828 -0.3336
 7100SOL    HW132759   1.689   0.757   7.691 -1.6693 -0.9600 -0.0725
 7100SOL    HW232760   1.658   0.612   7.630 -0.3996 -0.4075 -0.6186
 7101SOL     OW32761   0.623   2.898  14.882 -0.0188  0.1725 -0.4036
 7101SOL    HW132762   0.607   2.963  14.814  2.2873  0.6353 -0.5336
 7101SOL    HW232763   0.713   2.924  14.903  0.4214 -0.5873 -1.3946
 7102SOL     OW32764   2.027   3.631   8.688  0.7790  0.2676  0.0722
 7102SOL    HW132765   2.034   3.637   8.593  1.6068  1.7254  0.2367
 7102SOL    HW232766   1.988   3.714   8.712 -0.7226 -1.2385  2.7686
 7103SOL     OW32767   2.469   1.264   3.834  0.0903  0.0575  0.3639
 7103SOL    HW132768   2.443   1.314   3.756  0.1347 -2.1797 -1.0749
 7103SOL    HW232769   2.442   1.178   3.803 -0.3403  1.0014 -1.9103
 7104SOL     OW32770   0.166   1.495   8.785 -0.5611 -0.0095 -0.1465
 7104SOL    HW132771   0.107   1.461   8.852 -0.2183  0.3793  0.3494
 7104SOL    HW232772   0.146   1.588   8.776  0.0122  0.1920  0.6281
 7105SOL     OW32773   0.361   3.337  14.790 -0.2010 -0.1815 -0.9260
 7105SOL    HW132774   0.273   3.368  14.767 -0.0135  0.0209 -1.3754
 7105SOL    HW232775   0.404   3.420  14.813 -0.3941 -0.1149 -0.8093
 7106SOL     OW32776   2.473   0.693  16.929 -0.2682  0.1168  0.3221
 7106SOL    HW132777   2.426   0.650  16.858  1.3780  0.7810 -1.1827
 7106SOL    HW232778   2.474   0.623  16.994 -0.3537  2.0761  2.4470
 7107SOL     OW32779   3.963   0.081   1.162  0.4284  0.5056 -0.5933
 7107SOL    HW132780   3.898   0.039   1.105 -0.5893  3.7082 -1.8093
 7107SOL    HW232781   4.042   0.049   1.119 -0.5014 -1.3438 -0.9342
 7108SOL     OW32782   4.053   1.459   7.007 -0.0409 -0.0589  0.7143
 7108SOL    HW132783   4.087   1.374   7.033  2.5682  0.7034 -0.2665
 7108SOL    HW232784   3.965   1.457   7.046 -0.9122  1.6718 -1.1223
 7109SOL     OW32785   3.894   0.014   3.452  0.6774  0.3752  0.2409
 7109SOL    HW132786   3.843   0.076   3.504  0.0525  0.4125 -0.4080
 7109SOL    HW232787   3.821   4.704   3.400 -0.2897 -0.1551  1.9446
 7110SOL     OW32788   0.324   3.881   3.969 -0.6117  0.7135 -0.4756
 7110SOL    HW132789   0.359   3.842   4.050 -0.0241  1.0690 -0.5559
 7110SOL    HW232790   0.297   3.799   3.927  0.7315 -1.0685  2.0605
 7111SOL     OW32791   3.650   2.162  13.750  0.5242 -0.3174 -0.2727
 7111SOL    HW132792   3.645   2.235  13.812 -0.7891 -1.4339  0.9155
 7111SOL    HW232793   3.624   2.203  13.667 -2.0525  0.5127  0.9606
 7112SOL     OW32794   0.990   1.583   3.243 -0.7607  0.2433  0.1744
 7112SOL    HW132795   1.034   1.652   3.193 -0.1201  0.0473  0.4709
 7112SOL    HW232796   0.903   1.579   3.202  0.2626 -1.8126 -1.7606
 7113SOL     OW32797   0.309   0.351   9.000 -0.3272 -0.2009  0.4463
 7113SOL    HW132798   0.295   0.353   8.905 -2.7720 -2.2032  0.7585
 7113SOL    HW232799   0.239   0.287   9.015 -0.9447 -0.0725 -1.8611
 7114SOL     OW32800   1.856   3.228   3.450  0.1642  0.0366 -0.3420
 7114SOL    HW132801   1.925   3.208   3.514  0.5389  2.1019 -0.0809
 7114SOL    HW232802   1.897   3.220   3.364 -0.6971  2.4718 -0.9716
 7115SOL     OW32803   3.619   1.611   1.858  0.4764  0.0852 -0.1371
 7115SOL    HW132804   3.617   1.642   1.767  1.6645  0.2762 -0.0951
 7115SOL    HW232805   3.702   1.565   1.847  0.4395 -0.3232  1.2892
 7116SOL     OW32806   0.364   3.448  10.839 -0.2444  0.1955  0.0244
 7116SOL    HW132807   0.305   3.443  10.914  0.2404 -0.7935  0.3309
 7116SOL    HW232808   0.323   3.389  10.776  0.6249  1.0169 -1.3182
 7117SOL     OW32809   0.771   2.019  14.155  0.4754  0.1524  0.5226
 7117SOL    HW132810   0.752   2.103  14.196  0.8356  0.3594  0.2691
 7117SOL    HW232811   0.854   2.048  14.116 -0.5749  1.4512 -0.7442
 7118SOL     OW32812   0.044   3.618   4.851 -0.4456  0.1505  0.2627
 7118SOL    HW132813   0.096   3.693   4.824 -1.0876  0.7598  0.7275
 7118SOL    HW232814   4.680   3.656   4.840  0.7762  2.5382 -1.1785
 7119SOL     OW32815   1.663   1.262   3.268  0.1149 -0.5997  0.5339
 7119SOL    HW132816   1.623   1.187   3.312  0.3381 -1.7355 -1.1910
 7119SOL    HW232817   1.653   1.325   3.338  0.9263 -0.4222  0.4830
 7120SOL     OW32818   4.526   1.912   4.997 -0.4320 -0.0721  0.2947
 7120SOL    HW132819   4.560   1.970   5.064  1.2252 -1.4826  0.6760
 7120SOL    HW232820   4.517   1.972   4.923  1.2300 -0.8051 -0.4949
 7121SOL     OW32821   0.147   3.975  11.376 -0.3083  0.3516 -0.1640
 7121SOL    HW132822   0.229   4.010  11.413 -1.0208 -1.1882  2.8204
 7121SOL    HW232823   0.109   4.052  11.333  0.2920  0.8333  0.1662
 7122SOL     OW32824   1.249   2.851   3.476 -0.2234 -0.4026  0.2341
 7122SOL    HW132825   1.218   2.912   3.410  0.7423  0.0457  0.2034
 7122SOL    HW232826   1.285   2.776   3.429  2.9222  1.2093  0.0723
 7123SOL     OW32827   0.782   2.688  11.160  0.2437  0.2943  0.4392
 7123SOL    HW132828   0.854   2.631  11.188  1.9204  1.9062 -0.5759
 7123SOL    HW232829   0.748   2.642  11.083  0.7909 -0.8384  0.8665
 7124SOL     OW32830   1.781   4.068   8.822  0.4944  0.2122 -0.3762
 7124SOL    HW132831   1.702   4.115   8.847 -0.0280 -0.3620 -0.9589
 7124SOL    HW232832   1.840   4.092   8.894  2.0873 -0.9749 -1.2816
 7125SOL     OW32833   3.630   3.733   9.745  0.6361  0.5419 -0.3799
 7125SOL    HW132834   3.654   3.677   9.818  1.9325 -1.0649 -2.0333
 7125SOL    HW232835   3.690   3.698   9.679 -1.3897 -1.5548 -1.0890
 7126SOL     OW32836   0.371   3.672   2.452  0.2360  0.2641  0.3645
 7126SOL    HW132837   0.280   3.644   2.438  0.6838 -0.4701 -1.0604
 7126SOL    HW232838   0.364   3.752   2.504  1.2152  2.1614 -2.3858
 7127SOL     OW32839   0.389   3.176  16.889 -0.3530 -0.5875  0.0315
 7127SOL    HW132840   0.332   3.121  16.943 -0.5470 -0.6156 -0.2020
 7127SOL    HW232841   0.472   3.164  16.935 -0.2997  1.1221  0.3753
 7128SOL     OW32842   2.672   3.096   5.114  0.0041 -0.2256  0.7230
 7128SOL    HW132843   2.613   3.167   5.089 -0.7492 -0.7182  1.0599
 7128SOL    HW232844   2.710   3.060   5.034  0.9111  0.6101  0.7799
 7129SOL     OW32845   4.169   2.447   1.951 -0.2668  0.5989  0.3155
 7129SOL    HW132846   4.125   2.523   1.989 -0.3909  0.8530 -0.3362
 7129SOL    HW232847   4.121   2.383   2.002  0.5640 -1.0164 -0.9342
 7130SOL     OW32848   3.565   2.528   6.202  0.1341  0.3539 -0.1411
 7130SOL    HW132849   3.536   2.590   6.135  1.9529  0.7593 -0.5478
 7130SOL    HW232850   3.601   2.461   6.144  0.1322  0.1754  0.0647
 7131SOL     OW32851   4.416   3.152   8.161  0.2346 -0.0768  0.2343
 7131SOL    HW132852   4.367   3.228   8.190  1.6698  0.0539  2.3036
 7131SOL    HW232853   4.481   3.165   8.230  0.9679 -0.9123 -0.2841
 7132SOL     OW32854   4.200   3.094   6.881 -0.0550 -0.1271 -0.1964
 7132SOL    HW132855   4.173   3.002   6.886 -1.3954  0.2452 -0.5118
 7132SOL    HW232856   4.223   3.104   6.789 -2.9017 -1.2430 -1.0390
 7133SOL     OW32857   2.495   4.153  17.357 -0.1562  0.7063  0.3130
 7133SOL    HW132858   2.444   4.228  17.327  1.1052  0.8936 -1.3544
 7133SOL    HW232859   2.440   4.075  17.346  0.4818  0.0571  1.7179
 7134SOL     OW32860   0.760   1.066   3.962 -0.2266 -0.7047  0.1045
 7134SOL    HW132861   0.767   1.116   4.043  0.2428 -0.5654 -0.0180
 7134SOL    HW232862   0.666   1.047   3.962 -0.2889 -0.4147 -0.5960
 7135SOL     OW32863   2.293   2.446   7.205 -0.4903  0.1325  0.7802
 7135SOL    HW132864   2.327   2.465   7.292  0.3104  0.0299  0.4949
 7135SOL    HW232865   2.209   2.404   7.224 -0.1930 -1.3869 -1.1866
 7136SOL     OW32866   3.769   1.244   1.808 -0.1141 -0.3554 -0.0970
 7136SOL    HW132867   3.782   1.334   1.779  1.6146 -0.5633  0.0191
 7136SOL    HW232868   3.818   1.246   1.891  2.7165 -0.8781 -1.7420
 7137SOL     OW32869   1.271   0.401   6.149 -0.1623  0.3747 -0.2489
 7137SOL    HW132870   1.317   0.449   6.080  1.1492 -0.5834 -0.0585
 7137SOL    HW232871   1.204   0.357   6.096  0.9056 -1.8790  0.2532
 7138SOL     OW32872   1.245   3.144   0.878  0.2066  0.0024  1.0199
 7138SOL    HW132873   1.190   3.220   0.901 -0.1693 -1.0143  3.4170
 7138SOL    HW232874   1.176   3.084   0.851  1.4124 -1.4159  1.0902
 7139SOL     OW32875   1.464   2.501   7.145  0.3438 -0.2140  0.7440
 7139SOL    HW132876   1.468   2.467   7.235 -3.3352  0.1911  1.0496
 7139SOL    HW232877   1.553   2.529   7.125  0.9909 -3.0684 -0.3442
 7140SOL     OW32878   3.473   1.177   5.320 -0.4696  0.2948  0.0024
 7140SOL    HW132879   3.562   1.190   5.352 -0.7395 -1.0808  1.2806
 7140SOL    HW232880   3.506   1.115   5.255  1.0298  0.7552  0.3334
 7141SOL     OW32881   1.613   2.984   0.286 -0.5616 -0.0169  0.5682
 7141SOL    HW132882   1.532   3.032   0.307  1.1876  2.3051  2.0587
 7141SOL    HW232883   1.596   2.928   0.211  2.5129  0.9370 -0.8152
 7142SOL     OW32884   2.525   1.328   5.638  0.2254 -0.7338  0.0465
 7142SOL    HW132885   2.542   1.339   5.545  0.8657  1.2750  0.4012
 7142SOL    HW232886   2.609   1.359   5.672  0.0467 -0.0797 -0.1187
 7143SOL     OW32887   4.347   3.239   3.798 -0.0952 -0.1501 -0.1430
 7143SOL    HW132888   4.286   3.193   3.740 -1.5936  0.8207  0.6382
 7143SOL    HW232889   4.385   3.169   3.850 -0.2749 -1.4772 -1.8004
 7144SOL     OW32890   2.681   1.687  14.272 -0.1549 -0.2802  0.1852
 7144SOL    HW132891   2.759   1.656  14.226 -0.7281 -0.9330 -0.3500
 7144SOL    HW232892   2.663   1.770  14.227 -0.9411 -0.8841 -0.6267
 7145SOL     OW32893   3.294   2.893   2.802 -0.0642 -0.0761 -0.0438
 7145SOL    HW132894   3.319   2.972   2.850 -1.8555 -0.0022  0.7658
 7145SOL    HW232895   3.278   2.936   2.718 -0.3087  1.9799  1.0693
 7146SOL     OW32896   3.812   3.345   3.258 -0.0066 -0.6704  0.5106
 7146SOL    HW132897   3.885   3.406   3.260 -1.2087  0.8069 -0.2190
 7146SOL    HW232898   3.754   3.397   3.202  0.8362  0.1637  0.4222
 7147SOL     OW32899   0.448   3.491   0.398  0.5132 -0.2812  0.6369
 7147SOL    HW132900   0.368   3.438   0.395  1.5937 -1.8830  0.1344
 7147SOL    HW232901   0.436   3.531   0.484 -2.1272 -0.8772  0.5524
 7148SOL     OW32902   1.797   3.589   2.471 -0.3099  0.6906  0.2114
 7148SOL    HW132903   1.746   3.559   2.546 -1.0179  0.8686 -0.1896
 7148SOL    HW232904   1.754   3.667   2.434  2.2315  2.0024  0.0194
 7149SOL     OW32905   0.729   0.202   4.662  0.1160  0.2168  0.0829
 7149SOL    HW132906   0.714   0.293   4.636  1.2068  0.6894  1.1123
 7149SOL    HW232907   0.666   0.154   4.608  0.6025 -0.3720  0.0306
 7150SOL     OW32908   4.317   0.686   6.698 -0.0811  0.2158  0.6908
 7150SOL    HW132909   4.390   0.684   6.636 -1.4067  0.2575 -0.8542
 7150SOL    HW232910   4.314   0.778   6.723  0.1381  0.3607  0.1707
 7151SOL     OW32911   4.661   3.959   5.140 -0.0537 -0.4361 -0.3310
 7151SOL    HW132912   4.600   4.019   5.184  0.3531 -1.8722  2.1571
 7151SOL    HW232913   4.650   3.990   5.050 -0.2466 -0.5931 -0.3627
 7152SOL     OW32914   2.688   2.614   6.165  0.3323 -0.2629 -0.5444
 7152SOL    HW132915   2.672   2.695   6.117 -1.8342 -0.3396  0.0204
 7152SOL    HW232916   2.623   2.554   6.127  0.1692 -2.3839  3.0626
 7153SOL     OW32917   2.988   1.289   2.545 -0.0342  0.5576  0.6697
 7153SOL    HW132918   3.072   1.312   2.586 -0.5479  2.8075  0.4547
 7153SOL    HW232919   2.931   1.295   2.622 -0.9065 -1.1081  0.1423
 7154SOL     OW32920   2.157   4.054   5.064  0.0023 -0.3791 -0.4597
 7154SOL    HW132921   2.207   4.135   5.078  0.5986 -0.8317  0.0482
 7154SOL    HW232922   2.068   4.083   5.044  0.0481  0.2783  0.3160
 7155SOL     OW32923   3.854   1.736   4.403  1.0352  0.1791 -0.3352
 7155SOL    HW132924   3.782   1.698   4.353 -2.1684  1.7849  3.0894
 7155SOL    HW232925   3.932   1.706   4.355  0.5783 -2.8189  0.7688
 7156SOL     OW32926   1.321   3.689   2.296  0.2492 -0.0127 -0.1362
 7156SOL    HW132927   1.324   3.733   2.211  0.9164  0.3226  0.0613
 7156SOL    HW232928   1.230   3.705   2.321 -0.3368 -3.5365  0.0316
 7157SOL     OW32929   1.347   3.570   3.834 -0.2221  0.1298  0.6035
 7157SOL    HW132930   1.264   3.613   3.815  0.5717 -0.1444 -3.5284
 7157SOL    HW232931   1.388   3.598   3.751  1.6958 -0.0198  1.4962
 7158SOL     OW32932   1.667   2.953   8.321 -0.1594  0.2956  0.1100
 7158SOL    HW132933   1.752   2.984   8.354 -0.5925  1.8739 -0.2739
 7158SOL    HW232934   1.605   3.024   8.336 -0.7491  0.1441 -1.5911
 7159SOL     OW32935   2.632   0.228   3.630  0.7276 -0.0081  0.6734
 7159SOL    HW132936   2.644   0.322   3.617  0.3260 -0.2641 -1.4733
 7159SOL    HW232937   2.565   0.228   3.698  0.4619  0.1578  0.4082
 7160SOL     OW32938   3.271   2.941  15.135  0.4994  0.1431  0.1810
 7160SOL    HW132939   3.213   2.917  15.063  0.9054  3.3861 -1.1846
 7160SOL    HW232940   3.253   3.034  15.127  1.7833  0.0969 -3.0613
 7161SOL     OW32941   1.909   2.337   7.822  0.2483  0.4535  0.9681
 7161SOL    HW132942   1.831   2.286   7.802  0.7458 -0.4327  1.3004
 7161SOL    HW232943   1.886   2.350   7.914 -0.4032 -2.0266  1.1647
 7162SOL     OW32944   4.191   3.302   1.763 -0.6676 -0.1386 -0.2791
 7162SOL    HW132945   4.210   3.362   1.691 -0.9736 -2.4878 -2.3356
 7162SOL    HW232946   4.107   3.331   1.797 -0.2318  1.0767 -0.2643
 7163SOL     OW32947   4.660   4.420   7.991  0.1876  0.4629 -0.6021
 7163SOL    HW132948   0.001   4.431   8.061 -0.0888 -1.7573 -0.0106
 7163SOL    HW232949   4.586   4.395   8.046  0.0519  2.4858  0.1702
 7164SOL     OW32950   0.980   0.747   1.859 -0.0204 -0.2060 -1.1575
 7164SOL    HW132951   0.907   0.757   1.798 -0.0488  0.9658 -0.9492
 7164SOL    HW232952   0.957   0.819   1.918 -2.6112  2.0343 -4.9181
 7165SOL     OW32953   1.505   3.994  15.008  0.0101 -0.5505 -0.2863
 7165SOL    HW132954   1.511   3.944  14.927 -1.1269  0.1743 -0.8142
 7165SOL    HW232955   1.414   4.024  15.005  0.8197  2.0088  0.1952
 7166SOL     OW32956   2.614   2.656   0.445 -0.3990  0.2240 -0.7818
 7166SOL    HW132957   2.633   2.576   0.494 -0.5607  1.2489  0.9569
 7166SOL    HW232958   2.609   2.721   0.515  0.3748  0.4344 -0.9265
 7167SOL     OW32959   1.379   2.880   4.460 -0.1455  0.2902  0.2045
 7167SOL    HW132960   1.364   2.971   4.435  1.3344  0.0033 -1.6909
 7167SOL    HW232961   1.389   2.880   4.555 -1.2314 -1.5208  0.3050
 7168SOL     OW32962   2.052   2.266  12.863 -0.1369 -0.1367 -0.8452
 7168SOL    HW132963   2.033   2.360  12.860 -2.7704 -0.7552 -3.3327
 7168SOL    HW232964   2.035   2.262  12.958  1.7922  3.1519 -0.3480
 7169SOL     OW32965   3.783   1.206   9.254  0.0397  0.0152  0.0657
 7169SOL    HW132966   3.714   1.148   9.221 -0.6224 -0.6923  2.6915
 7169SOL    HW232967   3.841   1.211   9.177  0.7085  2.0275  0.7228
 7170SOL     OW32968   0.217   2.409   5.167  0.3804 -0.2116 -0.1488
 7170SOL    HW132969   0.214   2.314   5.153  1.1945 -0.5660  2.0577
 7170SOL    HW232970   0.281   2.409   5.238  0.6001 -2.7968 -0.3482
 7171SOL     OW32971   3.413   1.338  15.751  0.1791 -0.4592 -1.2712
 7171SOL    HW132972   3.330   1.349  15.703 -1.3935 -0.6771  1.4051
 7171SOL    HW232973   3.481   1.309  15.690  1.8934  0.4501  0.2093
 7172SOL     OW32974   1.741   1.480  10.815 -0.6016 -0.4521 -0.4025
 7172SOL    HW132975   1.703   1.540  10.751  0.7484  1.2334  0.3752
 7172SOL    HW232976   1.705   1.500  10.901 -1.0165  0.2410 -0.7415
 7173SOL     OW32977   2.896   3.658   2.458  0.1302 -0.2771  0.3621
 7173SOL    HW132978   2.859   3.741   2.429  1.9114  0.5946  0.6120
 7173SOL    HW232979   2.985   3.685   2.479 -0.1402  0.6628  0.2764
 7174SOL     OW32980   1.192   0.502   1.155  0.2866  0.4206  0.1641
 7174SOL    HW132981   1.131   0.435   1.123  0.2564  0.6595 -0.2784
 7174SOL    HW232982   1.237   0.526   1.074  1.4291 -0.1185  0.6324
 7175SOL     OW32983   2.319   3.564  17.340 -0.4114 -0.2016 -0.9700
 7175SOL    HW132984   2.279   3.501  17.400 -1.5445  0.9317 -0.5361
 7175SOL    HW232985   2.264   3.638  17.365 -0.6547 -0.2623 -1.3293
 7176SOL     OW32986   4.681   3.340  10.914  0.1929  0.8803 -0.3684
 7176SOL    HW132987   4.683   3.354  10.819 -1.0382  1.5337 -0.2984
 7176SOL    HW232988   4.625   3.263  10.909 -0.6611  1.5574 -1.1918
 7177SOL     OW32989   3.392   0.501  17.689 -0.0484 -0.2545  0.5912
 7177SOL    HW132990   3.452   0.465  17.624 -1.6967 -5.5411  2.0303
 7177SOL    HW232991   3.364   0.583  17.648  3.7151  1.0020  0.4509
 7178SOL     OW32992   2.919   1.282   7.966 -0.1845 -0.0157 -0.6176
 7178SOL    HW132993   2.957   1.199   7.997  1.2556  0.4715 -1.0957
 7178SOL    HW232994   2.914   1.328   8.050 -1.5654 -1.5710  0.1777
 7179SOL     OW32995   4.601   1.858  11.984  0.6301 -0.4625 -0.2898
 7179SOL    HW132996   4.663   1.786  11.971  0.3258 -1.3597  3.2785
 7179SOL    HW232997   4.551   1.875  11.904  0.5878  0.0565 -0.1540
 7180SOL     OW32998   2.426   2.923   6.372  0.4197  0.2225 -0.0981
 7180SOL    HW132999   2.520   2.910   6.363  0.2939 -0.7477  0.0049
 7180SOL    HW233000   2.391   2.915   6.284  3.2282  2.7590 -1.4597
 7181SOL     OW33001   1.354   3.240   2.933  0.0097  0.3739 -0.0521
 7181SOL    HW133002   1.417   3.168   2.945 -0.3978  0.0820  0.3178
 7181SOL    HW233003   1.269   3.197   2.939 -0.5012  1.2405 -1.1013
 7182SOL     OW33004   0.618   3.166  16.166 -0.6467  0.2818 -0.2111
 7182SOL    HW133005   0.690   3.199  16.219  0.3040 -1.8624 -0.1933
 7182SOL    HW233006   0.641   3.193  16.077  0.6131 -0.2424 -0.0361
 7183SOL     OW33007   3.877   1.516   1.873 -0.3857 -0.2653  0.7671
 7183SOL    HW133008   3.923   1.586   1.826 -4.9332  0.7067 -2.2255
 7183SOL    HW233009   3.951   1.492   1.930  0.1983 -1.5744 -0.5210
 7184SOL     OW33010   1.544   3.947  17.665  0.5172  0.1278 -0.6632
 7184SOL    HW133011   1.550   4.003  17.587  2.4477 -0.3566 -0.8613
 7184SOL    HW233012   1.475   3.990   0.020  0.9444  1.8788 -1.5654
 7185SOL     OW33013   0.236   4.699   3.290  0.1303 -0.1457  0.0716
 7185SOL    HW133014   0.227   4.693   3.385  1.4810  0.6493  0.2496
 7185SOL    HW233015   0.165   0.036   3.267  0.8700  0.3098 -1.0338
 7186SOL     OW33016   0.438   2.670  10.779 -0.2318 -0.1621  0.6782
 7186SOL    HW133017   0.532   2.672  10.800 -0.0905 -2.2529  0.2850
 7186SOL    HW233018   0.443   2.737  10.712 -1.1966  0.6528  1.4256
 7187SOL     OW33019   2.334   4.702  14.678  0.4986  0.0098  0.2016
 7187SOL    HW133020   2.357   4.720  14.587  1.4714  1.4104  0.7310
 7187SOL    HW233021   2.423   4.678  14.703 -0.7986 -2.2016  2.6247
 7188SOL     OW33022   0.875   2.962  10.919 -0.2861 -0.3166  0.0884
 7188SOL    HW133023   0.927   2.887  10.947 -1.6774 -0.8211  1.3375
 7188SOL    HW233024   0.790   2.934  10.952  1.2312 -2.2632  2.3198
 7189SOL     OW33025   2.322   1.599   9.089 -0.8622 -0.0414  0.3425
 7189SOL    HW133026   2.379   1.649   9.147  0.6037  0.5672 -1.6021
 7189SOL    HW233027   2.259   1.666   9.062 -2.0224 -1.0484  0.5219
 7190SOL     OW33028   2.874   1.852  10.206 -0.1001 -0.3665  0.0486
 7190SOL    HW133029   2.969   1.849  10.218 -0.1815  3.2717  1.5700
 7190SOL    HW233030   2.866   1.926  10.146  0.3421  0.2508  0.7472
 7191SOL     OW33031   2.313   2.053  16.831  0.7210  0.0074  0.5760
 7191SOL    HW133032   2.238   2.012  16.873  1.1053  0.3374  1.5782
 7191SOL    HW233033   2.327   2.133  16.880 -0.1709 -0.9870  2.4641
 7192SOL     OW33034   4.113   1.973  16.187 -0.4307 -0.0136 -0.0879
 7192SOL    HW133035   4.206   1.993  16.188 -1.1878  3.2269  2.9305
 7192SOL    HW233036   4.124   1.902  16.250  0.2408  0.4171  0.2804
 7193SOL     OW33037   3.520   2.714   9.833 -0.0877  0.5716 -0.4564
 7193SOL    HW133038   3.567   2.768   9.769 -0.2749 -0.3565 -1.3653
 7193SOL    HW233039   3.462   2.662   9.778  0.6671 -0.6263 -0.1138
 7194SOL     OW33040   1.023   2.445   6.012 -0.3013  0.7218  0.3497
 7194SOL    HW133041   1.019   2.410   5.923 -0.9540  1.0853  0.2387
 7194SOL    HW233042   1.085   2.384   6.052 -1.5097 -0.9995 -0.3901
 7195SOL     OW33043   1.432   4.641   2.962 -0.5207 -0.2615  0.1222
 7195SOL    HW133044   1.461   4.672   2.876 -2.2024 -1.2733 -0.8146
 7195SOL    HW233045   1.504   4.677   3.013 -0.4701 -0.1293 -0.0409
 7196SOL     OW33046   3.649   3.812   1.977  0.0054 -0.4811  0.3760
 7196SOL    HW133047   3.637   3.902   1.946  1.9479  0.1255  1.3304
 7196SOL    HW233048   3.564   3.774   1.995 -0.0659 -0.5797 -0.1665
 7197SOL     OW33049   4.102   1.856  12.116  0.1836  0.5120  0.6424
 7197SOL    HW133050   4.142   1.929  12.069  0.0099  0.3669  0.2772
 7197SOL    HW233051   4.167   1.800  12.158 -1.6800 -1.2242  1.1870
 7198SOL     OW33052   3.945   2.871   9.457  0.1610  0.0866  0.0374
 7198SOL    HW133053   3.877   2.938   9.461 -0.3675 -0.4233 -0.2798
 7198SOL    HW233054   3.989   2.880   9.542  0.8368  2.6097 -0.5842
 7199SOL     OW33055   1.736   0.963   3.431 -0.3623 -0.6110  0.0279
 7199SOL    HW133056   1.764   1.027   3.496  1.8337 -2.5985  1.0380
 7199SOL    HW233057   1.693   0.895   3.482 -0.3975  0.0828  0.9243
 7200SOL     OW33058   0.816   1.055   7.470  0.1490 -0.4527  0.1141
 7200SOL    HW133059   0.792   0.973   7.513 -2.1531 -0.1241 -0.5625
 7200SOL    HW233060   0.817   1.113   7.546 -0.6380  2.6916 -2.2865
 7201SOL     OW33061   4.593   0.588   8.951  0.0905 -0.1237  0.0212
 7201SOL    HW133062   4.549   0.599   9.035  0.8849 -0.5020  0.4923
 7201SOL    HW233063   4.624   0.497   8.956 -0.2479 -0.0505  3.1084
 7202SOL     OW33064   1.883   0.666   5.168 -0.5930  0.4219 -0.2672
 7202SOL    HW133065   1.821   0.596   5.186  2.1097 -1.7033  0.7824
 7202SOL    HW233066   1.853   0.719   5.242 -1.4020  1.9992 -1.7328
 7203SOL     OW33067   0.986   0.857   7.064  0.1601  0.3998 -0.3329
 7203SOL    HW133068   0.910   0.888   7.112 -2.1684 -2.0258 -2.4337
 7203SOL    HW233069   1.053   0.857   7.133  1.2399  0.1406 -1.3975
 7204SOL     OW33070   3.845   2.787  15.884 -0.3798 -0.3414 -0.3660
 7204SOL    HW133071   3.773   2.749  15.935  0.5386 -0.2925  0.9848
 7204SOL    HW233072   3.819   2.757  15.797 -0.4495 -1.6282  0.0953
 7205SOL     OW33073   4.437   3.573   0.832  0.0423  0.7648  0.5605
 7205SOL    HW133074   4.491   3.650   0.816  0.5924  0.1266 -0.6230
 7205SOL    HW233075   4.430   3.540   0.742 -0.8305  0.0552  0.8802
 7206SOL     OW33076   1.868   3.247  12.978 -0.5971 -0.5041  0.2083
 7206SOL    HW133077   1.869   3.191  12.900  1.1914 -0.0467 -0.1009
 7206SOL    HW233078   1.896   3.190  13.049 -2.3988 -0.6916  0.7707
 7207SOL     OW33079   4.599   1.286  10.532  0.4288 -0.1578 -0.0170
 7207SOL    HW133080   4.567   1.197  10.520 -0.8131  0.2274  0.3365
 7207SOL    HW233081   4.686   1.265  10.500  1.1449  0.9332  1.1973
 7208SOL     OW33082   0.058   1.759   8.890 -0.0572  0.0248 -0.7070
 7208SOL    HW133083   4.701   1.807   8.912  0.4751 -0.0417  1.3811
 7208SOL    HW233084   0.121   1.789   8.956 -0.3946 -0.5889 -0.1007
 7209SOL     OW33085   0.350   4.469   1.004  0.7418  0.5054 -0.1775
 7209SOL    HW133086   0.406   4.439   1.075  0.7228 -0.7575 -0.6831
 7209SOL    HW233087   0.265   4.471   1.048  0.5497  1.1661 -0.5791
 7210SOL     OW33088   4.470   3.775  10.101 -0.3137 -0.0783  0.0699
 7210SOL    HW133089   4.491   3.843  10.039 -1.5412  1.1600  0.9994
 7210SOL    HW233090   4.499   3.818  10.182 -3.1905  1.7850  0.1142
 7211SOL     OW33091   3.402   3.139   2.902  0.4998  0.0044 -0.1994
 7211SOL    HW133092   3.338   3.197   2.859 -0.6377 -0.1834  1.2185
 7211SOL    HW233093   3.402   3.186   2.986  0.6020  1.0164 -0.7644
 7212SOL     OW33094   1.794   0.681   9.837 -0.1629 -0.3085 -0.4396
 7212SOL    HW133095   1.765   0.627   9.911  1.9455 -0.2357  0.4306
 7212SOL    HW233096   1.871   0.710   9.886  0.2259 -0.5452 -0.9136
 7213SOL     OW33097   1.105   4.583   8.169 -0.7219 -0.7086 -0.4125
 7213SOL    HW133098   1.161   4.621   8.102  0.6262 -2.5468 -0.3275
 7213SOL    HW233099   1.168   4.589   8.241 -1.1677  1.3300 -0.1973
 7214SOL     OW33100   4.327   3.208  11.280 -0.0370 -0.4484  0.1241
 7214SOL    HW133101   4.355   3.296  11.254 -0.1680 -1.6176 -4.0228
 7214SOL    HW233102   4.396   3.171  11.335 -1.2955 -1.4119  1.0383
 7215SOL     OW33103   3.274   0.842   8.359 -0.6099 -0.1870  0.3910
 7215SOL    HW133104   3.308   0.789   8.431 -1.0237 -0.5858  0.2960
 7215SOL    HW233105   3.345   0.817   8.300 -0.2002 -0.6750  1.0996
 7216SOL     OW33106   3.649   2.053   6.650 -0.2905 -0.2757 -0.0496
 7216SOL    HW133107   3.561   2.087   6.633  0.0998  0.7856  0.0568
 7216SOL    HW233108   3.708   2.128   6.652 -0.7743  0.1530 -1.8328
 7217SOL     OW33109   2.213   1.779  13.461 -0.8172 -0.5469 -0.0539
 7217SOL    HW133110   2.273   1.749  13.393 -1.0879 -1.3772  0.0743
 7217SOL    HW233111   2.144   1.717  13.439 -0.1906 -0.9288 -0.9294
 7218SOL     OW33112   2.041   1.216  14.785  0.0470 -0.3167 -0.5337
 7218SOL    HW133113   2.065   1.306  14.765 -2.1469  0.2204 -0.7239
 7218SOL    HW233114   1.962   1.208  14.731  0.3479 -0.2583 -0.9815
 7219SOL     OW33115   2.905   0.329   3.027  0.0437  0.3401 -0.2976
 7219SOL    HW133116   2.922   0.305   3.118 -2.2630 -0.1966 -0.0041
 7219SOL    HW233117   2.991   0.301   2.996 -0.3450 -1.0961 -0.0719
 7220SOL     OW33118   3.770   3.206   4.317 -0.5636 -0.0869 -0.1529
 7220SOL    HW133119   3.731   3.213   4.230  0.1369  0.0256 -0.4549
 7220SOL    HW233120   3.718   3.143   4.366  0.6110 -1.5825 -0.8487
 7221SOL     OW33121   3.695   3.725   6.601  0.4625  0.2052  0.6260
 7221SOL    HW133122   3.613   3.744   6.556  1.2178  3.2621  0.5592
 7221SOL    HW233123   3.759   3.795   6.590  2.6895 -1.5445  2.4828
 7222SOL     OW33124   1.485   1.581   7.713 -0.2845  0.1694  0.0479
 7222SOL    HW133125   1.571   1.563   7.675  0.7400 -0.1885  2.4896
 7222SOL    HW233126   1.461   1.646   7.647 -0.0022 -0.9127 -1.1127
 7223SOL     OW33127   4.276   3.865   0.557 -0.1803  0.1662  0.1982
 7223SOL    HW133128   4.357   3.854   0.606  0.6328  2.2438 -0.6685
 7223SOL    HW233129   4.226   3.799   0.605 -0.4893  0.6887  0.5985
 7224SOL     OW33130   1.275   4.384   2.877 -0.2696  0.3357  0.3102
 7224SOL    HW133131   1.288   4.392   2.783 -2.3317  0.4933  0.0553
 7224SOL    HW233132   1.330   4.449   2.922  1.8837 -1.4328  0.2561
 7225SOL     OW33133   3.966   0.328   7.470  0.0162 -0.1321 -0.3633
 7225SOL    HW133134   3.882   0.353   7.509 -0.0580  1.3578 -1.4928
 7225SOL    HW233135   3.958   0.232   7.471 -1.2040 -0.0291  0.6446
 7226SOL     OW33136   1.312   1.067  14.311 -0.1057 -0.2412 -0.0044
 7226SOL    HW133137   1.396   1.111  14.323 -0.1560  0.0754 -0.8973
 7226SOL    HW233138   1.266   1.080  14.394  0.0155  0.2319 -0.0151
 7227SOL     OW33139   4.585   3.454   7.494 -0.3142 -0.0793 -1.2190
 7227SOL    HW133140   4.633   3.503   7.561 -1.0263  1.2745 -1.6997
 7227SOL    HW233141   4.638   3.470   7.415  1.6250 -2.5771 -0.4340
 7228SOL     OW33142   4.374   1.679   6.331 -0.4333 -0.0798  0.8660
 7228SOL    HW133143   4.319   1.680   6.253  0.2771 -0.7125  0.3563
 7228SOL    HW233144   4.331   1.746   6.384  0.7478  1.3715 -0.0029
 7229SOL     OW33145   1.248   0.457   7.732  0.3033 -0.6394 -0.4927
 7229SOL    HW133146   1.252   0.361   7.738  1.4400 -0.5411  0.2877
 7229SOL    HW233147   1.153   0.465   7.725  0.4351  1.5206  0.0288
 7230SOL     OW33148   3.549   3.680   5.984  0.2703 -0.3468 -0.3093
 7230SOL    HW133149   3.639   3.691   5.954 -0.6068  0.7647 -2.5501
 7230SOL    HW233150   3.552   3.700   6.078 -1.4052  2.1981 -0.7876
 7231SOL     OW33151   4.636   0.321   8.995  0.2765  0.1435  0.0872
 7231SOL    HW133152   4.706   0.258   9.010  1.0004  1.0408  0.4672
 7231SOL    HW233153   4.610   0.283   8.911  1.3443 -0.9714  0.2640
 7232SOL     OW33154   4.133   1.291   5.436 -0.3636  0.7309 -0.3796
 7232SOL    HW133155   4.068   1.279   5.367 -1.8894  3.0199  0.6365
 7232SOL    HW233156   4.148   1.386   5.434  0.7124  0.6153  1.2951
 7233SOL     OW33157   3.876   4.595   8.093 -0.3208  0.5016 -0.5672
 7233SOL    HW133158   3.844   4.677   8.131 -1.6269 -0.7708  1.0433
 7233SOL    HW233159   3.825   4.531   8.142  0.8655  0.3360  0.4545
 7234SOL     OW33160   3.315   1.657  15.029 -0.0973  0.4385  0.0903
 7234SOL    HW133161   3.319   1.752  15.019 -0.6309  0.5786  1.1962
 7234SOL    HW233162   3.341   1.621  14.944 -1.3354  1.7922 -0.8509
 7235SOL     OW33163   4.093   2.033   8.856  0.0896 -0.2514  0.2104
 7235SOL    HW133164   4.010   2.070   8.887  0.1268  0.1011 -0.1168
 7235SOL    HW233165   4.077   2.018   8.763 -0.7765 -0.1385  0.3339
 7236SOL     OW33166   2.104   2.705   7.430  0.2650  0.2426  0.2989
 7236SOL    HW133167   2.051   2.724   7.508  0.0655 -2.6664  0.8846
 7236SOL    HW233168   2.062   2.766   7.369 -0.2424 -0.9536 -0.5509
 7237SOL     OW33169   1.352   0.263   5.130 -0.0409 -0.0477  0.0169
 7237SOL    HW133170   1.313   0.328   5.189 -0.4797 -0.3581  0.0737
 7237SOL    HW233171   1.294   0.187   5.143 -0.3070  0.4288  1.5464
 7238SOL     OW33172   1.205   3.202   9.477  0.4571 -0.0479 -0.9782
 7238SOL    HW133173   1.179   3.146   9.549  1.9846 -0.4218 -0.7270
 7238SOL    HW233174   1.297   3.217   9.497 -0.7208  0.6763  3.8532
 7239SOL     OW33175   0.367   1.678   6.232  0.5274  0.0649  0.7699
 7239SOL    HW133176   0.312   1.606   6.261 -0.2711 -0.1033 -1.1417
 7239SOL    HW233177   0.309   1.754   6.240  0.4263 -0.0617  1.1943
 7240SOL     OW33178   0.786   4.662  14.402 -0.9333  0.1429 -0.3805
 7240SOL    HW133179   0.741   4.665  14.318 -0.5939 -1.8552 -0.6138
 7240SOL    HW233180   0.756   4.574  14.423 -2.9734  0.0464 -3.6463
 7241SOL     OW33181   0.252   1.107  15.543 -0.4832  0.3264  0.1747
 7241SOL    HW133182   0.171   1.106  15.594  1.6054 -0.3494  3.4107
 7241SOL    HW233183   0.311   1.093  15.616  0.3669  3.4856  0.0833
 7242SOL     OW33184   2.838   2.333   8.651 -0.0314  0.6184  0.3812
 7242SOL    HW133185   2.770   2.309   8.588 -0.0034  0.2278  0.5002
 7242SOL    HW233186   2.802   2.310   8.736 -3.5002  0.9923 -0.9750
 7243SOL     OW33187   2.879   4.424   8.578  0.8864  0.5000  0.4681
 7243SOL    HW133188   2.966   4.409   8.614  0.4097 -1.5256  0.7911
 7243SOL    HW233189   2.846   4.492   8.637  2.2954  1.8721 -0.3002
 7244SOL     OW33190   0.405   3.317   9.787  0.3287 -0.3674 -0.2816
 7244SOL    HW133191   0.441   3.239   9.829 -0.0044 -1.2528 -1.6649
 7244SOL    HW233192   0.388   3.289   9.698  2.4623 -0.5123 -0.6359
 7245SOL     OW33193   2.580   3.035   0.680  0.2305 -0.3732  0.0802
 7245SOL    HW133194   2.546   2.948   0.699 -0.5821  0.2274  1.4075
 7245SOL    HW233195   2.613   3.038   0.590  2.1237  0.7479  0.8105
 7246SOL     OW33196   3.503   3.309  14.242  0.2730  0.3515 -0.2230
 7246SOL    HW133197   3.488   3.334  14.151  0.3722 -0.7507 -0.5503
 7246SOL    HW233198   3.429   3.251  14.262  0.3330  0.2306 -0.3481
 7247SOL     OW33199   3.756   1.924   6.305  0.1131 -0.0296  0.4698
 7247SOL    HW133200   3.666   1.916   6.337 -0.0542 -3.4555 -0.8771
 7247SOL    HW233201   3.812   1.913   6.382  1.2107  0.1648 -0.2942
 7248SOL     OW33202   1.888   4.228   7.200 -0.3291 -0.1724  0.2538
 7248SOL    HW133203   1.855   4.139   7.215 -0.6281 -0.0945  0.0591
 7248SOL    HW233204   1.957   4.209   7.137 -0.7002  1.7746 -0.7457
 7249SOL     OW33205   0.133   0.354   3.957 -0.6208  0.1358  0.5894
 7249SOL    HW133206   0.061   0.342   4.019 -1.0418  3.1666  0.6427
 7249SOL    HW233207   0.184   0.273   3.964 -0.1430  0.4498  0.6877
 7250SOL     OW33208   4.359   2.849   2.880  0.0070 -0.5656  0.2579
 7250SOL    HW133209   4.384   2.842   2.972  0.6610 -1.3303  0.0147
 7250SOL    HW233210   4.328   2.939   2.894 -0.0061 -0.6342  0.6636
 7251SOL     OW33211   3.635   2.325   5.677  0.0491 -0.1175 -0.4716
 7251SOL    HW133212   3.543   2.348   5.681 -0.2713 -1.0609 -2.5917
 7251SOL    HW233213   3.662   2.399   5.622  2.1675 -1.8204 -1.7042
 7252SOL     OW33214   2.041   2.385  10.770 -0.0963 -0.3198  0.1076
 7252SOL    HW133215   1.947   2.366  10.776  0.0499 -1.4675 -1.1516
 7252SOL    HW233216   2.059   2.330  10.693  0.4934  2.5021 -1.7538
 7253SOL     OW33217   4.637   0.275   4.998 -0.2079 -0.1066  0.8423
 7253SOL    HW133218   4.705   0.244   4.938  0.5313  1.7138  0.7381
 7253SOL    HW233219   4.567   0.217   4.967 -0.7126  1.0061 -0.0777
 7254SOL     OW33220   3.158   2.314   4.981 -0.4377  0.0347  0.2721
 7254SOL    HW133221   3.254   2.306   4.981 -0.7720 -3.9894  2.1234
 7254SOL    HW233222   3.144   2.220   4.973 -0.6411 -0.0003  1.1080
 7255SOL     OW33223   2.278   0.446   0.470  0.6953  0.4610  0.1795
 7255SOL    HW133224   2.367   0.445   0.506  0.2056 -0.5893  1.3255
 7255SOL    HW233225   2.245   0.362   0.501 -0.9227  0.2145 -2.1835
 7256SOL     OW33226   0.096   2.188  16.987  0.0014 -0.6906  0.4757
 7256SOL    HW133227   0.162   2.158  17.049  1.6425  0.3804 -0.7717
 7256SOL    HW233228   0.013   2.145  17.010 -0.6597 -0.5678 -1.6612
 7257SOL     OW33229   2.883   3.299   9.979  0.1579  0.0173  0.1283
 7257SOL    HW133230   2.851   3.224  10.029 -0.9225  1.1554  1.1543
 7257SOL    HW233231   2.975   3.279   9.964  0.6918  1.2550  1.8523
 7258SOL     OW33232   0.479   1.865   6.885  0.0264 -0.1875 -0.5642
 7258SOL    HW133233   0.417   1.835   6.951  2.0050 -0.6127  1.1050
 7258SOL    HW233234   0.567   1.833   6.906 -0.0296  0.2240  0.2643
 7259SOL     OW33235   2.388   1.898   4.116  0.1697  0.8438  0.1049
 7259SOL    HW133236   2.479   1.885   4.143  0.3665  0.1426 -0.9055
 7259SOL    HW233237   2.407   1.926   4.026 -2.1548 -0.7027 -0.8611
 7260SOL     OW33238   0.538   0.998   4.651  0.2940  0.5267  0.6636
 7260SOL    HW133239   0.489   0.987   4.732 -0.9696 -1.8721 -0.4258
 7260SOL    HW233240   0.470   1.025   4.589  0.9614  0.6122 -0.0422
 7261SOL     OW33241   1.430   1.090  16.143 -0.0549 -0.5433 -0.0125
 7261SOL    HW133242   1.442   1.082  16.237  3.5291  0.2315 -0.4195
 7261SOL    HW233243   1.379   1.171  16.137  2.0466  0.7722  0.1116
 7262SOL     OW33244   4.401   2.134   6.917  0.0942  0.2356 -0.2070
 7262SOL    HW133245   4.439   2.179   6.841 -0.8124  0.3657 -0.5801
 7262SOL    HW233246   4.465   2.063   6.927 -0.4205  0.1291  2.3461
 7263SOL     OW33247   2.424   3.316   3.325 -0.2689  0.0879 -0.4509
 7263SOL    HW133248   2.361   3.346   3.390  0.1681 -0.9326  0.4601
 7263SOL    HW233249   2.451   3.227   3.349  0.5496  0.9596  1.9077
 7264SOL     OW33250   3.879   0.771   3.698  0.1861  0.4550  1.1336
 7264SOL    HW133251   3.904   0.692   3.745 -0.2807 -0.0808  0.4726
 7264SOL    HW233252   3.825   0.735   3.627  1.0908 -1.4425  1.4215
 7265SOL     OW33253   0.799   4.103  15.700 -0.0416  0.0829  0.0993
 7265SOL    HW133254   0.894   4.110  15.690  0.3706 -2.9110  1.7316
 7265SOL    HW233255   0.781   4.013  15.726 -1.5889  0.2507 -0.3719
 7266SOL     OW33256   3.601   4.389  10.587  0.0915 -0.3060 -0.1209
 7266SOL    HW133257   3.510   4.414  10.572  0.3624 -0.3319 -1.9099
 7266SOL    HW233258   3.609   4.379  10.681  0.5722  0.2160 -0.1091
 7267SOL     OW33259   2.437   4.481   2.462 -0.2925 -0.0661  0.1607
 7267SOL    HW133260   2.385   4.406   2.432 -0.4815  0.0423  0.2151
 7267SOL    HW233261   2.397   4.496   2.547  2.0549 -0.9544  1.3944
 7268SOL     OW33262   3.999   0.319   6.763  0.5554 -0.4735  0.7248
 7268SOL    HW133263   3.919   0.300   6.812  0.1578  1.9341  0.9814
 7268SOL    HW233264   3.962   0.342   6.678 -0.2644 -2.6561  0.4779
 7269SOL     OW33265   1.794   2.818   3.617 -0.0562  0.2651  0.2315
 7269SOL    HW133266   1.746   2.808   3.700 -0.5301 -0.9384 -0.1857
 7269SOL    HW233267   1.871   2.856   3.659  0.3311  0.9559 -1.1329
 7270SOL     OW33268   2.856   1.383  16.739  0.1683 -0.1116  0.3167
 7270SOL    HW133269   2.861   1.308  16.680  1.2245 -0.2770  0.6153
 7270SOL    HW233270   2.803   1.444  16.687 -1.5497 -0.8517  1.1939
 7271SOL     OW33271   4.307   3.476   6.722  0.7363 -0.6904 -0.6145
 7271SOL    HW133272   4.342   3.461   6.810 -0.0001  1.2225  0.0038
 7271SOL    HW233273   4.326   3.393   6.679  0.4483 -1.7443  1.2706
 7272SOL     OW33274   2.669   4.515  14.063  0.2487  0.5739 -0.5885
 7272SOL    HW133275   2.763   4.506  14.076  0.4902  1.8501 -1.4957
 7272SOL    HW233276   2.654   4.523  14.157  1.6975  1.7508 -0.4689
 7273SOL     OW33277   3.032   1.393   7.220  0.4331  0.0048  0.2141
 7273SOL    HW133278   3.054   1.301   7.232  2.4583  0.6497  1.3137
 7273SOL    HW233279   3.081   1.428   7.145 -0.0997  1.4704  0.5523
 7274SOL     OW33280   3.624   0.573   9.765  0.3617  0.3082  0.9028
 7274SOL    HW133281   3.557   0.576   9.833 -0.5590 -1.9373  0.1279
 7274SOL    HW233282   3.711   0.591   9.799  1.0615 -0.3347 -0.5312
 7275SOL     OW33283   0.260   3.481   9.276 -0.3088  0.0769 -0.0903
 7275SOL    HW133284   0.291   3.548   9.337 -0.7625  0.4437 -0.2595
 7275SOL    HW233285   0.253   3.533   9.195 -0.8253  0.7608  0.3982
 7276SOL     OW33286   0.589   0.761   2.427  0.3657 -0.0443  0.4510
 7276SOL    HW133287   0.680   0.736   2.418  0.5103  0.7140 -0.2018
 7276SOL    HW233288   0.591   0.857   2.430  0.6534 -0.0055 -0.6767
 7277SOL     OW33289   4.031   1.700   6.391  0.3737 -0.3601  0.5592
 7277SOL    HW133290   4.076   1.729   6.311 -0.7389  0.7910  0.3431
 7277SOL    HW233291   3.981   1.779   6.413 -0.4803 -0.2431 -1.8210
 7278SOL     OW33292   0.461   1.539   5.635  0.1816  0.5149 -0.5064
 7278SOL    HW133293   0.450   1.628   5.603 -0.8859 -0.2346 -2.2173
 7278SOL    HW233294   0.534   1.500   5.588  0.7798  0.6488  0.3080
 7279SOL     OW33295   3.697   4.028   9.151  0.1725  0.3248  0.0160
 7279SOL    HW133296   3.722   3.949   9.198 -1.4468 -0.4383 -0.4065
 7279SOL    HW233297   3.613   3.995   9.120  0.7870 -1.1740 -0.0421
 7280SOL     OW33298   2.028   1.132   5.473  0.1538  0.2721 -0.0965
 7280SOL    HW133299   2.089   1.197   5.507  0.0242  0.6210 -0.5383
 7280SOL    HW233300   1.993   1.097   5.555 -0.4774 -1.6890 -1.1987
 7281SOL     OW33301   0.581   2.700   6.997 -0.0335  0.3146  0.0065
 7281SOL    HW133302   0.588   2.616   6.952  2.9765  0.7369 -0.3289
 7281SOL    HW233303   0.487   2.693   7.018 -0.4733 -0.6676 -2.3342
 7282SOL     OW33304   3.957   0.021   4.893  0.6283 -0.3736 -0.4582
 7282SOL    HW133305   3.962   4.649   4.899  0.8117 -0.4487 -1.9697
 7282SOL    HW233306   3.863   0.029   4.883  0.5067 -1.0961  0.1181
 7283SOL     OW33307   2.725   3.439   3.288  0.1605 -0.1099  0.5280
 7283SOL    HW133308   2.762   3.439   3.200 -0.6173 -3.9413  0.2036
 7283SOL    HW233309   2.701   3.532   3.297  0.1664 -0.0527 -0.0763
 7284SOL     OW33310   3.852   4.324   3.967 -0.1137 -0.0791 -0.4538
 7284SOL    HW133311   3.890   4.268   3.900  0.1415  0.6404 -0.9046
 7284SOL    HW233312   3.790   4.265   4.010 -0.2284  0.2876 -0.1104
 7285SOL     OW33313   4.134   4.564   1.043  0.7881 -0.0206 -0.2090
 7285SOL    HW133314   4.079   4.492   1.075 -2.3683  3.3326  1.9956
 7285SOL    HW233315   4.203   4.579   1.107  1.9613 -5.8099 -0.1079
 7286SOL     OW33316   2.069   3.503  17.545  0.0258 -0.6266 -0.8536
 7286SOL    HW133317   2.040   3.429  17.597 -0.9994 -0.0546 -0.6192
 7286SOL    HW233318   2.084   3.572  17.610 -2.5487 -0.4960 -0.4212
 7287SOL     OW33319   1.264   3.358   9.271 -0.2125  0.2664 -0.7378
 7287SOL    HW133320   1.271   3.310   9.353  1.4921 -1.3139 -1.8048
 7287SOL    HW233321   1.246   3.289   9.208  0.3913 -2.3710  1.9713
 7288SOL     OW33322   2.324   4.051   1.143  0.4009  0.9424 -0.1345
 7288SOL    HW133323   2.414   4.082   1.130  0.8906 -0.3586  0.1795
 7288SOL    HW233324   2.284   4.038   1.057  2.1756  2.1601 -1.1430
 7289SOL     OW33325   2.136   3.021  10.690  0.1968 -0.0906 -0.6752
 7289SOL    HW133326   2.154   2.927  10.695  0.8204  0.0813  0.4610
 7289SOL    HW233327   2.101   3.044  10.776  2.5911 -0.9287  0.5290
 7290SOL     OW33328   2.843   1.167  16.556 -0.2290  0.4644  0.5334
 7290SOL    HW133329   2.804   1.106  16.618 -0.7607  3.1347  2.8345
 7290SOL    HW233330   2.919   1.122  16.519 -0.2513  0.6911  0.2063
 7291SOL     OW33331   3.833   3.629   9.574  0.5834 -0.6836  0.4235
 7291SOL    HW133332   3.810   3.536   9.578 -1.4960 -0.1643  0.5928
 7291SOL    HW233333   3.906   3.629   9.513 -0.7528 -0.1263 -1.1596
 7292SOL     OW33334   2.909   2.088   6.981 -0.2580  0.0671  0.0290
 7292SOL    HW133335   2.918   2.183   6.993 -0.9944  0.1688 -0.2165
 7292SOL    HW233336   2.989   2.054   7.019  1.0598  0.3735 -2.4646
 7293SOL     OW33337   4.427   4.139   4.459  0.0553  0.4926 -0.3324
 7293SOL    HW133338   4.448   4.232   4.451  0.4648  0.4838  0.7003
 7293SOL    HW233339   4.344   4.149   4.507 -0.5031  1.7411 -1.5456
 7294SOL     OW33340   0.814   2.472  12.800 -0.0383 -0.0703  0.4875
 7294SOL    HW133341   0.809   2.486  12.895 -1.0826 -0.9438  0.5689
 7294SOL    HW233342   0.907   2.451  12.804  0.6746  2.6604 -1.9937
 7295SOL     OW33343   0.301   3.978   2.121 -0.0306 -0.2115 -0.0929
 7295SOL    HW133344   0.274   3.969   2.030  0.4542 -0.7561 -0.1846
 7295SOL    HW233345   0.218   3.973   2.169  0.8727 -0.8711  1.3950
 7296SOL     OW33346   1.792   2.005   4.571  0.0994  0.1643 -0.2182
 7296SOL    HW133347   1.793   2.027   4.478  1.4403 -0.1224 -0.2702
 7296SOL    HW233348   1.707   2.041   4.599 -0.0030 -0.6760  0.5388
 7297SOL     OW33349   3.021   1.677   5.467 -0.0761 -0.3799 -0.1684
 7297SOL    HW133350   3.065   1.643   5.545  0.4171 -1.7274 -1.0289
 7297SOL    HW233351   2.995   1.594   5.428 -2.1288  0.0529  0.2799
 7298SOL     OW33352   2.271   2.227   3.958  0.4147 -0.3034 -0.2819
 7298SOL    HW133353   2.289   2.300   4.018 -1.4222 -1.1185  1.2495
 7298SOL    HW233354   2.349   2.231   3.903  0.4029  1.2644 -0.2030
 7299SOL     OW33355   1.638   3.414   9.092  0.3678  0.3729 -0.1449
 7299SOL    HW133356   1.694   3.472   9.039  0.6617  0.1154 -0.1130
 7299SOL    HW233357   1.553   3.458   9.089 -0.4266 -1.2579 -1.6407
 7300SOL     OW33358   2.929   3.218   7.437  0.1911 -0.4897  0.1132
 7300SOL    HW133359   2.953   3.286   7.499  1.4470 -1.2872  0.5120
 7300SOL    HW233360   2.890   3.259   7.361  1.4534  2.5097  1.1077
 7301SOL     OW33361   0.134   4.693  15.653 -0.0892  0.1395 -0.2008
 7301SOL    HW133362   0.085   0.045  15.684  2.3639  0.5755  2.5690
 7301SOL    HW233363   0.070   4.628  15.683  0.5280  0.1577  1.1772
 7302SOL     OW33364   1.893   2.859  13.404  0.7902 -0.2917 -0.0028
 7302SOL    HW133365   1.951   2.822  13.337 -0.0777 -1.3769 -0.1591
 7302SOL    HW233366   1.965   2.897  13.454 -0.3738  1.0085  0.7143
 7303SOL     OW33367   3.292   3.749   5.958 -0.2049 -0.5282 -0.1245
 7303SOL    HW133368   3.305   3.825   5.900  0.2291 -0.0655  0.5878
 7303SOL    HW233369   3.381   3.715   5.970 -0.3601 -0.6753  0.5579
 7304SOL     OW33370   0.813   1.044   6.473  0.2233  0.3170  0.4855
 7304SOL    HW133371   0.736   0.989   6.460  0.8358 -1.1588  3.0978
 7304SOL    HW233372   0.822   1.055   6.568  0.8710 -1.2761  0.6032
 7305SOL     OW33373   0.325   3.413  17.033  0.0762 -0.0923  0.6097
 7305SOL    HW133374   0.365   3.346  16.977 -1.1040 -0.3518  0.0790
 7305SOL    HW233375   0.308   3.372  17.118  2.0355  1.1367  1.6026
 7306SOL     OW33376   0.890   2.187   4.018 -0.3141 -0.1704  0.2451
 7306SOL    HW133377   0.939   2.176   3.936 -1.0424 -1.4446 -0.0332
 7306SOL    HW233378   0.958   2.187   4.084 -0.4463  0.4551  0.3750
 7307SOL     OW33379   1.210   0.819   4.529  0.2666  0.5678 -0.1683
 7307SOL    HW133380   1.300   0.786   4.525 -0.3908 -1.4610  2.3385
 7307SOL    HW233381   1.158   0.739   4.530  2.3939 -0.8153 -0.4416
 7308SOL     OW33382   0.649   1.417  13.931 -0.0810 -0.3356  0.1195
 7308SOL    HW133383   0.648   1.356  14.005 -1.2916  0.0402  0.4112
 7308SOL    HW233384   0.664   1.350  13.865  0.7024  0.0860 -0.1263
 7309SOL     OW33385   2.890   2.339   2.117  0.7817  0.0467 -0.1633
 7309SOL    HW133386   2.978   2.354   2.083  1.2233 -0.3109  0.8039
 7309SOL    HW233387   2.885   2.410   2.181  0.5603 -1.9553  2.0817
 7310SOL     OW33388   2.500   2.456   6.078  0.3208  0.1509  0.4725
 7310SOL    HW133389   2.449   2.481   6.001 -2.6230 -1.1231  1.9880
 7310SOL    HW233390   2.429   2.436   6.139 -0.5427 -0.9835 -0.9100
 7311SOL     OW33391   2.222   3.225   3.856 -0.7124  0.2154  0.0791
 7311SOL    HW133392   2.289   3.265   3.800 -0.8511 -0.5625 -0.6417
 7311SOL    HW233393   2.189   3.305   3.898 -1.4201 -0.1095  0.1370
 7312SOL     OW33394   2.715   1.401   0.982 -0.2070  0.1137 -0.1173
 7312SOL    HW133395   2.629   1.360   0.977 -0.9252  1.5803  0.2413
 7312SOL    HW233396   2.768   1.324   0.959  1.2883  0.7661  1.1634
 7313SOL     OW33397   4.516   1.578   2.540  0.2332 -0.1223  0.1001
 7313SOL    HW133398   4.592   1.629   2.513  0.1698 -0.4523 -0.7145
 7313SOL    HW233399   4.449   1.612   2.481 -0.9609  0.9494  2.0725
 7314SOL     OW33400   0.118   0.505   2.904 -0.8730 -0.0835 -0.1922
 7314SOL    HW133401   0.038   0.538   2.863 -1.4489 -1.6623 -0.3305
 7314SOL    HW233402   0.146   0.423   2.863 -0.2658 -0.0920  0.2418
 7315SOL     OW33403   2.202   2.975  17.620 -0.2488 -0.1213 -0.3444
 7315SOL    HW133404   2.256   2.980   0.003 -1.1128 -1.4303  0.3329
 7315SOL    HW233405   2.116   2.984  17.662 -0.4313  1.9547 -1.1638
 7316SOL     OW33406   0.990   4.247  13.726 -0.5343 -0.0753  0.1909
 7316SOL    HW133407   1.042   4.190  13.784  0.1679  1.0398  0.6434
 7316SOL    HW233408   0.989   4.206  13.640 -1.3678 -2.5030  1.3277
 7317SOL     OW33409   1.589   1.558  14.231  0.3659 -0.2483 -0.2177
 7317SOL    HW133410   1.624   1.604  14.308 -1.1723 -2.7567  1.9559
 7317SOL    HW233411   1.551   1.628  14.178 -0.6458 -1.4205 -1.0389
 7318SOL     OW33412   3.088   2.941  14.935 -0.4539  0.0231  0.3905
 7318SOL    HW133413   2.997   2.967  14.949 -0.9945 -2.3884  1.4137
 7318SOL    HW233414   3.104   2.990  14.855 -0.1389  0.0879  0.4951
 7319SOL     OW33415   1.557   1.282  12.593 -0.1036 -0.0578 -0.3310
 7319SOL    HW133416   1.560   1.347  12.664  2.7635 -0.1329 -0.4030
 7319SOL    HW233417   1.503   1.330  12.530 -0.5323  0.5177  0.4714
 7320SOL     OW33418   4.503   4.110   6.689  1.1068  0.0579 -0.1740
 7320SOL    HW133419   4.533   4.155   6.610 -2.2152  1.5887 -0.5501
 7320SOL    HW233420   4.547   4.025   6.696  1.2325  0.0172 -1.4265
 7321SOL     OW33421   2.810   1.347   2.748  0.1854  0.0582  0.3891
 7321SOL    HW133422   2.762   1.386   2.821  0.8952  0.9633  0.3745
 7321SOL    HW233423   2.755   1.271   2.730  1.5010  0.0978 -3.8949
 7322SOL     OW33424   2.650   4.304   2.858 -0.4244 -0.4736  0.3754
 7322SOL    HW133425   2.634   4.282   2.766 -1.2404  1.4414  0.0583
 7322SOL    HW233426   2.560   4.325   2.883 -1.1251 -0.6081 -1.9938
 7323SOL     OW33427   2.507   4.049  16.495  0.7548  0.2408  0.5674
 7323SOL    HW133428   2.461   4.068  16.576  0.6681  1.1408  0.3116
 7323SOL    HW233429   2.589   4.091  16.521  1.1799  1.4504 -2.6488
 7324SOL     OW33430   1.258   3.115  11.209  0.0820 -0.1824 -0.2574
 7324SOL    HW133431   1.295   3.115  11.121 -0.3128  3.2113 -0.4276
 7324SOL    HW233432   1.168   3.129  11.182 -0.1977  0.4157  0.9499
 7325SOL     OW33433   3.503   2.325   9.129  0.0818 -0.0706  0.0250
 7325SOL    HW133434   3.544   2.321   9.043 -0.5772 -1.3314 -0.2208
 7325SOL    HW233435   3.576   2.373   9.168 -2.2374  1.6247  2.3426
 7326SOL     OW33436   3.012   4.429   8.935 -0.3746 -0.2483  0.0867
 7326SOL    HW133437   3.053   4.359   8.884 -2.0334 -0.6470 -0.6847
 7326SOL    HW233438   2.957   4.375   8.992  1.8624 -1.0188  1.5257
 7327SOL     OW33439   0.636   2.148  11.060  0.4891  0.6557 -0.1852
 7327SOL    HW133440   0.605   2.174  11.146  1.0067  1.1384 -0.1493
 7327SOL    HW233441   0.568   2.185  11.004 -0.1565 -0.1132  0.0781
 7328SOL     OW33442   2.007   1.831   2.652 -0.5874 -0.2874 -0.0015
 7328SOL    HW133443   2.099   1.826   2.627 -0.1901 -0.0208  1.4275
 7328SOL    HW233444   1.995   1.926   2.651 -1.5983 -0.4127  0.2458
 7329SOL     OW33445   0.331   3.400   5.232  0.3728  0.3715  0.2880
 7329SOL    HW133446   0.275   3.431   5.303 -1.6225  0.7483 -1.4253
 7329SOL    HW233447   0.321   3.469   5.166  2.9497  1.3419  0.9204
 7330SOL     OW33448   0.044   3.811   1.673  0.2650  0.0616 -0.2152
 7330SOL    HW133449   0.027   3.761   1.752  0.7090 -0.8002 -0.6674
 7330SOL    HW233450   4.684   3.852   1.651 -0.8987 -0.3592  3.5349
 7331SOL     OW33451   4.154   3.694   7.534 -0.0139  0.1885  0.0273
 7331SOL    HW133452   4.149   3.604   7.566 -0.2895  0.9147  2.0328
 7331SOL    HW233453   4.241   3.722   7.560  0.2896 -1.0375  0.3385
 7332SOL     OW33454   1.599   1.672  14.942 -0.5547 -0.4557 -0.0907
 7332SOL    HW133455   1.530   1.701  15.001  0.4996  0.5869  0.6395
 7332SOL    HW233456   1.608   1.748  14.886  0.8447 -1.3097 -1.0227
 7333SOL     OW33457   3.916   3.427   1.771  0.0086 -0.3041  0.0859
 7333SOL    HW133458   3.857   3.502   1.783 -1.1432 -0.8986 -1.8426
 7333SOL    HW233459   3.874   3.387   1.695 -2.2903  1.4258  0.4564
 7334SOL     OW33460   2.064   1.005   7.127 -0.1105  0.3172 -0.4060
 7334SOL    HW133461   1.987   1.025   7.073 -0.2105 -0.1071 -0.4204
 7334SOL    HW233462   2.038   0.985   7.217  0.5318  0.1162 -0.2682
 7335SOL     OW33463   1.734   2.914   5.735  0.2544 -0.4714 -0.1993
 7335SOL    HW133464   1.821   2.954   5.734 -0.2449  0.6817  1.4597
 7335SOL    HW233465   1.728   2.898   5.641 -0.8597  4.2068 -0.9683
 7336SOL     OW33466   1.314   3.419  11.764 -0.5588 -0.0608 -0.6842
 7336SOL    HW133467   1.329   3.484  11.695 -1.8915  1.1633  0.1752
 7336SOL    HW233468   1.326   3.349  11.701 -0.9998 -1.2623  0.5693
 7337SOL     OW33469   3.409   4.428  13.953 -0.0750  0.4713  0.2457
 7337SOL    HW133470   3.341   4.412  14.019 -0.4989  0.9804 -0.0664
 7337SOL    HW233471   3.448   4.342  13.940 -0.1917  0.5420 -0.5900
 7338SOL     OW33472   0.289   4.473   7.155  0.0035  0.4324 -0.0592
 7338SOL    HW133473   0.328   4.397   7.198 -0.0049  0.7167  0.4510
 7338SOL    HW233474   0.325   4.540   7.214 -0.7434  1.3368 -0.6451
 7339SOL     OW33475   4.467   3.031   5.064  0.1309 -0.0305  0.3220
 7339SOL    HW133476   4.485   2.948   5.109  1.7507  1.1797  1.9049
 7339SOL    HW233477   4.541   3.085   5.091  1.8013 -1.5417 -1.2443
 7340SOL     OW33478   4.037   4.248  12.905  0.7169  0.0348  0.3318
 7340SOL    HW133479   3.986   4.190  12.961  0.7045 -0.3587 -0.0809
 7340SOL    HW233480   4.019   4.340  12.924  3.0416  0.0748  2.4608
 7341SOL     OW33481   1.076   2.073  13.589 -0.3269 -0.1619  0.4477
 7341SOL    HW133482   1.030   2.139  13.641  0.3956  0.4393  0.3213
 7341SOL    HW233483   1.001   2.013  13.589 -0.1878 -0.3329  0.3574
 7342SOL     OW33484   2.810   3.085   5.528  0.1847  0.4267  0.2725
 7342SOL    HW133485   2.876   3.036   5.479  1.3789  1.1690  1.1437
 7342SOL    HW233486   2.837   3.175   5.513 -0.2069  0.2811 -1.2578
 7343SOL     OW33487   0.018   1.153   4.175  0.2481 -0.3180 -0.3216
 7343SOL    HW133488   0.077   1.159   4.250  0.5972  0.4867 -0.6561
 7343SOL    HW233489   0.031   1.063   4.147  2.9635 -0.0013 -0.0439
 7344SOL     OW33490   2.451   4.017   8.450  0.2334 -0.0691  0.7181
 7344SOL    HW133491   2.521   4.005   8.385  2.0470  1.3635  2.3815
 7344SOL    HW233492   2.487   4.096   8.491 -3.0055  0.9333  1.6389
 7345SOL     OW33493   1.663   4.268  13.168 -0.0681 -0.4699  0.3376
 7345SOL    HW133494   1.737   4.328  13.164  0.6659 -1.3135  1.2877
 7345SOL    HW233495   1.602   4.317  13.113 -1.0116  2.7695  4.2895
 7346SOL     OW33496   3.143   2.996   3.055  0.6112  0.1168  0.2421
 7346SOL    HW133497   3.234   3.018   3.036 -0.2367  2.3095 -1.2450
 7346SOL    HW233498   3.142   3.047   3.136 -2.0730 -0.0398  0.3005
 7347SOL     OW33499   1.938   2.671   5.136  0.8844 -0.0735  0.2222
 7347SOL    HW133500   1.940   2.765   5.155  2.5768 -0.0855  0.1301
 7347SOL    HW233501   1.998   2.688   5.064  1.3319  0.4247  0.7129
 7348SOL     OW33502   0.258   3.068   5.405 -0.4910 -0.4882  0.2082
 7348SOL    HW133503   0.234   3.004   5.472  1.3957  0.4575  1.8077
 7348SOL    HW233504   0.248   3.143   5.464  1.1160 -0.4032  0.3935
 7349SOL     OW33505   0.191   1.609   9.096 -0.4718 -0.0854 -0.1810
 7349SOL    HW133506   0.111   1.599   9.044  0.3881 -1.3160 -1.2465
 7349SOL    HW233507   0.208   1.516   9.110 -0.1658  0.0196  0.1455
 7350SOL     OW33508   4.510   3.872   0.736  0.2676 -0.4326 -0.4445
 7350SOL    HW133509   4.532   3.943   0.677  0.1407 -0.9350 -1.0987
 7350SOL    HW233510   4.456   3.919   0.799  1.6584 -1.2812  1.4003
 7351SOL     OW33511   2.428   4.227   9.133 -0.5743  0.1406  0.1561
 7351SOL    HW133512   2.501   4.166   9.149  0.6611  1.1402 -1.7172
 7351SOL    HW233513   2.364   4.163   9.104  0.0185 -0.5528  0.3620
 7352SOL     OW33514   4.341   1.458   2.035 -0.3946 -0.2717 -0.2013
 7352SOL    HW133515   4.419   1.514   2.041  0.0427 -0.7383 -1.4661
 7352SOL    HW233516   4.365   1.391   2.099 -0.0059 -0.3089 -0.3867
 7353SOL     OW33517   0.434   1.950   8.532 -1.0540 -0.0387 -0.3862
 7353SOL    HW133518   0.435   2.045   8.540 -0.8712  0.0750 -1.6383
 7353SOL    HW233519   0.501   1.932   8.465  0.6843  2.7180  0.6629
 7354SOL     OW33520   4.451   3.943   2.389 -0.3988 -0.4484 -0.3648
 7354SOL    HW133521   4.451   4.004   2.315  4.0757 -0.1377 -0.0868
 7354SOL    HW233522   4.461   4.006   2.460 -0.7477 -0.3912 -0.3666
 7355SOL     OW33523   2.164   3.790   9.681 -0.4112 -0.6494 -0.0721
 7355SOL    HW133524   2.205   3.853   9.740 -0.1233 -0.1574 -0.7902
 7355SOL    HW233525   2.162   3.840   9.599  2.2842 -1.3369 -0.5454
 7356SOL     OW33526   3.909   2.614   6.508  0.3426  0.7177 -0.3917
 7356SOL    HW133527   3.894   2.530   6.464  0.6749  1.0964 -1.2187
 7356SOL    HW233528   3.855   2.678   6.461 -1.6163  0.3328  1.2795
 7357SOL     OW33529   0.016   1.945   2.202 -0.1590  0.0142  0.2847
 7357SOL    HW133530   4.658   1.905   2.172 -0.1597  0.5563 -0.4383
 7357SOL    HW233531   0.074   1.869   2.208  0.9422  0.8535  0.4602
 7358SOL     OW33532   2.221   4.401   6.450 -0.1726  0.1303  0.9717
 7358SOL    HW133533   2.283   4.474   6.439 -0.4350  0.3125  0.7164
 7358SOL    HW233534   2.191   4.427   6.538  0.7279  1.2670  0.9530
 7359SOL     OW33535   2.797   3.954   9.399  0.5453 -0.1048  0.2612
 7359SOL    HW133536   2.861   3.908   9.452 -1.8981 -1.2848  2.2043
 7359SOL    HW233537   2.722   3.894   9.395  0.5790 -0.0496 -1.0424
 7360SOL     OW33538   0.507   4.185   2.197 -0.1460 -0.5204  0.1552
 7360SOL    HW133539   0.458   4.115   2.154  1.8056 -1.8055 -0.0046
 7360SOL    HW233540   0.575   4.203   2.132  0.2563 -0.4034  0.6055
 7361SOL     OW33541   2.867   2.546   9.613 -0.2425 -0.1728  0.5018
 7361SOL    HW133542   2.854   2.479   9.547  0.0040  0.9600 -0.6876
 7361SOL    HW233543   2.956   2.530   9.645  0.0333 -0.2653 -0.3107
 7362SOL     OW33544   4.600   0.738   4.653  0.3370 -0.1384  0.1318
 7362SOL    HW133545   4.512   0.725   4.617  0.7858 -0.8194 -0.7098
 7362SOL    HW233546   4.584   0.789   4.733 -1.5335  1.2532 -1.1395
 7363SOL     OW33547   2.023   3.838   4.412  0.0575  0.4297 -0.0817
 7363SOL    HW133548   1.957   3.881   4.467  0.4956 -0.0865  0.8353
 7363SOL    HW233549   2.102   3.852   4.465  0.6729  0.5904 -1.0529
 7364SOL     OW33550   0.509   4.186   8.834  0.1659 -0.6915  0.3990
 7364SOL    HW133551   0.588   4.135   8.816  0.9505  0.7861 -0.3937
 7364SOL    HW233552   0.456   4.169   8.756 -0.1470  1.9539  0.0280
 7365SOL     OW33553   1.273   0.684   1.400  0.0084  0.3627 -0.8873
 7365SOL    HW133554   1.247   0.769   1.436 -1.7529  0.2788 -1.9500
 7365SOL    HW233555   1.218   0.674   1.322 -2.0413 -2.8156  0.9519
 7366SOL     OW33556   4.613   4.289  12.931 -0.3421 -0.1820  0.1314
 7366SOL    HW133557   4.522   4.303  12.907 -0.5559 -0.2261  0.9268
 7366SOL    HW233558   4.607   4.246  13.017  1.9652 -0.3061  0.2444
 7367SOL     OW33559   1.087   3.049   2.912 -0.9837 -0.1218  0.2689
 7367SOL    HW133560   1.135   2.970   2.937  0.8415  1.8035  2.7830
 7367SOL    HW233561   1.011   3.010   2.868 -0.5321 -0.6549 -0.0271
 7368SOL     OW33562   1.139   0.500  16.287 -0.2221  0.4609 -0.3916
 7368SOL    HW133563   1.112   0.543  16.369  0.3957 -0.8041  0.4785
 7368SOL    HW233564   1.211   0.445  16.318 -0.3917  1.2948  1.5139
 7369SOL     OW33565   0.618   2.795   8.897  0.2417 -0.0229  0.1223
 7369SOL    HW133566   0.528   2.760   8.897 -0.2059  1.1463 -0.2186
 7369SOL    HW233567   0.628   2.834   8.810 -0.9854  0.8839  0.3880
 7370SOL     OW33568   3.529   1.418   9.724  0.5903 -0.3437 -0.4721
 7370SOL    HW133569   3.595   1.402   9.791  0.5553  1.2934 -0.0553
 7370SOL    HW233570   3.570   1.388   9.643  2.7390  0.5821  0.2650
 7371SOL     OW33571   1.615   2.842   7.624  0.2890 -0.6929 -0.5886
 7371SOL    HW133572   1.575   2.879   7.703  0.7442  0.4880 -0.9172
 7371SOL    HW233573   1.673   2.914   7.602 -0.1010  0.6546  2.7513
 7372SOL     OW33574   3.373   2.222   0.841 -0.3442  0.0971  0.2263
 7372SOL    HW133575   3.335   2.226   0.754  0.7834  2.6403 -0.1326
 7372SOL    HW233576   3.459   2.185   0.819 -0.3940  0.1091  0.0143
 7373SOL     OW33577   2.487   1.759   2.472 -0.4088  0.3511  0.2502
 7373SOL    HW133578   2.579   1.784   2.461  0.3527 -2.3199  0.5685
 7373SOL    HW233579   2.502   1.665   2.463  1.7763  0.6700  0.5275
 7374SOL     OW33580   1.588   1.156  14.248  0.2880 -0.3654  0.0473
 7374SOL    HW133581   1.654   1.192  14.308 -0.6170  0.6906  0.4219
 7374SOL    HW233582   1.587   1.229  14.186  1.2922 -2.1557 -2.0414
 7375SOL     OW33583   1.440   2.272   3.716 -0.4284  0.3668 -0.3255
 7375SOL    HW133584   1.486   2.200   3.672 -1.3801 -0.5359  0.1461
 7375SOL    HW233585   1.376   2.308   3.655  0.4566  1.1576 -0.7842
 7376SOL     OW33586   3.244   0.271   3.747  0.3458  0.3601 -0.2358
 7376SOL    HW133587   3.241   0.360   3.781  2.3290  0.8601 -1.3827
 7376SOL    HW233588   3.314   0.215   3.781  1.3204  1.9421  0.3548
 7377SOL     OW33589   1.554   3.462   7.900  0.0847 -0.1025  0.1054
 7377SOL    HW133590   1.595   3.483   7.816 -0.0077 -2.1536 -0.4684
 7377SOL    HW233591   1.491   3.531   7.920 -1.9758 -0.9251 -3.6316
 7378SOL     OW33592   4.422   2.461   9.878  0.1138  0.9885  0.1589
 7378SOL    HW133593   4.475   2.501   9.947  1.4987 -2.5518  1.1255
 7378SOL    HW233594   4.332   2.485   9.900  0.7816  3.4430  0.1883
 7379SOL     OW33595   2.680   3.729   8.690 -0.4246 -0.3913 -0.1175
 7379SOL    HW133596   2.586   3.728   8.673 -0.6728 -2.5393  1.3830
 7379SOL    HW233597   2.716   3.728   8.602  0.4987 -1.5492  0.2726
 7380SOL     OW33598   0.462   0.230   5.587  0.2218 -0.1943 -0.4060
 7380SOL    HW133599   0.529   0.191   5.531  0.5018  0.5537 -0.5939
 7380SOL    HW233600   0.416   0.285   5.524 -1.2074  3.1070  3.4755
 7381SOL     OW33601   0.926   0.401   8.242 -0.2007  0.4481 -0.4891
 7381SOL    HW133602   0.960   0.489   8.256  0.2726  0.0995  0.5361
 7381SOL    HW233603   0.968   0.349   8.311  0.4071 -1.9469 -2.6876
 7382SOL     OW33604   2.118   0.853   3.451 -0.3298  0.2010 -0.2630
 7382SOL    HW133605   2.178   0.805   3.392  1.7206  0.5305  1.5558
 7382SOL    HW233606   2.104   0.785   3.516  1.7318 -0.3625 -0.3838
 7383SOL     OW33607   0.067   1.078   9.359 -0.4822 -0.4356  0.0751
 7383SOL    HW133608   0.077   1.018   9.285 -2.4220 -0.5473 -0.0745
 7383SOL    HW233609   0.009   1.041   9.425  0.2396  1.3165  1.7039
 7384SOL     OW33610   2.423   0.344   3.801 -0.2659  0.1628 -0.2498
 7384SOL    HW133611   2.336   0.379   3.819 -0.1496  0.2204  0.2209
 7384SOL    HW233612   2.478   0.421   3.783  1.9216 -1.4038 -0.2986
 7385SOL     OW33613   2.990   2.972   2.246  0.3148  0.0019  0.1852
 7385SOL    HW133614   2.913   2.918   2.264  1.2782 -1.2584  0.5036
 7385SOL    HW233615   3.047   2.901   2.216  0.3085 -0.0983  0.4155
 7386SOL     OW33616   2.484   2.048   7.521  0.4918  0.0624 -0.5697
 7386SOL    HW133617   2.464   2.112   7.453 -1.1083 -1.7521 -1.7979
 7386SOL    HW233618   2.472   1.973   7.463 -0.7408  1.6067 -2.2809
 7387SOL     OW33619   1.709   4.550   4.066 -0.1474 -0.3502  0.0552
 7387SOL    HW133620   1.666   4.615   4.010 -1.2430  0.8786  2.3224
 7387SOL    HW233621   1.714   4.602   4.146 -1.4399 -1.5141  0.8771
 7388SOL     OW33622   2.688   2.975   8.122 -0.3889 -0.1978  0.2500
 7388SOL    HW133623   2.717   2.884   8.125  1.8707  0.5427  0.7381
 7388SOL    HW233624   2.704   3.001   8.212 -0.0306  1.8889 -0.4169
 7389SOL     OW33625   3.594   0.932   8.601 -0.0328  0.3781 -0.2287
 7389SOL    HW133626   3.629   0.984   8.673  0.9326 -1.8522  0.9115
 7389SOL    HW233627   3.569   1.007   8.546 -1.2285 -1.0365 -1.6205
 7390SOL     OW33628   3.740   2.929  15.484 -0.4938 -0.6933  0.6158
 7390SOL    HW133629   3.687   2.955  15.409 -0.7429 -1.7690  0.4169
 7390SOL    HW233630   3.736   3.013  15.531 -0.5186 -0.4835  0.2330
 7391SOL     OW33631   3.419   2.438   5.545 -0.2722  0.0640 -0.0744
 7391SOL    HW133632   3.444   2.405   5.458  0.1589 -0.0261  0.0800
 7391SOL    HW233633   3.327   2.415   5.544 -0.6212  1.6161 -3.3376
 7392SOL     OW33634   1.324   0.927  11.661 -0.1543 -0.3532 -0.0369
 7392SOL    HW133635   1.260   0.989  11.697 -0.5708 -1.8679  1.8262
 7392SOL    HW233636   1.270   0.889  11.591  1.2800 -0.9051 -0.8338
 7393SOL     OW33637   2.462   3.189  10.128 -0.1171 -0.0094  0.3795
 7393SOL    HW133638   2.492   3.272  10.165  0.4941  0.7047 -1.7253
 7393SOL    HW233639   2.428   3.155  10.211 -3.5374 -0.2095 -1.0873
 7394SOL     OW33640   1.254   1.934   2.794  0.0504  0.3410  0.7730
 7394SOL    HW133641   1.194   1.878   2.845  0.5821 -0.5062  0.4781
 7394SOL    HW233642   1.300   1.858   2.758  0.9739  0.2217  2.1838
 7395SOL     OW33643   2.597   2.694  14.388 -0.1826 -0.4362 -0.9635
 7395SOL    HW133644   2.644   2.772  14.357  0.6337 -0.6141 -0.1830
 7395SOL    HW233645   2.579   2.664  14.299 -1.8543  0.0156 -0.7798
 7396SOL     OW33646   3.536   0.270   6.907 -0.3563  0.3610 -0.3955
 7396SOL    HW133647   3.501   0.293   6.821  0.7823  0.3342 -0.8724
 7396SOL    HW233648   3.614   0.326   6.911 -0.8748  1.0891 -0.5919
 7397SOL     OW33649   1.253   3.817   0.081  0.4041  0.3850 -0.2231
 7397SOL    HW133650   1.321   3.763   0.121  0.7605  0.1849 -1.0835
 7397SOL    HW233651   1.262   3.783  17.687  0.7727 -3.0993  1.1622
 7398SOL     OW33652   0.395   0.333   0.337  0.7973 -0.2351 -0.2862
 7398SOL    HW133653   0.377   0.396   0.407  1.3083 -2.1102  1.5462
 7398SOL    HW233654   0.466   0.384   0.298  0.3496  0.9444  0.4538
 7399SOL     OW33655   1.387   3.610   9.322  0.1960  0.1889  0.1353
 7399SOL    HW133656   1.318   3.664   9.285  1.1068 -0.2695 -2.2144
 7399SOL    HW233657   1.359   3.520   9.303 -1.9244  1.1856 -1.4782
 7400SOL     OW33658   2.671   0.455   9.409  0.3891 -0.4859 -0.0980
 7400SOL    HW133659   2.686   0.363   9.387  1.8159 -0.3679  0.3850
 7400SOL    HW233660   2.583   0.448   9.447  0.7820  0.9366  1.0948
 7401SOL     OW33661   1.656   4.643   0.252 -0.9842 -0.3317  0.2780
 7401SOL    HW133662   1.693   4.684   0.174 -0.1994 -1.8609 -0.1648
 7401SOL    HW233663   1.565   4.653   0.225 -0.2354  3.2634 -0.8667
 7402SOL     OW33664   4.386   4.523   0.899  0.0067  0.5567  0.0748
 7402SOL    HW133665   4.365   4.481   0.815  0.2636 -1.6249  1.0884
 7402SOL    HW233666   4.299   4.520   0.940  0.3456 -0.1072  0.7483
 7403SOL     OW33667   4.564   1.596  16.441 -0.4429 -0.2884 -0.3044
 7403SOL    HW133668   4.628   1.596  16.371 -0.3516 -1.1136 -0.2157
 7403SOL    HW233669   4.482   1.575  16.397  0.3064 -0.7046 -1.4944
 7404SOL     OW33670   4.597   1.772   8.643 -0.1233  0.1788  0.4764
 7404SOL    HW133671   4.681   1.814   8.628 -0.2588  0.2203 -0.1596
 7404SOL    HW233672   4.572   1.802   8.731 -0.5860  0.7648  0.1420
 7405SOL     OW33673   2.796   2.327   3.857 -0.7339 -0.4406 -0.2054
 7405SOL    HW133674   2.817   2.346   3.948 -1.8114 -0.1535 -0.0177
 7405SOL    HW233675   2.833   2.239   3.845  1.5031  0.4088  0.4554
 7406SOL     OW33676   4.600   0.525  16.371  0.3511  0.0433  0.5214
 7406SOL    HW133677   4.667   0.457  16.378 -0.9750 -1.4528 -1.0355
 7406SOL    HW233678   4.570   0.508  16.281 -1.7393  1.2870  0.9832
 7407SOL     OW33679   2.664   1.148   7.273  0.2936  0.5504 -0.0263
 7407SOL    HW133680   2.592   1.126   7.331  0.1501 -0.0281 -0.4160
 7407SOL    HW233681   2.729   1.085   7.303  2.0869  1.8852 -1.0495
 7408SOL     OW33682   0.642   0.505  14.777  0.3437 -0.1796  0.4650
 7408SOL    HW133683   0.703   0.462  14.837 -0.4077  0.7106  1.8731
 7408SOL    HW233684   0.593   0.425  14.759 -0.9704  0.5310  0.8114
 7409SOL     OW33685   4.144   3.301   6.279  0.5717 -0.0824 -1.1723
 7409SOL    HW133686   4.227   3.343   6.301  0.2701 -1.2292  2.3039
 7409SOL    HW233687   4.088   3.378   6.280  1.6051  0.6715 -1.3628
 7410SOL     OW33688   4.080   1.925   1.221 -0.3830  0.3021  0.1099
 7410SOL    HW133689   4.164   1.879   1.229 -0.7074 -0.2711  0.1713
 7410SOL    HW233690   4.032   1.844   1.207  2.5907 -1.5307  0.3758
 7411SOL     OW33691   4.385   0.760  16.682 -0.3355  0.0500 -0.4658
 7411SOL    HW133692   4.359   0.704  16.609 -0.2797 -1.7923  0.9476
 7411SOL    HW233693   4.464   0.719  16.719 -0.8264 -1.4942 -1.1489
 7412SOL     OW33694   3.581   1.426   3.677 -0.0870 -0.3944 -0.0965
 7412SOL    HW133695   3.557   1.350   3.730  1.1891 -0.1053  0.8948
 7412SOL    HW233696   3.620   1.384   3.601 -0.4418  0.5602 -0.8094
 7413SOL     OW33697   4.448   4.064   8.199  0.5619  0.7284  0.5265
 7413SOL    HW133698   4.453   3.990   8.259 -3.3213  0.6392  0.7559
 7413SOL    HW233699   4.447   4.142   8.255  2.0172 -0.5086  2.2810
 7414SOL     OW33700   3.299   3.915   2.877  0.1231 -0.7148  0.6501
 7414SOL    HW133701   3.207   3.910   2.903 -0.0818  0.7455  0.2066
 7414SOL    HW233702   3.295   3.980   2.807  3.5348 -0.3716  0.7582
 7415SOL     OW33703   4.100   3.732   1.756 -0.1182 -0.3836 -0.6416
 7415SOL    HW133704   4.071   3.707   1.843 -1.2435 -0.4599 -1.0365
 7415SOL    HW233705   4.122   3.824   1.769  1.4459 -0.9191  0.3918
 7416SOL     OW33706   0.361   1.109   3.242  0.5019  0.4327  0.1223
 7416SOL    HW133707   0.456   1.104   3.228  0.2231  1.0112 -1.8998
 7416SOL    HW233708   0.331   1.026   3.279  0.6825  0.7390  0.9526
 7417SOL     OW33709   0.093   2.190  11.985 -0.3185  0.0209 -0.0451
 7417SOL    HW133710   0.010   2.201  11.938  1.6275  2.6381 -2.9043
 7417SOL    HW233711   0.136   2.273  11.963  1.3445 -1.0019 -0.6762
 7418SOL     OW33712   3.917   1.600   2.786  0.2573 -0.1855  0.5443
 7418SOL    HW133713   3.842   1.658   2.775  0.8274  0.6837  1.1800
 7418SOL    HW233714   3.948   1.646   2.864 -2.6328 -0.1185  1.6301
 7419SOL     OW33715   1.949   3.815   6.677 -0.2636  0.1656  0.1619
 7419SOL    HW133716   1.866   3.769   6.670  0.3909 -1.0720  0.4507
 7419SOL    HW233717   2.007   3.748   6.640 -0.3568 -0.8791  1.8715
 7420SOL     OW33718   0.488   2.962  12.484  0.3639 -0.1085 -0.0615
 7420SOL    HW133719   0.447   3.023  12.422  0.3979 -0.7653 -0.7308
 7420SOL    HW233720   0.542   3.014  12.543 -1.9588 -0.9862  2.8507
 7421SOL     OW33721   3.867   2.167   8.985 -0.4990 -0.1140  0.2875
 7421SOL    HW133722   3.808   2.225   8.936 -0.1552  1.0782  1.2847
 7421SOL    HW233723   3.807   2.098   9.012  0.2327 -0.3628  1.2461
 7422SOL     OW33724   0.216   2.554   1.873 -0.4882 -0.2548  0.3967
 7422SOL    HW133725   0.124   2.574   1.885 -0.3252  1.2232 -0.8544
 7422SOL    HW233726   0.251   2.622   1.815 -1.0407 -0.4353 -0.1418
 7423SOL     OW33727   0.875   1.119   6.758  0.3168 -0.6254 -0.3145
 7423SOL    HW133728   0.782   1.111   6.778  0.2829 -1.2633 -0.7107
 7423SOL    HW233729   0.888   1.201   6.710  2.7615 -0.8204 -0.0080
 7424SOL     OW33730   2.370   3.262   4.152  0.0474  0.0497  0.0801
 7424SOL    HW133731   2.312   3.310   4.093 -1.8358 -0.6720  1.3382
 7424SOL    HW233732   2.325   3.257   4.236  0.3669 -2.6501  0.0777
 7425SOL     OW33733   0.797   1.007   5.397  0.2774  0.2051  0.2767
 7425SOL    HW133734   0.727   0.950   5.428  1.7363 -3.1574 -2.5944
 7425SOL    HW233735   0.826   1.052   5.476  0.0530 -2.5766  1.9324
 7426SOL     OW33736   3.963   1.021   7.764 -0.0038 -0.4853  0.1313
 7426SOL    HW133737   3.945   0.953   7.699  0.1010  0.6717 -1.0989
 7426SOL    HW233738   4.003   1.082   7.703 -1.0355 -1.3357 -1.3978
 7427SOL     OW33739   2.425   2.689  13.117 -0.6882 -0.1617  0.8033
 7427SOL    HW133740   2.462   2.741  13.188 -0.2299  0.4983  0.0901
 7427SOL    HW233741   2.497   2.709  13.057 -0.8876 -1.7302  0.0495
 7428SOL     OW33742   4.165   3.902   9.720  0.8169  0.4749 -0.0126
 7428SOL    HW133743   4.157   3.944   9.635 -0.1977  1.6226  0.6558
 7428SOL    HW233744   4.092   3.841   9.725  1.4111 -0.4474 -2.3673
 7429SOL     OW33745   2.186   2.321   8.232 -0.6044 -0.2074  0.7603
 7429SOL    HW133746   2.232   2.250   8.277  0.7561 -1.0027 -1.8497
 7429SOL    HW233747   2.236   2.400   8.255 -0.9793  0.3119 -0.2218
 7430SOL     OW33748   0.734   1.385   6.362  0.0841  0.4416 -0.6598
 7430SOL    HW133749   0.643   1.355   6.357  0.4770 -1.0390  1.1036
 7430SOL    HW233750   0.739   1.475   6.329 -0.0793  0.4189 -0.7504
 7431SOL     OW33751   1.944   3.123   1.125 -0.0101  0.1549 -0.0599
 7431SOL    HW133752   1.993   3.184   1.070 -1.9412  1.2074 -0.6064
 7431SOL    HW233753   1.863   3.118   1.075 -1.4224  0.1218  2.2083
 7432SOL     OW33754   3.973   3.045   8.023 -0.3417  0.2461 -0.0116
 7432SOL    HW133755   3.981   3.102   8.100 -3.4582  0.6823 -0.0293
 7432SOL    HW233756   4.050   3.076   7.975 -0.0742 -0.6789 -0.1662
 7433SOL     OW33757   2.231   4.208   7.254  0.2022  0.1460  0.0680
 7433SOL    HW133758   2.315   4.206   7.301  0.9769  1.5509 -1.2562
 7433SOL    HW233759   2.216   4.303   7.255 -0.1203  0.0968 -0.3973
 7434SOL     OW33760   3.504   1.488   5.271  0.1489 -0.2322 -0.3508
 7434SOL    HW133761   3.479   1.402   5.239  0.7972 -0.7695  0.6014
 7434SOL    HW233762   3.493   1.535   5.188 -4.5162 -2.2478 -0.8735
 7435SOL     OW33763   2.640   2.256   8.173  0.4715 -0.2361 -0.2884
 7435SOL    HW133764   2.633   2.161   8.170  0.8553 -0.2252 -1.6447
 7435SOL    HW233765   2.562   2.281   8.124  0.5840  0.3079 -0.1965
 7436SOL     OW33766   4.359   2.924   0.217  0.2834  0.2322 -0.5920
 7436SOL    HW133767   4.384   2.948   0.306  2.1181  0.3047 -1.1119
 7436SOL    HW233768   4.362   3.009   0.174 -1.3229 -0.0266 -1.2168
 7437SOL     OW33769   4.535   0.262  13.250 -0.3532 -0.1082 -0.4636
 7437SOL    HW133770   4.527   0.330  13.317 -0.7570 -0.1471 -0.4738
 7437SOL    HW233771   4.503   0.317  13.179 -3.0885 -0.3352  0.5994
 7438SOL     OW33772   4.291   0.200   5.169  0.3141  0.3114  0.1784
 7438SOL    HW133773   4.287   0.274   5.109  1.7417  0.8498  0.7401
 7438SOL    HW233774   4.374   0.158   5.146  0.2742  1.4191 -2.0727
 7439SOL     OW33775   0.331   2.349   4.576 -0.1924 -0.4302 -0.3754
 7439SOL    HW133776   0.346   2.257   4.553 -0.1020 -0.2644 -0.9599
 7439SOL    HW233777   0.408   2.386   4.533  1.8194 -1.9837  1.8296
 7440SOL     OW33778   0.930   1.916  13.841  0.5580 -0.1775 -0.2229
 7440SOL    HW133779   0.858   1.866  13.803 -0.4567 -0.3948  1.9688
 7440SOL    HW233780   1.003   1.858  13.816  1.7129  0.5792  1.3992
 7441SOL     OW33781   2.608   3.832   2.926 -0.5413 -0.0764 -0.2009
 7441SOL    HW133782   2.589   3.739   2.937  1.4250 -0.8349 -2.9989
 7441SOL    HW233783   2.655   3.823   2.843 -0.1142 -1.6312  0.2056
 7442SOL     OW33784   4.585   1.549  14.077  0.4300  0.6361  0.0262
 7442SOL    HW133785   4.589   1.453  14.081  1.9491  0.6670 -1.1124
 7442SOL    HW233786   4.490   1.560  14.069  0.4957  1.6332  0.6752
 7443SOL     OW33787   3.057   0.970   4.197 -0.1035  0.1659  0.0226
 7443SOL    HW133788   2.976   1.021   4.195  0.2379  0.6386 -1.4198
 7443SOL    HW233789   3.087   0.987   4.108  0.8741  0.7739  0.4714
 7444SOL     OW33790   0.503   2.474   4.425  0.2532 -0.0216  0.1627
 7444SOL    HW133791   0.555   2.534   4.372  2.3363 -1.7902  0.2150
 7444SOL    HW233792   0.417   2.482   4.385  0.9530  1.6717 -0.9812
 7445SOL     OW33793   0.306   4.286   1.645  0.4461 -0.1844 -0.3754
 7445SOL    HW133794   0.319   4.358   1.707  2.6472  1.0060 -2.2216
 7445SOL    HW233795   0.381   4.227   1.657 -0.2426 -0.8309  0.7617
 7446SOL     OW33796   0.451   2.419   4.983  0.0056 -0.3768 -0.3357
 7446SOL    HW133797   0.388   2.422   4.912 -0.9288 -1.7536  0.4329
 7446SOL    HW233798   0.453   2.505   5.025  2.8887 -1.9248  2.7280
 7447SOL     OW33799   3.087   4.075   6.884 -0.0041 -0.0354 -0.0555
 7447SOL    HW133800   3.166   4.049   6.931 -0.4750  1.3492  1.5097
 7447SOL    HW233801   3.020   4.106   6.945  0.1517 -0.1338  0.1642
 7448SOL     OW33802   4.095   4.540   7.923 -0.1482 -0.7193 -0.0554
 7448SOL    HW133803   4.109   4.634   7.937 -1.0444 -0.6448  0.3572
 7448SOL    HW233804   4.012   4.533   7.970 -0.0354  2.5963  0.6609
 7449SOL     OW33805   0.126   2.744   4.658  0.0265 -0.4112  0.6557
 7449SOL    HW133806   0.202   2.781   4.614 -0.3783 -1.9501 -1.3165
 7449SOL    HW233807   0.112   2.797   4.737  1.6313  1.3324 -0.2292
 7450SOL     OW33808   0.929   4.177   6.497  0.0440  0.0649  0.0804
 7450SOL    HW133809   0.839   4.205   6.480 -0.1782 -0.9374 -0.3799
 7450SOL    HW233810   0.914   4.094   6.541  1.5993 -0.2523  0.0194
 7451SOL     OW33811   0.682   3.136   2.506 -0.0290  0.4392  0.3083
 7451SOL    HW133812   0.693   3.073   2.578 -0.1820 -1.2574 -1.1586
 7451SOL    HW233813   0.619   3.091   2.450  0.1357  0.8873 -0.2339
 7452SOL     OW33814   3.024   1.032   8.045 -0.2010  0.2037  0.1733
 7452SOL    HW133815   3.072   1.057   8.123 -2.3196  1.8629  0.9522
 7452SOL    HW233816   2.943   1.000   8.085  0.7699  0.2631  2.1579
 7453SOL     OW33817   4.650   0.440   0.371  0.0761 -0.3131 -0.2482
 7453SOL    HW133818   0.002   0.451   0.429  1.8108 -0.3429 -2.4801
 7453SOL    HW233819   4.651   0.344   0.366 -0.9502 -0.4035  1.2000
 7454SOL     OW33820   4.533   1.992   8.429 -0.1492  0.3701  0.1211
 7454SOL    HW133821   4.588   2.005   8.353  0.4365 -0.2531  0.4385
 7454SOL    HW233822   4.478   1.925   8.388  0.0133  0.7670 -0.7316
 7455SOL     OW33823   0.679   1.221  10.875  0.0545 -0.1243 -0.1377
 7455SOL    HW133824   0.663   1.298  10.821  2.1387  0.3550 -0.0658
 7455SOL    HW233825   0.612   1.228  10.943 -0.4031  1.9663 -0.8093
 7456SOL     OW33826   0.776   3.946   3.319  0.5790 -0.1959 -0.1144
 7456SOL    HW133827   0.764   3.856   3.349 -0.9678  0.0762  0.0739
 7456SOL    HW233828   0.687   3.980   3.334  0.0916 -1.2188 -0.6800
 7457SOL     OW33829   4.478   1.909   6.109  0.2228 -0.0480 -0.1406
 7457SOL    HW133830   4.437   1.970   6.169  1.0851  0.2125  0.1752
 7457SOL    HW233831   4.452   1.823   6.143  1.9656 -0.1995  0.7946
 7458SOL     OW33832   0.024   3.739  10.478  0.0420  0.0051  0.1718
 7458SOL    HW133833   4.686   3.669  10.459  1.2159 -1.0544  0.3110
 7458SOL    HW233834   4.702   3.806  10.426 -2.1655 -0.4267  1.5358
 7459SOL     OW33835   4.623   0.094   1.045  0.3638 -0.0839 -0.2710
 7459SOL    HW133836   4.654   0.158   1.109  0.2374  0.8669 -1.1481
 7459SOL    HW233837   4.573   0.143   0.979 -0.0433 -0.3538 -0.1570
 7460SOL     OW33838   1.160   0.254   2.874  0.0987 -0.9328 -0.4975
 7460SOL    HW133839   1.243   0.239   2.829 -0.1095 -0.1802 -1.1354
 7460SOL    HW233840   1.182   0.187   2.939  1.5376 -1.2044 -1.2762
 7461SOL     OW33841   0.325   3.412   3.878 -0.0126  0.2637  0.5140
 7461SOL    HW133842   0.289   3.355   3.946 -0.7133  0.4470  0.3021
 7461SOL    HW233843   0.413   3.380   3.862 -0.3542  0.2970 -1.4408
 7462SOL     OW33844   4.211   3.488   5.983 -0.4952 -0.3555 -0.4552
 7462SOL    HW133845   4.159   3.425   5.932 -1.1569 -0.3356  0.1973
 7462SOL    HW233846   4.292   3.437   5.993 -0.2298  0.1215 -0.1911
 7463SOL     OW33847   1.125   1.220   6.086 -0.6088  0.1093 -0.4913
 7463SOL    HW133848   1.056   1.194   6.146  0.0416  0.2091  0.3078
 7463SOL    HW233849   1.110   1.315   6.096 -2.1963 -0.5310  3.4574
 7464SOL     OW33850   2.952   4.358   4.982  0.1724  0.4048 -0.2859
 7464SOL    HW133851   2.860   4.364   5.005  0.3040 -1.6049  0.7207
 7464SOL    HW233852   2.948   4.266   4.957 -1.4347  0.0832  1.1917
 7465SOL     OW33853   1.887   3.369   0.080 -0.1008  0.3099  0.4363
 7465SOL    HW133854   1.805   3.353   0.126 -0.4733 -1.3970 -0.8193
 7465SOL    HW233855   1.926   3.440   0.131  1.2527 -0.6326  0.7410
 7466SOL     OW33856   4.680   4.277   1.222 -0.3623 -0.2866  0.2308
 7466SOL    HW133857   0.041   4.254   1.261  0.0719 -0.1164 -0.6157
 7466SOL    HW233858   4.622   4.279   1.298  1.1116  0.2305  1.3455
 7467SOL     OW33859   0.137   2.852   8.148  0.6528 -0.3689 -0.5394
 7467SOL    HW133860   0.147   2.918   8.080  0.0393  2.3552  1.9863
 7467SOL    HW233861   0.111   2.775   8.098  0.6052 -0.0231 -1.0416
 7468SOL     OW33862   1.592   2.493  12.281 -0.3319 -0.4170 -0.1537
 7468SOL    HW133863   1.591   2.580  12.321  1.7244 -0.8665  0.8987
 7468SOL    HW233864   1.503   2.494  12.247  0.0096  0.5117 -1.0471
 7469SOL     OW33865   3.932   4.550   8.577  0.7438  0.1080 -0.7095
 7469SOL    HW133866   3.997   4.484   8.554  1.5624  1.0470 -1.0970
 7469SOL    HW233867   3.997   4.611   8.611  1.3583  2.3148 -5.8391
 7470SOL     OW33868   3.090   2.293   7.346 -0.1876  0.1187 -0.2470
 7470SOL    HW133869   3.141   2.371   7.365  0.4086 -0.6942  1.5457
 7470SOL    HW233870   3.092   2.256   7.435  0.1290 -0.8819 -0.6627
 7471SOL     OW33871   1.278   1.586   3.874  0.2507  0.2306 -0.2299
 7471SOL    HW133872   1.328   1.628   3.803  0.8853  0.3965  0.3174
 7471SOL    HW233873   1.193   1.612   3.838  0.1556  0.0325 -0.1454
 7472SOL     OW33874   3.745   3.744   4.092 -0.3676  0.2306 -0.5107
 7472SOL    HW133875   3.779   3.657   4.073 -1.2082 -0.1868 -0.0870
 7472SOL    HW233876   3.815   3.801   4.059 -0.4191  0.8081  0.3810
 7473SOL     OW33877   4.208   2.758   3.991 -0.2005 -0.3296 -1.0634
 7473SOL    HW133878   4.124   2.759   4.037  0.0140  0.4539 -0.6863
 7473SOL    HW233879   4.265   2.718   4.057 -1.1453 -0.6140 -0.4122
 7474SOL     OW33880   4.162   2.988  13.807 -0.1487  0.4334 -0.2496
 7474SOL    HW133881   4.108   3.022  13.878 -0.1019  3.1007 -1.4988
 7474SOL    HW233882   4.197   2.910  13.849 -0.0163  0.8665  0.4310
 7475SOL     OW33883   3.736   0.405   5.073  0.4727 -0.3087  0.3610
 7475SOL    HW133884   3.668   0.382   5.010  0.1559 -0.6565  0.8222
 7475SOL    HW233885   3.674   0.438   5.138  0.5259 -0.5029  0.5123
 7476SOL     OW33886   1.311   3.988   0.890 -0.4645 -0.4474  0.0767
 7476SOL    HW133887   1.339   3.911   0.840  0.3806  1.3801 -2.2650
 7476SOL    HW233888   1.294   4.047   0.816 -0.3536  0.5725  0.8680
 7477SOL     OW33889   3.732   1.916   6.866 -0.1542  0.5038  0.0975
 7477SOL    HW133890   3.698   1.977   6.800 -1.5127 -0.3306  0.0371
 7477SOL    HW233891   3.701   1.833   6.829  0.3827  0.3513 -0.0199
 7478SOL     OW33892   4.715   1.755  14.197  0.3410  0.1619 -0.3551
 7478SOL    HW133893   4.688   1.673  14.156  0.6790  0.4332 -1.1285
 7478SOL    HW233894   4.639   1.799  14.160  0.7395 -0.4353 -1.9333
 7479SOL     OW33895   0.086   2.234   4.637  0.0122 -0.0700  0.3051
 7479SOL    HW133896   0.048   2.254   4.551  0.5468  0.3571  0.1691
 7479SOL    HW233897   0.172   2.276   4.636 -0.6940  1.3702  1.2021
 7480SOL     OW33898   0.158   3.493   7.846  0.1419  0.1049 -0.1326
 7480SOL    HW133899   0.224   3.446   7.896 -1.9102 -0.7017  1.8390
 7480SOL    HW233900   0.177   3.584   7.870  0.9411 -0.5091  1.4935
 7481SOL     OW33901   0.043   2.881   1.961  0.3494  0.4331 -0.0084
 7481SOL    HW133902   0.078   2.817   2.024 -0.0415  0.5355  0.3166
 7481SOL    HW233903   0.087   2.965   1.978 -0.0900  1.2930 -3.1615
 7482SOL     OW33904   0.762   3.525  11.847  0.0583 -0.4723 -0.6787
 7482SOL    HW133905   0.724   3.606  11.881 -2.8636 -1.2187 -2.1510
 7482SOL    HW233906   0.828   3.562  11.788  1.6071  0.4700  1.6485
 7483SOL     OW33907   0.976   0.038  13.509 -0.1675  0.2255  0.2457
 7483SOL    HW133908   1.071   0.041  13.495 -0.2930  1.6758 -0.3399
 7483SOL    HW233909   0.971   0.133  13.523 -0.6325  0.4291 -1.3533
 7484SOL     OW33910   3.310   2.393   8.216 -0.3092  0.0707 -0.4944
 7484SOL    HW133911   3.349   2.399   8.129  1.6582 -1.6452  0.2706
 7484SOL    HW233912   3.384   2.412   8.274 -0.8292 -0.9159  0.5035
 7485SOL     OW33913   3.115   0.513   5.188 -1.0646  0.5118  0.6200
 7485SOL    HW133914   3.101   0.603   5.218 -0.3728  0.5901  0.7071
 7485SOL    HW233915   3.026   0.494   5.159 -0.5846 -0.2892 -0.3415
 7486SOL     OW33916   3.182   2.311   5.509 -0.5845 -1.0667 -0.2235
 7486SOL    HW133917   3.204   2.219   5.525  2.0759 -0.1864  1.1901
 7486SOL    HW233918   3.087   2.310   5.525 -0.6117  0.4880 -0.2933
 7487SOL     OW33919   1.037   3.875  13.517  0.1219 -0.2903 -0.5995
 7487SOL    HW133920   1.079   3.875  13.603 -1.4843 -0.7933  0.1964
 7487SOL    HW233921   1.025   3.969  13.506 -2.1270 -0.5223 -0.0933
 7488SOL     OW33922   1.284   3.503  17.473 -0.0252 -0.6140 -0.0058
 7488SOL    HW133923   1.366   3.551  17.486  0.2767 -0.1234 -3.6732
 7488SOL    HW233924   1.241   3.576  17.428 -0.3726 -0.0322  1.2772
 7489SOL     OW33925   3.215   4.047   3.882  0.0996  0.3697 -0.5424
 7489SOL    HW133926   3.154   3.988   3.837 -0.7212 -0.7157  1.9911
 7489SOL    HW233927   3.161   4.119   3.913 -1.7224 -0.8121 -0.9365
 7490SOL     OW33928   0.010   3.140   0.034 -0.0340  0.1602  0.7374
 7490SOL    HW133929   4.688   3.208   0.082 -1.5137 -0.0008 -0.4395
 7490SOL    HW233930   0.073   3.105   0.098 -1.6724  0.8197  2.6863
 7491SOL     OW33931   1.755   3.063   2.616 -0.7707  0.1512  0.8691
 7491SOL    HW133932   1.779   3.155   2.609  1.7067 -0.5934 -0.8612
 7491SOL    HW233933   1.708   3.049   2.534 -0.4296 -0.1866  0.7252
 7492SOL     OW33934   0.879   2.582   3.827  0.0161  0.1510  0.5138
 7492SOL    HW133935   0.826   2.548   3.898 -0.3110  0.8619  0.6129
 7492SOL    HW233936   0.923   2.499   3.811  0.5094  0.8143 -1.5807
 7493SOL     OW33937   2.527   1.421   0.528 -0.6471  0.1339 -0.3318
 7493SOL    HW133938   2.505   1.514   0.520 -0.2838  0.4082  1.8891
 7493SOL    HW233939   2.527   1.399   0.434 -0.1871  2.1964 -0.8142
 7494SOL     OW33940   1.171   0.613  12.527  0.6443 -0.2587 -0.0152
 7494SOL    HW133941   1.136   0.690  12.482 -1.3289 -0.2018  1.6043
 7494SOL    HW233942   1.224   0.646  12.599  0.0218  0.8028 -0.0332
 7495SOL     OW33943   1.466   2.603  17.108 -0.8049 -0.2447 -0.1189
 7495SOL    HW133944   1.541   2.653  17.139 -0.9892  0.4691 -0.8236
 7495SOL    HW233945   1.479   2.514  17.139  2.3819  0.1203 -0.4065
 7496SOL     OW33946   0.983   2.223   3.034 -0.0920 -0.6364  0.0896
 7496SOL    HW133947   1.074   2.252   3.037  0.4732 -2.7611  3.2923
 7496SOL    HW233948   0.988   2.160   2.961 -1.2424 -2.5154  1.6278
 7497SOL     OW33949   4.104   1.067  15.869 -0.0371 -0.0517 -0.3375
 7497SOL    HW133950   4.097   1.158  15.838 -1.9066 -0.4302 -1.0290
 7497SOL    HW233951   4.086   1.018  15.789  0.8207 -0.9127  0.0102
 7498SOL     OW33952   2.478   3.650   3.795  0.5777 -0.5072 -0.4680
 7498SOL    HW133953   2.537   3.580   3.767 -0.6659 -1.0344 -1.7566
 7498SOL    HW233954   2.474   3.710   3.721  2.3728 -2.4713 -2.1459
 7499SOL     OW33955   3.205   1.600   4.729  0.0356 -0.0356  0.0397
 7499SOL    HW133956   3.165   1.514   4.735  2.7601 -1.2654  0.3751
 7499SOL    HW233957   3.284   1.576   4.680 -0.6816 -1.4456 -0.4290
 7500SOL     OW33958   4.019   2.918   8.740 -0.4875 -0.1038  0.5797
 7500SOL    HW133959   3.960   2.855   8.699  0.6167 -0.6115 -0.2167
 7500SOL    HW233960   4.052   2.866   8.812  0.1826  0.9204  1.0093
 7501SOL     OW33961   3.820   1.554   5.772 -0.1827  0.1827 -0.6374
 7501SOL    HW133962   3.766   1.594   5.704  2.7626  1.7166 -2.1103
 7501SOL    HW233963   3.880   1.505   5.715  0.6343 -0.3470  0.6783
 7502SOL     OW33964   4.566   4.610   9.073  0.1102  0.4466 -0.3947
 7502SOL    HW133965   4.541   4.575   9.158 -1.2121 -0.1251 -1.0262
 7502SOL    HW233966   4.628   4.681   9.092  1.2119 -0.2899 -1.2288
 7503SOL     OW33967   2.314   4.433   4.853  0.0903  0.3882 -0.2189
 7503SOL    HW133968   2.373   4.370   4.894 -1.1106 -1.0917 -0.7857
 7503SOL    HW233969   2.286   4.479   4.932  1.9088  2.5908 -0.8458
 7504SOL     OW33970   2.924   2.836   7.343 -0.0211  0.6723 -0.0777
 7504SOL    HW133971   2.829   2.836   7.346 -0.0353  0.0048 -0.3931
 7504SOL    HW233972   2.944   2.869   7.256  0.4049  0.1885 -0.1682
 7505SOL     OW33973   0.438   0.669   5.719 -0.0168  0.3702 -0.3356
 7505SOL    HW133974   0.391   0.606   5.774 -0.1739  0.1914 -0.6779
 7505SOL    HW233975   0.375   0.740   5.712  1.3635  1.4217 -1.9545
 7506SOL     OW33976   3.976   0.399   3.135  0.2946  0.0459  0.2529
 7506SOL    HW133977   4.059   0.364   3.105 -0.5000 -0.5891 -1.2143
 7506SOL    HW233978   3.976   0.492   3.110  0.6889 -0.0179  0.0291
 7507SOL     OW33979   0.028   0.523   5.346 -0.4344  0.4155 -0.0875
 7507SOL    HW133980   0.024   0.444   5.401  0.7952 -0.2144 -0.8914
 7507SOL    HW233981   0.092   0.495   5.280  1.6991  3.6331  0.6216
 7508SOL     OW33982   2.072   2.261  13.418 -0.2850 -0.5687  0.1590
 7508SOL    HW133983   2.160   2.259  13.379 -0.5921  2.4341 -0.6839
 7508SOL    HW233984   2.086   2.272  13.512  1.5080  1.3613 -0.3254
 7509SOL     OW33985   1.960   0.786   3.856 -0.2451  0.4564 -0.2158
 7509SOL    HW133986   1.886   0.727   3.863  0.5615 -0.5114  0.1455
 7509SOL    HW233987   1.916   0.871   3.856 -1.5885 -0.2540  0.9452
 7510SOL     OW33988   2.733   4.215  16.625  0.0448 -0.2786 -0.4024
 7510SOL    HW133989   2.762   4.202  16.534 -0.1569  2.0647 -0.7847
 7510SOL    HW233990   2.805   4.170  16.670 -2.7204 -1.7066  2.5546
 7511SOL     OW33991   4.504   3.452   6.094  0.2048 -0.4304 -0.0561
 7511SOL    HW133992   4.522   3.538   6.056  0.5010 -1.1619 -1.5817
 7511SOL    HW233993   4.516   3.459   6.189 -1.8751 -1.0569  0.2507
 7512SOL     OW33994   0.091   0.643   8.789 -0.0678 -0.0148 -0.4514
 7512SOL    HW133995   0.047   0.715   8.745 -3.3618 -2.3459 -0.9014
 7512SOL    HW233996   0.026   0.615   8.853 -0.6148  0.3878 -0.8369
 7513SOL     OW33997   4.087   4.594   7.500  0.0357  0.1785 -0.2869
 7513SOL    HW133998   4.170   4.638   7.480 -0.1312  0.5760 -0.1052
 7513SOL    HW233999   4.069   4.625   7.589  1.0962 -1.5468  0.5268
 7514SOL     OW34000   2.561   1.060   2.439  0.2027 -0.3912 -0.3277
 7514SOL    HW134001   2.466   1.066   2.441  0.3683  1.7339  0.5704
 7514SOL    HW234002   2.595   1.149   2.449 -0.0328  0.0102 -2.9275
 7515SOL     OW34003   1.143   2.559  15.102  0.4161 -0.5016 -0.1644
 7515SOL    HW134004   1.226   2.547  15.148  0.5448  2.7647  0.4552
 7515SOL    HW234005   1.079   2.521  15.162 -0.5968  1.8034  0.2283
 7516SOL     OW34006   3.389   4.454   6.965 -0.1850 -0.5628  0.0162
 7516SOL    HW134007   3.479   4.424   6.976 -0.2450 -0.9889 -0.6450
 7516SOL    HW234008   3.378   4.525   7.029 -2.6892 -3.0343  2.3213
 7517SOL     OW34009   3.686   1.171  17.437  0.1892 -0.4317 -0.2663
 7517SOL    HW134010   3.766   1.163  17.489  0.9914 -2.1907 -1.7439
 7517SOL    HW234011   3.705   1.250  17.386  0.4943 -0.5408 -0.3265
 7518SOL     OW34012   1.756   3.929   3.327 -0.4683 -0.5107 -0.1382
 7518SOL    HW134013   1.669   3.930   3.368 -0.4498  0.4820 -0.1150
 7518SOL    HW234014   1.762   4.022   3.307  0.8964 -0.5890 -0.1028
 7519SOL     OW34015   1.738   2.280   0.742  0.1586 -0.2438  0.1073
 7519SOL    HW134016   1.721   2.282   0.837 -1.4324 -3.2962 -0.0994
 7519SOL    HW234017   1.668   2.340   0.719  0.3752 -0.1629 -0.3250
 7520SOL     OW34018   3.905   2.706   4.409 -0.7946  0.0693  0.2304
 7520SOL    HW134019   3.855   2.629   4.436 -1.4120 -0.4584 -2.4749
 7520SOL    HW234020   3.887   2.774   4.475  0.4820  1.1500 -0.5445
 7521SOL     OW34021   0.952   3.171   5.562 -0.2601 -0.2980  0.3276
 7521SOL    HW134022   1.030   3.183   5.507 -0.2887 -1.4590  0.0270
 7521SOL    HW234023   0.992   3.137   5.642 -1.9323 -0.7584  0.9672
 7522SOL     OW34024   2.814   1.286   7.616  0.1296 -0.3388  0.4950
 7522SOL    HW134025   2.850   1.339   7.545  0.8480 -0.7932  0.5185
 7522SOL    HW234026   2.804   1.202   7.572 -1.5299 -0.7086  1.5769
 7523SOL     OW34027   2.751   4.549  13.341  0.0154  0.3901  0.5683
 7523SOL    HW134028   2.763   4.519  13.431 -0.0410 -0.8902  0.1531
 7523SOL    HW234029   2.792   4.478  13.290  0.5104 -0.0009  1.5092
 7524SOL     OW34030   3.899   1.396   6.782 -0.1538 -0.3243  0.1471
 7524SOL    HW134031   3.937   1.448   6.853  3.7739  0.0178 -2.2185
 7524SOL    HW234032   3.944   1.436   6.708  1.6148 -2.4933  0.0314
 7525SOL     OW34033   0.403   2.258   8.724  0.0558 -0.3458  0.4416
 7525SOL    HW134034   0.394   2.353   8.710 -0.2829 -0.9679 -3.6763
 7525SOL    HW234035   0.481   2.236   8.674 -0.9526  1.0940 -1.8420
 7526SOL     OW34036   3.134   1.831  16.118 -0.5391 -0.6022  0.1875
 7526SOL    HW134037   3.143   1.838  16.213 -1.0879  3.9134 -0.1255
 7526SOL    HW234038   3.113   1.739  16.101 -0.3654 -1.1032  2.6417
 7527SOL     OW34039   4.155   4.565  17.648  0.4283 -0.5263 -0.0693
 7527SOL    HW134040   4.180   4.474  17.633 -0.9707 -0.7157 -1.2363
 7527SOL    HW234041   4.089   4.567  17.578 -0.5128 -1.4505  0.7843
 7528SOL     OW34042   2.295   2.291   4.630 -0.1489 -0.4463  0.4354
 7528SOL    HW134043   2.239   2.263   4.703 -1.3256  0.2885 -0.1839
 7528SOL    HW234044   2.380   2.272   4.669  0.9023 -0.0284 -1.6384
 7529SOL     OW34045   1.428   1.175   5.221  0.5094  0.1623  0.1165
 7529SOL    HW134046   1.385   1.095   5.189  0.1950 -0.0155  0.9933
 7529SOL    HW234047   1.488   1.149   5.291  0.6319  1.3779  0.4511
 7530SOL     OW34048   3.907   4.436   3.674  0.2747 -0.2627 -0.1803
 7530SOL    HW134049   3.895   4.359   3.730  1.6844 -1.1838 -1.1332
 7530SOL    HW234050   3.843   4.420   3.604 -1.4994 -0.0095  1.3768
 7531SOL     OW34051   3.454   3.332   4.676 -0.3283 -0.2964 -0.2770
 7531SOL    HW134052   3.370   3.339   4.722 -0.2822  1.4206 -0.4475
 7531SOL    HW234053   3.480   3.248   4.714 -1.0305 -2.2423 -4.0745
 7532SOL     OW34054   4.566   1.193   4.399 -0.6123 -0.2898 -0.0071
 7532SOL    HW134055   4.607   1.150   4.324 -2.9740 -2.4513 -0.0875
 7532SOL    HW234056   4.642   1.239   4.433 -0.6337 -0.7757  0.7040
 7533SOL     OW34057   1.863   0.181   5.122 -0.2152 -0.0320 -0.2714
 7533SOL    HW134058   1.888   0.234   5.047  0.5927 -0.8759 -0.5979
 7533SOL    HW234059   1.855   0.094   5.083 -2.7698 -0.7409  1.8493
 7534SOL     OW34060   2.988   4.005   3.518 -0.0987  0.3115  0.2011
 7534SOL    HW134061   2.948   3.970   3.438  1.3534  0.3618 -0.5562
 7534SOL    HW234062   3.057   3.941   3.533 -2.4601 -1.8762  1.6005
 7535SOL     OW34063   2.379   2.924  13.867 -0.6683 -0.4951 -0.2473
 7535SOL    HW134064   2.452   2.868  13.894  0.2694 -0.3485 -2.4182
 7535SOL    HW234065   2.424   2.979  13.803  1.3538  0.2053  1.7854
 7536SOL     OW34066   2.728   1.270   0.629  0.5802 -0.2166  0.6148
 7536SOL    HW134067   2.647   1.310   0.597  1.4458  0.3144 -0.9356
 7536SOL    HW234068   2.768   1.263   0.542  1.5932  1.1375  0.9733
 7537SOL     OW34069   4.695   1.149   4.913  0.8746  0.4290 -0.2778
 7537SOL    HW134070   4.631   1.101   4.861  0.6040 -0.2755  0.7095
 7537SOL    HW234071   4.682   1.238   4.880 -0.3550 -0.4934 -2.2159
 7538SOL     OW34072   1.012   1.820   5.379 -0.0982 -0.1203 -0.2567
 7538SOL    HW134073   1.074   1.882   5.416  2.1064 -1.5495 -1.5491
 7538SOL    HW234074   1.066   1.740   5.376  0.9015  0.4993  1.1113
 7539SOL     OW34075   3.650   3.623   5.138  0.5923  0.2941 -0.4598
 7539SOL    HW134076   3.662   3.612   5.044 -1.8284 -1.0691 -0.5977
 7539SOL    HW234077   3.722   3.682   5.159 -2.6032  4.0447  0.0915
 7540SOL     OW34078   2.236   2.547  10.912 -0.2308 -0.0439  0.2504
 7540SOL    HW134079   2.304   2.480  10.918  1.5382  1.7824  0.6013
 7540SOL    HW234080   2.166   2.492  10.878 -0.8789 -0.2633  1.9030
 7541SOL     OW34081   2.826   0.656   1.560  0.6472  0.2393  0.2461
 7541SOL    HW134082   2.917   0.684   1.550  0.7622 -0.6690 -1.2361
 7541SOL    HW234083   2.790   0.718   1.624  0.1110 -0.7803  0.9368
 7542SOL     OW34084   2.651   2.249   6.068 -0.1145 -0.4839  0.3176
 7542SOL    HW134085   2.586   2.320   6.068  0.7847  0.3455  3.0208
 7542SOL    HW234086   2.656   2.231   6.162  0.9408 -1.0076  0.1573
 7543SOL     OW34087   4.588   3.320   6.584 -0.7807 -0.4936 -0.1779
 7543SOL    HW134088   4.577   3.238   6.632 -1.3694  0.1806  0.8466
 7543SOL    HW234089   4.646   3.375   6.637 -0.6200  0.6912 -1.5960
 7544SOL     OW34090   1.126   3.823   2.723  0.0754 -0.1552  0.0467
 7544SOL    HW134091   1.161   3.912   2.723  1.0861 -0.5463  1.2492
 7544SOL    HW234092   1.081   3.821   2.807  0.0755 -0.1571  0.0467
 7545SOL     OW34093   2.768   2.830   8.363  0.2798  0.4197  0.2086
 7545SOL    HW134094   2.697   2.847   8.424  0.7251  1.4974  0.4187
 7545SOL    HW234095   2.809   2.916   8.356 -1.5841  1.1321 -2.2033
 7546SOL     OW34096   4.601   0.330   4.082 -0.4063 -0.2795  0.3565
 7546SOL    HW134097   4.531   0.347   4.019  0.3437  1.5359  0.0301
 7546SOL    HW234098   4.549   0.292   4.153 -1.2191  0.0764 -0.0407
 7547SOL     OW34099   0.965   3.682  11.671  0.6273 -0.2197 -0.4572
 7547SOL    HW134100   1.002   3.754  11.723  1.1287 -1.9877  1.6556
 7547SOL    HW234101   0.890   3.736  11.645  2.6303  2.5180 -0.6051
 7548SOL     OW34102   1.334   0.770   7.084  0.0882  0.1040 -0.9710
 7548SOL    HW134103   1.405   0.744   7.142  0.6098  1.2250 -1.0964
 7548SOL    HW234104   1.305   0.688   7.043  0.0051  0.7472 -2.2084
 7549SOL     OW34105   1.616   3.218   5.677  0.1724 -0.0572 -0.3986
 7549SOL    HW134106   1.535   3.269   5.667  0.7241  0.9431  0.1979
 7549SOL    HW234107   1.610   3.162   5.600 -1.1115 -1.1248  0.4726
 7550SOL     OW34108   2.139   1.723  12.335 -0.2221 -0.0779  0.1861
 7550SOL    HW134109   2.123   1.628  12.341 -0.0388 -0.1453 -0.3566
 7550SOL    HW234110   2.055   1.756  12.366 -0.6634  0.3113 -1.4283
 7551SOL     OW34111   4.057   1.803   7.595 -0.7257  0.5520  0.2897
 7551SOL    HW134112   3.971   1.837   7.621 -1.1926  1.1246 -2.0441
 7551SOL    HW234113   4.041   1.737   7.527  0.4547 -0.1618  0.7154
 7552SOL     OW34114   3.953   2.341   8.147  0.1253  0.2795 -0.1911
 7552SOL    HW134115   4.042   2.308   8.141  0.4703  0.9554  1.1890
 7552SOL    HW234116   3.929   2.286   8.221 -1.4047 -1.4812 -1.9982
 7553SOL     OW34117   0.140   2.886   9.540  0.0865  0.7543 -0.1122
 7553SOL    HW134118   0.171   2.823   9.606  0.2636  0.0043 -0.8988
 7553SOL    HW234119   0.146   2.964   9.595  1.1222  0.4310  0.2424
 7554SOL     OW34120   0.524   1.573   7.373  0.5465  0.3377 -0.3921
 7554SOL    HW134121   0.482   1.487   7.377 -1.1615  1.1810 -0.1899
 7554SOL    HW234122   0.577   1.559   7.295  2.5585 -0.4368  1.1334
 7555SOL     OW34123   0.710   3.631  11.376 -0.2685  0.1499 -0.1018
 7555SOL    HW134124   0.724   3.615  11.469  0.0759  1.4668  0.0736
 7555SOL    HW234125   0.789   3.679  11.353 -0.5857  1.3881  1.4053
 7556SOL     OW34126   0.665   4.271   4.944 -0.2332 -0.0732  0.9476
 7556SOL    HW134127   0.706   4.352   4.911 -0.4848 -0.8982 -1.3785
 7556SOL    HW234128   0.647   4.226   4.862  0.5038  0.0827  0.6987
 7557SOL     OW34129   0.327   2.736   0.153 -0.1523 -0.1912  0.0222
 7557SOL    HW134130   0.265   2.666   0.170 -0.4597  0.5309  1.8848
 7557SOL    HW234131   0.369   2.752   0.238  1.0025 -1.3065 -0.3447
 7558SOL     OW34132   0.812   3.413   8.264 -0.6810 -0.2989 -0.3753
 7558SOL    HW134133   0.734   3.358   8.269 -1.4245  0.7229 -0.8000
 7558SOL    HW234134   0.867   3.367   8.200  1.9128 -1.2726  2.5378
 7559SOL     OW34135   2.491   4.508   6.725 -0.4615  0.4482  0.2672
 7559SOL    HW134136   2.396   4.522   6.722 -0.6863 -1.0291  0.5376
 7559SOL    HW234137   2.498   4.418   6.692  1.1662 -0.3208  2.7306
 7560SOL     OW34138   0.674   1.151   5.618  0.3647  0.5236  0.1984
 7560SOL    HW134139   0.628   1.068   5.630  2.4052 -0.6399  0.0862
 7560SOL    HW234140   0.690   1.172   5.710 -2.4094  2.2131  0.2814
 7561SOL     OW34141   1.070   0.581  17.556  0.2486 -0.1456 -0.0623
 7561SOL    HW134142   1.029   0.547  17.477  0.2981  1.0252 -0.5855
 7561SOL    HW234143   1.093   0.666  17.520 -0.2603 -0.5374 -1.3024
 7562SOL     OW34144   1.120   4.479  15.090 -0.1477 -0.2015 -0.1336
 7562SOL    HW134145   1.049   4.461  15.152 -0.6994  2.6602  0.0832
 7562SOL    HW234146   1.074   4.462  15.007  0.2187  0.3107 -0.4360
 7563SOL     OW34147   2.661   1.094  10.185  0.3623 -0.2560 -0.3615
 7563SOL    HW134148   2.750   1.117  10.213  0.1538  1.3109 -0.9478
 7563SOL    HW234149   2.640   1.029  10.251  0.4360 -0.8301 -0.9058
 7564SOL     OW34150   1.674   1.477   3.454  0.1962 -0.0820 -0.3839
 7564SOL    HW134151   1.658   1.482   3.548  2.2113 -2.0109  0.0605
 7564SOL    HW234152   1.628   1.560   3.438  0.5197 -0.0934 -1.3476
 7565SOL     OW34153   1.754   4.378   1.946  0.5167  0.5831 -0.4325
 7565SOL    HW134154   1.771   4.430   1.867 -0.4319  0.9874 -0.3802
 7565SOL    HW234155   1.659   4.391   1.947  0.4101 -0.3752  1.2694
 7566SOL     OW34156   3.329   3.637   0.914 -0.2195  0.4666  0.0275
 7566SOL    HW134157   3.258   3.695   0.940 -0.7012  0.9385 -2.3367
 7566SOL    HW234158   3.331   3.582   0.993 -0.8150 -1.0297 -0.9977
 7567SOL     OW34159   1.078   2.716   6.935 -0.1615  0.3544  0.1260
 7567SOL    HW134160   1.113   2.700   6.848 -1.8146 -0.8253 -0.3177
 7567SOL    HW234161   1.045   2.806   6.927 -1.9836 -0.3297  0.0012
 7568SOL     OW34162   0.656   0.802   5.603  0.3612 -0.6439 -0.5123
 7568SOL    HW134163   0.716   0.820   5.676  1.5811  0.8952 -1.9019
 7568SOL    HW234164   0.590   0.754   5.654  1.2197 -0.2528  0.9527
 7569SOL     OW34165   3.529   1.997   2.042 -0.2468  0.2328 -0.0803
 7569SOL    HW134166   3.611   2.018   1.997  0.2275 -1.0689  0.1703
 7569SOL    HW234167   3.543   1.903   2.053 -1.9014 -0.0249 -0.2482
 7570SOL     OW34168   0.678   4.269  14.842  0.5477  0.1673  0.3201
 7570SOL    HW134169   0.739   4.201  14.815 -0.0472 -0.4624  0.5594
 7570SOL    HW234170   0.674   4.322  14.762 -1.3497 -1.3958 -0.6341
 7571SOL     OW34171   2.963   3.035   8.695  0.1044  0.6843 -0.2411
 7571SOL    HW134172   3.032   2.971   8.676 -0.9405  0.1527 -2.2792
 7571SOL    HW234173   2.964   3.028   8.790 -1.6580 -2.3663 -0.4552
 7572SOL     OW34174   3.102   1.996   3.183  0.2186 -0.3527  0.1712
 7572SOL    HW134175   3.099   1.939   3.259 -1.2987 -0.6107 -0.0816
 7572SOL    HW234176   3.186   2.042   3.189  0.9112 -1.5232 -0.5938
 7573SOL     OW34177   2.441   2.602   2.750 -0.1145 -0.2934 -0.2673
 7573SOL    HW134178   2.494   2.557   2.685 -1.1214 -1.6152 -0.1863
 7573SOL    HW234179   2.493   2.682   2.755 -1.0002  0.3146 -0.8293
 7574SOL     OW34180   3.027   2.116   2.235  0.0243 -0.2001  0.0422
 7574SOL    HW134181   2.998   2.201   2.201  0.6094  0.5442  1.4039
 7574SOL    HW234182   3.011   2.055   2.163  1.4110  0.4495 -0.8319
 7575SOL     OW34183   3.508   2.968  13.540  0.2965  0.1470  0.0770
 7575SOL    HW134184   3.574   2.996  13.603  0.3091  1.7533 -0.6699
 7575SOL    HW234185   3.570   2.904  13.504 -0.6314 -1.2698  0.9967
 7576SOL     OW34186   2.889   4.518  10.485  0.6504  0.2886 -0.1876
 7576SOL    HW134187   2.927   4.577  10.550  0.6966  1.7791 -1.5502
 7576SOL    HW234188   2.950   4.534  10.413 -0.1523 -2.7293 -1.5596
 7577SOL     OW34189   0.494   3.221  15.266 -0.0448 -0.4318 -0.4121
 7577SOL    HW134190   0.432   3.294  15.263  0.7971  0.3993  2.8900
 7577SOL    HW234191   0.485   3.195  15.174 -0.1150 -0.8558 -0.2838
 7578SOL     OW34192   3.154   3.274   9.890  0.6110  0.3343  0.5869
 7578SOL    HW134193   3.182   3.363   9.871  1.2797 -0.1122 -0.5217
 7578SOL    HW234194   3.229   3.239   9.938  0.9687  0.8599  0.4018
 7579SOL     OW34195   0.401   0.844   1.826 -0.5869 -0.4538 -0.1665
 7579SOL    HW134196   0.354   0.765   1.801 -0.4093 -0.6293  0.0594
 7579SOL    HW234197   0.458   0.850   1.749  2.7277  0.2973  2.3682
 7580SOL     OW34198   1.028   4.547   5.445 -0.1278  0.5551 -0.9402
 7580SOL    HW134199   1.075   4.621   5.405  0.9381  0.8116  0.7919
 7580SOL    HW234200   0.957   4.530   5.383  1.3795 -2.9162 -1.7533
 7581SOL     OW34201   3.992   3.896   2.859  0.1261  1.4089 -0.1582
 7581SOL    HW134202   4.014   3.984   2.828  0.7887  0.5941 -2.0013
 7581SOL    HW234203   4.081   3.865   2.877 -0.9159 -0.9807  0.9128
 7582SOL     OW34204   1.367   2.612   5.331 -0.5583  0.2065  0.2021
 7582SOL    HW134205   1.298   2.570   5.382 -2.0198  2.0473 -0.2825
 7582SOL    HW234206   1.408   2.538   5.285  0.5783  1.1854 -0.3585
 7583SOL     OW34207   4.708   2.622  10.653  0.1415  0.4382  0.3765
 7583SOL    HW134208   4.656   2.698  10.681 -0.0207  0.0264  1.2009
 7583SOL    HW234209   0.035   2.644  10.575 -1.6582  2.9251 -0.0794
 7584SOL     OW34210   0.337   3.070  14.432  0.5830 -0.4284  0.1060
 7584SOL    HW134211   0.268   3.079  14.365 -1.8082  0.1937  2.6490
 7584SOL    HW234212   0.362   3.158  14.460 -1.0896 -0.2536  1.0448
 7585SOL     OW34213   4.166   4.128   0.522  0.1493 -0.2363 -0.2239
 7585SOL    HW134214   4.220   4.049   0.526  0.5057  0.1162  1.7478
 7585SOL    HW234215   4.122   4.124   0.607  1.9641  1.7985  0.8036
 7586SOL     OW34216   0.412   3.022   3.102 -0.0655  0.7091 -0.4900
 7586SOL    HW134217   0.453   2.977   3.176  2.2631  1.9235 -1.0368
 7586SOL    HW234218   0.335   2.967   3.088  0.6924 -0.7879  1.1023
 7587SOL     OW34219   2.323   1.431   7.808  0.6480 -0.3058 -0.6495
 7587SOL    HW134220   2.317   1.516   7.764  0.1508 -0.0251 -0.0485
 7587SOL    HW234221   2.231   1.405   7.813 -0.1960  2.8480  0.9478
 7588SOL     OW34222   4.414   0.014   2.807 -0.4610  0.2006 -0.1779
 7588SOL    HW134223   4.384   4.709   2.720  0.2585  2.1598 -1.0754
 7588SOL    HW234224   4.394   4.665   2.866 -0.0451  0.9407  0.8707
 7589SOL     OW34225   2.033   3.206  16.837  0.6262 -0.3107 -0.1646
 7589SOL    HW134226   2.086   3.164  16.905  1.0842  0.1726 -0.2259
 7589SOL    HW234227   1.969   3.245  16.898 -0.9440 -2.1676 -0.6129
 7590SOL     OW34228   2.604   1.162   2.811  0.6497  0.5151 -0.1545
 7590SOL    HW134229   2.536   1.228   2.794 -0.4089 -0.4908  0.2214
 7590SOL    HW234230   2.571   1.141   2.898  0.6127  0.6081 -0.1453
 7591SOL     OW34231   2.488   1.624  15.297  0.0203  0.1175  0.0737
 7591SOL    HW134232   2.416   1.681  15.324  0.1777  0.5786 -0.4672
 7591SOL    HW234233   2.468   1.615  15.204  0.4636  0.4650 -0.0576
 7592SOL     OW34234   0.443   2.524  17.363 -0.4252  0.0755  0.4068
 7592SOL    HW134235   0.369   2.584  17.378 -1.6913 -1.0728 -1.2624
 7592SOL    HW234236   0.435   2.469  17.441  2.1026  0.7929  1.1665
 7593SOL     OW34237   2.861   4.323  13.239  0.2057 -0.2483  0.0423
 7593SOL    HW134238   2.874   4.247  13.182 -0.0282 -0.4329  0.2370
 7593SOL    HW234239   2.873   4.288  13.327  2.2437  1.0167  0.2831
 7594SOL     OW34240   3.869   1.677   9.580  0.7738 -0.0166  0.5470
 7594SOL    HW134241   3.880   1.603   9.640 -1.6202 -0.9364 -0.1465
 7594SOL    HW234242   3.889   1.749   9.639 -0.1305  0.8891 -0.2569
 7595SOL     OW34243   0.815   1.305  14.974 -0.0935  0.1493  0.2317
 7595SOL    HW134244   0.767   1.341  15.048  1.0843 -0.1309  1.1215
 7595SOL    HW234245   0.874   1.239  15.011  1.2486  1.6775  0.8307
 7596SOL     OW34246   4.378   0.066  13.363  0.1927 -0.1654  0.5263
 7596SOL    HW134247   4.409   0.077  13.452 -1.8618 -0.0829  1.2252
 7596SOL    HW234248   4.427   0.138  13.323 -0.5332 -1.1452 -2.1968
 7597SOL     OW34249   0.213   3.825   6.881 -0.2153  0.5793  0.4640
 7597SOL    HW134250   0.121   3.850   6.880  0.2875  2.4117  1.6420
 7597SOL    HW234251   0.251   3.912   6.890  0.3690  0.6742 -2.9752
 7598SOL     OW34252   3.316   4.360   7.737 -0.0829 -0.3339 -0.1142
 7598SOL    HW134253   3.304   4.389   7.647 -0.1838 -0.2170 -0.0630
 7598SOL    HW234254   3.353   4.436   7.782 -2.2070  1.5166 -1.5260
 7599SOL     OW34255   2.331   1.427  12.989  0.2377 -0.2810 -0.1031
 7599SOL    HW134256   2.360   1.384  13.070 -0.3638  0.4188  0.4814
 7599SOL    HW234257   2.238   1.437  13.009  0.0637  0.1526 -1.1325
 7600SOL     OW34258   2.078   0.813   5.936  0.3739 -0.0900 -0.4250
 7600SOL    HW134259   2.148   0.846   5.880  1.3932 -1.0187  0.3022
 7600SOL    HW234260   2.093   0.719   5.928 -2.5509 -0.4242 -1.8870
 7601SOL     OW34261   0.735   2.427  13.878  0.0821 -0.8104 -0.5243
 7601SOL    HW134262   0.655   2.391  13.917 -0.8287 -1.2541 -2.7840
 7601SOL    HW234263   0.798   2.444  13.948  0.4949 -1.0764 -0.8295
 7602SOL     OW34264   1.347   1.218   4.941 -0.0988  0.4560  0.3236
 7602SOL    HW134265   1.435   1.212   4.904 -0.4056  1.6283 -0.5896
 7602SOL    HW234266   1.307   1.146   4.892  1.3491  0.1325 -0.3826
 7603SOL     OW34267   1.546   1.451   3.727 -0.3328 -0.1320  0.2438
 7603SOL    HW134268   1.473   1.416   3.675 -1.0802  1.2607  0.3643
 7603SOL    HW234269   1.500   1.527   3.763 -0.6966 -0.6850  0.9413
 7604SOL     OW34270   4.717   3.093   3.923 -0.1421 -0.3266  0.0864
 7604SOL    HW134271   0.044   3.102   3.843 -0.6887 -0.1614 -0.2353
 7604SOL    HW234272   0.055   3.040   3.974  0.3115 -0.8988 -1.0634
 7605SOL     OW34273   2.306   3.850  11.056 -0.0445 -0.9172 -0.4329
 7605SOL    HW134274   2.267   3.906  10.989 -0.2399 -0.6584 -0.0997
 7605SOL    HW234275   2.234   3.849  11.119 -0.2092  3.1933 -0.5647
 7606SOL     OW34276   1.798   2.334   4.918 -0.1334  0.6256  0.8678
 7606SOL    HW134277   1.878   2.310   4.870  0.6639  0.8634  2.0930
 7606SOL    HW234278   1.737   2.263   4.899 -1.3958  1.9594 -0.0920
 7607SOL     OW34279   4.284   2.458   7.138  0.3590  0.1646  0.0449
 7607SOL    HW134280   4.251   2.372   7.165  0.4209 -0.0856 -0.6642
 7607SOL    HW234281   4.294   2.464   7.043  2.4778 -2.6073  0.0663
 7608SOL     OW34282   4.185   2.729   7.448 -0.4813  0.3073  0.2514
 7608SOL    HW134283   4.280   2.722   7.455 -0.3919  1.1461 -0.1290
 7608SOL    HW234284   4.180   2.753   7.356  0.7078 -0.4204  0.0003
 7609SOL     OW34285   3.097   2.598   4.316  0.3548  0.9012  0.4745
 7609SOL    HW134286   3.074   2.530   4.379 -1.1304 -0.8731 -2.0571
 7609SOL    HW234287   3.127   2.546   4.242  0.3228  0.0487  1.0628
 7610SOL     OW34288   3.247   1.787   1.717 -0.0293 -0.6147 -0.3495
 7610SOL    HW134289   3.307   1.716   1.693  1.2486  0.9697 -1.8945
 7610SOL    HW234290   3.312   1.856   1.729  1.2746 -1.7500 -0.8042
 7611SOL     OW34291   3.472   3.354   8.834  0.4439 -0.0860  0.2124
 7611SOL    HW134292   3.379   3.373   8.840  0.9730  2.5569  0.2053
 7611SOL    HW234293   3.486   3.282   8.896 -0.9787  1.2218  2.0422
 7612SOL     OW34294   4.153   4.538   5.277 -0.4983  0.0434  0.5982
 7612SOL    HW134295   4.092   4.601   5.316 -0.2562  0.1913  0.7398
 7612SOL    HW234296   4.142   4.545   5.182 -1.0504  0.5452  0.6955
 7613SOL     OW34297   1.292   1.690  13.429 -0.5870 -0.0982 -0.0094
 7613SOL    HW134298   1.267   1.740  13.507 -2.0678 -0.3193 -0.3560
 7613SOL    HW234299   1.222   1.709  13.368  0.2386  1.5784 -0.4408
 7614SOL     OW34300   3.663   0.124   0.807  0.3511 -0.2379 -0.9390
 7614SOL    HW134301   3.631   0.066   0.738  1.8913 -0.1861 -1.7095
 7614SOL    HW234302   3.727   0.059   0.837 -2.0341 -2.5510 -0.8147
 7615SOL     OW34303   2.091   3.767   4.060  0.1722 -0.5931  0.2983
 7615SOL    HW134304   2.181   3.796   4.046  1.4178 -4.3556  0.4800
 7615SOL    HW234305   2.085   3.703   3.989 -0.1865  0.8117 -0.9430
 7616SOL     OW34306   0.860   0.760  17.071  0.1224 -0.8089  0.0691
 7616SOL    HW134307   0.774   0.801  17.083  2.4560  4.2082 -0.1401
 7616SOL    HW234308   0.907   0.803  17.143 -1.4413 -1.7688  1.6752
 7617SOL     OW34309   4.504   2.553  16.438  0.6885  0.5582  0.6178
 7617SOL    HW134310   4.541   2.472  16.402 -2.0836 -1.4777  2.4298
 7617SOL    HW234311   4.410   2.550  16.421  0.3978  3.2750  1.7702
 7618SOL     OW34312   2.071   2.343  14.421 -0.2722 -0.0931  0.3209
 7618SOL    HW134313   2.042   2.431  14.399  0.2388 -0.3122 -1.2407
 7618SOL    HW234314   2.039   2.287  14.350  0.8997  0.6929 -0.8128
 7619SOL     OW34315   4.388   0.930   6.007  0.5647  0.1666  0.3819
 7619SOL    HW134316   4.478   0.952   6.032  0.7214  0.3215 -0.3370
 7619SOL    HW234317   4.357   0.986   5.937 -0.4740 -0.7450  0.1001
 7620SOL     OW34318   0.464   1.936   8.881  0.3531 -0.4975  0.1212
 7620SOL    HW134319   0.472   1.949   8.787  0.0574 -3.7501 -0.3386
 7620SOL    HW234320   0.542   1.981   8.913 -0.9359 -0.1750  2.8781
 7621SOL     OW34321   3.650   0.675   4.745  0.4175  0.1018 -0.2663
 7621SOL    HW134322   3.658   0.768   4.727 -0.4521  0.5819  1.8522
 7621SOL    HW234323   3.617   0.633   4.666  1.8454 -0.6506 -0.4593
 7622SOL     OW34324   3.150   4.513   4.190  0.1813  0.0033 -0.8053
 7622SOL    HW134325   3.147   4.487   4.282  1.2977  1.4339 -0.3720
 7622SOL    HW234326   3.245   4.509   4.184  0.2729 -1.1365  1.3283
 7623SOL     OW34327   1.902   3.017   1.484 -0.1745 -0.7489 -0.3234
 7623SOL    HW134328   1.868   2.974   1.405 -0.8458  2.6488 -1.8947
 7623SOL    HW234329   1.996   3.002   1.490 -0.2644 -0.5314  1.5932
 7624SOL     OW34330   0.788   0.366  11.823 -0.1724  0.2330 -0.0038
 7624SOL    HW134331   0.836   0.371  11.906  0.8457 -2.4158 -0.4129
 7624SOL    HW234332   0.775   0.460  11.812 -1.3169 -0.0672 -1.2236
 7625SOL     OW34333   4.272   2.828   2.613 -0.0497 -0.5718  0.1488
 7625SOL    HW134334   4.273   2.923   2.626  0.6412 -0.5705  0.0999
 7625SOL    HW234335   4.263   2.803   2.705 -1.5307  1.3824  0.5365
 7626SOL     OW34336   1.702   1.068  10.366 -0.7831  0.1709  0.5422
 7626SOL    HW134337   1.619   1.045  10.325 -0.9422  0.1264  0.8887
 7626SOL    HW234338   1.703   1.162  10.344 -0.5996  0.1994  0.6703
 7627SOL     OW34339   0.768   2.738   2.867  0.4308  0.1023 -0.3821
 7627SOL    HW134340   0.858   2.706   2.871  0.1713 -0.6548 -0.6108
 7627SOL    HW234341   0.780   2.816   2.921  1.5368 -0.7691  0.6396
 7628SOL     OW34342   3.438   3.514  14.537 -0.1687  0.1858  0.2558
 7628SOL    HW134343   3.403   3.544  14.454 -2.1127 -1.2810  0.5535
 7628SOL    HW234344   3.516   3.464  14.512 -0.6529 -1.0113  1.1596
 7629SOL     OW34345   4.649   1.578  15.932 -0.3107 -0.5728 -0.2895
 7629SOL    HW134346   4.691   1.573  15.846  0.8373  0.5687  0.2011
 7629SOL    HW234347   4.576   1.517  15.921 -2.6677  2.6231 -2.2838
 7630SOL     OW34348   3.192   1.438  15.270 -0.2248  0.6865 -0.7633
 7630SOL    HW134349   3.200   1.474  15.181  2.1517 -0.3378 -0.9526
 7630SOL    HW234350   3.112   1.486  15.293 -0.5576 -1.2373  1.9881
 7631SOL     OW34351   3.673   1.874   3.156  0.3144  0.5014  0.1035
 7631SOL    HW134352   3.718   1.908   3.078  2.2694 -0.2731  0.9100
 7631SOL    HW234353   3.727   1.912   3.225 -0.5234  1.4654  0.2277
 7632SOL     OW34354   3.217   3.012   6.610  0.4137  0.2932 -0.7656
 7632SOL    HW134355   3.270   2.996   6.688 -2.6713 -2.1397  0.8321
 7632SOL    HW234356   3.193   2.921   6.590  0.5537 -0.0338  0.5328
 7633SOL     OW34357   4.678   2.611   7.493 -0.2186 -0.4315 -0.0692
 7633SOL    HW134358   4.613   2.610   7.423 -0.2673 -1.9527 -0.0063
 7633SOL    HW234359   4.656   2.533   7.545  1.8436  1.0592  3.0644
 7634SOL     OW34360   3.856   4.016   6.107 -0.0180 -0.0199  0.2746
 7634SOL    HW134361   3.846   4.104   6.068 -0.3309 -1.0143 -1.9035
 7634SOL    HW234362   3.913   3.983   6.038  0.3969  0.8163  0.2080
 7635SOL     OW34363   1.459   3.928  10.873  0.3691  0.7319 -0.9013
 7635SOL    HW134364   1.522   3.985  10.916 -0.5655  0.7528  0.4812
 7635SOL    HW234365   1.507   3.846  10.885 -0.8277 -0.2610 -2.8506
 7636SOL     OW34366   4.651   1.317  16.460 -0.2839 -0.2622 -0.0822
 7636SOL    HW134367   0.021   1.321  16.438  0.4103 -1.5484  2.6521
 7636SOL    HW234368   4.625   1.409  16.453  0.7481  0.2697  3.2461
 7637SOL     OW34369   0.038   4.169   7.165 -0.2086  0.0154  0.2770
 7637SOL    HW134370   4.667   4.181   7.156 -0.2648  0.8988  2.0723
 7637SOL    HW234371   0.068   4.252   7.202 -2.5603 -1.1477  4.7640
 7638SOL     OW34372   4.255   4.497   2.668 -0.0289 -0.0271 -0.1438
 7638SOL    HW134373   4.262   4.500   2.573  1.8801  2.3427  0.0704
 7638SOL    HW234374   4.197   4.573   2.674 -0.7340 -0.6987  1.5258
 7639SOL     OW34375   2.232   3.854   5.660  0.7175  0.0864  0.3217
 7639SOL    HW134376   2.281   3.772   5.662  1.7993  0.7411  0.4688
 7639SOL    HW234377   2.289   3.898   5.597 -0.0309 -0.8480 -1.0171
 7640SOL     OW34378   0.100   0.293   8.137 -0.0581 -0.0617  0.2632
 7640SOL    HW134379   0.045   0.371   8.143  0.5215  0.4012 -0.4625
 7640SOL    HW234380   0.045   0.226   8.098 -0.3978 -0.1718  0.9292
 7641SOL     OW34381   1.594   3.219  14.562  0.5593  0.1122  0.2705
 7641SOL    HW134382   1.577   3.209  14.468 -2.5386 -2.1467  1.0648
 7641SOL    HW234383   1.649   3.142  14.576 -1.8114 -1.2363  2.2444
 7642SOL     OW34384   4.132   0.018   4.097 -0.2373 -0.8496 -0.0968
 7642SOL    HW134385   4.073   0.080   4.139 -0.5231  0.5105 -2.4805
 7642SOL    HW234386   4.086   4.658   4.103 -0.7926 -0.2838  3.3038
 7643SOL     OW34387   0.437   3.365   1.352  0.5314  0.5661  0.2918
 7643SOL    HW134388   0.447   3.442   1.297  0.4370  0.1157 -0.3499
 7643SOL    HW234389   0.374   3.323   1.294  0.8308  1.4053 -0.6236
 7644SOL     OW34390   1.810   4.362   0.621  0.0362  0.2934  0.2551
 7644SOL    HW134391   1.875   4.359   0.691  1.1466  1.2145 -0.7328
 7644SOL    HW234392   1.862   4.352   0.541 -1.0750 -2.2054 -0.1654
 7645SOL     OW34393   0.285   2.935   7.513  0.0591  0.2521 -0.2551
 7645SOL    HW134394   0.207   2.983   7.483 -0.2750 -0.9533 -1.3527
 7645SOL    HW234395   0.347   2.999   7.548  0.6346  0.4016 -1.5270
 7646SOL     OW34396   2.419   4.382  10.428 -0.7801 -0.3020 -0.3939
 7646SOL    HW134397   2.508   4.363  10.457 -0.5029 -0.0736 -1.1084
 7646SOL    HW234398   2.426   4.477  10.429  1.7907 -0.4819 -1.4270
 7647SOL     OW34399   3.470   2.938   5.907 -0.6296 -0.6284  0.0665
 7647SOL    HW134400   3.541   2.904   5.852  0.0332  0.3925  0.2892
 7647SOL    HW234401   3.503   3.024   5.934 -0.4481  0.3147 -3.2484
 7648SOL     OW34402   4.232   2.207  11.748  0.3695 -0.0707  0.0861
 7648SOL    HW134403   4.326   2.202  11.734  0.5880  2.2718  0.8342
 7648SOL    HW234404   4.197   2.171  11.666 -0.7513 -0.2111  0.6103
 7649SOL     OW34405   1.523   0.835  10.013 -0.0510  0.0344 -0.2310
 7649SOL    HW134406   1.496   0.869   9.927  0.2321  1.5262  0.2788
 7649SOL    HW234407   1.564   0.756   9.977  1.0865 -0.0825  1.3558
 7650SOL     OW34408   3.058   0.972   6.903  0.1220  0.6976  0.2999
 7650SOL    HW134409   2.971   0.969   6.943  0.1017 -0.8145  0.1382
 7650SOL    HW234410   3.097   0.889   6.927 -0.3436 -0.0478 -1.4898
 7651SOL     OW34411   3.532   1.393   5.590 -0.2241 -0.4848  0.4692
 7651SOL    HW134412   3.602   1.414   5.530 -1.3433  0.4958 -0.4927
 7651SOL    HW234413   3.456   1.399   5.532 -0.6080  2.2934  1.2543
 7652SOL     OW34414   2.728   3.508   5.575 -0.2575 -0.1528 -0.2080
 7652SOL    HW134415   2.776   3.432   5.543 -0.0602 -0.9259  1.9185
 7652SOL    HW234416   2.760   3.529   5.663  1.2408  3.1339 -1.5588
 7653SOL     OW34417   2.663   2.581   3.776 -0.0973 -0.4059  0.5375
 7653SOL    HW134418   2.709   2.503   3.807  0.6406 -1.4862 -3.2511
 7653SOL    HW234419   2.733   2.615   3.722 -0.4948 -1.5137 -0.6739
 7654SOL     OW34420   3.830   2.000   9.682  0.2548  0.1208  0.1321
 7654SOL    HW134421   3.907   2.029   9.633  0.2914  2.8267  1.8056
 7654SOL    HW234422   3.870   1.955   9.757  0.3230 -1.1484 -0.6625
 7655SOL     OW34423   0.073   3.394   5.008  0.0241 -0.3990  0.1482
 7655SOL    HW134424   0.077   3.481   4.968 -0.8783 -1.8503 -3.1275
 7655SOL    HW234425   0.161   3.370   4.979 -0.8023 -1.2223 -1.6900
 7656SOL     OW34426   2.497   2.300   3.809  0.0826 -0.3914  0.4197
 7656SOL    HW134427   2.586   2.292   3.777 -0.3311  0.8915 -1.0856
 7656SOL    HW234428   2.491   2.396   3.808  1.7443 -0.2783  1.7346
 7657SOL     OW34429   2.909   2.900  11.617  0.2342  0.1321 -0.7547
 7657SOL    HW134430   2.891   2.947  11.535 -0.6731  1.7124  0.3328
 7657SOL    HW234431   2.931   2.968  11.681 -1.5354  2.5948 -2.7104
 7658SOL     OW34432   3.668   3.760   6.910 -0.0962  0.5581 -0.2126
 7658SOL    HW134433   3.700   3.847   6.884  3.5296 -0.7998 -0.3286
 7658SOL    HW234434   3.681   3.709   6.830  0.9494  0.1160  0.2368
 7659SOL     OW34435   2.770   4.270  17.183  0.3772  0.1745 -0.4005
 7659SOL    HW134436   2.774   4.253  17.277 -0.4967  0.0628 -0.3787
 7659SOL    HW234437   2.852   4.236  17.149 -0.0581  1.3952 -2.6580
 7660SOL     OW34438   0.952   2.988   9.617 -0.2154  0.7033  0.4453
 7660SOL    HW134439   1.034   2.956   9.581  0.3711  1.7392  0.8542
 7660SOL    HW234440   0.921   3.039   9.542  0.7889  1.5291  0.5885
 7661SOL     OW34441   2.075   1.699  10.643 -0.3262  0.1543  0.0665
 7661SOL    HW134442   2.020   1.778  10.640  0.2290  0.5684  0.6658
 7661SOL    HW234443   2.063   1.658  10.558 -0.8945 -0.8697  0.6364
 7662SOL     OW34444   0.769   0.727  12.949  0.1103 -0.4266 -0.1026
 7662SOL    HW134445   0.753   0.820  12.960  1.4373 -0.1161 -0.8240
 7662SOL    HW234446   0.735   0.724  12.860 -0.2246  3.6777 -0.1048
 7663SOL     OW34447   1.510   1.979  11.456  0.9128 -0.0344  0.1035
 7663SOL    HW134448   1.556   1.975  11.540 -1.0128 -1.2735  1.0958
 7663SOL    HW234449   1.502   2.074  11.440 -1.1873 -0.3842 -0.9843
 7664SOL     OW34450   4.627   2.234   3.958 -0.0952  1.0833  0.5103
 7664SOL    HW134451   4.647   2.327   3.951  0.5358  1.1844  3.6419
 7664SOL    HW234452   4.687   2.207   3.889 -0.1362  3.0053 -0.2788
 7665SOL     OW34453   1.200   1.866   1.966  0.2981  0.5518 -0.1707
 7665SOL    HW134454   1.173   1.955   1.989 -1.9168 -0.1286 -0.1430
 7665SOL    HW234455   1.293   1.867   1.946  0.2284  1.5083 -0.4380
 7666SOL     OW34456   2.054   2.226   4.793  0.1063  0.1200  0.1918
 7666SOL    HW134457   2.008   2.143   4.784 -2.6803  1.4549  1.9637
 7666SOL    HW234458   2.108   2.216   4.872 -1.5210  1.8647  1.5159
 7667SOL     OW34459   2.901   4.081   4.208 -0.1403  0.0179 -0.1378
 7667SOL    HW134460   2.838   4.023   4.166  1.4309  0.1703 -2.7372
 7667SOL    HW234461   2.855   4.098   4.290  0.0914  2.0187 -0.4194
 7668SOL     OW34462   3.877   2.563   2.047 -0.0947 -0.1096  0.5169
 7668SOL    HW134463   3.937   2.636   2.060 -0.2232  0.4512 -1.9281
 7668SOL    HW234464   3.794   2.604   2.021 -0.2325 -1.1120 -0.6555
 7669SOL     OW34465   3.365   0.608  13.957 -0.1579 -0.1511  0.5888
 7669SOL    HW134466   3.410   0.603  14.041 -0.3799 -2.1598  0.5659
 7669SOL    HW234467   3.298   0.541  13.967  1.6835 -2.2745 -1.1392
 7670SOL     OW34468   3.651   0.693   3.546  0.2650  0.0383  0.2777
 7670SOL    HW134469   3.714   0.623   3.526 -1.0014 -0.4989 -1.8564
 7670SOL    HW234470   3.616   0.714   3.460  1.6291 -1.1583 -0.5745
 7671SOL     OW34471   0.960   0.432   7.757  0.0205  0.7292  0.3255
 7671SOL    HW134472   0.912   0.378   7.820  0.9621 -1.1106 -0.5039
 7671SOL    HW234473   0.907   0.511   7.766 -2.3603 -1.0598  1.8445
 7672SOL     OW34474   3.961   3.988   9.505 -0.1048 -0.4218  0.2958
 7672SOL    HW134475   3.910   3.985   9.586 -2.7957  0.8000 -1.3919
 7672SOL    HW234476   3.969   4.083   9.502 -1.4659 -0.4425 -2.7978
 7673SOL     OW34477   2.199   2.657  12.980 -0.2732 -0.4411 -0.5998
 7673SOL    HW134478   2.172   2.665  13.072  0.4283  1.5772 -0.5824
 7673SOL    HW234479   2.293   2.647  12.995 -0.8278 -1.4050  2.3700
 7674SOL     OW34480   3.740   0.746  13.353 -0.2807 -0.3385  0.3563
 7674SOL    HW134481   3.679   0.757  13.279 -0.9684  0.9821  1.1196
 7674SOL    HW234482   3.693   0.780  13.429  0.0555  1.2591 -0.1499
 7675SOL     OW34483   2.054   4.042   8.368 -0.3313  0.4894 -0.0012
 7675SOL    HW134484   2.114   3.968   8.365  0.8118  1.3531  1.3464
 7675SOL    HW234485   2.000   4.022   8.444 -2.9150 -0.6286 -2.1475
 7676SOL     OW34486   2.648   2.735  12.957  0.3922  0.3100 -0.1778
 7676SOL    HW134487   2.672   2.668  12.893 -1.4715 -1.6834  1.2084
 7676SOL    HW234488   2.699   2.814  12.937 -1.0320  1.6540  1.4207
 7677SOL     OW34489   4.295   0.951   8.212  0.2454 -0.1101 -0.0744
 7677SOL    HW134490   4.272   0.861   8.237 -0.7589  0.1990  0.1177
 7677SOL    HW234491   4.384   0.955   8.246 -0.5708  0.4869  2.0099
 7678SOL     OW34492   2.715   2.743   3.336  0.2075  0.3368  0.0591
 7678SOL    HW134493   2.789   2.688   3.363 -0.5280 -0.4935  0.3952
 7678SOL    HW234494   2.764   2.798   3.275 -2.0262  1.0900 -1.0232
 7679SOL     OW34495   4.076   3.165  10.309 -0.0464  0.0765  0.3531
 7679SOL    HW134496   4.139   3.171  10.381  1.0145 -2.1510 -0.4079
 7679SOL    HW234497   4.003   3.216  10.345  0.4106 -1.4023  3.3880
 7680SOL     OW34498   4.047   2.398   6.414  0.0709  0.2496  0.0059
 7680SOL    HW134499   4.086   2.485   6.423 -0.1624  0.3362  0.1856
 7680SOL    HW234500   4.016   2.408   6.324  0.6668 -1.7313 -0.4075
 7681SOL     OW34501   2.450   0.286   1.082 -0.0265 -0.5376  0.0383
 7681SOL    HW134502   2.407   0.205   1.109 -0.3087  0.1965  1.8090
 7681SOL    HW234503   2.429   0.279   0.989 -1.4020  0.6565  0.2663
 7682SOL     OW34504   3.119   1.665  12.708 -0.0558 -0.0314  0.2838
 7682SOL    HW134505   3.041   1.701  12.751 -0.5653 -1.2676  0.3688
 7682SOL    HW234506   3.183   1.719  12.755 -0.4236 -0.2111  0.9860
 7683SOL     OW34507   3.518   4.569  16.837 -0.4562  0.0805 -0.3008
 7683SOL    HW134508   3.459   4.496  16.858  1.1289 -1.7116 -2.0014
 7683SOL    HW234509   3.512   4.591  16.744  0.5571  0.8549 -0.1838
 7684SOL     OW34510   3.495   3.106   4.800 -0.3932 -0.0808  0.5215
 7684SOL    HW134511   3.557   3.090   4.871  0.3191  1.2924  0.2133
 7684SOL    HW234512   3.448   3.023   4.797  0.3064 -0.5905  3.5008
 7685SOL     OW34513   0.145   3.768   2.260 -0.2703  0.0874  0.0769
 7685SOL    HW134514   0.140   3.823   2.338  1.2065 -1.2240  1.0967
 7685SOL    HW234515   0.059   3.727   2.260 -0.8362  1.2595  1.8330
 7686SOL     OW34516   0.524   0.506   9.101 -0.5455 -0.1212  0.4724
 7686SOL    HW134517   0.494   0.550   9.181  0.3194  0.7292  0.3358
 7686SOL    HW234518   0.447   0.455   9.077 -0.9366  0.7211 -0.0517
 7687SOL     OW34519   1.259   2.046  15.383  0.3503 -0.4124  0.0027
 7687SOL    HW134520   1.318   2.098  15.327  0.7505 -0.2456  0.5797
 7687SOL    HW234521   1.224   2.121  15.431  1.3493  0.6476 -0.8943
 7688SOL     OW34522   0.422   0.459   4.829  0.2186 -0.4906  0.5696
 7688SOL    HW134523   0.346   0.499   4.871 -0.6961 -1.1235 -0.5085
 7688SOL    HW234524   0.398   0.473   4.738 -0.1042  1.8203  0.9948
 7689SOL     OW34525   4.403   2.261   6.434  0.5571 -0.4182  0.1883
 7689SOL    HW134526   4.434   2.342   6.394  2.4488 -1.3573 -0.2419
 7689SOL    HW234527   4.371   2.208   6.360 -0.0953  1.4269 -0.8453
 7690SOL     OW34528   0.923   1.419  10.690 -0.0036 -0.2093  0.3846
 7690SOL    HW134529   0.995   1.467  10.732 -0.7619  0.9056  0.4232
 7690SOL    HW234530   0.956   1.403  10.602 -1.2486 -2.8216  0.3971
 7691SOL     OW34531   4.584   1.611   8.032 -0.2233 -0.0245  0.1774
 7691SOL    HW134532   4.589   1.584   8.124  2.9314  0.0834  0.0237
 7691SOL    HW234533   4.607   1.704   8.031  0.8306 -0.2704  2.6704
 7692SOL     OW34534   3.273   0.425   3.201  0.7034 -0.6023  0.3412
 7692SOL    HW134535   3.277   0.433   3.296 -1.0083  1.6496  0.2285
 7692SOL    HW234536   3.242   0.514   3.182  2.5555  0.5123  2.5436
 7693SOL     OW34537   3.080   0.428   8.501 -0.4353  0.0203  0.0152
 7693SOL    HW134538   3.064   0.507   8.553  2.0122  1.1728 -1.0071
 7693SOL    HW234539   3.136   0.379   8.561  0.8780 -0.1976 -1.4011
 7694SOL     OW34540   1.019   3.991   7.471 -0.0120  0.5343 -0.1298
 7694SOL    HW134541   1.105   4.024   7.445  0.6336 -0.8920  0.1930
 7694SOL    HW234542   0.965   4.033   7.404  0.7220  1.9780  0.1870
 7695SOL     OW34543   4.544   1.140   8.114 -0.0300 -0.5664 -0.0230
 7695SOL    HW134544   4.627   1.181   8.137 -0.3178  1.2082 -2.0662
 7695SOL    HW234545   4.530   1.180   8.028  0.4770  0.0383  0.1747
 7696SOL     OW34546   0.438   3.633  11.138  0.1473 -0.1676  0.5236
 7696SOL    HW134547   0.367   3.569  11.140 -1.2488  1.3531  0.2456
 7696SOL    HW234548   0.403   3.702  11.081 -1.5358 -0.9370  0.6174
 7697SOL     OW34549   0.256   4.389  12.838 -0.1262 -0.4093  0.3800
 7697SOL    HW134550   0.262   4.425  12.926 -0.0334  0.7326 -0.0858
 7697SOL    HW234551   0.187   4.322  12.838 -0.4929 -0.0462 -0.6509
 7698SOL     OW34552   3.194   2.424  12.439 -0.3031  0.1650  0.2024
 7698SOL    HW134553   3.265   2.488  12.443  0.2345 -0.5108  1.3978
 7698SOL    HW234554   3.214   2.370  12.516 -1.4775 -0.9020 -0.2435
 7699SOL     OW34555   0.542   2.673   9.607 -0.0788 -0.8138 -0.2508
 7699SOL    HW134556   0.531   2.696   9.514 -0.2122  0.0541 -0.0241
 7699SOL    HW234557   0.588   2.749   9.642 -2.2232 -0.4202  1.7270
 7700SOL     OW34558   2.852   1.192   0.844 -0.2021  0.3829  0.1936
 7700SOL    HW134559   2.942   1.182   0.812  0.1853 -0.2258  1.4494
 7700SOL    HW234560   2.807   1.215   0.763  0.6108  0.1321 -0.3239
 7701SOL     OW34561   4.230   0.581   9.043  0.3710 -0.3169 -0.4033
 7701SOL    HW134562   4.186   0.647   8.989 -0.0832  0.1255  0.5115
 7701SOL    HW234563   4.308   0.632   9.064 -0.3419  0.6499 -0.0897
 7702SOL     OW34564   4.411   2.966   2.266  0.1721 -0.4389 -0.1516
 7702SOL    HW134565   4.426   2.875   2.290 -1.0447 -1.2648 -2.4551
 7702SOL    HW234566   4.318   2.982   2.282 -0.7357 -3.7564 -2.1869
 7703SOL     OW34567   0.721   2.716  10.748 -0.4952 -0.1277  0.3135
 7703SOL    HW134568   0.808   2.691  10.717 -0.7100  1.2071 -1.3980
 7703SOL    HW234569   0.729   2.803  10.707 -1.5598 -0.9873 -1.7161
 7704SOL     OW34570   3.709   1.098  15.828 -0.1426  0.6213  0.3154
 7704SOL    HW134571   3.798   1.099  15.792 -0.2578  1.1143  0.0447
 7704SOL    HW234572   3.690   1.006  15.810  0.1972  1.1403 -2.7219
 7705SOL     OW34573   2.880   4.232   0.018 -0.2992 -0.1198 -0.3090
 7705SOL    HW134574   2.834   4.313   0.043 -0.6773 -0.5215  0.2997
 7705SOL    HW234575   2.881   4.233  17.618  0.2091  1.0066 -0.2948
 7706SOL     OW34576   2.061   1.715   6.766  0.2938  0.3146 -0.1038
 7706SOL    HW134577   2.081   1.805   6.738 -1.2826  0.4501 -0.8186
 7706SOL    HW234578   2.149   1.677   6.763  0.2773  0.2799 -0.1368
 7707SOL     OW34579   2.010   2.551   0.736 -0.5476  0.1884  0.0529
 7707SOL    HW134580   2.103   2.552   0.715 -0.5589 -1.5411 -0.0558
 7707SOL    HW234581   2.005   2.580   0.827  0.7543 -1.2269  0.5832
 7708SOL     OW34582   2.931   3.312   5.475  0.2754  0.5121  0.0120
 7708SOL    HW134583   2.937   3.288   5.382  1.8472  0.6099  0.0895
 7708SOL    HW234584   3.018   3.309   5.515  0.5287 -3.5880 -0.9073
 7709SOL     OW34585   0.481   2.880   5.749  0.0216 -0.0861  0.0079
 7709SOL    HW134586   0.477   2.932   5.829 -1.0847 -0.5543  0.2511
 7709SOL    HW234587   0.551   2.925   5.700 -0.0600 -0.2497 -0.2597
 7710SOL     OW34588   0.644   1.366   8.764 -0.3155 -0.3481  0.1085
 7710SOL    HW134589   0.599   1.342   8.683  1.2605  0.4435 -0.9989
 7710SOL    HW234590   0.636   1.285   8.813 -2.4318 -0.2315 -0.0309
 7711SOL     OW34591   2.593   1.703   2.816 -0.0059 -0.3536 -0.5726
 7711SOL    HW134592   2.614   1.771   2.751  0.6978 -0.1196 -0.0942
 7711SOL    HW234593   2.542   1.756   2.877  0.1554 -1.3949  0.4552
 7712SOL     OW34594   3.619   4.271   7.451  0.2536 -0.4185 -0.5989
 7712SOL    HW134595   3.570   4.279   7.370 -1.5595 -1.7488  0.3561
 7712SOL    HW234596   3.707   4.245   7.424  1.1034  0.8617  0.9146
 7713SOL     OW34597   2.232   0.802   7.687 -0.5385 -0.3689 -0.5930
 7713SOL    HW134598   2.163   0.837   7.743  0.8168  0.7563  0.3713
 7713SOL    HW234599   2.311   0.851   7.707 -0.2161 -1.1430  0.0543
 7714SOL     OW34600   3.780   4.676  13.077  0.0612 -0.5196  0.2450
 7714SOL    HW134601   3.815   4.623  13.005  0.2892  1.4213 -1.0735
 7714SOL    HW234602   3.702   4.710  13.034  0.4098 -0.7817 -0.6057
 7715SOL     OW34603   0.278   2.910   1.080  0.2743  0.1292 -0.3405
 7715SOL    HW134604   0.306   2.843   1.142  0.1029 -0.0718 -0.4847
 7715SOL    HW234605   0.237   2.974   1.139 -2.5731  0.8887 -3.1288
 7716SOL     OW34606   4.194   3.512  14.281  0.2108 -0.2694  0.7110
 7716SOL    HW134607   4.121   3.562  14.245  0.1376 -1.4169 -0.7290
 7716SOL    HW234608   4.147   3.430  14.271 -1.8604  1.0301 -0.2463
 7717SOL     OW34609   4.108   1.652  10.522  0.3396 -0.8203  0.4927
 7717SOL    HW134610   4.202   1.663  10.533  0.4116 -0.5589 -0.3704
 7717SOL    HW234611   4.106   1.564  10.485  4.3288 -1.6243  2.2711
 7718SOL     OW34612   4.700   1.435   4.563  0.2360  0.2714 -0.3475
 7718SOL    HW134613   0.030   1.490   4.505  0.9530  1.5875  1.5736
 7718SOL    HW234614   4.617   1.477   4.541  0.4714  1.7113  1.5940
 7719SOL     OW34615   3.507   3.322  11.586  0.1294  0.0792  0.2543
 7719SOL    HW134616   3.545   3.310  11.499 -1.2149 -0.6062 -0.2240
 7719SOL    HW234617   3.413   3.309  11.579  0.3708 -1.0061 -0.8915
 7720SOL     OW34618   2.920   0.542   2.833  0.1702  0.6001 -0.4540
 7720SOL    HW134619   2.840   0.523   2.784  0.7319 -1.3299 -0.6159
 7720SOL    HW234620   2.929   0.468   2.893 -0.5879 -0.0567 -1.1610
 7721SOL     OW34621   3.185   3.859   5.022  0.1581 -0.0755 -0.1965
 7721SOL    HW134622   3.200   3.787   4.961 -0.0115  0.3123 -0.6938
 7721SOL    HW234623   3.142   3.813   5.095 -2.2576 -1.6745 -2.5871
 7722SOL     OW34624   4.687   0.098   7.980  0.0782  0.0523  0.9154
 7722SOL    HW134625   4.604   0.143   7.963  0.2490  0.9845  2.5212
 7722SOL    HW234626   4.649   0.012   7.996  1.4558 -0.9769 -1.4019
 7723SOL     OW34627   3.546   3.506   3.173 -0.1247  0.2047 -0.0457
 7723SOL    HW134628   3.581   3.556   3.099 -1.3931 -1.1576 -1.5859
 7723SOL    HW234629   3.538   3.567   3.247 -0.9671 -3.3264  2.7598
 7724SOL     OW34630   2.198   0.985   5.345 -0.0252  0.3042 -0.4259
 7724SOL    HW134631   2.122   1.024   5.388  0.5063  0.3088  0.5009
 7724SOL    HW234632   2.165   0.937   5.268  0.0727 -0.5338  0.0520
 7725SOL     OW34633   3.178   3.038   3.635 -0.4116 -0.2336  0.5387
 7725SOL    HW134634   3.231   3.005   3.707  3.4092  0.7653 -1.7957
 7725SOL    HW234635   3.196   2.980   3.561 -3.4345 -0.3839 -0.1090
 7726SOL     OW34636   3.622   0.418   7.237 -0.2027  0.0913  0.4199
 7726SOL    HW134637   3.679   0.452   7.168  0.1783  0.3799  0.8839
 7726SOL    HW234638   3.542   0.467   7.215 -0.0830  0.3269  0.5150
 7727SOL     OW34639   1.629   0.381  11.093  0.1083  1.2478 -0.1878
 7727SOL    HW134640   1.700   0.384  11.028 -0.3926  0.9931 -0.7535
 7727SOL    HW234641   1.603   0.289  11.084  2.2923  0.7701 -1.8943
 7728SOL     OW34642   3.129   4.252   5.932  0.1244 -0.2263  0.2200
 7728SOL    HW134643   3.222   4.258   5.955  0.0974  3.1511 -0.5331
 7728SOL    HW234644   3.131   4.248   5.837 -1.4044 -1.4293  0.2339
 7729SOL     OW34645   1.815   2.727   8.726 -0.1611 -0.8878  0.7756
 7729SOL    HW134646   1.776   2.658   8.778 -0.4596 -1.5539 -0.3276
 7729SOL    HW234647   1.840   2.788   8.795 -1.7427  0.2781  0.3353
 7730SOL     OW34648   4.533   0.356   5.569  0.4099 -0.7002  0.8086
 7730SOL    HW134649   4.495   0.397   5.647 -0.1090  3.2821 -1.5341
 7730SOL    HW234650   4.462   0.307   5.528 -0.2480  0.3190  0.7334
 7731SOL     OW34651   1.254   1.483   5.910  0.5260  0.2119 -0.1972
 7731SOL    HW134652   1.324   1.447   5.963 -0.4947  0.0712  1.0565
 7731SOL    HW234653   1.263   1.577   5.920 -0.2675  0.5492 -2.6141
 7732SOL     OW34654   3.885   2.484  14.066 -0.0519 -0.1750  0.2076
 7732SOL    HW134655   3.973   2.466  14.100 -0.1894 -0.8791  0.1736
 7732SOL    HW234656   3.898   2.453  13.977  1.7055  0.9542  0.0571
 7733SOL     OW34657   1.248   2.485   9.136 -0.1130  0.3274  0.5226
 7733SOL    HW134658   1.308   2.416   9.166 -1.2019 -0.5981  0.5329
 7733SOL    HW234659   1.230   2.528   9.219 -1.5471 -0.0792  0.4140
 7734SOL     OW34660   3.526   1.266  12.819 -0.0618 -0.2541  0.1249
 7734SOL    HW134661   3.452   1.283  12.762  0.1942 -0.5037 -0.2813
 7734SOL    HW234662   3.579   1.233  12.747 -1.2291  0.5939 -1.1222
 7735SOL     OW34663   1.292   3.296   1.993  0.2661 -0.5445  0.1928
 7735SOL    HW134664   1.308   3.212   2.035  1.2779  0.4289  1.7696
 7735SOL    HW234665   1.375   3.341   2.010 -0.1373  0.3434 -0.1682
 7736SOL     OW34666   1.307   1.715   9.282  0.0127 -0.1664  0.2537
 7736SOL    HW134667   1.222   1.750   9.306 -1.2947 -3.7828  0.8641
 7736SOL    HW234668   1.317   1.735   9.188  0.9949 -1.5758  0.0621
 7737SOL     OW34669   0.824   0.431   6.967 -0.3277 -0.1452  0.0171
 7737SOL    HW134670   0.795   0.359   6.911  1.9136 -1.7273  0.9094
 7737SOL    HW234671   0.845   0.376   7.042 -0.2534 -1.9649 -1.3206
 7738SOL     OW34672   4.437   4.446  13.750 -0.3689 -0.1827 -0.2776
 7738SOL    HW134673   4.406   4.356  13.743 -2.6136  0.4870  1.1163
 7738SOL    HW234674   4.435   4.462  13.844 -0.1137 -1.1129 -0.1164
 7739SOL     OW34675   1.974   1.559   5.594  0.3395 -0.3221  0.8373
 7739SOL    HW134676   1.994   1.466   5.599 -0.8029 -0.4915  2.1635
 7739SOL    HW234677   1.974   1.558   5.498  1.3809  0.0723  0.8317
 7740SOL     OW34678   1.454   1.612   5.558  0.4525  0.0577 -0.0878
 7740SOL    HW134679   1.444   1.535   5.502  0.0626 -0.5964  0.8831
 7740SOL    HW234680   1.547   1.606   5.580  0.2884  1.1957  0.9089
 7741SOL     OW34681   4.142   0.534   7.506 -0.1644 -0.2592  0.3671
 7741SOL    HW134682   4.079   0.464   7.487 -1.6951  1.8336 -2.3424
 7741SOL    HW234683   4.184   0.547   7.421 -0.1349 -1.9606  0.1251
 7742SOL     OW34684   4.369   4.594   7.179 -0.4811  0.6111 -0.2497
 7742SOL    HW134685   4.357   4.626   7.269 -2.7481 -0.9636  0.0141
 7742SOL    HW234686   4.458   4.562   7.192 -0.7026  0.1468  0.1181
 7743SOL     OW34687   3.748   4.345   4.863 -0.2995 -0.0145 -0.5309
 7743SOL    HW134688   3.670   4.341   4.919  0.5239 -1.3976  0.5067
 7743SOL    HW234689   3.744   4.262   4.815 -1.1473 -0.1106 -0.2907
 7744SOL     OW34690   1.800   2.373   6.718  0.4169 -0.5485 -0.0462
 7744SOL    HW134691   1.828   2.454   6.761  1.3334 -0.6059 -0.5427
 7744SOL    HW234692   1.867   2.364   6.650 -0.4450  2.0404 -1.2249
 7745SOL     OW34693   0.904   4.421   7.067  0.4221 -0.2265  0.4161
 7745SOL    HW134694   0.835   4.483   7.043  0.4909 -1.0313 -1.8592
 7745SOL    HW234695   0.886   4.341   7.018 -1.2265 -1.2484  2.7063
 7746SOL     OW34696   1.964   0.861   1.253  0.2339 -0.4066 -0.2412
 7746SOL    HW134697   1.879   0.844   1.293  0.6851 -0.6132  0.6281
 7746SOL    HW234698   2.007   0.776   1.253  2.4209  0.6999 -1.8342
 7747SOL     OW34699   4.149   0.637   2.339  0.7522 -0.3840  0.5366
 7747SOL    HW134700   4.152   0.559   2.284  1.6787  1.0593 -1.4256
 7747SOL    HW234701   4.230   0.629   2.389  0.5791 -0.0948  0.8629
 7748SOL     OW34702   3.106   2.591  10.223  0.3690 -0.8363 -0.1956
 7748SOL    HW134703   3.184   2.641  10.197 -0.7363  1.5498  1.0917
 7748SOL    HW234704   3.041   2.661  10.219 -2.5047 -3.4356  1.2134
 7749SOL     OW34705   2.029   2.903   0.299 -0.2304  0.5263 -0.5081
 7749SOL    HW134706   2.047   2.852   0.378 -0.5181 -1.4639 -1.7286
 7749SOL    HW234707   2.087   2.866   0.232  0.9499  0.0184  0.7819
 7750SOL     OW34708   3.886   2.863   0.569 -0.4040  0.7087  0.4220
 7750SOL    HW134709   3.884   2.917   0.648  0.0711  2.2810 -0.6165
 7750SOL    HW234710   3.793   2.839   0.564 -0.6656  1.9309 -0.6687
 7751SOL     OW34711   2.787   1.855   2.173  0.4091 -0.4070  0.1472
 7751SOL    HW134712   2.755   1.863   2.263 -2.6686 -0.8119 -0.8870
 7751SOL    HW234713   2.790   1.945   2.140 -0.6995 -0.2271  0.5438
 7752SOL     OW34714   4.289   1.318   2.734  0.7086  0.0746  0.4819
 7752SOL    HW134715   4.281   1.283   2.822 -0.6490 -1.8244 -0.4163
 7752SOL    HW234716   4.333   1.246   2.690  0.1214 -0.2536  0.4356
 7753SOL     OW34717   1.522   2.136   5.721 -0.5099 -0.9515 -0.0053
 7753SOL    HW134718   1.462   2.081   5.671 -0.6801 -1.6752  0.9907
 7753SOL    HW234719   1.512   2.218   5.673  1.6747 -0.1980  0.8134
 7754SOL     OW34720   3.608   0.391   7.845  0.5577 -0.0506 -0.2862
 7754SOL    HW134721   3.631   0.473   7.889  0.2041 -0.2972  0.3601
 7754SOL    HW234722   3.687   0.337   7.858  0.9782  0.9059  1.1526
 7755SOL     OW34723   4.513   2.275   6.682 -0.0227 -0.5596  0.6386
 7755SOL    HW134724   4.475   2.253   6.597 -0.6557  0.1400  0.7380
 7755SOL    HW234725   4.603   2.254   6.657 -0.0066 -0.1217  0.3367
 7756SOL     OW34726   0.830   3.897   6.512  1.0408  0.0528  0.7264
 7756SOL    HW134727   0.764   3.829   6.497 -0.3832  1.3005  1.3682
 7756SOL    HW234728   0.903   3.836   6.503 -0.2762 -1.3079 -0.7375
 7757SOL     OW34729   4.543   0.649   5.220  0.6667  0.0313  0.0338
 7757SOL    HW134730   4.619   0.607   5.261  0.4196  0.7011  1.1782
 7757SOL    HW234731   4.578   0.736   5.204 -0.1688  0.7070  1.8803
 7758SOL     OW34732   3.264   2.354   6.051  0.0312  0.2979  0.2401
 7758SOL    HW134733   3.221   2.272   6.075  2.2116 -1.2691 -1.1976
 7758SOL    HW234734   3.354   2.336   6.079 -0.1405  1.6820  1.6477
 7759SOL     OW34735   2.917   2.130   6.489 -0.3552 -0.2578  0.3119
 7759SOL    HW134736   2.934   2.225   6.489  0.2813 -0.3799  3.4836
 7759SOL    HW234737   2.984   2.110   6.554 -0.8640 -0.7273  0.6813
 7760SOL     OW34738   3.440   2.332   3.605 -0.9634 -0.6438 -0.2821
 7760SOL    HW134739   3.533   2.354   3.607 -1.5504  1.8163 -0.1153
 7760SOL    HW234740   3.426   2.325   3.699  0.4500  0.5902  0.0168
 7761SOL     OW34741   3.456   0.552  17.237 -0.3770 -0.2738  0.2824
 7761SOL    HW134742   3.454   0.634  17.187 -1.6675 -0.6541 -0.2974
 7761SOL    HW234743   3.491   0.573  17.323 -0.6703 -2.9900  1.0631
 7762SOL     OW34744   4.121   0.028   3.588 -0.0412  0.2231  0.3318
 7762SOL    HW134745   4.061   0.029   3.513 -0.4477 -0.9946  0.6364
 7762SOL    HW234746   4.055   0.015   3.657 -0.8753 -0.4896 -0.5888
 7763SOL     OW34747   2.475   2.740   2.326  0.2833  0.5688 -0.4982
 7763SOL    HW134748   2.384   2.745   2.355  1.4458 -0.6597  3.3824
 7763SOL    HW234749   2.515   2.784   2.401  2.4067 -2.6483  0.2801
 7764SOL     OW34750   3.499   0.308  13.991  0.0243  0.2451  0.4719
 7764SOL    HW134751   3.450   0.229  13.969 -0.2800  0.6006 -0.1275
 7764SOL    HW234752   3.459   0.344  14.071 -1.8070 -0.1103 -0.2771
 7765SOL     OW34753   3.560   0.116   5.290 -0.4053  0.5674 -0.1374
 7765SOL    HW134754   3.525   0.170   5.362 -0.0681  0.4878  0.0882
 7765SOL    HW234755   3.651   0.113   5.319  0.0852 -2.5892 -2.0832
 7766SOL     OW34756   0.075   1.555  13.893 -0.2757  0.1940 -0.0268
 7766SOL    HW134757   0.161   1.582  13.924 -0.7729  0.1537  1.3668
 7766SOL    HW234758   0.016   1.562  13.968  1.0183  0.9304  0.9144
 7767SOL     OW34759   4.115   3.713   4.942 -0.6067  0.2194  0.4875
 7767SOL    HW134760   4.195   3.662   4.940 -1.5656 -1.2694  0.2587
 7767SOL    HW234761   4.124   3.751   5.030  1.4377  0.1680  0.2949
 7768SOL     OW34762   2.698   3.430   9.155 -0.2832  0.1638  0.0817
 7768SOL    HW134763   2.715   3.523   9.144 -1.0359  0.3198  0.2869
 7768SOL    HW234764   2.759   3.416   9.227 -2.4877  2.1197  2.3168
 7769SOL     OW34765   4.148   4.604   0.258  0.1726 -0.4111 -0.3104
 7769SOL    HW134766   4.142   4.529   0.316 -0.4336  0.0007  0.1565
 7769SOL    HW234767   4.167   4.562   0.174 -2.3024 -1.0662 -0.5359
 7770SOL     OW34768   2.841   2.844   5.883 -0.0207 -0.0493 -0.3278
 7770SOL    HW134769   2.808   2.929   5.854 -0.6915 -0.0502  0.4239
 7770SOL    HW234770   2.861   2.868   5.974  1.0149 -3.3984  0.3332
 7771SOL     OW34771   1.145   3.504   4.876  0.1647  0.1754 -0.4549
 7771SOL    HW134772   1.074   3.546   4.827 -0.9344 -0.8414  0.2575
 7771SOL    HW234773   1.212   3.519   4.810 -0.3886 -1.1979 -1.3271
 7772SOL     OW34774   4.471   2.726   5.821 -0.0150 -0.4829 -0.3447
 7772SOL    HW134775   4.446   2.736   5.913 -0.2895  4.6336 -0.9410
 7772SOL    HW234776   4.488   2.632   5.816 -0.2680 -0.5673  0.4717
 7773SOL     OW34777   1.753   1.378   5.379  0.6953 -0.5259  0.0618
 7773SOL    HW134778   1.840   1.366   5.341  0.3307 -0.1213 -0.8874
 7773SOL    HW234779   1.740   1.469   5.355 -1.4157 -0.7869  0.2133
 7774SOL     OW34780   4.292   0.581   7.275 -0.2422 -0.0915  0.0860
 7774SOL    HW134781   4.340   0.663   7.266 -0.3193  0.0383  0.8850
 7774SOL    HW234782   4.225   0.583   7.207 -0.3390 -0.6607  0.1628
 7775SOL     OW34783   4.211   2.067   2.319 -0.2587 -0.3549 -0.3478
 7775SOL    HW134784   4.263   1.987   2.311  0.4116  0.0472  0.0535
 7775SOL    HW234785   4.123   2.040   2.291 -0.4962  1.3053 -1.1815
 7776SOL     OW34786   3.666   3.188   3.746 -0.4260 -0.1139  0.0379
 7776SOL    HW134787   3.625   3.231   3.671  0.4741  0.8581  0.1108
 7776SOL    HW234788   3.760   3.202   3.736 -1.1240  3.0695 -1.9164
 7777SOL     OW34789   1.727   1.088   1.910 -0.0086 -0.1650  0.4520
 7777SOL    HW134790   1.697   0.999   1.891  1.5307 -0.7776  0.8208
 7777SOL    HW234791   1.739   1.093   2.005 -2.7030  2.5240  0.6394
 7778SOL     OW34792   3.417   1.335   6.722 -0.0480  0.3646 -0.1350
 7778SOL    HW134793   3.340   1.280   6.732  0.0517  0.7651  2.9196
 7778SOL    HW234794   3.383   1.397   6.658  2.2868  0.5617 -1.1843
 7779SOL     OW34795   0.503   2.109   8.005  0.0215  0.2543  0.0557
 7779SOL    HW134796   0.556   2.120   8.084 -3.1193 -1.3785  2.3854
 7779SOL    HW234797   0.538   2.167   7.938 -2.5308 -0.2721 -1.7411
 7780SOL     OW34798   1.430   0.212   5.900  0.3540 -0.4319  0.0005
 7780SOL    HW134799   1.446   0.299   5.863 -0.6284 -0.5211 -0.6589
 7780SOL    HW234800   1.445   0.156   5.824 -1.1575 -1.3956  0.4180
 7781SOL     OW34801   1.888   4.703   7.963  0.4381 -0.2049  0.1838
 7781SOL    HW134802   1.936   4.638   8.014  0.9108 -3.3138 -4.2012
 7781SOL    HW234803   1.802   4.702   8.005 -0.3541 -0.5194 -1.4280
 7782SOL     OW34804   1.411   0.473  10.827  0.1629  0.3323 -0.4377
 7782SOL    HW134805   1.506   0.463  10.835  0.1139 -0.9929 -1.5367
 7782SOL    HW234806   1.410   0.423  10.746 -0.2668 -0.0017 -0.2251
 7783SOL     OW34807   3.718   3.554   9.924  0.6075 -0.9256  0.0681
 7783SOL    HW134808   3.747   3.469   9.956 -2.4837 -1.7384  0.7465
 7783SOL    HW234809   3.716   3.594  10.011 -0.7693 -0.3301 -0.2409
 7784SOL     OW34810   2.851   1.777   7.824 -0.3669 -0.4513  0.1410
 7784SOL    HW134811   2.819   1.794   7.736 -1.4160  3.9214  1.3598
 7784SOL    HW234812   2.838   1.865   7.860 -1.8725  0.1727 -1.9429
 7785SOL     OW34813   3.012   1.468   2.937 -0.1426 -0.4070 -0.1700
 7785SOL    HW134814   3.017   1.563   2.926  0.2534 -0.2457  1.4376
 7785SOL    HW234815   2.957   1.446   2.862 -2.3862  1.1542  1.0103
 7786SOL     OW34816   0.532   3.975   8.432 -0.2048  0.0196 -0.0735
 7786SOL    HW134817   0.517   3.913   8.360  0.5141  0.6887 -0.8103
 7786SOL    HW234818   0.562   4.057   8.392 -0.6555  0.6143  0.7981
 7787SOL     OW34819   4.182   4.453   3.775  0.1642  0.1121 -0.4803
 7787SOL    HW134820   4.113   4.463   3.840 -0.6221 -0.1093 -1.2715
 7787SOL    HW234821   4.140   4.446   3.689 -0.4977  0.4804 -0.1898
 7788SOL     OW34822   1.048   1.685   6.628 -0.4117 -0.4293 -0.1326
 7788SOL    HW134823   0.961   1.676   6.588  0.6304 -0.2747 -2.4142
 7788SOL    HW234824   1.024   1.697   6.720 -1.3698 -0.0234 -0.4345
 7789SOL     OW34825   0.060   2.533  15.392 -0.2763 -0.1874 -0.1086
 7789SOL    HW134826   4.692   2.554  15.374 -0.2805  0.0604  0.2075
 7789SOL    HW234827   0.071   2.441  15.369  3.0428  0.2910 -0.3571
 7790SOL     OW34828   2.681   3.073   2.234 -0.0415 -0.4671 -0.1655
 7790SOL    HW134829   2.712   3.030   2.154 -0.6922  0.6346 -1.0098
 7790SOL    HW234830   2.586   3.074   2.223  0.0087 -0.1472 -0.5884
 7791SOL     OW34831   3.368   3.413  16.438  0.0902 -0.0039 -0.3668
 7791SOL    HW134832   3.431   3.478  16.407  2.0710 -1.7622 -0.0217
 7791SOL    HW234833   3.312   3.465  16.496  0.0475 -0.4324 -0.0243
 7792SOL     OW34834   4.088   4.525  12.402 -0.4191  0.0121  0.2632
 7792SOL    HW134835   4.114   4.569  12.321 -1.2016 -0.9069 -0.4793
 7792SOL    HW234836   4.036   4.454  12.365 -0.4467  0.0683  0.1947
 7793SOL     OW34837   4.717   3.695   5.284 -0.1407 -0.1622 -0.3406
 7793SOL    HW134838   4.626   3.672   5.267 -0.0440  0.5275 -1.8226
 7793SOL    HW234839   4.717   3.777   5.235  0.7283  0.7176  1.1267
 7794SOL     OW34840   2.872   2.348   8.972  0.6078 -0.6565 -0.0800
 7794SOL    HW134841   2.945   2.297   8.937 -0.9333 -0.1473 -4.0570
 7794SOL    HW234842   2.903   2.369   9.060  1.3373 -0.7403 -0.3081
 7795SOL     OW34843   3.757   2.467  15.234 -0.2082  0.2465  0.1619
 7795SOL    HW134844   3.781   2.468  15.142  2.7973 -1.1483  0.9214
 7795SOL    HW234845   3.823   2.424  15.288 -1.8537 -2.3457  0.1285
 7796SOL     OW34846   4.582   0.237   9.260 -0.4366 -0.3564 -0.1414
 7796SOL    HW134847   4.578   0.282   9.175 -0.1067 -2.3019 -1.1828
 7796SOL    HW234848   4.645   0.168   9.240 -0.3947 -0.4567  0.3480
 7797SOL     OW34849   2.191   2.079   2.890  0.2961 -0.1812 -0.3674
 7797SOL    HW134850   2.109   2.125   2.910  0.6030 -0.0094  0.4780
 7797SOL    HW234851   2.235   2.151   2.844 -1.3340  1.2970  0.3820
 7798SOL     OW34852   1.063   1.472   6.183 -0.1128  0.1956 -0.1238
 7798SOL    HW134853   1.124   1.510   6.247  2.1271 -0.7351 -1.6996
 7798SOL    HW234854   0.978   1.515   6.193 -0.5426 -0.5325 -0.6595
 7799SOL     OW34855   1.789   0.978  10.631 -0.4375 -0.2280 -0.7673
 7799SOL    HW134856   1.779   1.050  10.693  1.3108  0.5396 -1.3639
 7799SOL    HW234857   1.765   1.026  10.552 -2.6894 -1.8643 -1.0785
 7800SOL     OW34858   0.440   1.816   8.124  0.0396 -0.0096  0.2183
 7800SOL    HW134859   0.513   1.852   8.073  1.5034  0.6220  2.7925
 7800SOL    HW234860   0.486   1.817   8.207  0.9341  0.9387 -0.2895
 7801SOL     OW34861   1.865   0.162   6.812 -0.1583 -0.6864 -0.2129
 7801SOL    HW134862   1.925   0.108   6.864 -0.5716  1.5469  2.5709
 7801SOL    HW234863   1.842   0.230   6.876  0.0191 -0.7310 -0.1026
 7802SOL     OW34864   4.036   0.168  10.805  0.1187 -0.0520 -0.9480
 7802SOL    HW134865   4.087   0.165  10.725 -0.7521 -1.2511 -1.4530
 7802SOL    HW234866   3.969   0.104  10.781  0.7083 -0.9470 -0.2192
 7803SOL     OW34867   1.282   1.551   7.487 -0.0131  0.3752 -0.2643
 7803SOL    HW134868   1.212   1.509   7.437 -0.4066 -0.8867  1.3377
 7803SOL    HW234869   1.339   1.474   7.484 -1.6980 -0.8305 -1.7190
 7804SOL     OW34870   2.426   0.316   8.087 -0.4241 -0.2996  0.6697
 7804SOL    HW134871   2.381   0.371   8.023 -1.4921 -2.9979 -0.8958
 7804SOL    HW234872   2.505   0.368   8.105 -0.3929  0.1877 -0.9189
 7805SOL     OW34873   4.486   0.698   5.909  0.1693 -0.4216 -0.5398
 7805SOL    HW134874   4.440   0.780   5.925 -1.1038 -0.8902 -1.7659
 7805SOL    HW234875   4.576   0.717   5.881  0.4931 -2.0098 -0.5659
 7806SOL     OW34876   3.569   1.089   6.413  0.2259  0.3239  0.3568
 7806SOL    HW134877   3.539   1.164   6.361 -1.4562 -1.1828 -0.8751
 7806SOL    HW234878   3.599   1.135   6.491 -0.3897  0.9040  0.2479
 7807SOL     OW34879   2.579   0.477   2.758  0.5786 -0.0991  0.8758
 7807SOL    HW134880   2.626   0.477   2.674  0.9509 -0.6729  1.0848
 7807SOL    HW234881   2.587   0.391   2.800  1.8364  0.6204  2.1159
 7808SOL     OW34882   3.455   0.712   7.902 -0.1283  0.3105  0.3045
 7808SOL    HW134883   3.423   0.649   7.838 -1.6959 -0.2151  1.6052
 7808SOL    HW234884   3.549   0.717   7.885 -0.5129  1.6622 -1.4324
 7809SOL     OW34885   2.792   3.427   8.763 -0.0904  0.0879 -0.4810
 7809SOL    HW134886   2.768   3.447   8.672  3.8169 -0.3059 -1.6062
 7809SOL    HW234887   2.879   3.392   8.745  0.6183  2.1010 -0.9860
 7810SOL     OW34888   1.605   0.211   5.000  0.3102 -0.2515  0.1519
 7810SOL    HW134889   1.669   0.164   5.053  2.6104  1.2202 -1.3248
 7810SOL    HW234890   1.529   0.164   5.034 -0.3608  0.9920  0.3686
 7811SOL     OW34891   2.299   4.005   9.070  0.5031  0.0319  0.0790
 7811SOL    HW134892   2.246   3.938   9.027  0.5406  0.7930 -1.1633
 7811SOL    HW234893   2.375   3.953   9.095 -1.0424 -1.8122  0.9338
 7812SOL     OW34894   2.552   0.190   8.634  0.1078  0.0664 -0.3098
 7812SOL    HW134895   2.627   0.178   8.576 -0.6573  0.9246 -1.4691
 7812SOL    HW234896   2.589   0.263   8.684 -2.7456  0.2739  1.4794
 7813SOL     OW34897   1.206   1.830  15.529  0.2777  0.6386  0.4816
 7813SOL    HW134898   1.219   1.764  15.461 -0.7652 -0.3244  1.2175
 7813SOL    HW234899   1.221   1.910  15.478  1.5968  0.5531  0.7197
 7814SOL     OW34900   0.557   1.894   4.700 -0.2090 -0.4230  0.4588
 7814SOL    HW134901   0.627   1.914   4.637  1.4255  0.1912  2.4708
 7814SOL    HW234902   0.612   1.898   4.779  1.9713  1.7002 -1.1418
 7815SOL     OW34903   2.379   3.327  13.664 -0.2794 -0.2018  0.6020
 7815SOL    HW134904   2.292   3.359  13.640 -1.4330 -2.6864  1.4978
 7815SOL    HW234905   2.373   3.244  13.618 -0.6239  0.3109 -0.2940
 7816SOL     OW34906   1.570   0.850   7.426  0.5240 -0.0563 -0.7631
 7816SOL    HW134907   1.630   0.809   7.488  1.2537  0.0362 -1.4059
 7816SOL    HW234908   1.538   0.772   7.382  0.6919 -0.9376  0.6891
 7817SOL     OW34909   0.145   2.753  14.458  0.8357  0.0732 -0.4630
 7817SOL    HW134910   0.169   2.764  14.366  1.0324  0.2754 -0.3877
 7817SOL    HW234911   0.219   2.783  14.511  0.7368 -1.4169  0.5497
 7818SOL     OW34912   1.979   0.146   8.255 -0.0833  0.1473 -0.3676
 7818SOL    HW134913   2.064   0.188   8.241  0.7055 -1.7809 -1.3292
 7818SOL    HW234914   1.933   0.170   8.174 -1.6949 -1.9942 -0.0800
 7819SOL     OW34915   0.504   0.307  16.097  0.4718 -0.2054  0.2397
 7819SOL    HW134916   0.584   0.357  16.079  1.0862 -1.1520  0.3485
 7819SOL    HW234917   0.543   0.237  16.151  0.3297 -0.4669  0.0020
 7820SOL     OW34918   3.287   2.362   7.569  0.4411  0.2140 -0.6272
 7820SOL    HW134919   3.288   2.451   7.535  0.4907  0.6242  0.4429
 7820SOL    HW234920   3.381   2.350   7.581  0.1395  0.8022  2.5691
 7821SOL     OW34921   1.241   0.239   3.277  0.2015  0.2897 -0.1910
 7821SOL    HW134922   1.263   0.312   3.219  0.2909  1.9585  1.9392
 7821SOL    HW234923   1.237   0.170   3.212 -1.5415  0.7549 -0.5824
 7822SOL     OW34924   2.534   2.358   1.937  0.0295 -0.5094  0.4653
 7822SOL    HW134925   2.550   2.427   2.001 -0.0029 -0.2085  0.1521
 7822SOL    HW234926   2.453   2.316   1.967 -0.7595  0.3107 -0.5045
 7823SOL     OW34927   0.043   2.500   3.941 -0.5020 -0.3803 -0.6480
 7823SOL    HW134928   0.120   2.525   3.891 -1.9161  0.2301 -2.5164
 7823SOL    HW234929   4.693   2.516   3.882 -0.2490 -0.5711 -1.0100
 7824SOL     OW34930   1.600   3.140   9.032 -0.2874  0.9563  0.5179
 7824SOL    HW134931   1.692   3.116   9.043  0.2612  3.3558  1.0226
 7824SOL    HW234932   1.612   3.235   9.036  1.3798  0.7881 -0.4311
 7825SOL     OW34933   4.301   3.205   9.122  0.7343 -0.2591 -0.6260
 7825SOL    HW134934   4.280   3.199   9.029 -1.4002  1.6256 -0.2549
 7825SOL    HW234935   4.214   3.188   9.158  0.6502  3.0698  0.6921
 7826SOL     OW34936   1.539   1.468  11.143  0.2388  0.7069  0.1070
 7826SOL    HW134937   1.515   1.500  11.230 -0.1110 -0.7821  0.5623
 7826SOL    HW234938   1.572   1.382  11.169  0.8291  0.8781 -0.0774
 7827SOL     OW34939   3.709   1.969  12.429  0.0159 -0.8513  0.1125
 7827SOL    HW134940   3.799   1.993  12.409 -0.9740  2.7420 -0.1809
 7827SOL    HW234941   3.673   1.921  12.355  1.7483  0.2581 -1.4424
 7828SOL     OW34942   0.125   4.688  10.918  0.0626  0.5608  0.5287
 7828SOL    HW134943   0.107   4.689  11.012  1.1370 -2.8789  0.7816
 7828SOL    HW234944   0.215   4.719  10.919  0.2030  0.1013  2.1202
 7829SOL     OW34945   0.365   1.987   5.406  0.4839 -0.6140  0.0526
 7829SOL    HW134946   0.376   1.912   5.465 -0.5763  0.6673  1.8576
 7829SOL    HW234947   0.302   1.960   5.338  1.1970 -0.4594 -0.6726
 7830SOL     OW34948   0.804   3.392   5.830 -0.1839  0.4294  0.0231
 7830SOL    HW134949   0.777   3.469   5.880  1.0470  0.6071  0.4241
 7830SOL    HW234950   0.749   3.328   5.875 -0.5715  0.4355 -0.4317
 7831SOL     OW34951   3.222   3.559   5.319 -0.1381  0.4232 -0.2589
 7831SOL    HW134952   3.204   3.518   5.403  1.2085 -1.1999 -0.7712
 7831SOL    HW234953   3.265   3.482   5.283  0.6398  0.3152  0.9072
 7832SOL     OW34954   2.161   3.843   6.284  0.1136  0.2118  0.6095
 7832SOL    HW134955   2.078   3.807   6.316 -0.2385 -0.6239 -1.2199
 7832SOL    HW234956   2.225   3.805   6.344 -1.6049 -1.1729  1.5817
 7833SOL     OW34957   3.199   2.199   3.519 -0.1228 -0.0968  0.0975
 7833SOL    HW134958   3.255   2.276   3.509  2.2167 -1.7206  0.5592
 7833SOL    HW234959   3.268   2.135   3.536  0.0616  0.3524  1.0518
 7834SOL     OW34960   2.140   1.738   6.329  0.0733 -0.0126  0.6901
 7834SOL    HW134961   2.205   1.672   6.305 -0.0085 -0.2410  1.1045
 7834SOL    HW234962   2.090   1.703   6.402  0.6745  1.7612  1.9386
 7835SOL     OW34963   4.453   0.381   4.664  0.2251 -0.4645 -0.2371
 7835SOL    HW134964   4.440   0.288   4.684 -0.2490 -0.1060  1.1257
 7835SOL    HW234965   4.507   0.365   4.586 -0.6062  2.3506 -1.3791
 7836SOL     OW34966   2.552   3.796   7.818 -0.0125  0.3016 -0.6961
 7836SOL    HW134967   2.634   3.752   7.793  1.2669  1.4160  1.5869
 7836SOL    HW234968   2.482   3.731   7.820  1.0385 -0.8422 -1.4136
 7837SOL     OW34969   3.886   1.100   8.033  0.3875 -0.1609 -0.3681
 7837SOL    HW134970   3.934   1.087   7.951 -0.6083 -2.3767 -0.6189
 7837SOL    HW234971   3.818   1.164   8.011 -0.1022 -0.7238 -0.5038
 7838SOL     OW34972   4.411   1.482   8.277 -0.2188  0.0137 -0.7152
 7838SOL    HW134973   4.358   1.562   8.277  0.6649  0.6043 -0.9133
 7838SOL    HW234974   4.391   1.454   8.188  1.8586 -0.9245 -0.8855
 7839SOL     OW34975   4.035   0.095  14.490 -0.6849  0.1253  0.0364
 7839SOL    HW134976   4.021   0.150  14.567  0.2446 -0.0353  0.3099
 7839SOL    HW234977   4.077   0.018  14.527 -0.7461  0.5302  0.9573
 7840SOL     OW34978   2.592   3.496   2.107  0.4248 -0.1628  0.2276
 7840SOL    HW134979   2.529   3.437   2.066  2.3680 -0.5950 -2.0985
 7840SOL    HW234980   2.665   3.437   2.124  0.4707  0.0505  0.7805
 7841SOL     OW34981   0.125   2.549   9.332 -0.4507 -0.5916 -0.4253
 7841SOL    HW134982   0.219   2.533   9.337  0.2068  3.3036 -0.1074
 7841SOL    HW234983   0.116   2.601   9.412 -2.5859  1.5110 -2.0265
 7842SOL     OW34984   1.524   1.592  13.420 -0.3696  0.3056  0.1862
 7842SOL    HW134985   1.513   1.532  13.494 -0.0595 -0.4492 -0.3787
 7842SOL    HW234986   1.437   1.632  13.422  0.3568  1.7707  2.2492
 7843SOL     OW34987   0.157   4.475  13.228 -0.1516  0.0755 -0.4062
 7843SOL    HW134988   0.195   4.559  13.252 -0.9142  1.0623 -2.6252
 7843SOL    HW234989   0.153   4.493  13.134  1.3139 -2.1210 -0.8891
 7844SOL     OW34990   4.163   0.881   9.282 -0.4907  0.1903 -0.6048
 7844SOL    HW134991   4.119   0.856   9.200 -0.1945  1.6253 -1.1957
 7844SOL    HW234992   4.238   0.934   9.256  0.2554 -0.0452  1.1010
 7845SOL     OW34993   3.945   3.401   5.230  0.2358 -0.1089 -0.6602
 7845SOL    HW134994   3.914   3.415   5.140 -0.2925 -4.4505 -1.1842
 7845SOL    HW234995   3.867   3.432   5.276 -0.8166 -1.5966 -1.4068
 7846SOL     OW34996   2.895   1.661   7.036  0.4688  0.0079 -0.1845
 7846SOL    HW134997   2.844   1.581   7.043 -0.9323  0.8210 -1.1107
 7846SOL    HW234998   2.882   1.691   6.946  0.8966  1.8641  0.3710
 7847SOL     OW34999   4.705   1.879   4.490 -0.4131 -0.5877  0.4120
 7847SOL    HW135000   0.069   1.912   4.467 -0.5979 -0.6820 -0.4588
 7847SOL    HW235001   4.719   1.896   4.583 -0.0336 -0.1718  0.2791
 7848SOL     OW35002   0.662   4.562   2.314  0.0419 -0.0117  0.0184
 7848SOL    HW135003   0.571   4.544   2.337  0.2418  0.7385  1.4042
 7848SOL    HW235004   0.659   4.545   2.220 -0.3440  0.9590 -0.1513
 7849SOL     OW35005   2.927   3.138   4.926 -0.2803 -0.8685  0.2322
 7849SOL    HW135006   2.939   3.211   4.864 -2.9658 -3.2801 -3.1376
 7849SOL    HW235007   2.961   3.060   4.883  0.8142  0.7146 -1.7893
 7850SOL     OW35008   3.751   3.939   2.554  0.3524 -0.5485 -0.2443
 7850SOL    HW135009   3.817   3.985   2.504  0.4733 -2.6238 -1.9912
 7850SOL    HW235010   3.777   3.850   2.532  1.9577 -0.2543  0.5070
 7851SOL     OW35011   2.375   2.503   0.859  0.0032  0.8035 -0.3423
 7851SOL    HW135012   2.420   2.430   0.902 -0.9142  1.1365  1.2153
 7851SOL    HW235013   2.314   2.528   0.929  0.5008 -1.0446  0.7537
 7852SOL     OW35014   4.024   1.222   4.262  0.5979 -0.7684  0.0716
 7852SOL    HW135015   3.979   1.138   4.271  0.8091 -0.6741  2.0177
 7852SOL    HW235016   4.083   1.209   4.188 -1.7988 -2.5970 -1.5317
 7853SOL     OW35017   4.485   2.708   2.080  0.6010 -0.3044 -0.0722
 7853SOL    HW135018   4.544   2.780   2.060  2.0085 -0.9961  1.6558
 7853SOL    HW235019   4.530   2.631   2.045 -0.1767  0.4726 -2.7833
 7854SOL     OW35020   0.879   3.927  11.388  0.1892 -0.5112  0.3309
 7854SOL    HW135021   0.896   4.003  11.443 -3.2641  2.2677 -2.4399
 7854SOL    HW235022   0.788   3.923  11.419  0.4033 -1.6866  0.8435
 7855SOL     OW35023   3.854   4.387  16.716  0.0675 -0.0297 -0.3771
 7855SOL    HW135024   3.808   4.357  16.637  0.5428 -2.0674  0.1072
 7855SOL    HW235025   3.872   4.479  16.695  0.2973  0.5895  2.6398
 7856SOL     OW35026   2.543   0.366   1.500  0.3679 -0.7520 -0.0626
 7856SOL    HW135027   2.635   0.357   1.522  0.1373 -0.5538  1.0013
 7856SOL    HW235028   2.511   0.277   1.510 -2.5053  0.3477  0.5797
 7857SOL     OW35029   2.025   3.002   5.728  0.6722  0.1855  0.0511
 7857SOL    HW135030   1.997   3.066   5.794 -1.0603 -0.5555  0.0155
 7857SOL    HW235031   2.112   2.984   5.764  0.8147  0.5985 -0.0831
 7858SOL     OW35032   3.297   0.184  13.814 -0.2717 -0.2124 -0.6065
 7858SOL    HW135033   3.364   0.206  13.750 -1.8375  1.0553 -1.8101
 7858SOL    HW235034   3.297   0.089  13.803  2.0497 -0.1884 -0.7559
 7859SOL     OW35035   4.232   4.624  14.082 -0.2127 -0.1178 -1.1968
 7859SOL    HW135036   4.212   4.538  14.046 -2.7496  0.3464 -0.9376
 7859SOL    HW235037   4.184   4.627  14.165 -1.0204  1.0292 -1.7051
 7860SOL     OW35038   0.004   0.850   9.117  0.7843  0.3720  0.5646
 7860SOL    HW135039   0.013   0.922   9.054 -2.6168  0.3172  0.0234
 7860SOL    HW235040   4.650   0.801   9.089  1.7987 -1.6122  1.2565
 7861SOL     OW35041   3.454   2.336  12.905  0.0347  0.5202  0.1024
 7861SOL    HW135042   3.516   2.408  12.888  0.2482 -0.0179 -1.3786
 7861SOL    HW235043   3.449   2.351  12.999 -1.5180 -0.9055  0.2237
 7862SOL     OW35044   4.293   3.372   2.721  0.5235  0.3279 -0.1064
 7862SOL    HW135045   4.231   3.402   2.787  0.6650  0.6188 -0.1078
 7862SOL    HW235046   4.330   3.458   2.704  0.1754  0.0545 -2.2539
 7863SOL     OW35047   0.568   2.349   7.553  0.0162 -0.3634  0.2956
 7863SOL    HW135048   0.540   2.350   7.644 -0.1335 -1.8251  0.2579
 7863SOL    HW235049   0.627   2.274   7.557 -0.2781 -0.6877 -1.2868
 7864SOL     OW35050   3.356   3.728   8.356  0.4900  0.4741 -0.0674
 7864SOL    HW135051   3.341   3.710   8.449 -1.1061 -3.0423 -0.9851
 7864SOL    HW235052   3.380   3.820   8.360 -0.2600  0.6387  0.6184
 7865SOL     OW35053   2.983   0.710   4.142  0.1752 -0.7262  0.8746
 7865SOL    HW135054   3.052   0.647   4.158 -0.1273 -1.4331 -0.5921
 7865SOL    HW235055   3.009   0.788   4.191 -1.9104  0.6599 -0.1918
 7866SOL     OW35056   0.665   3.679   8.808  0.0847  0.4590 -0.0649
 7866SOL    HW135057   0.656   3.764   8.765  0.0276  1.2363  1.4874
 7866SOL    HW235058   0.758   3.682   8.826  0.1922  1.4143 -0.7741
 7867SOL     OW35059   2.116   0.646   2.065  0.1958  0.3659 -0.3381
 7867SOL    HW135060   2.056   0.692   2.124 -1.0446  0.1770 -1.4523
 7867SOL    HW235061   2.048   0.586   2.034  0.6874 -0.3574 -0.0073
 7868SOL     OW35062   2.842   2.575  17.259  0.4724 -0.0537  0.1879
 7868SOL    HW135063   2.816   2.518  17.331 -1.7250 -0.1687 -0.7110
 7868SOL    HW235064   2.890   2.635  17.317  0.6805 -0.3710  0.3446
 7869SOL     OW35065   3.736   1.442   8.454  0.0646 -0.1371 -0.0845
 7869SOL    HW135066   3.737   1.412   8.545 -0.3910  0.3096  0.0692
 7869SOL    HW235067   3.676   1.516   8.451  1.1682  0.7287 -1.0356
 7870SOL     OW35068   2.036   4.404   2.816 -0.8208  0.3203 -0.3889
 7870SOL    HW135069   2.101   4.469   2.841  0.6675 -0.5491 -2.0142
 7870SOL    HW235070   2.020   4.355   2.898  0.4963  2.4525  1.1334
 7871SOL     OW35071   3.047   2.847   8.419  0.0038 -0.4286  0.2117
 7871SOL    HW135072   2.955   2.822   8.415  0.1793 -1.0227 -0.1039
 7871SOL    HW235073   3.063   2.846   8.324  0.3070 -2.4546  0.2880
 7872SOL     OW35074   4.349   0.447   6.867  0.1895  0.0830  0.2583
 7872SOL    HW135075   4.304   0.487   6.942 -0.0327 -2.8921  1.6913
 7872SOL    HW235076   4.343   0.521   6.806  0.0218 -0.7035 -0.6766
 7873SOL     OW35077   3.322   1.577   0.291  0.1268  0.3571  0.0907
 7873SOL    HW135078   3.273   1.548   0.368  0.3261 -0.9336 -0.2726
 7873SOL    HW235079   3.403   1.595   0.338  2.1431  0.2230 -3.2929
 7874SOL     OW35080   2.975   1.952  12.098 -0.2849  0.6456 -0.5576
 7874SOL    HW135081   3.063   1.988  12.082  1.2043 -2.8968 -0.3877
 7874SOL    HW235082   2.995   1.858  12.092  1.5443  1.0755 -1.3131
 7875SOL     OW35083   0.978   0.507  16.559  0.2015  0.2395  0.0296
 7875SOL    HW135084   0.918   0.434  16.574  0.0487  0.4187  0.3055
 7875SOL    HW235085   1.020   0.515  16.645 -0.2331 -0.1753  0.2791
 7876SOL     OW35086   1.576   2.251   6.472 -0.0194  0.2685  0.3952
 7876SOL    HW135087   1.539   2.304   6.402 -2.9586 -1.5623  0.5199
 7876SOL    HW235088   1.668   2.238   6.451 -0.1286 -1.6944  1.0850
 7877SOL     OW35089   4.618   2.677   4.497  0.1659  0.0004 -0.2923
 7877SOL    HW135090   4.558   2.740   4.536  1.4451 -0.1776  1.9677
 7877SOL    HW235091   4.689   2.686   4.561 -1.2212  1.9422  0.9618
 7878SOL     OW35092   1.284   2.931   2.252  0.3112  0.1784 -0.9430
 7878SOL    HW135093   1.276   2.958   2.161 -1.3011 -0.7676 -1.0762
 7878SOL    HW235094   1.354   2.989   2.283 -1.4533  2.4518 -1.1510
 7879SOL     OW35095   2.567   1.093   3.097  0.3866  0.2353  0.1811
 7879SOL    HW135096   2.620   1.160   3.140  1.8534 -0.0878 -1.1209
 7879SOL    HW235097   2.497   1.094   3.162  0.5069  1.7849  0.2873
 7880SOL     OW35098   3.882   3.739  12.026 -0.3782 -0.8281 -0.1678
 7880SOL    HW135099   3.892   3.698  12.112  0.4460 -0.2817 -0.0057
 7880SOL    HW235100   3.927   3.681  11.964  1.3036  2.6329 -2.2143
 7881SOL     OW35101   2.768   1.342   3.656 -0.0200 -0.1444 -0.2270
 7881SOL    HW135102   2.722   1.286   3.718 -1.5964 -0.1316 -1.3824
 7881SOL    HW235103   2.859   1.324   3.679  0.5584 -2.0118 -4.0902
 7882SOL     OW35104   4.570   0.856   2.215 -0.1308 -0.1665  0.3973
 7882SOL    HW135105   4.619   0.841   2.295  0.7064 -1.8112 -0.4241
 7882SOL    HW235106   4.598   0.943   2.186  0.8308 -0.2484  1.0890
 7883SOL     OW35107   2.676   4.395   8.088 -0.2336  0.3218  0.0603
 7883SOL    HW135108   2.659   4.301   8.087  0.9612  0.1040  0.3435
 7883SOL    HW235109   2.715   4.401   8.175 -0.3995 -2.1278  0.3016
 7884SOL     OW35110   2.143   4.390   8.919  0.2199 -0.5862  0.4448
 7884SOL    HW135111   2.215   4.440   8.957 -1.1041  2.2770 -0.8167
 7884SOL    HW235112   2.092   4.455   8.870  0.7471 -0.9633 -0.6086
 7885SOL     OW35113   3.453   1.570   4.495 -0.3215 -0.4228  0.0493
 7885SOL    HW135114   3.493   1.536   4.415  1.0321 -1.1056  0.9971
 7885SOL    HW235115   3.526   1.610   4.543  2.6792 -2.1804 -3.0139
 7886SOL     OW35116   3.383   3.651   8.781  0.1052  0.1098  0.3370
 7886SOL    HW135117   3.361   3.652   8.874 -0.7387 -0.3899  0.1423
 7886SOL    HW235118   3.476   3.629   8.777  0.4543  1.6579  0.0374
 7887SOL     OW35119   2.952   0.279   7.897  0.0768  0.3504  0.2189
 7887SOL    HW135120   2.956   0.199   7.949  1.6466  1.1452  1.3248
 7887SOL    HW235121   3.042   0.309   7.912 -0.3184  0.5163  2.2232
 7888SOL     OW35122   2.202   4.185   7.932  0.2603 -0.3165 -0.2739
 7888SOL    HW135123   2.240   4.104   7.968  0.6050  0.1522  0.4214
 7888SOL    HW235124   2.125   4.184   7.989  0.5616 -2.9548  0.0913
 7889SOL     OW35125   0.555   1.934   6.456 -0.0438  0.4012  0.3876
 7889SOL    HW135126   0.472   1.979   6.444 -0.5715 -0.6377  0.1686
 7889SOL    HW235127   0.596   1.992   6.520  0.0028  0.8453 -0.0499
 7890SOL     OW35128   3.208   0.088   7.261 -0.2701  0.3418 -0.2645
 7890SOL    HW135129   3.243   0.126   7.180 -2.3142  1.4861 -0.6135
 7890SOL    HW235130   3.192   0.167   7.314 -1.5417  0.3816 -0.6909
 7891SOL     OW35131   2.237   3.913  14.485 -0.1574 -0.3784  0.0405
 7891SOL    HW135132   2.323   3.951  14.501 -0.5495  1.3276 -1.8163
 7891SOL    HW235133   2.254   3.873  14.399  1.8479 -1.2944  0.8729
 7892SOL     OW35134   1.789   1.702   4.250 -0.1859 -0.2557 -0.0699
 7892SOL    HW135135   1.706   1.665   4.219 -0.1950  0.2267 -0.6143
 7892SOL    HW235136   1.846   1.687   4.173 -0.6601  2.2956 -0.9085
 7893SOL     OW35137   1.485   4.211   5.055 -0.1368 -0.2114 -0.1591
 7893SOL    HW135138   1.462   4.304   5.053  0.1264 -0.1631 -1.3023
 7893SOL    HW235139   1.575   4.206   5.024  0.1902 -0.7946  0.9020
 7894SOL     OW35140   4.416   2.764   3.661  0.0790  0.4152 -0.2718
 7894SOL    HW135141   4.453   2.709   3.730  0.7460 -0.3014 -1.2069
 7894SOL    HW235142   4.488   2.779   3.601  0.6729  0.6287  0.5014
 7895SOL     OW35143   4.310   2.457   0.387  0.3213 -0.0464 -0.2299
 7895SOL    HW135144   4.389   2.480   0.339 -1.2676 -0.7522 -3.2027
 7895SOL    HW235145   4.285   2.370   0.357 -0.3460  0.7880 -2.0949
 7896SOL     OW35146   0.084   3.714   8.401  0.0921  0.2366  0.2358
 7896SOL    HW135147   0.044   3.652   8.462  0.7414  1.0628  1.4880
 7896SOL    HW235148   0.174   3.697   8.427  0.3803 -0.1440 -1.0214
 7897SOL     OW35149   3.093   4.019  12.678 -0.7300 -0.6394 -0.1741
 7897SOL    HW135150   3.102   3.942  12.734 -1.6789 -1.2201 -0.8345
 7897SOL    HW235151   3.025   3.979  12.625 -1.1515 -1.6548  1.1427
 7898SOL     OW35152   1.677   3.340   1.034  0.3189 -0.1391  0.4155
 7898SOL    HW135153   1.670   3.409   0.968 -0.5502  0.8438  1.5189
 7898SOL    HW235154   1.726   3.274   0.985  0.7569  1.0176 -0.6971
 7899SOL     OW35155   3.285   3.215   6.025 -0.3497 -0.0379 -0.1456
 7899SOL    HW135156   3.375   3.236   6.000 -0.2029 -0.6965 -0.1631
 7899SOL    HW235157   3.264   3.179   5.939  1.5612  0.1398 -0.6921
 7900SOL     OW35158   2.085   2.184   8.478  0.0139  0.1599  0.1821
 7900SOL    HW135159   2.162   2.149   8.522  1.0731  2.5144  0.1816
 7900SOL    HW235160   2.109   2.275   8.464 -0.4520  0.0245 -1.4774
 7901SOL     OW35161   3.244   1.425   7.037 -0.4016  0.2915  0.0497
 7901SOL    HW135162   3.297   1.348   7.056 -0.9370 -0.2177 -0.5121
 7901SOL    HW235163   3.291   1.503   7.067 -1.1825  0.4751  0.8069
 7902SOL     OW35164   3.637   2.493  14.285  0.4214  0.3709 -0.7074
 7902SOL    HW135165   3.711   2.538  14.243  0.8786 -0.7664 -1.1335
 7902SOL    HW235166   3.640   2.410  14.238 -1.5489 -0.9861  1.5820
 7903SOL     OW35167   4.163   3.001   2.003  0.2572 -0.3806 -0.1542
 7903SOL    HW135168   4.237   3.053   1.971 -0.1948  0.4666  0.1891
 7903SOL    HW235169   4.151   3.027   2.094  0.6981 -0.2472 -0.1344
 7904SOL     OW35170   4.371   4.635   5.683  0.0876 -0.1147 -0.0045
 7904SOL    HW135171   4.409   4.624   5.770  1.9205 -0.3243 -0.8495
 7904SOL    HW235172   4.305   4.701   5.706 -1.7613 -2.4150  1.3259
 7905SOL     OW35173   4.715   4.401  13.529 -0.2108 -0.2391 -0.1636
 7905SOL    HW135174   0.038   4.399  13.446 -0.2503 -0.3675 -0.1827
 7905SOL    HW235175   4.723   4.492  13.555 -0.1365  0.1434 -1.5291
 7906SOL     OW35176   3.905   4.319  14.692 -0.5673 -0.6458 -0.0704
 7906SOL    HW135177   3.925   4.353  14.780 -1.0495 -2.4660  0.7452
 7906SOL    HW235178   3.815   4.286  14.692 -0.7260 -0.1790 -1.3567
 7907SOL     OW35179   3.850   3.814   5.222  0.4906 -0.0715 -0.0213
 7907SOL    HW135180   3.919   3.841   5.282  0.2451 -1.7614  1.0000
 7907SOL    HW235181   3.786   3.882   5.245  0.7692  0.2676 -0.2520
 7908SOL     OW35182   2.340   0.921   6.471  0.0168 -0.3386 -0.0940
 7908SOL    HW135183   2.376   0.833   6.477 -0.7561 -0.8285 -2.6529
 7908SOL    HW235184   2.401   0.978   6.519  0.3998  0.2692 -1.2739
 7909SOL     OW35185   3.124   3.135   2.546 -0.0393  0.1038 -0.4855
 7909SOL    HW135186   3.073   3.134   2.464 -2.4922 -0.2138  1.0525
 7909SOL    HW235187   3.174   3.216   2.532 -1.1587  0.7958 -0.5428
 7910SOL     OW35188   4.206   4.173   6.752 -0.0810  0.8765 -0.2712
 7910SOL    HW135189   4.278   4.208   6.805 -1.2889  1.1535  1.1523
 7910SOL    HW235190   4.165   4.121   6.821  0.8103  1.1018  0.4321
 7911SOL     OW35191   1.866   3.587  10.289 -0.3599  0.0133  0.0170
 7911SOL    HW135192   1.882   3.493  10.277 -1.2355  0.0124 -1.1421
 7911SOL    HW235193   1.904   3.629  10.213 -2.0825  3.1860  0.9319
 7912SOL     OW35194   1.992   0.979   6.146  0.8711  0.8944  0.4036
 7912SOL    HW135195   2.064   0.986   6.209  0.5632  0.0202  0.8528
 7912SOL    HW235196   2.039   0.941   6.071  0.6592 -1.0212  1.2270
 7913SOL     OW35197   0.362   2.339   3.608  0.3533 -0.2383  0.5127
 7913SOL    HW135198   0.406   2.273   3.663 -0.8899 -1.9091 -0.5160
 7913SOL    HW235199   0.435   2.361   3.550 -2.5202  0.9100 -2.5933
 7914SOL     OW35200   3.771   0.933   9.488 -0.7300 -0.3723  0.2876
 7914SOL    HW135201   3.695   0.915   9.544 -1.9802 -0.6779 -1.5040
 7914SOL    HW235202   3.834   0.980   9.543  2.3494 -3.3209 -0.7555
 7915SOL     OW35203   3.680   2.627   9.113 -0.8896  0.2811  0.0367
 7915SOL    HW135204   3.724   2.549   9.147  0.1991  0.3842 -1.1179
 7915SOL    HW235205   3.713   2.630   9.023 -0.3027 -0.2934  0.2345
 7916SOL     OW35206   1.114   2.268   0.174  0.3731 -0.3697  0.6104
 7916SOL    HW135207   1.150   2.179   0.173 -1.9280 -1.2912 -0.7274
 7916SOL    HW235208   1.095   2.277   0.267  0.0011  1.8000  0.3219
 7917SOL     OW35209   3.019   4.110  11.072  0.2385  0.0430 -0.5225
 7917SOL    HW135210   3.033   4.027  11.025  1.4366 -0.7601  1.2209
 7917SOL    HW235211   3.108   4.141  11.091  1.0922 -1.9874 -1.1428
 7918SOL     OW35212   4.258   1.837   8.628  0.1924  0.3151 -0.2178
 7918SOL    HW135213   4.215   1.800   8.705  0.7178  0.1475  0.0021
 7918SOL    HW235214   4.350   1.812   8.644 -0.1363 -1.8085 -1.5313
 7919SOL     OW35215   1.957   3.023   8.403 -0.4487  0.3286 -0.3536
 7919SOL    HW135216   1.996   3.070   8.477 -3.2592  1.2662  0.5068
 7919SOL    HW235217   1.971   2.931   8.426 -1.7581  0.7759  2.1313
 7920SOL     OW35218   3.648   3.592   3.841 -0.3170  0.1652  0.0350
 7920SOL    HW135219   3.651   3.511   3.892 -0.5142 -1.0504 -1.8998
 7920SOL    HW235220   3.740   3.596   3.813 -0.2685  0.1366  0.1920
 7921SOL     OW35221   2.447   0.216   3.230  0.0676  0.1454 -0.2305
 7921SOL    HW135222   2.539   0.229   3.205  0.9313  1.3897  3.6318
 7921SOL    HW235223   2.402   0.197   3.147  1.4371 -0.4494 -0.8385
 7922SOL     OW35224   4.574   4.029   4.872 -0.0711  0.4709 -0.0164
 7922SOL    HW135225   4.593   3.969   4.799 -2.7947 -0.9911  0.4623
 7922SOL    HW235226   4.483   4.005   4.893  0.1851 -0.6501 -0.1739
 7923SOL     OW35227   4.352   0.696   0.740  0.0910  0.9311 -0.0053
 7923SOL    HW135228   4.324   0.722   0.652 -0.7423 -0.0287 -0.0297
 7923SOL    HW235229   4.273   0.648   0.768  1.1313 -0.4515  0.5570
 7924SOL     OW35230   4.000   1.576   7.838  0.1587  0.1173 -0.4508
 7924SOL    HW135231   3.955   1.659   7.853  0.4253  0.6761 -2.7688
 7924SOL    HW235232   4.025   1.539   7.923 -1.3621 -0.9446 -0.4529
 7925SOL     OW35233   2.689   1.063   6.254 -0.1336 -0.2047 -0.0678
 7925SOL    HW135234   2.595   1.081   6.254 -0.0255  0.3488 -0.2543
 7925SOL    HW235235   2.688   0.996   6.322  1.6691 -3.0273 -2.7970
 7926SOL     OW35236   4.686   4.587   6.875  0.2744 -0.4768 -0.3057
 7926SOL    HW135237   4.647   4.582   6.787  1.5088  2.6054 -1.0269
 7926SOL    HW235238   4.636   4.657   6.917 -0.6640 -0.6475 -1.1231
 7927SOL     OW35239   1.730   0.305   3.224  0.7345 -0.1031 -0.2530
 7927SOL    HW135240   1.807   0.314   3.281  0.7791 -0.5774 -0.2405
 7927SOL    HW235241   1.773   0.346   3.149 -0.0525  1.4544  0.1379
 7928SOL     OW35242   2.852   3.448  12.786 -0.0030  0.0120  0.2959
 7928SOL    HW135243   2.855   3.541  12.807 -0.8459  0.3999 -1.2895
 7928SOL    HW235244   2.933   3.441  12.734 -0.8483  0.4742 -1.0799
 7929SOL     OW35245   2.267   4.166   3.971 -0.5155  0.1003  0.7134
 7929SOL    HW135246   2.183   4.136   4.005 -0.5642 -1.1989 -0.5335
 7929SOL    HW235247   2.318   4.085   3.974 -1.1747 -0.3969 -1.0958
 7930SOL     OW35248   0.067   0.075   4.130  0.6065 -0.6325  0.5867
 7930SOL    HW135249   0.002   0.144   4.137  0.8495 -0.4048  0.5905
 7930SOL    HW235250   0.145   0.131   4.125 -1.1821  1.9298  1.7376
 7931SOL     OW35251   3.919   4.376   9.774  0.2002  0.3716 -0.2785
 7931SOL    HW135252   3.914   4.326   9.855 -2.6073  1.6941  0.3610
 7931SOL    HW235253   4.000   4.340   9.737  1.2263  2.0819  0.3332
 7932SOL     OW35254   0.898   0.157   7.553  0.0328 -0.2025  0.7034
 7932SOL    HW135255   0.927   0.148   7.644 -0.0642 -1.7198  0.5915
 7932SOL    HW235256   0.939   0.080   7.513  0.4021  0.6493 -0.5546
 7933SOL     OW35257   0.269   0.077   4.705  0.0410  0.0526  0.0668
 7933SOL    HW135258   0.204   0.147   4.713  0.9459  1.1243 -1.8434
 7933SOL    HW235259   0.303   0.085   4.616  0.6747 -1.1983  0.2084
 7934SOL     OW35260   2.109   1.004   4.583  0.7824  0.2287 -0.3794
 7934SOL    HW135261   2.022   0.984   4.549  0.0940  3.4958 -0.4775
 7934SOL    HW235262   2.101   1.097   4.601 -1.6027 -0.2137  0.8864
 7935SOL     OW35263   4.271   1.503   8.676  0.1484  0.3456 -0.3576
 7935SOL    HW135264   4.299   1.550   8.597 -2.4637  1.1210 -0.8243
 7935SOL    HW235265   4.176   1.513   8.680 -0.0807 -1.4030 -1.2845
 7936SOL     OW35266   2.490   1.738  17.192 -0.6023  0.3179  0.2137
 7936SOL    HW135267   2.507   1.790  17.113 -3.1717  0.7937 -0.0544
 7936SOL    HW235268   2.574   1.727  17.235 -0.2321 -0.9581 -0.8410
 7937SOL     OW35269   2.752   4.676   7.362 -0.1594  0.3399 -0.1708
 7937SOL    HW135270   2.673   4.629   7.337 -0.1074 -0.0440  0.3941
 7937SOL    HW235271   2.795   4.617   7.424 -0.2423  1.6856  1.1494
 7938SOL     OW35272   4.183   0.347   9.724 -0.1799 -0.2845 -0.4759
 7938SOL    HW135273   4.188   0.429   9.773  2.5110 -1.0759  0.5406
 7938SOL    HW235274   4.275   0.329   9.706  0.6220 -0.1323  3.5332
 7939SOL     OW35275   2.304   2.848  13.434 -0.5506 -0.1232  0.4939
 7939SOL    HW135276   2.258   2.799  13.366  1.1469 -2.3426  0.9354
 7939SOL    HW235277   2.266   2.799  13.507 -0.4472  1.5762  1.6768
 7940SOL     OW35278   1.503   3.467   8.437  0.4875 -0.9833  0.2583
 7940SOL    HW135279   1.435   3.410   8.475 -0.7124  0.6858  0.6005
 7940SOL    HW235280   1.491   3.455   8.343  0.5765  2.0131 -0.1378
 7941SOL     OW35281   2.954   1.623  14.167 -0.5563  0.3056  0.2443
 7941SOL    HW135282   2.900   1.557  14.210  2.1055 -2.9826 -1.4376
 7941SOL    HW235283   3.008   1.563  14.116 -2.4231 -1.0278 -0.2007
 7942SOL     OW35284   1.882   1.640  15.678 -0.8762 -0.4006 -0.0889
 7942SOL    HW135285   1.933   1.711  15.639  0.0285 -0.2811  1.3122
 7942SOL    HW235286   1.793   1.674  15.670 -0.1670  1.2425 -0.9319
 7943SOL     OW35287   4.618   3.561   8.571  0.0071 -0.2200 -0.4493
 7943SOL    HW135288   4.585   3.651   8.564  0.6571  0.0648  0.2471
 7943SOL    HW235289   4.537   3.509   8.569 -0.9661  1.2096  1.7620
 7944SOL     OW35290   3.983   1.316   0.195  0.1628  0.0520 -0.6749
 7944SOL    HW135291   3.987   1.404   0.232 -1.0320  1.6080 -4.2890
 7944SOL    HW235292   3.937   1.271   0.266 -0.8956  1.0581 -0.7420
 7945SOL     OW35293   2.634   0.926  10.389 -0.0582  0.6262 -0.0561
 7945SOL    HW135294   2.673   0.936  10.476  1.8321 -3.4042 -0.4270
 7945SOL    HW235295   2.661   0.836  10.370  1.3786  0.8199  1.0569
 7946SOL     OW35296   4.145   2.541   5.311  0.1270 -0.2665  0.4812
 7946SOL    HW135297   4.102   2.612   5.263  0.1424 -1.0117 -0.6301
 7946SOL    HW235298   4.210   2.496   5.256 -1.1013 -1.1338 -0.2720
 7947SOL     OW35299   0.097   4.554   2.780  0.1743  0.8306 -0.4125
 7947SOL    HW135300   0.192   4.550   2.769  0.2978 -0.3731  0.9310
 7947SOL    HW235301   0.100   4.543   2.875  2.3702 -0.6026 -0.6483
 7948SOL     OW35302   0.535   3.320  11.934  0.6929  0.3650  0.0995
 7948SOL    HW135303   0.511   3.396  11.986  2.5487  1.2202 -0.3043
 7948SOL    HW235304   0.606   3.286  11.988 -1.1487 -1.0754  1.6559
 7949SOL     OW35305   3.460   2.427   6.506  0.1051 -0.6459  0.4588
 7949SOL    HW135306   3.484   2.479   6.582 -0.9656 -0.9825  1.0318
 7949SOL    HW235307   3.408   2.491   6.457  0.1607 -1.0091 -0.0736
 7950SOL     OW35308   0.796   0.774   3.721  0.2814  0.5218 -0.1654
 7950SOL    HW135309   0.796   0.852   3.665 -0.7347 -0.7303 -1.9125
 7950SOL    HW235310   0.871   0.729   3.683 -2.3014 -0.5550 -3.9881
 7951SOL     OW35311   0.096   0.060   3.812 -0.3449  1.0236 -0.2829
 7951SOL    HW135312   0.011   0.028   3.783 -0.2176  0.2903  0.1605
 7951SOL    HW235313   0.125   4.707   3.862 -0.4652  0.4239 -1.1269
 7952SOL     OW35314   2.207   2.643   5.738  0.1052  0.3478 -0.0188
 7952SOL    HW135315   2.200   2.634   5.643  0.5441  0.2960 -0.0449
 7952SOL    HW235316   2.299   2.620   5.750  0.5314  2.7380  1.4110
 7953SOL     OW35317   3.904   0.761  10.932  0.1809  0.0087 -0.9040
 7953SOL    HW135318   3.881   0.672  10.960  0.6065  0.8844  2.2444
 7953SOL    HW235319   3.817   0.798  10.920  1.0371  2.6242  0.9237
 7954SOL     OW35320   1.578   3.206  10.542  0.2779 -0.1652 -0.0689
 7954SOL    HW135321   1.594   3.252  10.459  2.8879  0.0338  0.5457
 7954SOL    HW235322   1.646   3.226  10.606  0.8304 -1.4974 -0.2388
 7955SOL     OW35323   0.676   1.293   4.962  0.0766  0.3456  0.0776
 7955SOL    HW135324   0.582   1.281   4.975 -0.1386  1.2940 -0.5553
 7955SOL    HW235325   0.702   1.241   5.038 -0.6375 -0.4945 -0.2652
 7956SOL     OW35326   3.713   3.135   8.735  0.2082 -0.0132 -0.4914
 7956SOL    HW135327   3.735   3.065   8.673  0.0753 -0.7629  0.2955
 7956SOL    HW235328   3.618   3.137   8.734  0.1912 -0.7007 -0.5730
 7957SOL     OW35329   2.261   1.509   8.466 -0.0547  0.2261  0.3701
 7957SOL    HW135330   2.301   1.572   8.406 -1.8269  0.9977  0.0044
 7957SOL    HW235331   2.172   1.517   8.433 -0.4811 -1.2237  1.1885
 7958SOL     OW35332   3.117   3.148   3.273  0.1215 -0.1196 -0.6018
 7958SOL    HW135333   3.143   3.141   3.364  0.5351  1.1366 -0.6234
 7958SOL    HW235334   3.029   3.109   3.276  0.4653 -0.7910  0.6331
 7959SOL     OW35335   2.745   0.253   2.673  0.6424 -0.2403  0.2099
 7959SOL    HW135336   2.800   0.195   2.725  0.9589 -2.2140 -2.3203
 7959SOL    HW235337   2.788   0.254   2.587  1.3190 -1.6082  0.5274
 7960SOL     OW35338   0.454   1.723   4.030  0.2811  0.5421 -0.4631
 7960SOL    HW135339   0.457   1.817   4.049  1.4545 -0.1849  2.9155
 7960SOL    HW235340   0.543   1.710   3.997 -0.0343  0.7118 -1.3958
 7961SOL     OW35341   0.361   1.433   6.764  0.5599  0.7661  0.0609
 7961SOL    HW135342   0.387   1.526   6.764  2.6318  0.1882 -1.0846
 7961SOL    HW235343   0.322   1.422   6.851  0.1757 -2.3584 -0.5174
 7962SOL     OW35344   3.256   3.364   2.484  0.3172  0.3153  0.2612
 7962SOL    HW135345   3.344   3.335   2.459 -0.1045  1.0652 -2.1336
 7962SOL    HW235346   3.284   3.448   2.521  1.6208 -1.1393  2.5601
 7963SOL     OW35347   3.164   0.828   4.631 -0.3002 -0.1366 -0.3127
 7963SOL    HW135348   3.090   0.768   4.624 -0.4256 -0.1957  1.3966
 7963SOL    HW235349   3.209   0.816   4.548 -0.5471 -0.1703 -0.4421
 7964SOL     OW35350   3.568   3.204   7.051  0.1460  0.0131  0.1144
 7964SOL    HW135351   3.496   3.222   6.991 -0.8911  0.8570  1.6149
 7964SOL    HW235352   3.525   3.146   7.113 -0.8612  2.5681  1.7706
 7965SOL     OW35353   4.577   3.811   9.318 -0.2117  0.0094 -0.1339
 7965SOL    HW135354   4.501   3.769   9.358  0.3641  0.7580  1.7765
 7965SOL    HW235355   4.647   3.749   9.339 -1.8585 -2.4515 -2.0044
 7966SOL     OW35356   0.585   1.979  14.728 -0.0527  0.0765 -0.3807
 7966SOL    HW135357   0.522   2.043  14.694  0.1611 -0.1751 -1.2602
 7966SOL    HW235358   0.659   2.035  14.752 -0.0351 -0.1561  0.1041
 7967SOL     OW35359   3.995   1.634   7.408  1.0947  0.0767  0.3295
 7967SOL    HW135360   4.062   1.621   7.341  1.8633  1.7094  0.7651
 7967SOL    HW235361   3.920   1.633   7.348  1.8456 -0.8924 -0.6000
 7968SOL     OW35362   1.794   2.906   7.118  0.6345 -0.1588 -0.0829
 7968SOL    HW135363   1.813   2.926   7.026  2.5780  1.3948  0.6375
 7968SOL    HW235364   1.701   2.924   7.130  0.2676 -2.3587  0.3418
 7969SOL     OW35365   4.646   1.680   0.690 -0.3596 -0.0996 -0.3381
 7969SOL    HW135366   4.706   1.741   0.645  0.1437 -0.3986 -0.0786
 7969SOL    HW235367   4.596   1.658   0.612  2.4503 -0.2511 -2.1301
 7970SOL     OW35368   4.719   2.222  16.724  0.2110  0.0672  0.1599
 7970SOL    HW135369   0.076   2.205  16.772 -0.5785 -1.0311  1.0808
 7970SOL    HW235370   4.679   2.281  16.788  0.8302 -0.5513  1.1199
 7971SOL     OW35371   3.319   1.035   5.720 -0.4728 -0.2088  0.5421
 7971SOL    HW135372   3.294   1.107   5.778  0.7921  0.7166 -0.0732
 7971SOL    HW235373   3.292   1.057   5.630 -0.4127  3.0301  1.3107
 7972SOL     OW35374   1.291   2.262   5.270  0.3108 -0.2823 -0.1166
 7972SOL    HW135375   1.362   2.325   5.274 -1.3625  1.5834  0.6286
 7972SOL    HW235376   1.260   2.275   5.180 -2.6141  2.7588  1.3318
 7973SOL     OW35377   2.219   1.896  13.879 -0.4380 -0.1070 -0.2036
 7973SOL    HW135378   2.237   1.949  13.801  0.9648 -1.7163 -0.9592
 7973SOL    HW235379   2.126   1.889  13.853 -0.7125 -1.0074  1.0432
 7974SOL     OW35380   1.265   3.354  16.307 -0.0036 -0.4915  0.9134
 7974SOL    HW135381   1.233   3.342  16.396 -0.3373  1.5238  1.0690
 7974SOL    HW235382   1.226   3.275  16.268  0.6622 -0.8509  0.9743
 7975SOL     OW35383   0.181   2.668  10.418 -0.2076 -0.9435  0.5390
 7975SOL    HW135384   0.149   2.636  10.333 -0.0140 -0.0390  0.1210
 7975SOL    HW235385   0.277   2.659  10.417  0.0220  1.2643  0.9450
 7976SOL     OW35386   1.992   0.938   7.395  0.2282  0.0591  0.6239
 7976SOL    HW135387   2.009   0.973   7.482  2.0305  0.6352  0.0343
 7976SOL    HW235388   1.954   0.857   7.429  2.0249 -0.6742  0.8289
 7977SOL     OW35389   3.653   1.059   9.983 -0.2391  0.2272  0.6100
 7977SOL    HW135390   3.561   1.069  10.009 -0.8273 -0.6391 -1.1019
 7977SOL    HW235391   3.683   0.976  10.022  2.6767  2.3177  2.7544
 7978SOL     OW35392   2.795   1.177   9.245 -0.2916  0.1601  0.2424
 7978SOL    HW135393   2.704   1.191   9.270 -0.5827 -1.7930  0.3109
 7978SOL    HW235394   2.779   1.108   9.180 -1.7605  1.6843 -1.0155
 7979SOL     OW35395   0.962   2.609   7.632 -0.4548  0.5421  0.0641
 7979SOL    HW135396   0.922   2.568   7.555  1.0841 -1.5394  0.3759
 7979SOL    HW235397   1.047   2.640   7.601  0.5685 -1.1896  1.1613
 7980SOL     OW35398   4.539   1.763  15.495  0.4331  0.2638  0.5933
 7980SOL    HW135399   4.527   1.673  15.525  0.2481  0.0053 -0.2538
 7980SOL    HW235400   4.447   1.788  15.499  0.5727  0.6681  1.3045
 7981SOL     OW35401   3.430   3.290   9.505 -0.2319  0.2372  0.7082
 7981SOL    HW135402   3.386   3.206   9.512  0.6177 -0.3013 -0.3264
 7981SOL    HW235403   3.441   3.295   9.410  0.8740  2.1080  0.9368
 7982SOL     OW35404   1.251   3.676   8.368  0.7733 -0.8927  0.4708
 7982SOL    HW135405   1.187   3.606   8.384  1.6181 -1.0869  2.8428
 7982SOL    HW235406   1.209   3.761   8.381  0.7466 -0.5032 -2.0443
 7983SOL     OW35407   3.826   0.677   8.978 -0.2581  0.0222 -0.4338
 7983SOL    HW135408   3.799   0.630   8.898  3.6291 -0.4062 -1.4898
 7983SOL    HW235409   3.874   0.616   9.034 -0.8638  0.5256  0.6161
 7984SOL     OW35410   3.138   2.655   4.977 -0.2663  0.5197 -0.0113
 7984SOL    HW135411   3.047   2.670   5.003 -0.1889 -0.1393  0.6579
 7984SOL    HW235412   3.120   2.608   4.896  0.5052 -1.6748  1.0844
 7985SOL     OW35413   0.339   2.441   0.930  0.4018 -0.6547 -0.4003
 7985SOL    HW135414   0.307   2.529   0.910  1.6034 -0.0426  0.3790
 7985SOL    HW235415   0.280   2.409   0.998 -3.0685  1.2545 -2.5410
 7986SOL     OW35416   4.321   4.147  13.291  0.1704 -0.5121  0.0853
 7986SOL    HW135417   4.410   4.129  13.261  0.6250  0.2416  0.9708
 7986SOL    HW235418   4.294   4.063  13.326  3.3116 -0.6606  2.1274
 7987SOL     OW35419   3.650   2.813  16.087 -0.4920  0.5426 -0.1274
 7987SOL    HW135420   3.719   2.848  16.143 -0.3891 -0.3779  0.3144
 7987SOL    HW235421   3.582   2.835  16.150 -1.1421 -0.3543 -0.5277
 7988SOL     OW35422   0.602   4.279   3.191 -0.1305 -0.2812  0.5886
 7988SOL    HW135423   0.643   4.304   3.274 -1.3119 -2.4820  1.8387
 7988SOL    HW235424   0.636   4.344   3.129 -1.9769  0.7436  0.6466
 7989SOL     OW35425   1.180   1.474   2.951 -0.0248  0.1836 -0.6275
 7989SOL    HW135426   1.177   1.566   2.926  0.3123  0.4681  0.3876
 7989SOL    HW235427   1.259   1.477   3.004 -0.3389  1.8660 -0.2728
 7990SOL     OW35428   0.689   2.739   2.067  0.7821  0.0398 -0.2216
 7990SOL    HW135429   0.616   2.690   2.105 -0.4900  1.3354 -0.9875
 7990SOL    HW235430   0.667   2.830   2.087  0.1666 -0.0280 -0.5781
 7991SOL     OW35431   3.646   0.231   6.429 -0.5202  0.2012  0.5211
 7991SOL    HW135432   3.682   0.318   6.448  1.9009 -0.3039 -1.7435
 7991SOL    HW235433   3.573   0.260   6.375  0.4200 -0.0266 -0.8675
 7992SOL     OW35434   2.743   1.510   7.807 -0.2254  0.0113  0.0016
 7992SOL    HW135435   2.670   1.561   7.842  0.0834 -0.3893  1.2141
 7992SOL    HW235436   2.807   1.581   7.808 -0.8440  0.5110  3.1327
 7993SOL     OW35437   1.466   2.945   7.846  0.0524 -0.1334 -0.0248
 7993SOL    HW135438   1.373   2.969   7.843  0.3841  1.1226 -0.1729
 7993SOL    HW235439   1.502   3.032   7.862 -0.8286  0.2184  0.0407
 7994SOL     OW35440   1.344   1.413   0.534 -0.1290 -0.1254 -0.9062
 7994SOL    HW135441   1.348   1.341   0.471 -2.0729  0.6963 -1.9696
 7994SOL    HW235442   1.371   1.381   0.620 -0.7380  0.7753 -0.3851
 7995SOL     OW35443   1.627   4.454   3.445 -0.5408  0.1905  0.2991
 7995SOL    HW135444   1.675   4.524   3.400  1.8797 -2.2008 -0.8057
 7995SOL    HW235445   1.667   4.463   3.532 -1.1638 -1.8294  0.7864
 7996SOL     OW35446   1.302   1.626  15.368  0.1946  0.0251  0.4667
 7996SOL    HW135447   1.315   1.532  15.355  0.0569 -0.0621  0.9786
 7996SOL    HW235448   1.335   1.652  15.282  0.5828  0.2813  0.6905
 7997SOL     OW35449   1.520   0.592   1.364 -0.2618 -0.5544 -0.4575
 7997SOL    HW135450   1.517   0.500   1.339  3.4123 -0.9954  0.7625
 7997SOL    HW235451   1.428   0.618   1.368 -0.5541 -1.5558 -0.5853
 7998SOL     OW35452   1.617   3.593   7.460 -0.5409  0.3560 -0.2343
 7998SOL    HW135453   1.548   3.528   7.476 -1.9178  1.4927 -1.5896
 7998SOL    HW235454   1.603   3.613   7.368 -1.3348 -0.5510 -0.3173
 7999SOL     OW35455   4.211   1.789  16.370 -0.1412  0.0496 -0.0319
 7999SOL    HW135456   4.232   1.697  16.387 -2.1731 -0.5148 -0.6281
 7999SOL    HW235457   4.288   1.833  16.405 -1.5999  3.0494 -0.6465
 8000SOL     OW35458   3.791   1.149   9.699 -0.0672  0.4370 -0.2352
 8000SOL    HW135459   3.856   1.107   9.754 -0.6305 -0.7841 -0.5004
 8000SOL    HW235460   3.719   1.116   9.753 -0.1094  1.0638  0.0941
 8001SOL     OW35461   2.984   4.306  16.898  0.1816 -0.0491  0.1511
 8001SOL    HW135462   2.987   4.234  16.961  1.6105 -1.5365 -1.5781
 8001SOL    HW235463   2.989   4.253  16.818 -1.2419  0.4025 -0.2270
 8002SOL     OW35464   1.286   3.428   5.112 -0.2884 -0.0698 -0.0028
 8002SOL    HW135465   1.231   3.464   5.043 -0.1231 -1.2254 -0.7418
 8002SOL    HW235466   1.272   3.479   5.191 -2.9298 -0.0226 -0.5163
 8003SOL     OW35467   1.357   3.711  15.801 -0.3206 -0.4689  0.0150
 8003SOL    HW135468   1.415   3.671  15.866 -0.8215 -0.5331  0.4233
 8003SOL    HW235469   1.338   3.632  15.750 -1.0277 -1.4223  1.7545
 8004SOL     OW35470   2.050   0.861   8.280  0.0863 -0.0081  0.0725
 8004SOL    HW135471   2.072   0.777   8.239  0.2002  0.7532 -1.4416
 8004SOL    HW235472   2.132   0.867   8.328  0.7517  0.8283 -1.1468
 8005SOL     OW35473   4.283   4.013   6.234  0.3946  0.3064  0.4142
 8005SOL    HW135474   4.192   3.993   6.257 -0.7459  3.3774 -1.3868
 8005SOL    HW235475   4.289   3.973   6.148  0.1826 -0.3367  0.6962
 8006SOL     OW35476   1.024   2.304   3.408  0.2358 -0.3074  0.1861
 8006SOL    HW135477   0.997   2.278   3.496  2.1262 -2.0811  0.2446
 8006SOL    HW235478   0.975   2.385   3.396  0.2539 -0.6015 -1.7756
 8007SOL     OW35479   1.818   4.302   8.245 -0.0937  1.5107 -0.4823
 8007SOL    HW135480   1.888   4.362   8.270  1.8135 -1.2197  0.7378
 8007SOL    HW235481   1.795   4.256   8.326 -1.2075 -1.0703 -2.2710
 8008SOL     OW35482   1.637   3.362  13.168 -0.0888  0.6545 -0.3108
 8008SOL    HW135483   1.677   3.308  13.100 -2.0524  0.5233 -1.3778
 8008SOL    HW235484   1.548   3.386  13.140 -1.3419 -2.2260  1.2562
 8009SOL     OW35485   3.419   0.365  10.937  0.0535 -0.4010  0.3316
 8009SOL    HW135486   3.500   0.357  10.988 -0.2078 -1.4621  0.5731
 8009SOL    HW235487   3.398   0.459  10.940 -0.3015 -0.4668 -0.1075
 8010SOL     OW35488   1.863   2.565   4.740  0.5258 -0.1926  0.0843
 8010SOL    HW135489   1.833   2.513   4.815  1.1986 -1.3996 -0.4698
 8010SOL    HW235490   1.784   2.576   4.686 -0.5490 -2.1310  1.2713
 8011SOL     OW35491   1.274   1.527   5.076  0.5717  0.1473 -0.5156
 8011SOL    HW135492   1.277   1.607   5.129  0.5292  1.0341 -1.8511
 8011SOL    HW235493   1.180   1.512   5.071  0.7422 -0.9849 -0.4244
 8012SOL     OW35494   3.025   2.363   3.653 -0.5300 -0.0031 -0.3137
 8012SOL    HW135495   3.059   2.306   3.584 -1.0658 -0.5464 -0.1269
 8012SOL    HW235496   2.946   2.392   3.607  0.3534 -0.6012 -2.1988
 8013SOL     OW35497   1.439   0.780  13.887 -0.2560  0.5596  0.5460
 8013SOL    HW135498   1.524   0.736  13.896  0.3380  1.8993  1.7033
 8013SOL    HW235499   1.445   0.840  13.962 -2.6701 -0.8801  1.8570
 8014SOL     OW35500   2.563   2.415   2.306  0.4835  0.2566 -0.1130
 8014SOL    HW135501   2.575   2.461   2.223  1.1731 -0.9421 -0.6793
 8014SOL    HW235502   2.470   2.395   2.295 -0.0420  2.8198 -0.2267
 8015SOL     OW35503   4.292   1.594  13.405  0.5172  0.2257 -0.1286
 8015SOL    HW135504   4.201   1.567  13.413  0.7676 -0.0238  1.8046
 8015SOL    HW235505   4.309   1.560  13.317 -2.0230 -2.4277  0.4149
 8016SOL     OW35506   1.437   0.232   6.950 -0.9795  0.0894 -0.2009
 8016SOL    HW135507   1.345   0.211   6.932 -1.0981 -0.7811  1.3964
 8016SOL    HW235508   1.478   0.176   6.884  3.2549 -0.7496  3.1832
 8017SOL     OW35509   3.313   4.104   7.444 -0.4855  0.5656 -0.3341
 8017SOL    HW135510   3.343   4.050   7.517  0.1201  1.7917  0.3306
 8017SOL    HW235511   3.392   4.086   7.392 -1.3221 -2.5561 -0.5290
 8018SOL     OW35512   2.576   0.463  12.849 -0.5081 -0.4578 -0.0420
 8018SOL    HW135513   2.527   0.532  12.894  1.5081  0.9916 -0.0758
 8018SOL    HW235514   2.545   0.464  12.758 -0.4503  1.4526 -0.0393
 8019SOL     OW35515   1.483   3.483   6.706  0.6136 -0.0935  0.4573
 8019SOL    HW135516   1.401   3.512   6.667 -0.9067 -4.6468  0.2848
 8019SOL    HW235517   1.496   3.399   6.662 -1.4524 -0.7621  1.0945
 8020SOL     OW35518   0.909   4.586   3.823 -0.6546  0.1912 -0.6065
 8020SOL    HW135519   0.847   4.637   3.771 -0.1363 -0.1633 -1.5851
 8020SOL    HW235520   0.971   4.558   3.755 -0.2406  0.9180 -0.5262
 8021SOL     OW35521   2.128   0.502   2.442  0.1293 -0.2718 -0.3444
 8021SOL    HW135522   2.054   0.509   2.502  1.8259 -4.1979  2.1698
 8021SOL    HW235523   2.099   0.441   2.375  1.8677 -1.3542 -0.1077
 8022SOL     OW35524   1.291   2.581   4.129  0.1633 -0.2993 -0.3153
 8022SOL    HW135525   1.269   2.504   4.078  1.6325 -0.3203 -0.8958
 8022SOL    HW235526   1.276   2.646   4.060 -0.1684  0.9048  0.8808
 8023SOL     OW35527   3.700   4.681   1.756 -0.2471  0.4396  0.1050
 8023SOL    HW135528   3.640   4.646   1.691 -0.3488  0.7051  0.0581
 8023SOL    HW235529   3.635   4.698   1.824 -1.3920 -0.2594 -0.8374
 8024SOL     OW35530   4.662   0.538  14.929 -0.1356 -0.3088  0.1676
 8024SOL    HW135531   4.640   0.630  14.924 -2.4164 -0.9003 -0.7555
 8024SOL    HW235532   4.634   0.517  15.018 -0.1659  2.7330  0.8750
 8025SOL     OW35533   0.616   4.352   7.204 -0.5327 -0.2266 -0.6329
 8025SOL    HW135534   0.703   4.324   7.175 -0.8815 -1.0377 -0.8951
 8025SOL    HW235535   0.560   4.367   7.127 -1.6282 -1.7128 -0.1216
 8026SOL     OW35536   2.126   2.632   3.748  0.0808 -0.1931 -0.4566
 8026SOL    HW135537   2.051   2.626   3.807 -0.5844 -0.7249 -1.3498
 8026SOL    HW235538   2.082   2.603   3.668  0.0097 -0.2907 -0.3818
 8027SOL     OW35539   2.435   1.118   6.230 -0.1716  0.2288  0.0789
 8027SOL    HW135540   2.407   1.101   6.320  0.0108 -3.2138 -0.4998
 8027SOL    HW235541   2.402   1.033   6.199  0.8944 -1.0227  2.3540
 8028SOL     OW35542   2.336   0.695  13.425 -0.0542  0.1548  0.0693
 8028SOL    HW135543   2.316   0.771  13.480 -0.1792  0.8860 -0.9798
 8028SOL    HW235544   2.395   0.643  13.478 -0.9281 -0.8892  0.0125
 8029SOL     OW35545   1.935   3.005  16.098 -0.2099  0.0880 -0.7482
 8029SOL    HW135546   2.025   2.978  16.115 -1.0445 -2.6512 -0.5401
 8029SOL    HW235547   1.940   3.099  16.114  2.2534 -0.0123 -0.9083
 8030SOL     OW35548   4.226   3.520   1.609  0.1599  0.4316 -0.1784
 8030SOL    HW135549   4.197   3.570   1.685  0.1348 -0.9455  0.7043
 8030SOL    HW235550   4.272   3.593   1.567 -0.1236  1.4573  1.2806
 8031SOL     OW35551   2.709   4.545   8.763 -0.1797  0.4587  0.4093
 8031SOL    HW135552   2.621   4.580   8.746  0.1569  1.1875  0.1762
 8031SOL    HW235553   2.686   4.496   8.842  1.7814 -0.4143  0.4402
 8032SOL     OW35554   2.344   0.424   4.298 -0.3341  0.7013  0.0596
 8032SOL    HW135555   2.397   0.411   4.219 -0.4512  0.1081  0.0759
 8032SOL    HW235556   2.375   0.511   4.323  1.5800  0.2825 -0.8939
 8033SOL     OW35557   0.628   4.294  10.887 -0.2651 -0.1461  0.6543
 8033SOL    HW135558   0.671   4.378  10.901  0.6843 -0.7853  1.5652
 8033SOL    HW235559   0.612   4.267  10.978 -2.2026 -4.4999 -0.9773
 8034SOL     OW35560   0.205   4.101   3.358  0.1334  0.4747  0.4718
 8034SOL    HW135561   0.134   4.062   3.308 -0.9416  1.7267  1.0221
 8034SOL    HW235562   0.160   4.184   3.376 -1.6950 -0.3548 -0.3909
 8035SOL     OW35563   3.295   3.570   4.391  0.7879 -0.0478  0.1141
 8035SOL    HW135564   3.246   3.551   4.310  0.8614 -0.0821  0.0776
 8035SOL    HW235565   3.229   3.556   4.458  0.0044 -1.2807 -0.9150
 8036SOL     OW35566   1.423   2.790   6.123 -0.4836  0.5227  0.3985
 8036SOL    HW135567   1.373   2.872   6.115  0.7130  1.4164  2.0935
 8036SOL    HW235568   1.459   2.800   6.211  0.8745 -0.9819  0.0155
 8037SOL     OW35569   0.063   0.005   8.298 -0.0869 -0.1196  0.3568
 8037SOL    HW135570   0.115   0.036   8.372  1.6749 -0.3485 -0.7915
 8037SOL    HW235571   0.101   0.066   8.236  1.0707 -0.2499  0.9325
 8038SOL     OW35572   2.115   0.195  15.780 -0.3253  0.4513 -0.0246
 8038SOL    HW135573   2.145   0.286  15.775  0.4128  0.2228  0.2093
 8038SOL    HW235574   2.202   0.155  15.784 -0.0092  1.1765  0.4009
 8039SOL     OW35575   1.796   4.224   3.372 -0.4235  0.0828 -0.5115
 8039SOL    HW135576   1.790   4.229   3.468 -0.0270 -0.6097 -0.4536
 8039SOL    HW235577   1.727   4.284   3.344  0.5578  0.0675 -2.9370
 8040SOL     OW35578   0.779   3.553  16.142  0.3165 -0.1984  0.0273
 8040SOL    HW135579   0.754   3.622  16.203 -0.4851  0.4379 -1.0128
 8040SOL    HW235580   0.793   3.481  16.204 -0.9922  0.8289  1.5050
 8041SOL     OW35581   4.413   2.317   4.814  0.5784  0.3808 -0.3202
 8041SOL    HW135582   4.416   2.222   4.802 -1.7132  0.1420  1.0579
 8041SOL    HW235583   4.387   2.363   4.734  0.8147  1.0906  0.0142
 8042SOL     OW35584   0.408   0.951   4.881 -0.2215 -0.6212  0.0971
 8042SOL    HW135585   0.383   1.012   4.950 -2.1224 -1.4450  0.1431
 8042SOL    HW235586   0.325   0.960   4.835 -0.2381 -1.7967 -0.1001
 8043SOL     OW35587   4.522   4.230   6.934  0.2251 -0.6835  0.7277
 8043SOL    HW135588   4.494   4.174   6.862  1.6191 -0.3094 -0.0941
 8043SOL    HW235589   4.437   4.257   6.969  0.5955  2.2056 -0.5728
 8044SOL     OW35590   4.134   3.432   4.539 -0.7159  0.9384  0.3261
 8044SOL    HW135591   4.219   3.401   4.507 -0.6643  1.3031  0.1046
 8044SOL    HW235592   4.162   3.514   4.581  0.9956  1.7852 -2.4816
 8045SOL     OW35593   1.166   1.741  13.815  0.4441 -0.5666 -0.4310
 8045SOL    HW135594   1.174   1.747  13.910 -1.6374  0.3770 -0.3024
 8045SOL    HW235595   1.129   1.653  13.806 -0.2524 -0.4558  1.2959
 8046SOL     OW35596   1.141   2.331  14.514  0.1779  0.3874  0.0142
 8046SOL    HW135597   1.226   2.373  14.498  0.0562  0.4106 -0.5750
 8046SOL    HW235598   1.168   2.284  14.593  4.0190  0.7435 -1.0621
 8047SOL     OW35599   4.573   1.263   8.375  0.0729  0.3533 -0.0484
 8047SOL    HW135600   4.577   1.312   8.457 -0.0032  1.7000 -0.8525
 8047SOL    HW235601   4.517   1.322   8.325  0.3836  1.2684  0.6683
 8048SOL     OW35602   3.977   3.906   4.045 -0.0189 -0.1791  0.2983
 8048SOL    HW135603   4.058   3.946   4.014  0.0743 -0.7556 -0.2085
 8048SOL    HW235604   3.922   3.982   4.026  1.0531  0.1919 -1.3071
 8049SOL     OW35605   2.494   3.627   4.117 -0.8205  0.2829  0.6046
 8049SOL    HW135606   2.555   3.560   4.084 -0.6807  0.4131  0.5961
 8049SOL    HW235607   2.421   3.565   4.112  0.2322 -0.6834 -3.2050
 8050SOL     OW35608   2.769   1.847   9.073 -0.0049 -0.3435 -0.6758
 8050SOL    HW135609   2.864   1.859   9.076 -0.3745  2.7582 -2.2064
 8050SOL    HW235610   2.746   1.939   9.086 -3.3080 -0.8458 -3.0134
 8051SOL     OW35611   4.268   1.685  12.261 -0.1227 -0.7474  0.3976
 8051SOL    HW135612   4.287   1.669  12.353  1.0476  1.0565  0.4702
 8051SOL    HW235613   4.263   1.591  12.241 -2.4284  0.2269 -3.8433
 8052SOL     OW35614   0.806   0.350  11.537  0.0011 -0.4491 -0.4547
 8052SOL    HW135615   0.751   0.273  11.521 -1.7230  0.3056  1.9320
 8052SOL    HW235616   0.807   0.352  11.633 -0.6073  0.3957 -0.4710
 8053SOL     OW35617   0.990   3.730  10.533 -0.0724  0.3387  0.7236
 8053SOL    HW135618   1.049   3.796  10.498 -0.1033  0.2476  0.4988
 8053SOL    HW235619   0.931   3.773  10.595  0.5997  0.2346  1.4447
 8054SOL     OW35620   1.277   0.037   7.375  0.3292 -0.0478  0.3288
 8054SOL    HW135621   1.271   0.129   7.349 -1.8734  0.0945  1.3864
 8054SOL    HW235622   1.227   0.007   7.299 -0.4035  3.3471 -0.5254
 8055SOL     OW35623   3.426   3.228   2.254 -0.1484  0.2004 -0.4727
 8055SOL    HW135624   3.422   3.136   2.228 -1.5083 -0.0857  0.7491
 8055SOL    HW235625   3.333   3.251   2.244  0.0412  0.8494 -0.7621
 8056SOL     OW35626   2.169   3.487   5.497  0.3080  0.1257  0.0330
 8056SOL    HW135627   2.131   3.497   5.410  1.1066 -3.8034 -0.7973
 8056SOL    HW235628   2.128   3.554   5.551 -1.0410 -0.2744 -0.5005
 8057SOL     OW35629   0.557   4.210   3.775 -0.6405 -0.8515  0.2980
 8057SOL    HW135630   0.497   4.253   3.836 -0.1212  1.1797 -0.6164
 8057SOL    HW235631   0.513   4.223   3.691  0.0996 -1.6600 -0.2131
 8058SOL     OW35632   3.556   2.676   8.557 -0.1720 -0.1123  0.3981
 8058SOL    HW135633   3.520   2.764   8.549  1.5438  0.4656 -0.7753
 8058SOL    HW235634   3.493   2.633   8.499  0.3658 -1.9686  1.1853
 8059SOL     OW35635   1.280   4.436   2.618 -0.3242 -0.2184  0.5401
 8059SOL    HW135636   1.200   4.429   2.566 -0.2894  0.9349  0.3219
 8059SOL    HW235637   1.342   4.409   2.550  0.1260  0.2310  0.7689
 8060SOL     OW35638   0.750   2.115  11.877  0.1668 -0.0095 -0.1927
 8060SOL    HW135639   0.743   2.079  11.789 -2.0442  0.0446 -0.0424
 8060SOL    HW235640   0.758   2.044  11.940 -0.0383 -1.2724 -1.5992
 8061SOL     OW35641   1.954   2.260   0.608  0.2921 -0.1938 -0.5962
 8061SOL    HW135642   1.983   2.326   0.671 -0.6554 -0.9156  0.6122
 8061SOL    HW235643   1.863   2.249   0.637 -0.6745  2.2457 -2.7284
 8062SOL     OW35644   3.788   0.225   3.164 -0.0702  0.1472  0.5770
 8062SOL    HW135645   3.860   0.287   3.147  0.2223  0.4200  2.7686
 8062SOL    HW235646   3.809   0.190   3.251 -1.2336 -2.2582 -0.1246
 8063SOL     OW35647   3.246   4.289   1.964  0.1050  0.1544 -0.5203
 8063SOL    HW135648   3.286   4.372   1.992  1.6940  0.0656 -2.4956
 8063SOL    HW235649   3.154   4.301   1.989  0.3895 -3.6258  2.3172
 8064SOL     OW35650   1.980   4.232   3.077 -0.1862 -0.2092 -0.1426
 8064SOL    HW135651   1.898   4.186   3.061  0.4593 -1.5616  0.4975
 8064SOL    HW235652   1.991   4.214   3.171 -1.9781 -0.5493 -0.0045
 8065SOL     OW35653   4.654   1.011  16.314 -0.1448 -0.3814  0.0815
 8065SOL    HW135654   0.002   1.020  16.250 -1.0644  1.4140 -0.6963
 8065SOL    HW235655   4.658   0.923  16.352 -1.5575 -0.5323 -0.1139
 8066SOL     OW35656   0.809   3.317  15.468  0.1298 -0.0520 -0.0390
 8066SOL    HW135657   0.880   3.358  15.419 -0.5235 -2.3992 -2.8874
 8066SOL    HW235658   0.829   3.227  15.443  2.5776  0.2179  0.9364
 8067SOL     OW35659   2.062   1.038  16.435  0.1587  0.3960 -0.1156
 8067SOL    HW135660   2.106   1.112  16.478  1.0880 -0.1209 -0.1718
 8067SOL    HW235661   2.090   1.049  16.344  2.2165 -0.0535  0.4750
 8068SOL     OW35662   3.914   4.441  10.138 -0.6337 -0.3487 -0.0548
 8068SOL    HW135663   3.901   4.360  10.088 -1.1333 -0.6283  0.5233
 8068SOL    HW235664   3.895   4.409  10.226 -0.2544  0.2406  0.2404
 8069SOL     OW35665   3.578   2.010   2.437  0.5863  0.4601 -0.8545
 8069SOL    HW135666   3.612   2.084   2.488 -3.0579  1.1641  0.5302
 8069SOL    HW235667   3.527   1.961   2.502  3.0297 -2.3003 -1.0030
 8070SOL     OW35668   1.806   2.686   9.481 -0.1349  0.5342  0.0968
 8070SOL    HW135669   1.843   2.757   9.428 -0.8736  1.5343  0.9381
 8070SOL    HW235670   1.744   2.741   9.529 -1.3764 -0.7992  0.0235
 8071SOL     OW35671   4.472   3.846  13.165  0.5835  0.2441  0.1621
 8071SOL    HW135672   4.384   3.837  13.202  0.5095  2.5946  0.5257
 8071SOL    HW235673   4.526   3.829  13.243  1.3040 -1.7156 -0.7449
 8072SOL     OW35674   3.545   1.934   0.129  0.1850 -0.0108 -0.0406
 8072SOL    HW135675   3.625   1.965   0.173 -0.4177 -0.0709  1.0872
 8072SOL    HW235676   3.564   1.943   0.036 -1.6842  0.9657 -0.3077
 8073SOL     OW35677   0.475   2.822   4.665 -0.2518 -0.4210  0.4040
 8073SOL    HW135678   0.518   2.891   4.715  2.3493 -1.6841 -0.1229
 8073SOL    HW235679   0.503   2.746   4.716  2.3365  0.9681  1.0027
 8074SOL     OW35680   1.557   4.417   8.296  0.3129  0.7107  0.1329
 8074SOL    HW135681   1.563   4.469   8.376  3.8906  1.9107 -0.8837
 8074SOL    HW235682   1.640   4.374   8.273 -0.1076  1.2509 -2.4605
 8075SOL     OW35683   2.524   3.220   7.194 -0.7190 -0.1937  0.0671
 8075SOL    HW135684   2.505   3.130   7.219 -0.3783 -0.7113 -1.4816
 8075SOL    HW235685   2.534   3.216   7.098 -2.1329 -0.2558 -0.0778
 8076SOL     OW35686   3.242   0.064   9.900 -0.1604  0.3150 -0.3254
 8076SOL    HW135687   3.270   0.054   9.991  1.4627  1.0789 -0.7417
 8076SOL    HW235688   3.295   4.715   9.867 -0.1800 -0.7334  1.9906
 8077SOL     OW35689   0.239   3.952   8.341 -0.0398 -0.6583  0.4333
 8077SOL    HW135690   0.310   3.895   8.371  0.9462  0.8082  0.9108
 8077SOL    HW235691   0.167   3.889   8.344  0.9455 -1.7676  0.6076
 8078SOL     OW35692   3.405   0.991   4.597 -0.1754 -0.3578  0.2044
 8078SOL    HW135693   3.375   1.081   4.585  1.0545  0.1236  0.6662
 8078SOL    HW235694   3.364   0.970   4.680 -1.4766  1.7824  0.0956
 8079SOL     OW35695   3.831   1.432   1.557 -0.7966  0.8242  0.1114
 8079SOL    HW135696   3.901   1.496   1.545  0.9486 -1.4097 -1.7415
 8079SOL    HW235697   3.860   1.359   1.502  1.4350  0.5683  1.6114
 8080SOL     OW35698   1.527   3.325   0.469  0.3290  0.0532  0.0288
 8080SOL    HW135699   1.507   3.239   0.432  2.7812  0.3073 -1.9043
 8080SOL    HW235700   1.523   3.303   0.562  1.8024 -0.5335 -0.0405
 8081SOL     OW35701   3.364   0.273   2.817  0.2203  0.4015  0.1916
 8081SOL    HW135702   3.289   0.314   2.775  1.0740  1.0610 -0.6893
 8081SOL    HW235703   3.417   0.269   2.737 -0.3055  0.6541 -0.1641
 8082SOL     OW35704   4.690   4.036   5.691  0.4814 -0.1525 -0.1468
 8082SOL    HW135705   4.621   4.047   5.625 -2.5279 -0.4273  2.9654
 8082SOL    HW235706   4.631   4.036   5.766  0.5170 -3.7587 -0.0942
 8083SOL     OW35707   4.534   4.027   6.307 -0.1564  0.7546  0.0201
 8083SOL    HW135708   4.449   3.988   6.287 -0.0588 -0.2843  1.6128
 8083SOL    HW235709   4.580   4.031   6.224 -2.1585 -1.4518 -1.1628
 8084SOL     OW35710   2.804   2.226   5.855  0.2427 -0.0192  0.6490
 8084SOL    HW135711   2.743   2.256   5.923 -0.0105  0.2086  0.3231
 8084SOL    HW235712   2.817   2.313   5.817  1.1435 -0.9014 -1.0618
 8085SOL     OW35713   1.219   3.904   1.407  0.1596  0.1774  0.3003
 8085SOL    HW135714   1.242   3.994   1.382 -1.3869  0.2688 -0.8211
 8085SOL    HW235715   1.278   3.869   1.340  1.7735  1.1569  1.2186
 8086SOL     OW35716   3.521   0.305   1.752  0.0992 -0.4313 -0.6262
 8086SOL    HW135717   3.460   0.336   1.685  0.4427  0.7575 -0.3998
 8086SOL    HW235718   3.598   0.293   1.697 -0.8496 -2.0858 -1.5965
 8087SOL     OW35719   4.385   0.040   8.944 -0.5564  0.1718  0.0846
 8087SOL    HW135720   4.433   4.696   8.992  1.1843  1.6987  0.5237
 8087SOL    HW235721   4.370   4.717   8.862  1.2975  1.5432 -1.0372
 8088SOL     OW35722   3.609   2.806   2.861  0.2304 -0.0299  0.0083
 8088SOL    HW135723   3.618   2.824   2.767 -0.0938 -0.4404 -0.1044
 8088SOL    HW235724   3.517   2.785   2.875 -0.3619  2.3192 -0.3390
 8089SOL     OW35725   1.370   3.261   2.646  0.4426  0.6752 -0.7689
 8089SOL    HW135726   1.411   3.347   2.650 -0.1832  0.9797 -0.9871
 8089SOL    HW235727   1.375   3.249   2.741 -0.4821 -0.3124 -0.8359
 8090SOL     OW35728   2.792   0.814   7.802  0.9035  0.2839 -0.6761
 8090SOL    HW135729   2.845   0.788   7.878  0.5023 -0.2499 -0.5762
 8090SOL    HW235730   2.724   0.747   7.808  0.1415  1.3042  2.4493
 8091SOL     OW35731   3.892   4.424  10.837 -0.1149 -0.1792 -0.1851
 8091SOL    HW135732   3.918   4.385  10.754 -2.5548  0.6938 -1.3355
 8091SOL    HW235733   3.797   4.419  10.834 -0.2169  2.6627 -1.5661
 8092SOL     OW35734   0.820   1.135   2.482  0.1825 -0.3026  0.3733
 8092SOL    HW135735   0.848   1.227   2.489  0.5578 -0.4099  0.2962
 8092SOL    HW235736   0.891   1.100   2.534  1.7697  0.5666 -1.1890
 8093SOL     OW35737   2.336   2.649   6.422 -0.4477  0.0686 -0.0946
 8093SOL    HW135738   2.397   2.630   6.494  0.2017  1.1660 -0.3631
 8093SOL    HW235739   2.291   2.727   6.454  2.6728  2.3513 -1.2774
 8094SOL     OW35740   1.764   0.306   7.006  0.0281  0.8697  0.0147
 8094SOL    HW135741   1.821   0.375   7.040  3.1112 -1.9463  0.5607
 8094SOL    HW235742   1.712   0.273   7.079  0.4629  0.3160  0.0682
 8095SOL     OW35743   4.157   4.134   4.584 -0.4676  0.0860  0.2569
 8095SOL    HW135744   4.149   4.060   4.644  2.5526 -0.8931 -0.5493
 8095SOL    HW235745   4.142   4.206   4.646 -0.0286  0.2752  0.1425
 8096SOL     OW35746   2.644   4.558  15.390  0.2924 -0.1875  0.0015
 8096SOL    HW135747   2.579   4.513  15.337 -0.8594  1.6993 -0.2162
 8096SOL    HW235748   2.619   4.651  15.394 -0.9367 -0.5373  0.2942
 8097SOL     OW35749   1.442   3.198   6.878 -0.0552 -0.1283 -0.1995
 8097SOL    HW135750   1.399   3.279   6.907  0.4059  0.6082 -1.6133
 8097SOL    HW235751   1.369   3.136   6.880  1.7068 -2.2060 -0.3811
 8098SOL     OW35752   0.024   2.188   7.559  0.2113 -0.0930  0.0908
 8098SOL    HW135753   0.062   2.237   7.632 -1.7288  1.3114  0.1351
 8098SOL    HW235754   0.042   2.098   7.586  1.5168 -0.1545 -0.9594
 8099SOL     OW35755   4.357   0.351   8.872 -0.4157  0.0262 -0.0301
 8099SOL    HW135756   4.413   0.281   8.905 -0.1045  0.9526  1.4145
 8099SOL    HW235757   4.317   0.387   8.951 -0.0296 -2.4074  1.2583
 8100SOL     OW35758   2.299   0.999   7.335  0.0600 -0.1235 -0.4344
 8100SOL    HW135759   2.244   0.928   7.367 -0.0631 -1.1105 -2.8780
 8100SOL    HW235760   2.367   0.994   7.402 -1.1650 -1.6302  0.6749
 8101SOL     OW35761   1.559   2.876  12.781  0.7583 -0.1306 -0.1056
 8101SOL    HW135762   1.569   2.831  12.865 -1.4900  1.0106  0.7603
 8101SOL    HW235763   1.624   2.946  12.790  0.2318  0.4895 -1.1847
 8102SOL     OW35764   3.242   2.388   1.055  0.0526 -0.1841  0.0103
 8102SOL    HW135765   3.297   2.310   1.051 -0.8844 -0.8629  0.2785
 8102SOL    HW235766   3.165   2.357   1.102 -0.2948 -1.7247 -1.5777
 8103SOL     OW35767   4.281   2.179   7.914 -0.2033 -0.3665  0.1349
 8103SOL    HW135768   4.317   2.160   7.828  0.0044  3.3448 -0.5851
 8103SOL    HW235769   4.198   2.216   7.886  0.0922 -0.9502 -1.4691
 8104SOL     OW35770   0.125   3.483   0.612  0.3048  0.3166 -0.0193
 8104SOL    HW135771   0.053   3.439   0.657 -1.5132  1.7844 -1.5015
 8104SOL    HW235772   0.093   3.573   0.615  1.5177  0.6933  1.4957
 8105SOL     OW35773   0.158   3.120   0.872  0.0740 -0.4939  0.3378
 8105SOL    HW135774   0.076   3.148   0.914 -0.6425  1.0904 -2.1482
 8105SOL    HW235775   0.196   3.059   0.935  1.2831 -0.6538 -0.5572
 8106SOL     OW35776   3.332   0.207   8.554  0.5532  0.2243  0.5028
 8106SOL    HW135777   3.333   0.273   8.624  0.8845  0.2375  0.4816
 8106SOL    HW235778   3.257   0.156   8.585  0.0901  0.7685  0.2892
 8107SOL     OW35779   0.567   0.303   5.830  0.2286  0.2606  0.1151
 8107SOL    HW135780   0.523   0.271   5.751  0.7178 -1.0972  0.4017
 8107SOL    HW235781   0.503   0.282   5.897 -1.2783 -0.8100 -1.6408
 8108SOL     OW35782   4.195   1.341   9.745  0.1736 -0.2430  0.0634
 8108SOL    HW135783   4.104   1.368   9.735  1.1220  3.3935  1.5707
 8108SOL    HW235784   4.242   1.421   9.722 -0.9927  0.3244 -0.3572
 8109SOL     OW35785   3.669   1.250  11.303 -0.1154  0.0031  0.1054
 8109SOL    HW135786   3.591   1.246  11.358  0.1112  0.0531  0.4313
 8109SOL    HW235787   3.745   1.252  11.360 -0.5605  0.8758  0.6627
 8110SOL     OW35788   1.766   0.318   6.292 -0.0792  0.1420 -0.1992
 8110SOL    HW135789   1.729   0.306   6.379  0.6188  0.2847  0.1178
 8110SOL    HW235790   1.796   0.228   6.276 -1.8654 -0.4586 -0.1413
 8111SOL     OW35791   4.101   4.383   5.937 -0.4181 -0.0653 -0.1254
 8111SOL    HW135792   4.081   4.456   5.995 -1.2367  0.7892 -1.4913
 8111SOL    HW235793   4.079   4.431   5.857 -0.7395 -0.5947 -0.3523
 8112SOL     OW35794   1.073   0.719   3.700  0.3632 -0.5191 -0.2866
 8112SOL    HW135795   1.073   0.703   3.794  1.0134 -0.0707 -0.2109
 8112SOL    HW235796   1.103   0.635   3.664 -0.4119 -0.7327 -0.4416
 8113SOL     OW35797   4.121   1.042   4.577 -0.3447  0.2587 -0.7263
 8113SOL    HW135798   4.056   1.071   4.642  0.2034 -1.6933  0.6883
 8113SOL    HW235799   4.084   1.075   4.495  0.5268  0.6707 -0.9512
 8114SOL     OW35800   2.682   0.089  16.844 -0.1045  0.0382 -0.4002
 8114SOL    HW135801   2.626   0.155  16.804 -0.3012  1.0454  1.5363
 8114SOL    HW235802   2.741   0.142  16.898 -0.0694  0.7551 -1.1342
 8115SOL     OW35803   4.628   1.554  10.570  0.2869  0.3408 -0.6170
 8115SOL    HW135804   4.608   1.464  10.545 -1.7903  0.1415  1.8137
 8115SOL    HW235805   4.689   1.544  10.644  1.3405 -0.9712 -1.6735
 8116SOL     OW35806   3.242   2.415   1.361  0.1481  0.0400 -0.0574
 8116SOL    HW135807   3.200   2.438   1.443 -1.8526 -2.7793 -0.2840
 8116SOL    HW235808   3.171   2.369   1.315 -1.2807  1.6734  0.5233
 8117SOL     OW35809   3.270   1.221   2.185  0.1022 -0.0061  0.1351
 8117SOL    HW135810   3.281   1.147   2.244  0.6241  0.4136  0.5642
 8117SOL    HW235811   3.221   1.282   2.242 -0.5303  0.7342 -1.1844
 8118SOL     OW35812   3.821   4.670   5.771 -1.0272  0.0729 -0.0777
 8118SOL    HW135813   3.806   0.010   5.840  1.6506  2.3252 -1.5357
 8118SOL    HW235814   3.843   0.005   5.698  1.7549 -1.3529 -0.3784
 8119SOL     OW35815   4.298   2.170   0.694 -0.2173 -0.3585 -0.2387
 8119SOL    HW135816   4.336   2.152   0.780 -2.1723 -0.0613  0.7015
 8119SOL    HW235817   4.369   2.220   0.656  0.9720 -1.3065  0.7241
 8120SOL     OW35818   1.456   2.344   5.594  0.2306 -0.3006 -0.3923
 8120SOL    HW135819   1.391   2.414   5.583  2.0033  1.3792 -0.2668
 8120SOL    HW235820   1.528   2.399   5.624  2.0495 -2.8128 -0.1871
 8121SOL     OW35821   1.820   2.621  11.928 -0.3730 -0.3215 -0.1707
 8121SOL    HW135822   1.871   2.643  11.850  0.6757 -0.8897  0.3530
 8121SOL    HW235823   1.873   2.659  11.998  0.2894 -1.7586  0.1093
 8122SOL     OW35824   3.758   2.457  11.292 -0.0345 -0.1844  0.2603
 8122SOL    HW135825   3.711   2.484  11.213 -1.9187  0.4908  1.6212
 8122SOL    HW235826   3.733   2.529  11.349  0.1624 -0.4112  0.6356
 8123SOL     OW35827   1.625   3.968  15.246 -0.3559  0.2403 -0.1173
 8123SOL    HW135828   1.588   3.983  15.159  0.1736 -1.1134 -0.5628
 8123SOL    HW235829   1.687   3.896  15.238  0.4046  0.5247  3.1661
 8124SOL     OW35830   1.128   1.372  17.375  0.3138 -0.3866  0.2660
 8124SOL    HW135831   1.174   1.303  17.328  0.8290  1.4195 -1.8743
 8124SOL    HW235832   1.128   1.343  17.467 -0.7402 -1.8407 -0.2012
 8125SOL     OW35833   2.213   1.993  13.633 -0.1879  0.0926  0.2461
 8125SOL    HW135834   2.224   1.908  13.589 -0.9853 -0.4950  1.1838
 8125SOL    HW235835   2.239   2.048  13.559 -2.8141  1.6013  0.4736
 8126SOL     OW35836   1.264   1.129   9.149  0.4318 -0.5828 -0.4259
 8126SOL    HW135837   1.248   1.195   9.082  1.0424 -0.1948 -0.1897
 8126SOL    HW235838   1.307   1.056   9.104  1.5449 -0.3533  0.2571
 8127SOL     OW35839   2.171   1.761   3.335  0.7748 -0.0051 -0.6021
 8127SOL    HW135840   2.156   1.713   3.254  2.3772 -0.7294 -0.4760
 8127SOL    HW235841   2.204   1.844   3.301 -1.2993  1.2808  0.5802
 8128SOL     OW35842   2.875   2.185   3.051  0.0935  0.2692  0.5720
 8128SOL    HW135843   2.856   2.215   2.962  1.0580  0.9023  0.5829
 8128SOL    HW235844   2.954   2.134   3.039  0.6811  0.7748  2.2522
 8129SOL     OW35845   3.616   1.089  12.625  0.1824  0.0668  0.2953
 8129SOL    HW135846   3.700   1.080  12.670  1.1001  0.3766 -1.3547
 8129SOL    HW235847   3.583   0.999  12.625 -0.7463  0.4050  1.0122
 8130SOL     OW35848   3.678   2.543   3.616  0.3922 -0.0081 -0.4362
 8130SOL    HW135849   3.760   2.587   3.591 -0.9572  2.8868  0.2786
 8130SOL    HW235850   3.663   2.587   3.700  1.0623 -0.4395 -0.0862
 8131SOL     OW35851   3.217   0.692   9.132  0.6899  0.2298 -0.0253
 8131SOL    HW135852   3.286   0.629   9.153 -0.7749 -1.0054  1.0004
 8131SOL    HW235853   3.170   0.695   9.215 -2.9086 -0.6404 -2.0240
 8132SOL     OW35854   2.094   0.550   5.905  0.4298  0.5076  0.1146
 8132SOL    HW135855   2.169   0.506   5.865  2.7828  2.2672  2.5936
 8132SOL    HW235856   2.040   0.471   5.907 -2.7935  2.5986 -3.0251
 8133SOL     OW35857   3.160   3.556  15.160  0.6479 -0.1192  0.3547
 8133SOL    HW135858   3.079   3.588  15.120  0.3949 -1.0827  0.1011
 8133SOL    HW235859   3.198   3.500  15.093  0.2540 -1.1097  0.9730
 8134SOL     OW35860   0.022   3.077   0.606 -0.2510 -0.3928 -0.4195
 8134SOL    HW135861   0.090   3.062   0.541  0.5431 -1.1302  0.5775
 8134SOL    HW235862   0.072   3.089   0.687 -3.9051 -1.0256  1.9663
 8135SOL     OW35863   3.658   4.674   3.305  0.8885 -0.4470  0.0509
 8135SOL    HW135864   3.592   4.694   3.371  2.7976 -1.4420  2.2584
 8135SOL    HW235865   3.638   4.583   3.283 -0.7995  0.2439 -1.2847
 8136SOL     OW35866   0.532   4.304   6.906 -0.0195 -0.2919 -0.7178
 8136SOL    HW135867   0.462   4.331   6.847  0.4537  0.0455 -1.1344
 8136SOL    HW235868   0.500   4.223   6.945 -0.1108  0.1490  0.1097
 8137SOL     OW35869   3.665   4.222   5.475 -0.4197  0.2500  0.4504
 8137SOL    HW135870   3.726   4.295   5.487  1.6786 -1.0500 -2.2572
 8137SOL    HW235871   3.583   4.258   5.509 -2.7649 -3.3211 -1.4739
 8138SOL     OW35872   1.734   1.246   7.589  0.0588 -0.1820 -0.6195
 8138SOL    HW135873   1.722   1.275   7.679 -2.1859 -0.6210 -0.7688
 8138SOL    HW235874   1.756   1.330   7.548  0.8956 -0.6892 -1.2242
 8139SOL     OW35875   1.949   3.587   1.113 -0.0693 -0.0547  0.2144
 8139SOL    HW135876   1.982   3.602   1.201  1.3398  0.1117 -0.3331
 8139SOL    HW235877   1.992   3.506   1.086  0.9881  0.9707 -1.1828
 8140SOL     OW35878   4.067   1.341   1.387  0.1413  0.0348  0.8227
 8140SOL    HW135879   4.125   1.416   1.374  0.1299 -0.0819  0.0880
 8140SOL    HW235880   4.118   1.305   1.460  0.3086  1.0681  1.2086
 8141SOL     OW35881   1.418   4.377  10.182 -0.0598  0.6334 -0.4252
 8141SOL    HW135882   1.328   4.358  10.208 -0.4121  2.5588 -0.2756
 8141SOL    HW235883   1.460   4.296  10.213  2.5135  1.7814 -0.8587
 8142SOL     OW35884   1.711   2.163  11.203  0.4064  0.9442  0.6206
 8142SOL    HW135885   1.791   2.137  11.249 -1.2035 -1.9135  1.8068
 8142SOL    HW235886   1.647   2.179  11.272 -0.8471  0.8917 -0.5435
 8143SOL     OW35887   4.045   4.270   4.280  0.0936  0.4601  0.1520
 8143SOL    HW135888   3.988   4.212   4.330  0.7901 -0.3490  0.0006
 8143SOL    HW235889   4.084   4.318   4.354 -3.1446  1.2251  1.3634
 8144SOL     OW35890   3.300   4.694  10.500  0.3802  0.1079  0.5274
 8144SOL    HW135891   3.208   4.716  10.493  0.3088 -1.0957 -2.1393
 8144SOL    HW235892   3.311   0.003  10.590 -0.4650 -0.7406  0.9343
 8145SOL     OW35893   3.890   2.327   1.013  0.1415  0.0998 -0.1030
 8145SOL    HW135894   3.967   2.368   0.975 -0.5130  1.7715  0.3697
 8145SOL    HW235895   3.854   2.395   1.070  2.8757  0.6611  0.9165
 8146SOL     OW35896   2.127   2.613  13.295 -0.2079  0.0064  0.0991
 8146SOL    HW135897   2.053   2.558  13.269  0.7954 -0.7134 -1.2344
 8146SOL    HW235898   2.193   2.545  13.283 -0.7505 -0.8467  1.9666
 8147SOL     OW35899   1.806   1.311   4.813 -0.2409  0.2488 -0.6877
 8147SOL    HW135900   1.727   1.289   4.863  1.7299 -4.1602  0.4529
 8147SOL    HW235901   1.792   1.271   4.728 -2.4361 -1.1263  0.3056
 8148SOL     OW35902   1.528   2.436   7.391  0.4155  0.4153 -0.1337
 8148SOL    HW135903   1.453   2.408   7.444  2.0178  0.7789  2.3034
 8148SOL    HW235904   1.590   2.477   7.452 -1.2410  0.9935  1.1716
 8149SOL     OW35905   1.067   2.385   8.667 -0.1047  0.1454 -0.4025
 8149SOL    HW135906   1.119   2.443   8.723 -0.0894  0.1195 -0.3901
 8149SOL    HW235907   1.067   2.427   8.581  3.3401  0.3237 -0.3127
 8150SOL     OW35908   1.327   1.248   6.524 -0.0817 -1.2844  0.3177
 8150SOL    HW135909   1.417   1.227   6.551 -0.5614 -1.3061  1.8817
 8150SOL    HW235910   1.317   1.335   6.562  0.0636 -1.5728  1.0086
 8151SOL     OW35911   0.524   1.910   7.482 -0.1068 -0.0189  0.9349
 8151SOL    HW135912   0.491   1.845   7.544 -0.7803 -0.2552  0.3328
 8151SOL    HW235913   0.582   1.968   7.532  0.7227 -1.6154  1.8436
 8152SOL     OW35914   3.282   0.397   5.362 -0.0609  0.0986 -0.0986
 8152SOL    HW135915   3.232   0.401   5.443 -0.7440  0.6654 -0.5520
 8152SOL    HW235916   3.218   0.424   5.297 -0.9061  0.1776  0.7727
 8153SOL     OW35917   3.798   3.965   9.724  0.1739  0.3918 -0.1333
 8153SOL    HW135918   3.781   3.871   9.726 -1.5566  0.6042 -4.5265
 8153SOL    HW235919   3.732   4.020   9.767 -0.0750  0.1606 -0.2225
 8154SOL     OW35920   2.414   4.290   8.246 -0.7350  0.1739 -0.0453
 8154SOL    HW135921   2.398   4.340   8.167  0.8749  0.6184 -0.0940
 8154SOL    HW235922   2.406   4.204   8.205  2.6802 -0.7233  1.1633
 8155SOL     OW35923   1.220   3.572   5.326  0.4330  0.2586  0.3939
 8155SOL    HW135924   1.239   3.666   5.313  1.2819  0.1210  0.6197
 8155SOL    HW235925   1.131   3.574   5.293  0.2199  1.7498  1.0355
 8156SOL     OW35926   3.140   1.654   1.521 -0.0912 -0.2797  0.1152
 8156SOL    HW135927   3.181   1.573   1.553 -2.0819 -1.4334 -0.2436
 8156SOL    HW235928   3.158   1.710   1.596 -1.1319  0.9415 -0.5500
 8157SOL     OW35929   3.921   0.586   9.832  0.1136  0.0891  0.5619
 8157SOL    HW135930   3.975   0.546   9.764 -0.2050  1.1748 -0.3279
 8157SOL    HW235931   3.932   0.675   9.799  0.0394 -0.5850 -1.2359
 8158SOL     OW35932   1.282   0.084  14.199 -0.5817 -0.0166 -0.2862
 8158SOL    HW135933   1.314   0.002  14.238 -0.0015  1.3092  1.9753
 8158SOL    HW235934   1.195   0.083  14.240 -0.4836 -1.5716 -0.1108
 8159SOL     OW35935   0.013   3.535   6.770 -0.3259  0.1314 -0.5943
 8159SOL    HW135936   0.043   3.579   6.690  2.0091 -1.0399 -0.3782
 8159SOL    HW235937   0.093   3.533   6.822 -0.4376 -1.3490 -0.4903
 8160SOL     OW35938   1.780   1.390   6.630 -0.1749  0.2297 -0.0113
 8160SOL    HW135939   1.717   1.348   6.570 -0.5259 -1.1056  1.3130
 8160SOL    HW235940   1.719   1.437   6.688 -0.7562 -1.1406  0.4779
 8161SOL     OW35941   4.238   0.649   3.282 -0.6756 -0.2834 -0.2044
 8161SOL    HW135942   4.327   0.646   3.319 -0.5994 -0.0771 -0.3682
 8161SOL    HW235943   4.255   0.634   3.189 -1.0449 -0.1788 -0.2877
 8162SOL     OW35944   0.030   0.844  10.554 -0.5526  0.1947 -0.1793
 8162SOL    HW135945   4.702   0.771  10.587  0.1088  0.7045  1.9849
 8162SOL    HW235946   0.087   0.867  10.628  1.0820  1.5560 -1.8445
 8163SOL     OW35947   1.298   1.291   3.245  0.3014  0.2113  0.0306
 8163SOL    HW135948   1.243   1.269   3.169  0.5416  2.2133 -0.7286
 8163SOL    HW235949   1.291   1.216   3.303  0.3833  0.2024  0.0291
 8164SOL     OW35950   1.579   0.068  16.937 -0.0648 -0.7530 -0.3582
 8164SOL    HW135951   1.660   0.114  16.956 -0.3967  0.5717 -2.1022
 8164SOL    HW235952   1.613   4.712  16.896  1.3312 -0.3734  0.0903
 8165SOL     OW35953   0.296   1.706   7.500  0.4037 -0.1970 -0.7822
 8165SOL    HW135954   0.353   1.645   7.453 -1.8584 -2.6865 -0.2865
 8165SOL    HW235955   0.281   1.657   7.581  0.7624 -0.7272 -1.0326
 8166SOL     OW35956   3.386   1.809   8.031 -0.2434  0.1897 -0.5443
 8166SOL    HW135957   3.357   1.750   7.961 -1.5162 -0.1160  0.2325
 8166SOL    HW235958   3.303   1.846   8.061  0.1928 -1.2713  2.4559
 8167SOL     OW35959   3.198   0.540  15.811  0.4863  0.0514  0.2013
 8167SOL    HW135960   3.184   0.465  15.753 -0.5477 -1.6090  2.5987
 8167SOL    HW235961   3.264   0.586  15.759  0.5818  0.4314  0.6550
 8168SOL     OW35962   3.743   2.289   7.777  0.1264  0.2763 -0.3835
 8168SOL    HW135963   3.760   2.355   7.844  1.9265  0.1776 -0.7407
 8168SOL    HW235964   3.659   2.315   7.738  2.0298  4.2362 -1.8503
 8169SOL     OW35965   2.844   4.334   3.899 -0.3129 -0.5090 -0.2167
 8169SOL    HW135966   2.933   4.301   3.910  0.4430  1.9374  1.1268
 8169SOL    HW235967   2.862   4.416   3.946 -1.0478 -1.5930  1.9571
 8170SOL     OW35968   3.625   3.458  13.045  0.4370 -0.2542  0.0194
 8170SOL    HW135969   3.719   3.476  13.044  0.3577  0.1168 -0.6244
 8170SOL    HW235970   3.631   3.369  13.080 -0.9270 -0.5669 -0.5333
 8171SOL     OW35971   1.851   1.423  13.317 -0.7821 -0.0740  0.3209
 8171SOL    HW135972   1.763   1.425  13.355  0.5893 -1.4171  3.6583
 8171SOL    HW235973   1.866   1.334  13.351 -0.2235 -1.1270 -2.6544
 8172SOL     OW35974   2.961   3.173   2.058  0.0420  0.0521  0.1103
 8172SOL    HW135975   2.963   3.109   2.130  1.1480 -0.9167 -0.7934
 8172SOL    HW235976   2.903   3.126   1.998  0.7891 -0.0647 -0.5197
 8173SOL     OW35977   0.611   0.129   3.923  0.3620  0.1650  0.0376
 8173SOL    HW135978   0.674   0.180   3.871 -2.2411  1.7363 -1.6346
 8173SOL    HW235979   0.596   0.058   3.860 -1.0851 -2.7704  3.7000
 8174SOL     OW35980   2.924   0.390   2.489 -0.5554  0.0906 -0.3531
 8174SOL    HW135981   2.847   0.445   2.504 -1.2859 -1.0702  0.2026
 8174SOL    HW235982   2.891   0.340   2.414  3.2378  0.0073 -1.9793
 8175SOL     OW35983   2.811   4.245  14.219 -0.3179  0.1623 -0.2288
 8175SOL    HW135984   2.892   4.283  14.254 -0.1867 -0.1584 -0.1926
 8175SOL    HW235985   2.743   4.311  14.237 -0.2534  0.2728 -0.3802
 8176SOL     OW35986   3.923   1.675   0.962 -0.3220  0.1607 -0.4957
 8176SOL    HW135987   3.994   1.611   0.968 -2.1565 -1.7915  0.3748
 8176SOL    HW235988   3.943   1.717   0.878  1.8406  0.6390  0.2636
 8177SOL     OW35989   3.824   1.065   3.649  0.2734 -0.5494  0.3517
 8177SOL    HW135990   3.849   1.104   3.733  2.4120 -3.0327  0.8729
 8177SOL    HW235991   3.837   0.971   3.663  0.0140 -0.2484  2.6702
 8178SOL     OW35992   0.914   2.001   5.664  0.1443 -0.0135 -0.5178
 8178SOL    HW135993   0.847   2.055   5.622 -0.9880 -0.8313  0.2481
 8178SOL    HW235994   0.990   2.052   5.634 -0.3409 -0.6087 -2.8004
 8179SOL     OW35995   3.768   2.971   8.520  0.3651  0.0917  0.8502
 8179SOL    HW135996   3.828   2.912   8.474 -0.9958 -0.4711 -0.2092
 8179SOL    HW235997   3.682   2.942   8.490 -0.0088  2.0491  0.0476
 8180SOL     OW35998   0.530   3.803   0.053 -0.7381 -0.1854 -0.1909
 8180SOL    HW135999   0.439   3.790   0.026 -0.5810  0.9331 -1.2548
 8180SOL    HW236000   0.553   3.719   0.093 -1.1334 -0.7378 -1.1348
 8181SOL     OW36001   3.262   2.501  11.178  0.2144 -0.1574  0.0035
 8181SOL    HW136002   3.252   2.509  11.273 -1.2781 -1.6457 -0.0239
 8181SOL    HW236003   3.322   2.571  11.152 -0.9292  0.4577 -1.0167
 8182SOL     OW36004   1.032   1.762  13.325 -0.1328  0.1055  0.0955
 8182SOL    HW136005   0.980   1.726  13.253 -2.2046  1.2139  1.0408
 8182SOL    HW236006   0.969   1.785  13.394  0.7707 -1.8613  1.5682
 8183SOL     OW36007   1.726   0.733   4.899  0.3640  0.1669 -0.2392
 8183SOL    HW136008   1.739   0.722   4.993  0.9937  1.6102 -0.1671
 8183SOL    HW236009   1.812   0.772   4.885 -0.1584  1.7448  1.0224
 8184SOL     OW36010   3.910   1.360   2.920 -0.1498  0.5705  0.1842
 8184SOL    HW136011   3.818   1.336   2.903 -0.0394  0.0281  0.3514
 8184SOL    HW236012   3.919   1.444   2.874  0.5553 -0.2313 -1.1218
 8185SOL     OW36013   3.211   3.939   8.974  0.1080 -0.0612 -0.0328
 8185SOL    HW136014   3.241   4.026   8.947  0.7095 -0.1331  0.4209
 8185SOL    HW236015   3.155   3.967   9.046 -2.1304  0.3336 -1.9136
 8186SOL     OW36016   0.686   3.754   4.571  1.0733  0.1578 -0.2029
 8186SOL    HW136017   0.613   3.732   4.514  0.4517  3.0809 -0.5371
 8186SOL    HW236018   0.751   3.684   4.565  0.7680 -0.2517  1.2285
 8187SOL     OW36019   3.154   0.757   8.015 -0.3753 -0.0748  0.3410
 8187SOL    HW136020   3.145   0.842   7.972  0.6636 -0.8390 -1.3698
 8187SOL    HW236021   3.190   0.783   8.101  1.0691 -1.4317  0.1523
 8188SOL     OW36022   2.746   1.306   1.793 -0.3911 -0.0213 -0.4630
 8188SOL    HW136023   2.669   1.324   1.847 -1.2379 -1.7848 -1.0999
 8188SOL    HW236024   2.736   1.376   1.728 -0.4223 -0.0943 -0.5357
 8189SOL     OW36025   0.989   0.502  11.666  0.0560  0.0418  0.0819
 8189SOL    HW136026   0.911   0.524  11.717  1.1202 -0.0993  1.7661
 8189SOL    HW236027   1.053   0.564  11.702  0.3147  0.4837 -1.1332
 8190SOL     OW36028   3.959   4.316  10.593 -0.1187  0.6226 -0.3995
 8190SOL    HW136029   3.952   4.275  10.506  0.8197 -1.7181  0.6396
 8190SOL    HW236030   3.993   4.401  10.564 -0.9043  1.0494 -0.1008
 8191SOL     OW36031   2.240   2.729   2.475 -0.0839  0.8750  0.2052
 8191SOL    HW136032   2.262   2.794   2.542  0.0486  1.3552 -0.3154
 8191SOL    HW236033   2.168   2.768   2.426  0.7204  2.1657  0.0539
 8192SOL     OW36034   0.648   1.021  14.335 -0.5369 -0.6079  0.1428
 8192SOL    HW136035   0.731   1.010  14.288 -0.5455 -0.9699  0.2163
 8192SOL    HW236036   0.654   0.941  14.388 -1.0034  1.1492  2.8716
 8193SOL     OW36037   3.521   1.750   6.082 -0.5849 -0.2456 -0.1755
 8193SOL    HW136038   3.518   1.654   6.081  1.1245 -0.3268  2.4047
 8193SOL    HW236039   3.432   1.769   6.111  0.1345  1.3566  1.0263
 8194SOL     OW36040   1.234   1.034   4.736 -0.0400 -0.5680  0.3978
 8194SOL    HW136041   1.231   0.978   4.658 -0.0535 -1.4313  1.0203
 8194SOL    HW236042   1.201   0.972   4.800  1.1070  0.8392  2.3644
 8195SOL     OW36043   2.397   2.396   5.833  0.0639  0.1010  0.1386
 8195SOL    HW136044   2.472   2.432   5.786  0.6106  0.7411  1.5027
 8195SOL    HW236045   2.398   2.305   5.803  1.0806  0.1209  0.1156
 8196SOL     OW36046   4.131   3.039   1.670  0.3962  0.5898 -0.0356
 8196SOL    HW136047   4.102   3.016   1.758 -0.8072  0.3353 -0.4920
 8196SOL    HW236048   4.094   3.127   1.667 -0.8666  0.1573  2.4526
 8197SOL     OW36049   0.296   0.697   2.518 -0.6489 -0.0937  0.2754
 8197SOL    HW136050   0.377   0.691   2.568 -0.2212  0.3660 -0.3687
 8197SOL    HW236051   0.238   0.743   2.579  2.1072  1.7455  1.4629
 8198SOL     OW36052   4.657   3.013   7.646  0.0593  0.0633  0.6718
 8198SOL    HW136053   4.608   3.066   7.583 -0.0770 -1.5732 -0.6007
 8198SOL    HW236054   4.703   3.082   7.694 -0.4913  0.1415  1.0954
 8199SOL     OW36055   1.836   4.590  15.462 -0.1167 -0.2074  0.3527
 8199SOL    HW136056   1.830   4.529  15.536  2.6787 -3.4037 -2.0895
 8199SOL    HW236057   1.762   4.648  15.479  0.1456 -0.1173  1.1868
 8200SOL     OW36058   4.637   3.321   4.419 -0.4795 -0.0746  0.3136
 8200SOL    HW136059   4.657   3.240   4.465 -0.9538 -0.8187 -0.7961
 8200SOL    HW236060   4.641   3.291   4.328 -0.7606 -1.7273  0.8454
 8201SOL     OW36061   2.227   2.893   8.055 -0.5553 -0.6112  0.3587
 8201SOL    HW136062   2.250   2.818   7.999 -0.8850 -1.2196  1.0397
 8201SOL    HW236063   2.292   2.884   8.125  0.8309  0.5278 -0.7854
 8202SOL     OW36064   4.386   2.124   7.675  0.6111  0.3418 -0.1629
 8202SOL    HW136065   4.384   2.173   7.593 -1.5824 -0.1664 -0.4087
 8202SOL    HW236066   4.460   2.066   7.660 -1.2152 -1.7876 -0.8916
 8203SOL     OW36067   3.091   2.219  12.327 -0.3952 -0.6442  0.5533
 8203SOL    HW136068   3.135   2.297  12.362 -0.1224 -0.8440  0.6507
 8203SOL    HW236069   3.073   2.171  12.408  2.3153  0.6636  1.9394
 8204SOL     OW36070   2.103   4.719  13.845  0.4676 -0.8010 -0.0114
 8204SOL    HW136071   2.124   0.081  13.808  1.8951 -1.2917 -0.3520
 8204SOL    HW236072   2.121   0.000  13.939  0.7633  0.1024 -0.1153
 8205SOL     OW36073   3.442   4.227  12.256  0.2946  0.1757 -0.4356
 8205SOL    HW136074   3.417   4.198  12.168 -0.9394 -0.5621  0.1696
 8205SOL    HW236075   3.535   4.245  12.243  0.3764  0.3839  0.4421
 8206SOL     OW36076   0.130   2.369   3.307  0.3924 -0.3350  0.5768
 8206SOL    HW136077   0.206   2.398   3.257  1.0290 -0.9117  1.1977
 8206SOL    HW236078   0.117   2.279   3.276  0.0367  0.3539 -1.2292
 8207SOL     OW36079   1.533   0.410   8.300 -0.1052  0.5278 -0.1514
 8207SOL    HW136080   1.456   0.378   8.347 -0.4584 -0.6532 -1.5552
 8207SOL    HW236081   1.600   0.390   8.365  0.9756  3.1544 -0.4342
 8208SOL     OW36082   3.381   2.368   7.210 -0.3069 -0.0250 -0.3889
 8208SOL    HW136083   3.329   2.292   7.181 -0.0107 -0.4933  0.3194
 8208SOL    HW236084   3.472   2.337   7.207 -0.8649 -1.7595  0.3846
 8209SOL     OW36085   4.242   1.684  12.538  0.3134  1.0644  0.4724
 8209SOL    HW136086   4.221   1.626  12.612  1.5388 -0.2018 -0.1852
 8209SOL    HW236087   4.289   1.758  12.576 -1.4126  2.5107 -0.1738
 8210SOL     OW36088   2.455   2.875  12.642 -0.4270 -0.0736  0.4530
 8210SOL    HW136089   2.493   2.933  12.576 -0.7185  1.7449  1.8705
 8210SOL    HW236090   2.531   2.832  12.679 -0.2686  1.5482  2.0107
 8211SOL     OW36091   0.611   2.563  11.365 -0.0487  0.3215 -0.4830
 8211SOL    HW136092   0.654   2.630  11.313 -0.5161  0.9755 -0.0215
 8211SOL    HW236093   0.557   2.523  11.296  2.3236 -1.4894 -1.3091
 8212SOL     OW36094   1.683   3.132   9.423  0.1415 -0.5645 -0.1763
 8212SOL    HW136095   1.772   3.113   9.451  0.7843  3.1205  0.1828
 8212SOL    HW236096   1.703   3.181   9.343 -3.9892 -0.5049 -1.2158
 8213SOL     OW36097   2.998   3.369   9.531 -0.1870  0.4730  0.1298
 8213SOL    HW136098   2.989   3.289   9.583 -3.0903  0.6315 -0.1307
 8213SOL    HW236099   3.041   3.334   9.453 -0.9309  0.2728 -0.1929
 8214SOL     OW36100   2.663   2.453   0.680 -0.6111  0.0730 -0.0405
 8214SOL    HW136101   2.618   2.370   0.699 -1.1181  0.2750 -0.3542
 8214SOL    HW236102   2.716   2.471   0.757  0.7487 -2.5050 -0.3775
 8215SOL     OW36103   0.659   2.657   1.746  0.0950  0.2125 -0.0156
 8215SOL    HW136104   0.703   2.728   1.699  0.3869  0.2548  0.3266
 8215SOL    HW236105   0.713   2.642   1.823  0.2262  1.5256  0.1323
 8216SOL     OW36106   2.134   2.505   7.887  0.3900 -0.1157 -0.4001
 8216SOL    HW136107   2.082   2.428   7.868  0.7574 -0.2478 -0.8827
 8216SOL    HW236108   2.071   2.577   7.885 -1.9480 -2.2029 -1.3331
 8217SOL     OW36109   0.158   2.411   1.157  0.2953 -0.3631  0.2149
 8217SOL    HW136110   0.212   2.404   1.236  1.9712  2.3900 -0.6752
 8217SOL    HW236111   0.100   2.335   1.163  1.4412 -1.2959 -0.4780
 8218SOL     OW36112   1.270   2.639   4.400  0.7674 -0.3751  0.1848
 8218SOL    HW136113   1.296   2.611   4.313 -1.2260  0.4390 -0.6786
 8218SOL    HW236114   1.295   2.731   4.397  0.1123 -0.2053  0.0433
 8219SOL     OW36115   0.058   4.721  14.181  0.6311  0.4216 -0.5670
 8219SOL    HW136116   0.119   4.705  14.109  1.7055 -0.6817  0.5949
 8219SOL    HW236117   0.017   4.638  14.206 -1.5124  1.5858 -0.1900
 8220SOL     OW36118   1.451   3.255  13.794  0.0513 -0.5555  0.1279
 8220SOL    HW136119   1.539   3.246  13.756  1.0191  2.2174  1.7934
 8220SOL    HW236120   1.420   3.335  13.751 -0.4366 -0.6221  0.3548
 8221SOL     OW36121   3.421   1.538   2.947  0.1322  0.2354  0.4687
 8221SOL    HW136122   3.487   1.575   3.006  2.6932 -1.8803 -1.0770
 8221SOL    HW236123   3.473   1.543   2.866 -2.0993  1.3926 -0.8999
 8222SOL     OW36124   4.390   0.574   7.609  0.3595  0.0854  0.6447
 8222SOL    HW136125   4.297   0.561   7.591  0.8422  0.6606 -2.2737
 8222SOL    HW236126   4.389   0.669   7.619  2.6213  0.2602 -0.8129
 8223SOL     OW36127   3.491   4.320   4.543 -0.2627  0.4121 -0.3201
 8223SOL    HW136128   3.583   4.344   4.551  0.0007 -0.2353 -1.3109
 8223SOL    HW236129   3.447   4.397   4.579  1.5316  0.3940  1.9156
 8224SOL     OW36130   1.603   1.778   3.414  0.3161  0.7566  0.3171
 8224SOL    HW136131   1.604   1.810   3.324 -0.8592 -1.6351 -0.5509
 8224SOL    HW236132   1.635   1.857   3.457 -0.7812  1.9239 -0.9945
 8225SOL     OW36133   2.732   3.874   2.380  0.1249 -0.2800  0.0989
 8225SOL    HW136134   2.756   3.934   2.450  1.2018 -0.8055  0.1801
 8225SOL    HW236135   2.637   3.884   2.384  0.1503 -0.0668  0.1294
 8226SOL     OW36136   2.668   0.545  11.656 -0.3518 -0.0939 -0.2144
 8226SOL    HW136137   2.598   0.544  11.721 -0.8049 -2.1927 -0.7422
 8226SOL    HW236138   2.668   0.638  11.634  0.0416 -0.3261 -1.1914
 8227SOL     OW36139   3.130   2.492   9.686 -0.2859 -0.0572 -0.0866
 8227SOL    HW136140   3.194   2.459   9.623 -1.3935 -1.4797 -0.4799
 8227SOL    HW236141   3.172   2.473   9.770  1.2647 -1.8910 -1.2499
 8228SOL     OW36142   3.775   0.379  16.051 -0.1917 -0.0447 -0.2843
 8228SOL    HW136143   3.828   0.448  16.013  1.1790 -0.6717  0.4698
 8228SOL    HW236144   3.789   0.393  16.145  0.2555 -0.1882 -0.3287
 8229SOL     OW36145   1.835   0.510   2.066 -0.5368 -0.1063  0.1439
 8229SOL    HW136146   1.752   0.555   2.083 -1.1613 -1.1544 -0.1540
 8229SOL    HW236147   1.811   0.432   2.016 -2.5661  1.0442 -0.6496
 8230SOL     OW36148   4.689   0.201   7.483 -0.3555 -0.2350 -0.2165
 8230SOL    HW136149   0.043   0.235   7.438 -0.6015  1.4124  0.6356
 8230SOL    HW236150   4.634   0.277   7.462 -0.3185  0.1111  0.9618
 8231SOL     OW36151   1.825   3.486   3.844 -0.9345 -0.2690 -0.4104
 8231SOL    HW136152   1.752   3.514   3.900  1.7515  1.6180  2.1228
 8231SOL    HW236153   1.826   3.393   3.865  0.2153 -0.2860 -0.5451
 8232SOL     OW36154   3.812   1.467   8.182 -0.6684  0.0336 -0.0835
 8232SOL    HW136155   3.874   1.395   8.176 -0.8784 -0.1657  0.1658
 8232SOL    HW236156   3.787   1.459   8.274 -1.9270 -0.5805 -0.4876
 8233SOL     OW36157   2.601   2.611   9.745  0.7019  0.5743  0.1039
 8233SOL    HW136158   2.554   2.530   9.727  0.4715  0.6958  0.1583
 8233SOL    HW236159   2.690   2.582   9.765  0.6354 -0.1769 -0.7006
 8234SOL     OW36160   4.406   1.910   8.075 -0.2155 -0.5076  0.2449
 8234SOL    HW136161   4.488   1.914   8.025 -1.8053 -3.0581 -2.5547
 8234SOL    HW236162   4.345   1.958   8.019  0.7715 -1.2926 -1.5214
 8235SOL     OW36163   1.605   4.078  11.610 -0.2226 -0.3864  0.1114
 8235SOL    HW136164   1.620   4.004  11.669 -0.3695 -0.1880  0.3949
 8235SOL    HW236165   1.689   4.081  11.565  0.4382  0.7620  1.4200
 8236SOL     OW36166   2.821   2.830   5.252 -0.6915  0.3517  0.2124
 8236SOL    HW136167   2.770   2.911   5.261  0.6309  1.1250  0.6749
 8236SOL    HW236168   2.779   2.769   5.312 -1.5475 -1.4833 -2.2736
 8237SOL     OW36169   1.753   1.488   9.357  0.4210  0.0256  0.1410
 8237SOL    HW136170   1.728   1.403   9.322  2.8932 -0.4851 -0.3817
 8237SOL    HW236171   1.752   1.468   9.451  0.5202 -0.5868  0.0094
 8238SOL     OW36172   0.782   4.434  13.830  0.3647 -0.5900 -0.6382
 8238SOL    HW136173   0.816   4.457  13.916 -0.1421 -0.9019 -0.3575
 8238SOL    HW236174   0.840   4.360  13.817  1.2801  0.5672 -3.1204
 8239SOL     OW36175   0.059   3.848  11.603  0.2919  0.0326  0.2624
 8239SOL    HW136176   0.152   3.843  11.625  0.6766 -0.9585 -1.6171
 8239SOL    HW236177   0.074   3.909  11.531  2.6377 -2.1408 -1.0783
 8240SOL     OW36178   2.163   3.025   9.062  0.3256 -0.1102 -0.3975
 8240SOL    HW136179   2.213   3.022   9.144 -2.8228  0.9060  1.5506
 8240SOL    HW236180   2.191   2.945   9.018 -0.6504 -0.4263 -0.4514
 8241SOL     OW36181   2.770   2.905   8.951 -0.6161 -0.3145 -0.2618
 8241SOL    HW136182   2.807   2.889   9.038  2.2946 -0.4962 -1.5484
 8241SOL    HW236183   2.742   2.817   8.924  2.1105 -2.3093  3.4612
 8242SOL     OW36184   0.408   0.633   5.431 -0.1477  0.3996  0.2996
 8242SOL    HW136185   0.353   0.555   5.430  0.1884  0.1474  1.9556
 8242SOL    HW236186   0.454   0.625   5.515  2.5551 -0.8644 -1.2818
 8243SOL     OW36187   3.697   1.902   4.027 -0.1963 -0.0047  0.4661
 8243SOL    HW136188   3.649   1.890   3.944  1.4463  0.9463 -0.6122
 8243SOL    HW236189   3.766   1.838   4.039 -0.4699  0.0702  2.3909
 8244SOL     OW36190   3.466   1.350  12.327 -0.0135  0.2848 -0.4249
 8244SOL    HW136191   3.481   1.445  12.323 -1.0348  0.5157  1.4698
 8244SOL    HW236192   3.551   1.309  12.312 -0.0917 -0.4772  1.3028
 8245SOL     OW36193   4.573   4.418   8.867  0.8048  0.1383  0.4639
 8245SOL    HW136194   4.509   4.485   8.891 -1.6866 -1.5667 -1.3902
 8245SOL    HW236195   4.594   4.372   8.949  1.0748 -0.3725  0.1119
 8246SOL     OW36196   1.862   0.339  10.712 -0.1112 -0.1030  0.6615
 8246SOL    HW136197   1.817   0.258  10.736  0.9393 -0.7494  0.4421
 8246SOL    HW236198   1.793   0.393  10.750  0.3310 -0.7313  2.3376
 8247SOL     OW36199   3.227   3.826   7.156  0.0739  0.4091 -0.2228
 8247SOL    HW136200   3.292   3.765   7.121  1.2909  0.6680  1.5552
 8247SOL    HW236201   3.272   3.909   7.137 -1.9700  1.4923 -0.3094
 8248SOL     OW36202   4.559   3.773   2.798 -0.3747  0.5960  0.2296
 8248SOL    HW136203   4.538   3.865   2.782 -2.2194  0.3810  1.3985
 8248SOL    HW236204   4.590   3.772   2.888 -0.9663  1.1030  0.4362
 8249SOL     OW36205   1.091   4.071   2.409  0.0033  0.1188  0.1317
 8249SOL    HW136206   1.038   4.074   2.488  0.5179  0.7154  0.4587
 8249SOL    HW236207   1.110   3.977   2.411  1.2191  0.3821  0.7985
 8250SOL     OW36208   2.593   0.910   4.555 -0.2916  0.0820 -0.8476
 8250SOL    HW136209   2.535   0.914   4.632  1.0357 -0.7875  0.1914
 8250SOL    HW236210   2.669   0.948   4.599  0.1887 -0.1416 -1.4780
 8251SOL     OW36211   2.228   2.926   4.991  0.3950 -0.1181 -0.5840
 8251SOL    HW136212   2.313   2.909   5.030  0.4282  0.6196 -0.3342
 8251SOL    HW236213   2.213   2.845   4.942 -1.9873 -0.9912  1.5853
 8252SOL     OW36214   1.001   2.517   5.501  0.1171  0.6079  0.7675
 8252SOL    HW136215   0.984   2.470   5.583  0.8473 -1.7259 -0.4384
 8252SOL    HW236216   1.003   2.442   5.441 -1.6370  1.1794  0.0021
 8253SOL     OW36217   3.347   0.212   9.376  0.3412 -0.6514  0.3682
 8253SOL    HW136218   3.254   0.192   9.386  1.1481 -2.3532  4.4179
 8253SOL    HW236219   3.377   0.147   9.312 -1.7898 -0.2278 -1.0470
 8254SOL     OW36220   3.054   4.182   7.329  0.7408  0.4948  0.4422
 8254SOL    HW136221   3.149   4.188   7.333  0.8989 -2.2715  0.5864
 8254SOL    HW236222   3.036   4.126   7.405  1.6772 -0.9934 -0.4566
 8255SOL     OW36223   1.909   0.408  17.044 -0.5572  0.5166  0.1010
 8255SOL    HW136224   1.997   0.442  17.026  0.3111 -0.9943  1.5096
 8255SOL    HW236225   1.862   0.472  16.990 -1.6177  0.5777  1.1155
 8256SOL     OW36226   3.429   1.077   7.448 -0.2610  0.0019  0.0184
 8256SOL    HW136227   3.490   1.135   7.492 -2.3382 -0.2261  3.2099
 8256SOL    HW236228   3.418   0.999   7.502 -0.5997  0.2509  0.3095
 8257SOL     OW36229   0.268   2.185  17.220  0.3915 -0.0199 -0.7334
 8257SOL    HW136230   0.359   2.172  17.249 -0.6306 -1.0159  2.0697
 8257SOL    HW236231   0.220   2.118  17.270  0.6187  0.2363 -0.1703
 8258SOL     OW36232   2.170   2.304   9.450 -0.3708 -0.0677  0.0534
 8258SOL    HW136233   2.181   2.286   9.543  1.3796  2.5155  0.3535
 8258SOL    HW236234   2.256   2.340   9.428 -0.8207  0.0640 -1.5024
 8259SOL     OW36235   0.784   4.207   6.949 -0.0542 -0.2505  0.6862
 8259SOL    HW136236   0.766   4.140   6.884  3.8522  0.3517 -1.0181
 8259SOL    HW236237   0.696   4.244   6.939  0.6220  1.7776  2.0594
 8260SOL     OW36238   3.995   3.890  13.093  0.0547  0.9087  0.3096
 8260SOL    HW136239   3.932   3.888  13.021 -0.7942 -3.6720  1.1721
 8260SOL    HW236240   4.037   3.807  13.071 -3.8650 -1.1520  0.6086
 8261SOL     OW36241   0.506   0.006   2.047  0.0829  0.2168  0.4726
 8261SOL    HW136242   0.532   0.058   2.122  1.8369 -0.0435  0.0540
 8261SOL    HW236243   0.482   4.640   2.071 -0.2958  0.8839  2.5297
 8262SOL     OW36244   3.005   1.565  14.528  0.7030 -0.1682  0.6203
 8262SOL    HW136245   3.034   1.575  14.618 -1.9324  1.7515  1.2473
 8262SOL    HW236246   2.930   1.512  14.553 -0.2607 -0.1252 -2.1996
 8263SOL     OW36247   2.568   3.493  11.693 -0.2941 -0.0991  0.3869
 8263SOL    HW136248   2.626   3.423  11.665 -1.4870 -0.5912 -0.8770
 8263SOL    HW236249   2.491   3.445  11.725 -0.9553 -0.5184 -1.8867
 8264SOL     OW36250   3.101   4.168   4.394 -0.1275  0.2451  1.2108
 8264SOL    HW136251   3.015   4.143   4.359  1.2658 -0.5928 -1.5986
 8264SOL    HW236252   3.082   4.154   4.487 -1.7461  0.2177  0.8876
 8265SOL     OW36253   4.223   0.692   5.708 -0.2340  0.2431 -0.1350
 8265SOL    HW136254   4.186   0.779   5.694 -0.0501  0.1636 -1.0752
 8265SOL    HW236255   4.173   0.654   5.636 -0.8502 -0.3183  0.5797
 8266SOL     OW36256   1.014   0.944  17.239 -0.1747  0.3727 -0.0034
 8266SOL    HW136257   1.022   0.911  17.328  0.8609 -2.3303 -1.1060
 8266SOL    HW236258   0.967   1.025  17.260  0.5424  1.0812 -1.1281
 8267SOL     OW36259   3.794   1.781   1.654  0.3722  0.1401 -0.1503
 8267SOL    HW136260   3.874   1.782   1.706  0.7416  0.0253 -0.7220
 8267SOL    HW236261   3.768   1.873   1.656 -1.0098 -0.2800  1.1983
 8268SOL     OW36262   3.934   3.836   9.107  0.5141  0.1027 -0.7146
 8268SOL    HW136263   3.894   3.833   9.194  0.4967 -2.8426 -0.8043
 8268SOL    HW236264   3.982   3.918   9.105  0.6906  0.1350  3.6391
 8269SOL     OW36265   0.705   1.459   4.146  0.3384  0.3473 -0.1567
 8269SOL    HW136266   0.644   1.437   4.075  0.3724  1.9482 -0.6712
 8269SOL    HW236267   0.781   1.411   4.116 -1.8455 -2.0413 -1.8816
 8270SOL     OW36268   4.419   4.188  13.845  0.2073  0.0731  0.1233
 8270SOL    HW136269   4.382   4.100  13.844  0.0937  0.1340 -1.2018
 8270SOL    HW236270   4.357   4.226  13.907 -2.2925  0.4897 -2.6088
 8271SOL     OW36271   0.721   2.724   5.827  0.3312 -0.0542  0.1359
 8271SOL    HW136272   0.706   2.796   5.888  0.9686 -2.2294  2.8833
 8271SOL    HW236273   0.756   2.774   5.754  0.9859 -0.5014  0.1482
 8272SOL     OW36274   1.157   3.295   5.396 -0.0572  0.8819 -0.6616
 8272SOL    HW136275   1.203   3.375   5.370 -0.5895  0.7571 -1.9416
 8272SOL    HW236276   1.078   3.291   5.342  1.6887 -1.2556 -2.9834
 8273SOL     OW36277   0.198   0.184  17.518 -0.2173 -0.5534 -0.5969
 8273SOL    HW136278   0.140   0.260  17.505  0.2028 -0.2832 -0.8746
 8273SOL    HW236279   0.281   0.207  17.477 -0.7020  2.4789  0.1041
 8274SOL     OW36280   2.594   0.041  12.541 -0.4499 -0.2225 -0.4062
 8274SOL    HW136281   2.547   4.687  12.510  0.5981 -0.8139 -0.5090
 8274SOL    HW236282   2.532   0.109  12.567  0.5912  0.2705  0.8035
 8275SOL     OW36283   4.300   2.262  14.255  0.1530  0.1104  0.0231
 8275SOL    HW136284   4.329   2.237  14.343 -0.4502  0.5984  0.3625
 8275SOL    HW236285   4.365   2.227  14.194 -0.8141 -1.9205  0.1572
 8276SOL     OW36286   1.505   0.894   5.123  0.0047  0.0613  0.1595
 8276SOL    HW136287   1.597   0.919   5.120 -0.4203  1.5786 -0.2641
 8276SOL    HW236288   1.503   0.825   5.189 -0.4434 -1.9626 -1.9638
 8277SOL     OW36289   2.946   4.141  11.334 -0.5192  0.3846 -0.0058
 8277SOL    HW136290   2.971   4.138  11.242 -1.4299 -0.7335 -0.2123
 8277SOL    HW236291   2.852   4.123  11.336 -0.6402  0.8488 -1.4230
 8278SOL     OW36292   0.967   2.663  10.721 -0.0829  0.1694 -0.0985
 8278SOL    HW136293   1.044   2.621  10.686 -1.6607 -1.3632 -1.6972
 8278SOL    HW236294   0.984   2.700  10.808 -0.7370 -2.0280  0.9586
 8279SOL     OW36295   3.648   0.541  11.181  0.2143 -0.6600 -0.0330
 8279SOL    HW136296   3.558   0.570  11.193  0.5703  0.4044  0.0212
 8279SOL    HW236297   3.639   0.457  11.136  0.0277 -0.6883  0.0600
 8280SOL     OW36298   2.369   0.220  12.585  0.1889 -1.1126  0.2006
 8280SOL    HW136299   2.312   0.227  12.508 -1.3364 -0.3216  1.4065
 8280SOL    HW236300   2.343   0.132  12.613  1.7157 -1.6483 -0.0494
 8281SOL     OW36301   3.600   2.230   1.312  0.4758  0.5418  0.5541
 8281SOL    HW136302   3.568   2.195   1.395 -0.2812 -1.2314 -0.4764
 8281SOL    HW236303   3.553   2.314   1.315  0.2377  0.3551  1.8993
 8282SOL     OW36304   1.191   0.093  11.836  0.0596 -0.0813 -0.0647
 8282SOL    HW136305   1.202   0.158  11.767 -0.9097 -0.9569 -1.0376
 8282SOL    HW236306   1.115   0.050  11.797 -0.7133  0.6242  0.6343
 8283SOL     OW36307   3.681   3.201  13.127  0.1547  0.3649  0.1977
 8283SOL    HW136308   3.691   3.122  13.180 -4.7236 -1.8267 -2.1934
 8283SOL    HW236309   3.771   3.203  13.092 -0.2181  1.7722 -0.6956
 8284SOL     OW36310   4.583   3.751   2.240  0.0618 -0.3540 -0.1086
 8284SOL    HW136311   4.497   3.728   2.207 -0.4014  2.9389 -1.2680
 8284SOL    HW236312   4.562   3.800   2.320  1.6819 -0.2784  0.2760
 8285SOL     OW36313   3.297   1.820   5.555  0.0901  0.3464  0.4156
 8285SOL    HW136314   3.368   1.787   5.501 -0.4918 -1.2870  0.6378
 8285SOL    HW236315   3.315   1.786   5.643 -0.5275 -0.7298  0.1324
 8286SOL     OW36316   3.851   0.497   8.727  0.0172 -0.3806  0.6377
 8286SOL    HW136317   3.944   0.483   8.740  1.0188  3.0974 -2.8221
 8286SOL    HW236318   3.830   0.420   8.674  0.8899  0.1380 -0.4447
 8287SOL     OW36319   1.448   4.455   6.782  0.1382 -0.0994 -0.3253
 8287SOL    HW136320   1.441   4.388   6.713 -1.2403 -0.0113 -0.2828
 8287SOL    HW236321   1.450   4.532   6.726 -0.5054 -2.1878 -3.2587
 8288SOL     OW36322   1.664   3.879   2.614 -0.2060 -0.2816 -0.7043
 8288SOL    HW136323   1.757   3.904   2.614 -0.4786  0.7234  0.4788
 8288SOL    HW236324   1.643   3.843   2.528 -0.5095 -0.6491 -0.4761
 8289SOL     OW36325   4.369   0.075   3.509  0.1411 -0.1197  0.3699
 8289SOL    HW136326   4.439   0.019   3.542 -0.3370  0.3789  2.2342
 8289SOL    HW236327   4.285   0.045   3.545 -0.1795  0.8859  0.4740
 8290SOL     OW36328   4.644   0.979   9.655  0.4271 -0.2341  0.9001
 8290SOL    HW136329   4.596   0.966   9.737  1.1531  2.0239  1.6955
 8290SOL    HW236330   4.710   0.911   9.666  0.9921  0.1980  0.2268
 8291SOL     OW36331   4.693   1.090   2.119  0.2788  0.3349 -0.0053
 8291SOL    HW136332   0.019   1.127   2.046 -0.2661  0.9873 -0.0321
 8291SOL    HW236333   0.045   1.087   2.178 -1.1933 -0.5662  1.8269
 8292SOL     OW36334   3.755   2.657   3.375  0.6380 -0.4739 -0.3097
 8292SOL    HW136335   3.686   2.678   3.313  1.3276 -1.7478 -1.5307
 8292SOL    HW236336   3.699   2.645   3.452 -0.4228  1.9298 -0.7164
 8293SOL     OW36337   3.811   1.418   4.167 -0.0659  0.3958 -0.1910
 8293SOL    HW136338   3.899   1.388   4.188 -1.0601 -1.2353  1.6693
 8293SOL    HW236339   3.771   1.363   4.100  0.2948  1.2380 -1.0910
 8294SOL     OW36340   0.039   2.188   5.019 -0.8351  0.7455  0.1650
 8294SOL    HW136341   0.133   2.171   5.033 -1.0298  0.4154  1.1027
 8294SOL    HW236342   0.036   2.240   4.939 -0.4342 -1.2404 -1.1543
 8295SOL     OW36343   0.579   3.289   0.558 -0.2978  1.0567 -0.6128
 8295SOL    HW136344   0.489   3.298   0.589 -0.8580 -0.0400 -1.9229
 8295SOL    HW236345   0.610   3.379   0.554  1.2324  0.6651  2.8441
 8296SOL     OW36346   2.489   0.471  12.602 -0.1857  0.0168 -0.0546
 8296SOL    HW136347   2.451   0.391  12.565 -0.2952 -0.8521  1.9534
 8296SOL    HW236348   2.407   0.520  12.605 -0.2911 -0.2104  0.7478
 8297SOL     OW36349   3.668   3.662   2.958 -0.3948  0.1647  0.0447
 8297SOL    HW136350   3.691   3.745   2.917  0.6306 -1.2269 -2.2066
 8297SOL    HW236351   3.580   3.655   2.920 -1.7902  0.3915  3.2784
 8298SOL     OW36352   3.259   2.890   7.478  0.6243  0.0322  0.0983
 8298SOL    HW136353   3.351   2.917   7.486  0.7471  0.5184 -2.9916
 8298SOL    HW236354   3.232   2.973   7.440  1.4158  1.4317  2.5962
 8299SOL     OW36355   0.275   4.374  10.318  0.3470 -0.0588  0.0038
 8299SOL    HW136356   0.360   4.406  10.349  1.0075 -0.9519 -0.8771
 8299SOL    HW236357   0.290   4.308  10.250 -1.1826 -1.8259  1.3639
 8300SOL     OW36358   4.715   4.313   0.710 -0.2199 -0.2854  0.2594
 8300SOL    HW136359   4.673   4.316   0.796  1.4240  0.6219  1.0276
 8300SOL    HW236360   0.086   4.325   0.723 -0.2205 -0.9318  0.8164
 8301SOL     OW36361   3.471   4.670  13.596 -0.2005  0.8458 -0.0515
 8301SOL    HW136362   3.522   0.017  13.555 -0.9340  1.5133  0.1835
 8301SOL    HW236363   3.399   4.700  13.652  1.4442  0.1645  2.4083
 8302SOL     OW36364   2.975   3.452   9.201 -0.3523  0.2651 -0.0907
 8302SOL    HW136365   2.993   3.504   9.123 -0.5739  0.0515 -0.2822
 8302SOL    HW236366   3.048   3.390   9.204 -0.1572  0.5438  0.9226
 8303SOL     OW36367   2.762   3.212   6.340  0.1018 -0.8344  0.0679
 8303SOL    HW136368   2.833   3.166   6.383 -1.9484 -2.6645  1.4760
 8303SOL    HW236369   2.737   3.276   6.407  0.7882 -2.0368  1.4576
 8304SOL     OW36370   3.891   0.530   5.287  0.4967  0.2617 -0.4097
 8304SOL    HW136371   3.955   0.568   5.225 -0.2598 -0.0094 -1.3520
 8304SOL    HW236372   3.853   0.461   5.233 -2.6025  0.4862  1.5210
 8305SOL     OW36373   1.028   3.256  14.492  0.0096  0.7164  0.2103
 8305SOL    HW136374   0.987   3.238  14.576  0.8991  0.9507  0.6906
 8305SOL    HW236375   1.121   3.254  14.515  0.3878  1.0460 -1.2716
 8306SOL     OW36376   2.169   3.591   4.559  0.1190 -0.0457 -0.2517
 8306SOL    HW136377   2.078   3.566   4.578  0.6885 -1.3088  0.8449
 8306SOL    HW236378   2.179   3.613   4.467 -0.1057  1.7176  0.1579
 8307SOL     OW36379   0.298   1.675   5.449 -0.1184  0.1558  0.5077
 8307SOL    HW136380   0.203   1.684   5.450  0.1171  2.4864  2.3980
 8307SOL    HW236381   0.304   1.586   5.414  0.9816  0.8030 -0.9309
 8308SOL     OW36382   2.656   0.872  14.061  0.0971 -0.2610 -0.1480
 8308SOL    HW136383   2.632   0.810  14.131  1.5215 -1.8016 -1.0428
 8308SOL    HW236384   2.748   0.849  14.045  0.0507 -0.4454 -0.1539
 8309SOL     OW36385   3.236   0.640   9.412  0.0159  0.6522 -0.4958
 8309SOL    HW136386   3.314   0.682   9.450 -1.0523  2.6471 -0.5262
 8309SOL    HW236387   3.176   0.653   9.486 -0.7996 -3.8257 -0.3574
 8310SOL     OW36388   3.249   3.309  12.878 -0.0065  0.2551 -0.2770
 8310SOL    HW136389   3.193   3.231  12.872  1.8574 -1.2038  1.2057
 8310SOL    HW236390   3.187   3.360  12.826  0.7353 -1.4678 -2.8495
 8311SOL     OW36391   1.918   2.716   0.500  0.4479 -0.0794 -0.1812
 8311SOL    HW136392   1.824   2.732   0.503  0.2834 -0.6513 -2.2095
 8311SOL    HW236393   1.918   2.623   0.523 -1.1542 -0.3807 -1.3580
 8312SOL     OW36394   3.718   4.691   9.953  0.3526  0.4616  0.0112
 8312SOL    HW136395   3.793   4.687  10.013 -0.1795 -1.5920  0.5320
 8312SOL    HW236396   3.687   0.058   9.963 -2.7547 -0.5282 -0.8944
 8313SOL     OW36397   2.929   2.551   2.301  0.6882 -0.3668  0.2460
 8313SOL    HW136398   3.014   2.577   2.336  0.5681 -1.3473  1.2816
 8313SOL    HW236399   2.889   2.639   2.300 -0.1174 -0.7121  1.0766
 8314SOL     OW36400   2.356   0.852  16.128 -0.1708 -0.4313  0.3412
 8314SOL    HW136401   2.293   0.924  16.135  0.4933  0.1377  0.5418
 8314SOL    HW236402   2.428   0.891  16.078 -1.5236 -2.1710 -2.9605
 8315SOL     OW36403   0.185   4.237   5.562 -0.1346 -0.1229  0.4532
 8315SOL    HW136404   0.119   4.306   5.563  0.2329  0.2381 -0.0849
 8315SOL    HW236405   0.137   4.155   5.571 -0.6325  0.3840  2.2677
 8316SOL     OW36406   4.394   3.177   7.725 -0.3700 -0.1012 -0.1825
 8316SOL    HW136407   4.393   3.081   7.725 -0.2528 -0.1134 -2.3702
 8316SOL    HW236408   4.349   3.190   7.808 -0.6303 -1.8494 -0.0377
 8317SOL     OW36409   2.125   1.342   3.437 -0.1772 -0.7078  0.1447
 8317SOL    HW136410   2.164   1.368   3.354 -2.3027 -1.0136 -0.9315
 8317SOL    HW236411   2.055   1.406   3.447  0.7560  0.6474 -2.1016
 8318SOL     OW36412   0.671   4.425   5.355  0.0173  0.1321 -0.6967
 8318SOL    HW136413   0.629   4.359   5.410  1.7219 -1.5151 -1.3797
 8318SOL    HW236414   0.725   4.371   5.297  1.6399  1.0598 -0.0322
 8319SOL     OW36415   0.985   1.235  13.893  0.5383  0.0192 -0.3652
 8319SOL    HW136416   0.894   1.220  13.868  0.2250 -0.9984  1.3719
 8319SOL    HW236417   1.001   1.166  13.957  1.2591  1.3566  0.9110
 8320SOL     OW36418   0.495   3.022   3.910  0.2448 -0.2713  0.3181
 8320SOL    HW136419   0.560   2.952   3.899 -0.5676 -0.6743 -2.0447
 8320SOL    HW236420   0.527   3.098   3.862 -1.1328 -1.5729 -2.6751
 8321SOL     OW36421   2.782   2.043  15.855  0.7179  0.2090 -0.5691
 8321SOL    HW136422   2.747   1.997  15.778  0.3459 -0.0076 -0.2720
 8321SOL    HW236423   2.746   2.129  15.831 -1.3609 -0.6353 -0.5311
 8322SOL     OW36424   0.371   2.635  13.957 -0.1077 -0.6023 -0.1221
 8322SOL    HW136425   0.396   2.616  13.867  1.4953  2.0286 -0.2463
 8322SOL    HW236426   0.452   2.645  14.006 -0.2744  1.0048 -0.1836
 8323SOL     OW36427   1.304   3.044   6.145  0.5777  0.3687  0.4337
 8323SOL    HW136428   1.281   3.110   6.081 -1.3348 -0.2179  0.4998
 8323SOL    HW236429   1.292   3.090   6.228 -0.6017  1.1223 -0.1658
 8324SOL     OW36430   0.934   1.452   0.656  0.7135  1.2936  0.1733
 8324SOL    HW136431   0.872   1.443   0.728  0.4688 -1.7033 -0.4010
 8324SOL    HW236432   0.976   1.367   0.650 -1.1755  0.3957 -0.4029
 8325SOL     OW36433   3.578   2.796   4.112 -0.1184 -0.4560 -0.5397
 8325SOL    HW136434   3.642   2.866   4.095  0.8027 -0.5635  2.4510
 8325SOL    HW236435   3.574   2.803   4.208 -0.7241 -1.7761 -0.4740
 8326SOL     OW36436   3.692   3.186  13.715  0.0522  0.1604  0.2807
 8326SOL    HW136437   3.715   3.095  13.735 -0.0952  0.2254  0.7216
 8326SOL    HW236438   3.700   3.190  13.619 -2.3257 -0.2557  0.0631
 8327SOL     OW36439   2.719   3.373  16.054 -0.4031 -0.0338  0.4416
 8327SOL    HW136440   2.811   3.369  16.025 -0.5154  1.9353 -0.2318
 8327SOL    HW236441   2.721   3.339  16.143 -0.7975  0.6129  0.6998
 8328SOL     OW36442   3.352   0.488   7.195  0.3134 -0.0234  0.0489
 8328SOL    HW136443   3.318   0.461   7.110 -0.4007 -1.8072  0.9050
 8328SOL    HW236444   3.279   0.459   7.249  0.3263 -0.4031 -0.1337
 8329SOL     OW36445   3.871   0.785   1.408  0.2043  0.0140 -0.5345
 8329SOL    HW136446   3.933   0.836   1.460  2.0054 -1.9402 -0.7713
 8329SOL    HW236447   3.927   0.708   1.405 -0.0631 -0.2294  0.7226
 8330SOL     OW36448   1.245   1.987  11.536  0.0424  0.5594  0.2441
 8330SOL    HW136449   1.204   1.915  11.488 -0.1345  0.3887  0.6477
 8330SOL    HW236450   1.338   1.967  11.522 -0.2837 -1.7080  1.2855
 8331SOL     OW36451   3.879   0.195  14.275 -0.6854 -0.2344  0.1726
 8331SOL    HW136452   3.923   0.170  14.356  0.3117  1.6091  0.1929
 8331SOL    HW236453   3.811   0.242  14.323  0.3154  0.3436  1.0041
 8332SOL     OW36454   2.974   2.473   6.188  0.0481  0.1266 -0.2162
 8332SOL    HW136455   3.050   2.530   6.177  0.2607 -0.6162 -2.5165
 8332SOL    HW236456   2.892   2.520   6.170  0.0152  0.6972  1.4399
 8333SOL     OW36457   2.702   1.050   7.858 -0.0868  0.0140 -0.3909
 8333SOL    HW136458   2.736   0.962   7.839  1.8027  0.2083  2.1631
 8333SOL    HW236459   2.701   1.052   7.953 -0.8303 -0.9455 -0.3847
 8334SOL     OW36460   4.117   1.666   9.945 -0.0088 -0.2249  0.0277
 8334SOL    HW136461   4.151   1.624   9.866  1.4015 -1.7680  1.4491
 8334SOL    HW236462   4.195   1.659  10.000  1.2891  3.3258 -1.4308
 8335SOL     OW36463   4.200   3.772  12.510 -0.0299 -0.0239  0.0167
 8335SOL    HW136464   4.240   3.732  12.588 -0.1011  2.0201  1.1152
 8335SOL    HW236465   4.253   3.852  12.504  0.9808 -0.6142  1.1506
 8336SOL     OW36466   1.236   1.156  16.558 -0.0113  0.0994  0.6835
 8336SOL    HW136467   1.260   1.105  16.635  1.2714  0.8414  0.7883
 8336SOL    HW236468   1.215   1.238  16.604  1.3280  0.4473  0.6975
 8337SOL     OW36469   0.787   2.468   4.684  0.6758 -0.1880  0.1691
 8337SOL    HW136470   0.843   2.439   4.611  0.8845  0.9033 -0.0990
 8337SOL    HW236471   0.791   2.563   4.671 -1.8017 -0.2147 -0.8511
 8338SOL     OW36472   1.318   3.969   4.248 -0.3497  0.1122 -0.1407
 8338SOL    HW136473   1.389   4.027   4.272 -0.9450  0.2713  1.2773
 8338SOL    HW236474   1.337   3.891   4.301  0.6693  0.1924 -0.3863
 8339SOL     OW36475   0.422   2.403   5.335  0.0853  0.1061 -0.3592
 8339SOL    HW136476   0.495   2.349   5.305  1.3172  0.4481  2.0359
 8339SOL    HW236477   0.445   2.401   5.428  0.4169 -0.9805 -0.4557
 8340SOL     OW36478   2.593   1.321   5.045  0.2871 -0.1700 -0.5223
 8340SOL    HW136479   2.509   1.302   5.088  0.0374  0.1133 -0.8878
 8340SOL    HW236480   2.634   1.393   5.094 -1.4760  0.1761  0.4712
 8341SOL     OW36481   4.169   2.960  17.590  0.1001  0.0527  0.2048
 8341SOL    HW136482   4.169   2.895  17.660 -1.6821 -0.1387  0.0204
 8341SOL    HW236483   4.198   3.044  17.627 -0.4696  0.3372  0.0062
 8342SOL     OW36484   4.154   2.127   5.925 -0.3667  0.2946 -0.3023
 8342SOL    HW136485   4.084   2.110   5.988 -1.8006  1.8067 -1.4683
 8342SOL    HW236486   4.165   2.036   5.897  3.8281 -0.2953  3.3607
 8343SOL     OW36487   3.509   4.632   2.734  0.0473 -0.6243 -0.1495
 8343SOL    HW136488   3.430   4.635   2.681  0.2087 -0.1024 -0.3641
 8343SOL    HW236489   3.491   4.667   2.821  1.2672 -0.0720 -0.1117
 8344SOL     OW36490   4.082   3.082   8.538  0.2278 -0.0427  0.3641
 8344SOL    HW136491   4.168   3.054   8.508  0.6584 -0.6885  2.2153
 8344SOL    HW236492   4.064   3.023   8.611  0.0378 -0.3389  0.0818
 8345SOL     OW36493   0.844   0.453   3.809 -0.3729  0.0120 -0.3381
 8345SOL    HW136494   0.790   0.522   3.846  0.9373  1.2168 -0.6921
 8345SOL    HW236495   0.838   0.456   3.713  0.0545 -1.9413 -0.4292
 8346SOL     OW36496   4.060   0.605   1.883 -0.1395  0.3317  0.6406
 8346SOL    HW136497   4.135   0.630   1.829 -1.0261  1.9649  0.1537
 8346SOL    HW236498   4.083   0.641   1.969 -2.6783 -1.1938  1.9370
 8347SOL     OW36499   4.108   1.439   4.000  0.6130  0.6354  0.5886
 8347SOL    HW136500   4.038   1.468   3.942 -1.4612 -1.1740  2.1744
 8347SOL    HW236501   4.184   1.494   3.980  1.4736  0.1242  2.4509
 8348SOL     OW36502   0.649   2.383   3.616  0.6934 -0.3546 -0.0074
 8348SOL    HW136503   0.617   2.329   3.688 -0.3035  1.6816  1.0829
 8348SOL    HW236504   0.733   2.339   3.603  0.2399 -1.6012  1.3558
 8349SOL     OW36505   3.922   4.274   1.880 -0.0053 -0.3030  0.5433
 8349SOL    HW136506   3.903   4.248   1.971  0.7099  1.1943  1.1234
 8349SOL    HW236507   3.839   4.317   1.860  0.4062  0.5623  0.7004
 8350SOL     OW36508   1.480   0.190   6.212 -0.2151 -0.4527 -0.1835
 8350SOL    HW136509   1.570   0.170   6.185 -0.2855 -0.7865 -0.1704
 8350SOL    HW236510   1.433   0.210   6.131  1.0031 -0.2948 -0.8554
 8351SOL     OW36511   3.945   4.115  12.131  0.1061  0.7451 -0.5282
 8351SOL    HW136512   3.919   4.051  12.198 -3.7422  2.0544 -0.7910
 8351SOL    HW236513   4.010   4.150  12.192  0.8510 -1.5603 -0.0104
 8352SOL     OW36514   2.026   4.122  15.262  0.8928 -0.4528  0.0664
 8352SOL    HW136515   2.067   4.061  15.324 -1.3838 -1.7002  0.3754
 8352SOL    HW236516   1.948   4.139  15.315  2.0528 -0.6609  1.8731
 8353SOL     OW36517   3.251   2.871   9.223 -0.2426  0.3931  0.2910
 8353SOL    HW136518   3.336   2.829   9.241 -0.0566  0.8108  0.3751
 8353SOL    HW236519   3.190   2.839   9.290 -0.5427  2.0159  0.7717
 8354SOL     OW36520   4.058   0.240  14.082 -0.6126 -0.2196  0.2158
 8354SOL    HW136521   3.993   0.214  14.147 -3.1573  3.8825 -0.6928
 8354SOL    HW236522   4.125   0.263  14.146  0.0252 -2.7602  0.4376
 8355SOL     OW36523   0.122   2.047   5.500  0.2140 -0.3197  0.3627
 8355SOL    HW136524   0.205   2.073   5.458  1.1731 -0.4933  2.1312
 8355SOL    HW236525   0.143   2.083   5.587  2.4475  1.4745 -0.9016
 8356SOL     OW36526   0.465   3.062   9.912  0.5147 -0.2421 -0.2647
 8356SOL    HW136527   0.473   2.993   9.977 -2.2139 -0.4716 -0.1724
 8356SOL    HW236528   0.540   3.031   9.862 -0.0839 -0.7755 -0.8307
 8357SOL     OW36529   1.719   4.376   3.013  0.0381 -0.1814  0.0438
 8357SOL    HW136530   1.641   4.365   3.067  0.1587 -0.2818  0.2019
 8357SOL    HW236531   1.684   4.342   2.931 -0.8419 -1.7351  1.0434
 8358SOL     OW36532   0.012   1.405   3.507 -0.0220  0.1692 -0.0700
 8358SOL    HW136533   0.091   1.432   3.554  0.1418 -1.6641  0.6991
 8358SOL    HW236534   0.028   1.312   3.489  1.6094  0.4439 -0.1148
 8359SOL     OW36535   1.992   3.176   3.689 -0.0493  0.0777  0.0949
 8359SOL    HW136536   1.945   3.098   3.716 -0.4927  1.2514  2.6461
 8359SOL    HW236537   2.075   3.164   3.736 -0.1973  0.8715  0.5441
 8360SOL     OW36538   0.303   3.221   9.266  0.6786  0.3834 -0.2196
 8360SOL    HW136539   0.294   3.315   9.252  1.0615  0.0577 -2.6954
 8360SOL    HW236540   0.268   3.184   9.184  1.6209 -0.3459 -0.2991
 8361SOL     OW36541   2.542   3.058   1.864  0.0462  0.3347 -0.0554
 8361SOL    HW136542   2.613   3.026   1.920  0.1397 -0.0096 -0.3697
 8361SOL    HW236543   2.500   2.976   1.841 -1.2984  1.3424 -1.2498
 8362SOL     OW36544   4.052   2.426   4.772  0.2092  0.1904 -0.0497
 8362SOL    HW136545   3.981   2.484   4.744 -0.8595 -1.5157 -0.8872
 8362SOL    HW236546   4.112   2.483   4.820 -0.5550 -0.4523  1.6790
 8363SOL     OW36547   4.018   3.877   8.164 -0.1530  0.2423  0.3781
 8363SOL    HW136548   4.093   3.908   8.214 -0.3703  1.3680  0.0172
 8363SOL    HW236549   3.946   3.919   8.211  0.0804 -0.6727  1.5605
 8364SOL     OW36550   4.171   1.603   1.303  0.5455  0.1590  0.1654
 8364SOL    HW136551   4.079   1.610   1.277  0.9840  2.3313 -0.8121
 8364SOL    HW236552   4.202   1.537   1.241 -1.3110 -1.4827  0.9838
 8365SOL     OW36553   3.871   3.614  13.300  0.1887  0.0684 -0.6338
 8365SOL    HW136554   3.851   3.682  13.364  1.9183 -2.6244  2.8168
 8365SOL    HW236555   3.848   3.653  13.216 -0.8547  1.3869  0.2667
 8366SOL     OW36556   3.292   3.725  14.937 -0.6086 -0.0734 -0.4582
 8366SOL    HW136557   3.202   3.722  14.905 -1.2038  0.4096  1.1718
 8366SOL    HW236558   3.286   3.802  14.993 -0.9230 -0.5834  0.2121
 8367SOL     OW36559   4.577   2.138  10.827 -0.4689 -0.3069 -0.5212
 8367SOL    HW136560   4.575   2.233  10.812 -0.3510 -0.0952  0.8262
 8367SOL    HW236561   4.516   2.111  10.758  0.5555 -0.6242 -1.3076
 8368SOL     OW36562   4.285   1.266   9.362  0.0077 -0.2878 -0.3968
 8368SOL    HW136563   4.213   1.204   9.369  0.2142 -0.4982 -0.1262
 8368SOL    HW236564   4.290   1.301   9.451 -1.1663 -0.2756 -0.3347
 8369SOL     OW36565   2.713   1.329   4.482  0.5870 -0.0663 -0.7045
 8369SOL    HW136566   2.724   1.343   4.576  1.7328 -1.1369 -0.6714
 8369SOL    HW236567   2.790   1.376   4.449  1.2789  0.5006  1.7322
 8370SOL     OW36568   1.788   2.968   3.134  0.0498 -0.0306 -0.4602
 8370SOL    HW136569   1.747   2.975   3.220 -1.6979 -0.6845 -1.2381
 8370SOL    HW236570   1.814   3.059   3.114  0.0153  0.1906  0.5364
 8371SOL     OW36571   2.822   3.097  11.460 -0.2320  0.4207 -0.5507
 8371SOL    HW136572   2.886   3.167  11.468  0.5907 -0.3965 -0.1470
 8371SOL    HW236573   2.781   3.108  11.374  1.4777  0.5196 -1.3536
 8372SOL     OW36574   4.133   0.013   0.824 -0.1404 -0.3973  0.4575
 8372SOL    HW136575   4.130   4.670   0.894 -1.8227 -1.3322 -0.4997
 8372SOL    HW236576   4.132   4.677   0.749 -1.0570 -0.0990  0.2443
 8373SOL     OW36577   3.280   1.443   6.522 -0.2355 -0.5519 -0.4377
 8373SOL    HW136578   3.190   1.411   6.530  0.7215 -3.3988 -1.1367
 8373SOL    HW236579   3.295   1.436   6.428 -1.2405  1.2295 -0.7457
 8374SOL     OW36580   2.615   2.114   2.380 -0.1589 -0.1191  0.0012
 8374SOL    HW136581   2.685   2.165   2.339 -2.8657  2.3709 -1.4631
 8374SOL    HW236582   2.535   2.137   2.333 -0.2777  0.8566  0.6806
 8375SOL     OW36583   2.925   4.221  13.481 -0.2019 -0.5212  0.0786
 8375SOL    HW136584   2.996   4.185  13.535  0.0941  0.2562  0.2131
 8375SOL    HW236585   2.863   4.149  13.490 -0.3351 -0.7598 -2.5738
 8376SOL     OW36586   3.595   0.362   8.991 -0.0494  0.5799 -0.4115
 8376SOL    HW136587   3.519   0.355   9.048 -0.1899  0.8265 -0.5715
 8376SOL    HW236588   3.663   0.334   9.053  0.4302  0.2914 -1.0705
 8377SOL     OW36589   1.065   3.965   4.625 -0.2697 -0.3463 -0.0424
 8377SOL    HW136590   1.093   4.021   4.553 -1.0928 -0.2420 -0.2741
 8377SOL    HW236591   0.971   3.973   4.608 -0.2163  1.4245  0.5351
 8378SOL     OW36592   4.136   1.304   6.408 -0.0229 -0.7823  0.2227
 8378SOL    HW136593   4.161   1.257   6.328  0.9113 -1.3125  0.8226
 8378SOL    HW236594   4.220   1.348   6.421  0.1442 -0.4236 -2.2086
 8379SOL     OW36595   0.536   4.621   8.528  0.0048 -0.1206 -0.3494
 8379SOL    HW136596   0.627   4.638   8.501  0.7341  0.1508  2.2637
 8379SOL    HW236597   0.544   4.685   8.599  0.2051  0.7139 -1.1198
 8380SOL     OW36598   1.047   3.302   3.090 -0.0356 -0.1476  0.9397
 8380SOL    HW136599   1.118   3.305   3.153  0.7732 -0.8205  0.0577
 8380SOL    HW236600   1.067   3.215   3.055 -0.7268  0.0266  0.0918
 8381SOL     OW36601   1.032   3.701  11.334 -0.1067 -0.2541  0.2421
 8381SOL    HW136602   1.035   3.794  11.353  0.6982 -0.4425  0.9974
 8381SOL    HW236603   1.109   3.679  11.386  0.4878 -0.5785 -0.7831
 8382SOL     OW36604   0.110   2.338   2.107  0.1428 -0.2729 -0.1691
 8382SOL    HW136605   0.170   2.263   2.110  1.7876  1.1283  1.6366
 8382SOL    HW236606   0.146   2.390   2.035 -1.2343 -1.0387 -1.4171
 8383SOL     OW36607   3.472   4.246   9.561 -0.3568 -0.5814  0.3777
 8383SOL    HW136608   3.431   4.327   9.593  0.2562  0.1361 -0.6213
 8383SOL    HW236609   3.565   4.265   9.572  0.0271 -2.7767  0.9461
 8384SOL     OW36610   4.039   4.347   2.262  0.0748 -0.5064  0.2468
 8384SOL    HW136611   3.965   4.286   2.272 -0.8283  0.3384 -1.3218
 8384SOL    HW236612   4.019   4.413   2.328  1.0482 -0.6583  0.6806
 8385SOL     OW36613   2.112   3.908   4.668 -0.1491  0.3632 -0.2182
 8385SOL    HW136614   2.151   3.821   4.678  0.8659  0.8225 -0.0896
 8385SOL    HW236615   2.072   3.911   4.755  1.5173 -2.7263  0.6752
 8386SOL     OW36616   1.761   0.100   3.815  0.3719  0.2515 -0.6025
 8386SOL    HW136617   1.687   0.061   3.862 -1.7673  3.4465 -1.3163
 8386SOL    HW236618   1.715   0.108   3.731 -1.1174  2.4559  0.4312
 8387SOL     OW36619   2.074   4.496  14.425  0.2228 -0.2552 -0.0008
 8387SOL    HW136620   1.996   4.533  14.384 -1.0964 -1.7045  1.1889
 8387SOL    HW236621   2.127   4.497  14.345 -1.8917 -1.4337 -1.4280
 8388SOL     OW36622   4.196   1.857  13.247 -0.5743 -0.1807  0.3067
 8388SOL    HW136623   4.190   1.947  13.280 -2.4226 -0.3583  0.4556
 8388SOL    HW236624   4.289   1.834  13.252  0.1767  2.5335 -1.0536
 8389SOL     OW36625   3.381   2.319   7.957 -0.3116 -0.2037  0.1646
 8389SOL    HW136626   3.418   2.233   7.981  2.0748  0.8688  0.2969
 8389SOL    HW236627   3.449   2.362   7.905  0.9305 -0.8774  1.2078
 8390SOL     OW36628   2.009   4.155  14.995 -0.2343 -0.1989 -0.1438
 8390SOL    HW136629   2.013   4.151  15.090  1.9881  1.1410 -0.1787
 8390SOL    HW236630   1.942   4.089  14.977  0.6041 -1.0207 -0.2698
 8391SOL     OW36631   0.841   2.230  10.248 -0.5292 -0.1364  0.0820
 8391SOL    HW136632   0.890   2.157  10.211 -0.0198  0.3703 -0.2511
 8391SOL    HW236633   0.822   2.277  10.167 -2.7949 -1.4452 -0.1408
 8392SOL     OW36634   1.452   4.217   1.933  0.1627  0.0185  0.3289
 8392SOL    HW136635   1.430   4.144   1.876  3.5194  0.5039 -1.6044
 8392SOL    HW236636   1.412   4.294   1.893  0.5328 -0.1219 -0.3101
 8393SOL     OW36637   3.954   4.021  16.129  0.7723  0.3736 -0.0696
 8393SOL    HW136638   3.995   3.941  16.098 -1.2073 -0.9815  0.8088
 8393SOL    HW236639   4.008   4.087  16.086  0.2814  1.4546  0.9470
 8394SOL     OW36640   3.948   2.796  13.908  0.1197 -0.4905  0.2070
 8394SOL    HW136641   4.010   2.768  13.976  0.9731 -3.9431 -2.0309
 8394SOL    HW236642   3.873   2.739  13.925 -0.5069  0.9457  2.2435
 8395SOL     OW36643   1.823   1.262  11.062  0.1762 -0.4971 -0.0744
 8395SOL    HW136644   1.853   1.350  11.087 -2.1336 -0.1583  1.5377
 8395SOL    HW236645   1.752   1.243  11.123 -1.2187 -2.5780 -2.3404
 8396SOL     OW36646   4.615   4.149  13.168  0.2903 -0.5507  1.2277
 8396SOL    HW136647   4.614   4.101  13.250  1.7093 -1.6667  0.6005
 8396SOL    HW236648   4.666   4.086  13.117  0.0053 -0.3764  0.7217
 8397SOL     OW36649   0.751   2.155  12.934 -0.1074  0.6953 -0.0388
 8397SOL    HW136650   0.743   2.208  13.014  1.5146  0.1788  0.4583
 8397SOL    HW236651   0.830   2.103  12.946 -0.0492  1.4872  3.2233
 8398SOL     OW36652   2.457   0.214   7.437  0.4362  1.1176  0.3798
 8398SOL    HW136653   2.482   0.185   7.525 -1.9400 -0.1980  0.6301
 8398SOL    HW236654   2.392   0.150   7.407  1.7331  0.2513 -0.6007
 8399SOL     OW36655   1.001   0.950   3.989 -0.0846 -0.4054 -0.2921
 8399SOL    HW136656   1.069   1.013   3.965  0.6594 -0.8232  0.7416
 8399SOL    HW236657   0.925   0.985   3.942 -1.5149 -1.6928  1.0639
 8400SOL     OW36658   0.380   4.551   2.387  0.1663  0.1601 -0.1725
 8400SOL    HW136659   0.325   4.592   2.321 -0.2871 -0.2665 -0.0545
 8400SOL    HW236660   0.332   4.469   2.398  1.0163 -0.3386 -0.1832
 8401SOL     OW36661   3.694   3.495   8.929 -0.6701 -0.9494  0.0627
 8401SOL    HW136662   3.637   3.426   8.895 -2.1440  0.7557 -0.9370
 8401SOL    HW236663   3.764   3.443   8.969  2.2824  2.5755 -0.4916
 8402SOL     OW36664   3.098   4.637   5.480  0.0107 -0.4192 -0.2057
 8402SOL    HW136665   3.081   4.595   5.396  0.0318  2.3595 -1.5837
 8402SOL    HW236666   3.160   4.701   5.445 -0.1540 -0.3366 -0.3445
 8403SOL     OW36667   1.256   2.347   7.434 -0.2703  0.3725 -0.1137
 8403SOL    HW136668   1.215   2.421   7.389 -1.0458  0.5458  0.8682
 8403SOL    HW236669   1.191   2.316   7.496  0.5817 -1.5260 -0.1741
 8404SOL     OW36670   1.676   0.411   6.542 -0.7202  0.5083 -0.2052
 8404SOL    HW136671   1.642   0.425   6.630 -0.6553 -0.2536 -0.0669
 8404SOL    HW236672   1.596   0.428   6.492 -0.6616 -0.0806 -0.4937
 8405SOL     OW36673   0.065   2.664   6.114  0.2103 -0.1002  0.2641
 8405SOL    HW136674   4.721   2.598   6.129 -2.0134  2.1465  0.1523
 8405SOL    HW236675   0.123   2.650   6.189 -1.4183 -0.5631  1.4391
 8406SOL     OW36676   4.375   4.203   3.880  0.4248  0.5774 -0.3924
 8406SOL    HW136677   4.360   4.288   3.922  1.5780  0.0209  1.1551
 8406SOL    HW236678   4.430   4.224   3.805  1.4150 -0.1304  0.1400
 8407SOL     OW36679   2.349   0.003  10.041  0.8429  0.2660  0.0692
 8407SOL    HW136680   2.413   4.697  10.106  0.9957  0.1026 -0.1513
 8407SOL    HW236681   2.372   0.095  10.028  1.4264  0.1834  0.4937
 8408SOL     OW36682   2.489   4.588  13.225  0.0554 -0.0090 -0.7451
 8408SOL    HW136683   2.559   4.567  13.287 -1.3098  0.2926  0.9092
 8408SOL    HW236684   2.447   4.502  13.217 -0.9791  0.3852  0.3226
 8409SOL     OW36685   2.093   2.256  14.682  0.2940 -0.1895  0.0965
 8409SOL    HW136686   2.063   2.283  14.595 -0.2195  0.3459  0.4410
 8409SOL    HW236687   2.183   2.288  14.674  0.2925 -0.2176 -0.0325
 8410SOL     OW36688   0.838   4.402  12.515  0.3599  0.3282  0.5457
 8410SOL    HW136689   0.878   4.315  12.518  0.8574  0.4668 -2.2893
 8410SOL    HW236690   0.865   4.431  12.428 -3.1369  0.6566 -0.4100
 8411SOL     OW36691   1.632   0.619   6.135 -0.5495 -0.3154 -0.0766
 8411SOL    HW136692   1.717   0.659   6.155 -1.6885  1.3738  1.3603
 8411SOL    HW236693   1.649   0.540   6.187  1.7568 -0.4359 -1.0007
 8412SOL     OW36694   2.693   0.181   1.283 -0.6962 -0.5326 -0.1593
 8412SOL    HW136695   2.686   0.276   1.296 -0.2685 -0.1263 -3.0635
 8412SOL    HW236696   2.627   0.135   1.334 -1.6954  1.6789  0.5415
 8413SOL     OW36697   2.391   2.651   3.028  0.2631  0.9782  0.6899
 8413SOL    HW136698   2.432   2.567   3.048 -0.7877  0.0626 -1.0033
 8413SOL    HW236699   2.376   2.650   2.933 -0.0530  0.7723  0.7404
 8414SOL     OW36700   1.678   4.189  14.829  0.5183  0.2562  0.4185
 8414SOL    HW136701   1.597   4.207  14.781  1.0876 -1.4835 -1.2398
 8414SOL    HW236702   1.653   4.112  14.880 -0.1918 -1.8255 -2.9947
 8415SOL     OW36703   2.465   1.296   0.961 -0.2250 -0.2231  0.4027
 8415SOL    HW136704   2.407   1.223   0.981 -1.1083 -0.1793 -2.0033
 8415SOL    HW236705   2.414   1.344   0.895  0.1193 -0.2474  0.1150
 8416SOL     OW36706   0.558   2.129   5.772 -0.2170  0.0833 -0.1556
 8416SOL    HW136707   0.582   2.088   5.855 -1.6491 -2.0182 -0.7917
 8416SOL    HW236708   0.549   2.053   5.715 -1.2180 -0.5628  0.8662
 8417SOL     OW36709   0.209   1.836   5.740  0.1111  0.2411  0.0846
 8417SOL    HW136710   0.293   1.854   5.698  0.0062  0.0124 -0.2187
 8417SOL    HW236711   0.161   1.776   5.683 -1.2537 -0.5853  2.0925
 8418SOL     OW36712   4.278   0.491   5.340  0.2755  0.1698 -0.3532
 8418SOL    HW136713   4.270   0.475   5.246 -1.2741 -2.0574  0.1607
 8418SOL    HW236714   4.346   0.559   5.335  0.5404 -0.2105 -1.8048
 8419SOL     OW36715   4.584   2.413   9.288 -0.0484 -0.2095 -0.2379
 8419SOL    HW136716   4.566   2.426   9.195  0.7764 -1.2274 -0.5488
 8419SOL    HW236717   4.679   2.423   9.283 -0.0305 -0.7877 -1.1516
 8420SOL     OW36718   3.287   1.524  10.889  0.3262 -0.4087 -0.2178
 8420SOL    HW136719   3.199   1.542  10.923 -0.4066 -3.3395 -0.5624
 8420SOL    HW236720   3.301   1.606  10.842  0.8914 -0.2929  0.1496
 8421SOL     OW36721   2.473   1.246   4.805  0.1912  0.1944  0.0526
 8421SOL    HW136722   2.530   1.238   4.728  0.7468  2.5585  0.2087
 8421SOL    HW236723   2.533   1.247   4.879  0.8566  1.5042 -0.4969
 8422SOL     OW36724   0.578   2.712   8.368  0.2675  0.3187  0.3057
 8422SOL    HW136725   0.622   2.633   8.336 -1.1165  0.1284 -1.1398
 8422SOL    HW236726   0.488   2.691   8.343  0.8474 -1.0099 -0.6618
 8423SOL     OW36727   1.030   3.479   3.634 -0.6322  0.1862 -0.1013
 8423SOL    HW136728   1.051   3.386   3.620 -0.1703  0.3203 -0.2904
 8423SOL    HW236729   0.936   3.468   3.649 -0.6794  0.5606 -0.1182
 8424SOL     OW36730   3.869   2.398   6.178  0.0704  0.0396 -0.2196
 8424SOL    HW136731   3.775   2.380   6.178 -0.1179  0.9505 -2.6292
 8424SOL    HW236732   3.884   2.440   6.093 -2.0069 -0.7813 -0.9897
 8425SOL     OW36733   4.213   2.768   8.351  0.4468 -0.6840  0.3673
 8425SOL    HW136734   4.268   2.708   8.402 -0.3016 -0.1725  1.7853
 8425SOL    HW236735   4.245   2.853   8.382  0.0432 -1.8610  3.9423
 8426SOL     OW36736   2.104   3.343   6.644 -0.5851  0.4976  0.2756
 8426SOL    HW136737   2.018   3.371   6.676 -1.7525 -3.1755  0.3321
 8426SOL    HW236738   2.117   3.390   6.562  2.0904 -3.0884 -1.3462
 8427SOL     OW36739   4.600   1.406  11.288  0.5104  0.2953  0.0285
 8427SOL    HW136740   4.563   1.380  11.373  1.7688  0.1889  0.5415
 8427SOL    HW236741   4.593   1.501  11.284 -0.7332  0.1523 -1.2931
 8428SOL     OW36742   3.896   1.534  10.090 -0.0714 -0.0475  0.3505
 8428SOL    HW136743   3.982   1.538  10.047 -0.1849 -1.7552 -0.0330
 8428SOL    HW236744   3.869   1.626  10.098  2.4157  0.7463 -0.1188
 8429SOL     OW36745   1.323   2.803  16.483  0.3459 -0.5036 -0.2335
 8429SOL    HW136746   1.302   2.814  16.390 -1.0961  1.7841  0.3482
 8429SOL    HW236747   1.397   2.742  16.486 -0.1302 -0.9947  1.5247
 8430SOL     OW36748   3.506   2.173   6.097 -0.3705  0.4743  0.4331
 8430SOL    HW136749   3.535   2.179   6.188 -1.2407  2.6849  0.5756
 8430SOL    HW236750   3.535   2.084   6.076 -0.4471  0.4184  0.5651
 8431SOL     OW36751   2.830   0.170   8.491 -0.2454  0.1281  0.4043
 8431SOL    HW136752   2.801   0.097   8.435  0.4430  0.5463 -0.4876
 8431SOL    HW236753   2.923   0.173   8.470 -0.0891 -2.3871  0.7631
 8432SOL     OW36754   0.470   2.170   2.771  0.1493 -0.0856  0.4413
 8432SOL    HW136755   0.398   2.197   2.713  0.1302 -1.3166 -0.0906
 8432SOL    HW236756   0.462   2.075   2.769  3.0714 -0.2839 -1.4249
 8433SOL     OW36757   4.171   1.147   6.193 -0.0552  0.6035 -0.9785
 8433SOL    HW136758   4.239   1.091   6.155  0.9267  2.5098 -1.9790
 8433SOL    HW236759   4.089   1.104   6.167  0.4884 -0.3502 -1.1325
 8434SOL     OW36760   3.156   4.339   2.773 -0.1012  0.1025  0.6590
 8434SOL    HW136761   3.200   4.352   2.690  1.5805  1.0783  1.7045
 8434SOL    HW236762   3.091   4.409   2.766 -1.0828 -0.7714  1.0462
 8435SOL     OW36763   2.469   0.577   5.386  0.2140  0.2299  0.6625
 8435SOL    HW136764   2.448   0.532   5.304 -0.7911  4.8483 -1.6384
 8435SOL    HW236765   2.469   0.669   5.358  0.2275 -0.1148 -0.4939
 8436SOL     OW36766   0.334   4.264   6.717 -1.0424 -0.0647  0.2628
 8436SOL    HW136767   0.311   4.174   6.693  1.9843 -0.4437 -1.1603
 8436SOL    HW236768   0.246   4.276   6.753 -1.5426 -0.5119 -0.8165
 8437SOL     OW36769   2.622   0.871   8.392 -0.1979 -0.8647 -0.3965
 8437SOL    HW136770   2.586   0.904   8.474  1.8038  2.5475 -0.8605
 8437SOL    HW236771   2.710   0.840   8.415 -0.5040 -1.1247  0.3842
 8438SOL     OW36772   1.142   3.819   5.019 -0.1834  0.5177 -0.6744
 8438SOL    HW136773   1.068   3.868   5.056 -0.4772  0.6584 -1.4287
 8438SOL    HW236774   1.108   3.806   4.930 -0.9545  1.8738 -0.5894
 8439SOL     OW36775   3.823   4.348   6.684  0.1473 -0.0249  0.2177
 8439SOL    HW136776   3.854   4.325   6.772  0.7750  1.3438  0.3505
 8439SOL    HW236777   3.856   4.437   6.677 -1.8119  0.7924  1.2609
 8440SOL     OW36778   4.493   0.393   7.779 -0.3626 -0.0528 -0.5921
 8440SOL    HW136779   4.460   0.452   7.711  0.5878 -0.1253 -1.1166
 8440SOL    HW236780   4.562   0.449   7.814 -2.0994  1.3054  0.7038
 8441SOL     OW36781   3.661   3.019   3.432  0.1154 -0.3406  0.6255
 8441SOL    HW136782   3.744   2.994   3.472  0.1729 -0.9590  0.1276
 8441SOL    HW236783   3.607   2.958   3.482 -0.1479 -2.8742 -2.7105
 8442SOL     OW36784   2.597   0.595   7.695  0.6732 -0.1434  0.1332
 8442SOL    HW136785   2.554   0.629   7.774  0.2540 -0.2350 -0.0542
 8442SOL    HW236786   2.606   0.508   7.732 -1.0582 -0.1799  0.4909
 8443SOL     OW36787   2.561   0.476   3.521 -0.9448 -0.5446 -0.3711
 8443SOL    HW136788   2.560   0.429   3.438  1.3561 -0.1274 -0.6320
 8443SOL    HW236789   2.632   0.538   3.505 -0.4678 -1.1277 -0.5167
 8444SOL     OW36790   0.480   4.526   1.610 -0.1294  0.3284  0.9873
 8444SOL    HW136791   0.557   4.478   1.580  0.6989  0.2664  3.1964
 8444SOL    HW236792   0.424   4.508   1.535 -0.7454  0.7706  1.3471
 8445SOL     OW36793   0.100   0.367  16.410 -0.4147 -0.0796  0.3552
 8445SOL    HW136794   0.194   0.362  16.395 -0.0801  0.4472  2.2746
 8445SOL    HW236795   0.076   0.275  16.410 -1.9306  0.3079  0.0234
 8446SOL     OW36796   0.382   4.454   5.173 -0.1699 -0.5193 -0.0665
 8446SOL    HW136797   0.378   4.484   5.263  1.0287 -0.1486 -0.1344
 8446SOL    HW236798   0.398   4.361   5.191  1.1637 -0.1372  0.7116
 8447SOL     OW36799   2.778   2.776   2.274  0.1155  0.1712 -0.4999
 8447SOL    HW136800   2.707   2.796   2.335  1.5686  0.2443  1.1876
 8447SOL    HW236801   2.723   2.747   2.201 -0.1899  0.0652 -0.2280
 8448SOL     OW36802   1.397   4.503   3.572 -0.0430 -0.1315  1.0849
 8448SOL    HW136803   1.482   4.497   3.528 -0.9771 -4.8216 -0.1346
 8448SOL    HW236804   1.347   4.434   3.527  1.3896 -1.1335  1.0159
 8449SOL     OW36805   3.160   2.368   2.112  0.0450 -0.2589  0.6077
 8449SOL    HW136806   3.192   2.458   2.102  1.7171 -0.7600  1.5113
 8449SOL    HW236807   3.245   2.340   2.146  0.4213 -0.2402 -0.3207
 8450SOL     OW36808   1.178   3.706  17.332 -0.0246  0.0854 -0.6452
 8450SOL    HW136809   1.236   3.753  17.273  1.5190  0.6363  1.3042
 8450SOL    HW236810   1.097   3.756  17.324  0.7604  1.1753 -1.6184
 8451SOL     OW36811   3.826   1.911  12.117  0.2019  0.3562  0.2653
 8451SOL    HW136812   3.896   1.851  12.092  1.6417  1.7409  1.0164
 8451SOL    HW236813   3.878   1.969  12.173 -1.4558  1.0741  1.0633
 8452SOL     OW36814   2.029   4.039  14.627  0.5792 -0.5106 -0.2669
 8452SOL    HW136815   2.104   4.074  14.674  1.6994 -0.6591 -1.9596
 8452SOL    HW236816   2.076   3.977  14.573 -0.8112 -0.2121 -1.8317
 8453SOL     OW36817   1.439   0.298   2.438  0.2933 -0.1899 -0.2571
 8453SOL    HW136818   1.500   0.234   2.473 -0.1053  0.2470  1.2526
 8453SOL    HW236819   1.491   0.319   2.361  3.3747  1.0005  2.1428
 8454SOL     OW36820   0.961   1.017   1.940  0.6866  0.2859 -0.1558
 8454SOL    HW136821   0.969   1.058   2.026 -0.1734 -1.0209  0.5522
 8454SOL    HW236822   0.887   1.058   1.895  1.7651 -0.6805 -2.8181
 8455SOL     OW36823   0.996   0.064  14.280  0.3067 -0.1360  0.3465
 8455SOL    HW136824   0.925   0.022  14.328  0.7549 -1.9064 -0.5355
 8455SOL    HW236825   0.975   0.153  14.307 -2.0665 -0.3386 -0.8203
 8456SOL     OW36826   3.623   1.512   3.951  0.1352 -0.4608 -0.0235
 8456SOL    HW136827   3.610   1.478   3.863  0.9804 -0.6602 -0.0794
 8456SOL    HW236828   3.535   1.534   3.981 -0.0910 -1.5019  0.0810
 8457SOL     OW36829   3.799   0.037   4.583 -0.1094  0.4625  0.5615
 8457SOL    HW136830   3.758   0.020   4.667 -0.0668  0.4248  0.5747
 8457SOL    HW236831   3.721   0.035   4.528 -0.1956 -0.0938  0.7037
 8458SOL     OW36832   1.235   4.236   1.714  0.4702  0.2499  0.6678
 8458SOL    HW136833   1.295   4.266   1.646 -0.7225  0.2427 -0.3821
 8458SOL    HW236834   1.167   4.301   1.699  1.8498  1.1713 -1.6536
 8459SOL     OW36835   3.568   4.274   6.704 -0.0255 -0.2516  0.3539
 8459SOL    HW136836   3.564   4.284   6.799 -0.4699 -2.8316  0.5821
 8459SOL    HW236837   3.661   4.256   6.697 -0.0032  1.0593 -2.5169
 8460SOL     OW36838   1.304   1.694   7.914  0.0673 -0.1151  0.5136
 8460SOL    HW136839   1.357   1.668   7.838 -1.1165  0.3678 -0.4668
 8460SOL    HW236840   1.323   1.625   7.977 -0.3879 -0.4323  0.3000
 8461SOL     OW36841   0.167   1.207   5.084 -0.2744 -0.9439  0.4913
 8461SOL    HW136842   0.122   1.250   5.157 -2.6121 -1.7805 -0.4413
 8461SOL    HW236843   0.090   1.197   5.027  0.7655 -1.1400 -0.8688
 8462SOL     OW36844   2.856   1.242  11.857 -0.0401 -0.1687 -0.4131
 8462SOL    HW136845   2.925   1.176  11.845  0.5564 -0.0689  2.5293
 8462SOL    HW236846   2.783   1.197  11.898  0.3341 -1.4659 -1.1616
 8463SOL     OW36847   0.112   1.358   7.332 -0.1697 -0.1282  0.2360
 8463SOL    HW136848   0.024   1.343   7.296 -0.2840  1.4297 -0.1223
 8463SOL    HW236849   0.095   1.410   7.410 -0.6215 -0.3498  0.2815
 8464SOL     OW36850   0.653   3.722  11.954  0.4927  0.3382 -0.2438
 8464SOL    HW136851   0.646   3.812  11.987 -1.6718  0.0572  0.0627
 8464SOL    HW236852   0.588   3.730  11.885 -1.2816 -0.2159  1.3734
 8465SOL     OW36853   4.252   0.206  11.513 -0.0773  0.3868 -0.2138
 8465SOL    HW136854   4.330   0.254  11.484  0.3844 -0.5217 -0.4716
 8465SOL    HW236855   4.248   0.215  11.609  1.3497 -2.9585  0.1574
 8466SOL     OW36856   1.474   3.708   0.141  0.1195 -0.2493  0.0012
 8466SOL    HW136857   1.521   3.649   0.082  1.0715  1.6922 -1.1862
 8466SOL    HW236858   1.526   3.788   0.138 -3.1044  1.7874 -1.1669
 8467SOL     OW36859   3.033   1.725  13.061 -0.5107 -0.2235 -0.0727
 8467SOL    HW136860   3.121   1.740  13.028 -0.1400 -2.3565 -0.0731
 8467SOL    HW236861   3.046   1.654  13.124 -0.0266  0.4421  0.5732
 8468SOL     OW36862   0.086   1.218   6.958 -0.5105 -0.4889 -0.3211
 8468SOL    HW136863   4.722   1.238   6.924 -0.1844 -1.2369 -1.6204
 8468SOL    HW236864   0.107   1.303   6.998 -0.5331 -1.4615  1.7409
 8469SOL     OW36865   1.439   1.608   7.040  0.0142 -0.0023  0.3671
 8469SOL    HW136866   1.363   1.652   7.077 -0.4500  0.9149 -1.6831
 8469SOL    HW236867   1.414   1.516   7.050  2.3934 -0.6863 -0.0962
 8470SOL     OW36868   2.938   4.431   7.005 -0.1078 -0.5211 -0.2986
 8470SOL    HW136869   2.856   4.470   6.976 -0.3594 -0.5048  0.4348
 8470SOL    HW236870   2.975   4.516   7.028 -3.6190  1.1707 -0.8167
 8471SOL     OW36871   2.816   2.824   9.606 -0.4090  0.3004 -0.7376
 8471SOL    HW136872   2.811   2.860   9.695 -0.5838 -2.2025  0.2603
 8471SOL    HW236873   2.843   2.736   9.632  3.0146  1.2974 -0.8986
 8472SOL     OW36874   0.894   1.453   7.565 -0.1631  0.0402 -0.1712
 8472SOL    HW136875   0.868   1.448   7.474 -1.4344  0.8321  0.1533
 8472SOL    HW236876   0.989   1.449   7.548 -0.2783 -0.4538 -0.6902
 8473SOL     OW36877   0.248   1.760   2.154  0.1067  0.0181 -0.5404
 8473SOL    HW136878   0.320   1.805   2.110  1.5143 -0.5137  1.2043
 8473SOL    HW236879   0.284   1.737   2.240  0.5166  0.6629 -0.5402
 8474SOL     OW36880   2.434   1.391   0.269  0.6119 -0.0114 -0.0808
 8474SOL    HW136881   2.405   1.398   0.178 -0.9772 -1.8533  0.2694
 8474SOL    HW236882   2.382   1.465   0.301  2.0555  1.2137 -0.6281
 8475SOL     OW36883   1.337   3.208   3.554 -0.1465  0.0441 -0.6060
 8475SOL    HW136884   1.307   3.196   3.645  0.1391  1.2187 -0.3609
 8475SOL    HW236885   1.421   3.163   3.547 -0.4984 -0.9930  1.7778
 8476SOL     OW36886   1.030   0.454   7.491  0.2808  0.7411  0.5597
 8476SOL    HW136887   0.953   0.402   7.467  3.5121 -3.3575 -0.8618
 8476SOL    HW236888   1.021   0.458   7.586 -0.1684  0.3605  0.5325
 8477SOL     OW36889   3.756   3.923   5.785 -0.1315 -0.2448 -0.1040
 8477SOL    HW136890   3.675   3.921   5.733 -0.2389  0.3495  0.0370
 8477SOL    HW236891   3.752   3.840   5.833 -0.1042  0.9840  2.0058
 8478SOL     OW36892   2.028   4.619   4.627 -0.3153 -0.8760 -0.3226
 8478SOL    HW136893   2.038   4.714   4.619 -1.2495 -0.5607  2.3145
 8478SOL    HW236894   1.935   4.606   4.642 -0.4496 -1.4624 -1.6723
 8479SOL     OW36895   2.045   1.867   6.099 -0.4208  0.4420  0.4068
 8479SOL    HW136896   2.075   1.865   6.190  0.2602  0.9685  0.2028
 8479SOL    HW236897   1.993   1.788   6.090  0.1668  0.2458 -1.2137
 8480SOL     OW36898   0.162   0.856   2.679 -0.1695 -0.2440 -1.4496
 8480SOL    HW136899   0.235   0.851   2.741 -1.1826 -1.4334 -0.3792
 8480SOL    HW236900   0.151   0.951   2.682  0.1624 -0.2312 -0.5826
 8481SOL     OW36901   0.287   3.432  13.613  0.0229 -0.1592  0.0136
 8481SOL    HW136902   0.355   3.448  13.679 -0.8749 -1.2058  1.2037
 8481SOL    HW236903   0.207   3.424  13.666  0.8049 -0.7914  1.1198
 8482SOL     OW36904   1.617   1.729   1.537  0.0031  0.9562  0.1956
 8482SOL    HW136905   1.683   1.687   1.482 -2.7567 -2.8019 -0.2322
 8482SOL    HW236906   1.679   1.792   1.574  1.5951 -0.8937  0.6507
 8483SOL     OW36907   0.305   3.089   8.685 -0.0510  0.3788  0.3409
 8483SOL    HW136908   0.267   3.002   8.673  1.1198 -0.1449  0.4015
 8483SOL    HW236909   0.227   3.125   8.725  0.1408  2.4767 -1.1859
 8484SOL     OW36910   4.352   2.497  14.007 -0.3154  0.2502  0.0039
 8484SOL    HW136911   4.394   2.445  14.075 -2.6565 -1.4045  0.1515
 8484SOL    HW236912   4.425   2.539  13.960  0.0065  1.2063  1.3625
 8485SOL     OW36913   2.500   3.410  15.853 -0.1212 -0.2496  0.0325
 8485SOL    HW136914   2.545   3.451  15.926 -1.1709  1.2998 -0.1748
 8485SOL    HW236915   2.571   3.367  15.807  0.0984  1.1255 -0.9292
 8486SOL     OW36916   1.390   2.611   6.735 -0.4415  0.1074  0.1676
 8486SOL    HW136917   1.358   2.544   6.674  0.7066 -0.7494  0.5078
 8486SOL    HW236918   1.362   2.558   6.810  0.3711  0.3343  0.6348
 8487SOL     OW36919   2.490   0.755   8.176  1.1962  0.4745 -0.2887
 8487SOL    HW136920   2.435   0.698   8.229 -0.2737  1.8740 -0.3199
 8487SOL    HW236921   2.535   0.800   8.248 -0.2166  1.3552  0.0414
 8488SOL     OW36922   0.951   4.300   3.454 -0.0250 -0.1123 -0.4679
 8488SOL    HW136923   0.977   4.365   3.518 -1.7668  0.4684 -0.3564
 8488SOL    HW236924   0.936   4.345   3.371 -0.7944  0.5943  0.0668
 8489SOL     OW36925   4.172   2.516   0.024  0.3062  0.0313 -0.2908
 8489SOL    HW136926   4.110   2.507   0.097 -1.0780  2.2484 -1.1803
 8489SOL    HW236927   4.191   2.609   0.019 -0.1232  0.1214 -0.2476
 8490SOL     OW36928   3.403   3.660   4.691 -0.0539 -0.4165 -0.5351
 8490SOL    HW136929   3.321   3.613   4.678  0.2320 -1.4813  1.4561
 8490SOL    HW236930   3.393   3.647   4.786 -1.4402  2.6597 -0.2874
 8491SOL     OW36931   0.531   0.086   9.556  0.7423 -0.0645  0.2308
 8491SOL    HW136932   0.495   0.064   9.471 -0.1095 -0.7983  0.7798
 8491SOL    HW236933   0.570   0.005   9.589 -1.7172 -1.1644  0.4752
 8492SOL     OW36934   4.574   1.534   7.446  0.2154 -0.0281 -0.4852
 8492SOL    HW136935   4.513   1.591   7.493  0.4435  0.0257 -0.2504
 8492SOL    HW236936   4.631   1.508   7.519 -2.2462 -2.4205  0.6204
 8493SOL     OW36937   4.499   1.275   7.092 -0.2138  0.6309 -0.1874
 8493SOL    HW136938   4.523   1.240   7.178 -3.8460  0.4139  0.7365
 8493SOL    HW236939   4.460   1.198   7.050 -1.3567  1.2919 -0.3489
 8494SOL     OW36940   3.400   2.126   1.087 -0.2235  0.1447  0.1540
 8494SOL    HW136941   3.462   2.054   1.102  1.5922  1.3891 -1.3494
 8494SOL    HW236942   3.404   2.145   0.993  0.0615 -1.4901 -0.1671
 8495SOL     OW36943   3.230   0.306   8.015  0.0662  0.0623 -0.2461
 8495SOL    HW136944   3.178   0.338   8.089  0.1081  1.3147 -0.7494
 8495SOL    HW236945   3.261   0.393   7.989 -0.4808  0.6065  0.9248
 8496SOL     OW36946   3.254   4.365   0.237 -0.2239  0.0429 -0.2666
 8496SOL    HW136947   3.344   4.386   0.214 -0.2414 -1.1004 -1.4003
 8496SOL    HW236948   3.237   4.339   0.146  0.6897 -2.0826  0.1622
 8497SOL     OW36949   1.358   1.288   4.507 -0.1059 -0.6990  0.2955
 8497SOL    HW136950   1.396   1.205   4.537 -1.3442 -0.8050  1.6000
 8497SOL    HW236951   1.363   1.283   4.412 -1.8075  1.6393  0.0938
 8498SOL     OW36952   0.081   0.312   4.664 -0.3051  0.4186  0.3385
 8498SOL    HW136953   0.021   0.344   4.597 -0.2275 -0.6045 -0.2074
 8498SOL    HW236954   0.164   0.358   4.647 -0.3544  0.7928  1.1021
 8499SOL     OW36955   1.467   3.274   1.187  0.1638 -0.4634  0.3103
 8499SOL    HW136956   1.549   3.304   1.149 -1.4462 -0.7449 -3.4017
 8499SOL    HW236957   1.448   3.350   1.241 -0.3785 -0.3406 -0.0488
 8500SOL     OW36958   4.523   4.322   3.670  0.3900  0.1951 -0.1411
 8500SOL    HW136959   4.494   4.261   3.602 -1.6289 -0.6807  1.5087
 8500SOL    HW236960   4.543   4.402   3.622 -2.5395  1.8132  1.3518
 8501SOL     OW36961   3.263   0.416   3.488  0.1029  0.1977  0.1408
 8501SOL    HW136962   3.174   0.442   3.510 -0.0902 -0.1740 -0.1964
 8501SOL    HW236963   3.283   0.362   3.565  0.8389  1.1369  0.6048
 8502SOL     OW36964   2.400   0.947   4.067 -0.0570 -0.3835 -0.3689
 8502SOL    HW136965   2.360   1.020   4.115 -2.0836 -0.6748 -1.6213
 8502SOL    HW236966   2.411   0.988   3.982  1.5549  0.7150  0.3694
 8503SOL     OW36967   0.551   4.184   4.616 -0.2231  0.3047  0.3413
 8503SOL    HW136968   0.499   4.251   4.659 -0.1697 -0.8809  2.2403
 8503SOL    HW236969   0.523   4.200   4.526 -0.0783 -1.8767 -0.1040
 8504SOL     OW36970   0.123   2.310   6.375 -0.3903 -0.1887 -0.0178
 8504SOL    HW136971   0.067   2.284   6.301  0.4747  1.9725 -1.4175
 8504SOL    HW236972   0.136   2.402   6.356  2.5742 -1.1049 -2.2875
 8505SOL     OW36973   2.556   4.044  13.139  0.1937 -1.0005  0.3308
 8505SOL    HW136974   2.497   3.981  13.096 -0.1981 -0.3088 -0.1406
 8505SOL    HW236975   2.627   4.048  13.075  0.3140 -0.3023  0.5069
 8506SOL     OW36976   0.728   3.119   0.385 -0.0148 -0.1627 -0.6476
 8506SOL    HW136977   0.771   3.045   0.428  3.0231  1.2934 -1.1674
 8506SOL    HW236978   0.675   3.153   0.458 -2.1639 -2.1417 -1.2998
 8507SOL     OW36979   1.024   4.578   2.680 -0.2572 -1.0185  0.0315
 8507SOL    HW136980   1.074   4.625   2.613 -0.9879  0.6698  0.6518
 8507SOL    HW236981   0.932   4.600   2.660  0.5836  1.6720 -0.9582
 8508SOL     OW36982   2.332   4.335   2.864  0.0232  0.0126  0.1535
 8508SOL    HW136983   2.312   4.283   2.786  0.3800  0.3796 -0.1788
 8508SOL    HW236984   2.356   4.421   2.831  0.6478 -0.0638  0.4047
 8509SOL     OW36985   0.696   3.532   6.044  0.7224 -0.2319 -0.0606
 8509SOL    HW136986   0.727   3.618   6.072 -1.0320 -0.2635  1.9499
 8509SOL    HW236987   0.633   3.518   6.114 -0.5061 -0.6875 -1.2612
 8510SOL     OW36988   0.002   3.551   9.307  0.4536 -0.6083 -0.1435
 8510SOL    HW136989   4.660   3.481   9.306  0.7376 -0.9364  3.0296
 8510SOL    HW236990   0.084   3.502   9.320  2.0900  1.6353 -2.0380
 8511SOL     OW36991   1.409   3.961   8.614 -0.1143  0.0307 -0.2313
 8511SOL    HW136992   1.354   3.889   8.645 -1.7544  1.8505  1.0816
 8511SOL    HW236993   1.482   3.961   8.676 -0.8235 -0.6599  0.6007
 8512SOL     OW36994   4.187   2.705   2.079  0.4196 -0.0971 -0.3935
 8512SOL    HW136995   4.283   2.709   2.080  0.3845  0.0992  1.5284
 8512SOL    HW236996   4.166   2.782   2.027  1.2412  0.5677  0.2498
 8513SOL     OW36997   2.197   4.624   2.968 -0.0618  0.3973 -0.1032
 8513SOL    HW136998   2.251   4.571   3.027  0.7532 -0.9864 -2.1000
 8513SOL    HW236999   2.173   4.687   3.037  2.2805  1.5146 -0.2924
 8514SOL     OW37000   4.414   3.560   8.935  0.0862 -0.4082 -0.1998
 8514SOL    HW137001   4.343   3.563   8.870  0.4407  0.5719 -0.5425
 8514SOL    HW237002   4.430   3.654   8.947  2.2579 -0.7636 -0.1977
 8515SOL     OW37003   0.583   1.844   2.773  0.0580  0.4915 -0.2721
 8515SOL    HW137004   0.556   1.852   2.682 -1.3081  1.1689  0.1935
 8515SOL    HW237005   0.515   1.794   2.818  0.5708  0.1153  0.0820
 8516SOL     OW37006   2.412   3.868   3.376  0.3047 -0.3363  0.0118
 8516SOL    HW137007   2.420   3.886   3.470 -0.4495  2.2409 -0.4024
 8516SOL    HW237008   2.446   3.951   3.343 -0.0580 -0.0587  0.3386
 8517SOL     OW37009   1.447   3.632   5.570 -0.1844  0.0990 -0.2611
 8517SOL    HW137010   1.470   3.669   5.484 -2.0291  0.7850 -0.4419
 8517SOL    HW237011   1.458   3.712   5.622  1.9354  0.4563 -1.2515
 8518SOL     OW37012   4.107   3.757   7.004  0.1805 -0.0765 -0.5358
 8518SOL    HW137013   4.079   3.712   7.083 -2.0889 -1.4903 -2.1666
 8518SOL    HW237014   4.197   3.778   7.031 -1.1783  1.9029  2.4487
 8519SOL     OW37015   3.191   3.381   8.864 -0.3217 -0.4399  0.1916
 8519SOL    HW137016   3.142   3.453   8.902 -1.1322 -0.5942 -0.5602
 8519SOL    HW237017   3.129   3.357   8.795 -0.9701  3.7543 -0.6345
 8520SOL     OW37018   0.484   1.209   8.115  0.1361  0.3680 -0.1155
 8520SOL    HW137019   0.541   1.145   8.072  0.6891  0.6154  0.2528
 8520SOL    HW237020   0.523   1.296   8.107  0.8627  0.1053  0.5070
 8521SOL     OW37021   1.246   1.540   3.437  0.4327 -0.4420  0.6196
 8521SOL    HW137022   1.277   1.451   3.454  2.6582  0.5041  1.4413
 8521SOL    HW237023   1.175   1.529   3.373  0.6978  2.3373 -0.1286
 8522SOL     OW37024   3.642   1.636   1.059  0.1228 -0.1425 -0.7434
 8522SOL    HW137025   3.572   1.578   1.028  0.2390 -2.1092  2.6194
 8522SOL    HW237026   3.707   1.652   0.990 -0.1768 -1.9539 -1.4735
 8523SOL     OW37027   1.586   1.792   7.207  0.0914 -0.4618 -0.0687
 8523SOL    HW137028   1.528   1.720   7.181  2.1877 -2.1170 -0.1845
 8523SOL    HW237029   1.652   1.783   7.138 -1.2808  1.8365 -1.6902
 8524SOL     OW37030   0.961   0.142   4.288  0.1639  0.5935 -0.3396
 8524SOL    HW137031   0.955   0.067   4.229  2.2385  0.9352 -0.9639
 8524SOL    HW237032   0.994   0.113   4.373 -0.9890 -0.2957 -0.1891
 8525SOL     OW37033   0.062   1.442  10.306 -0.1674 -0.3987 -0.2459
 8525SOL    HW137034   0.134   1.441  10.242 -0.3872 -0.3587 -0.4957
 8525SOL    HW237035   0.100   1.477  10.387 -0.6809 -1.4327  0.4394
 8526SOL     OW37036   0.306   2.278   8.332  0.2381  0.2516  0.2673
 8526SOL    HW137037   0.355   2.270   8.414  0.4406 -0.5596  0.0657
 8526SOL    HW237038   0.236   2.339   8.357  0.0116 -0.9947  2.7459
 8527SOL     OW37039   2.994   3.706   5.978 -0.0601 -0.3344 -0.4105
 8527SOL    HW137040   2.979   3.681   6.069  1.6229 -0.0887 -0.0610
 8527SOL    HW237041   3.088   3.700   5.960  0.0501 -0.7028  0.2833
 8528SOL     OW37042   4.450   0.263   8.210  0.3543 -0.0664 -0.2029
 8528SOL    HW137043   4.432   0.212   8.131  0.2238  0.2597 -0.3818
 8528SOL    HW237044   4.498   0.340   8.179 -1.4572  1.7019  1.3248
 8529SOL     OW37045   0.943   2.769  17.123  0.0162  1.0017  0.3602
 8529SOL    HW137046   0.990   2.699  17.167  0.3669 -0.2146 -1.9623
 8529SOL    HW237047   0.983   2.768  17.036 -0.5889  0.6747  0.0861
 8530SOL     OW37048   3.060   3.941  10.507 -0.0748  0.3364 -0.3416
 8530SOL    HW137049   3.055   3.941  10.411  2.5596 -0.4478 -0.4954
 8530SOL    HW237050   3.067   4.034  10.525 -0.2602  0.3382 -0.2841
 8531SOL     OW37051   1.821   2.988   3.836 -0.0285 -0.4967  0.0679
 8531SOL    HW137052   1.815   2.907   3.886  0.4703 -0.8821 -0.5087
 8531SOL    HW237053   1.796   3.054   3.901 -0.1177  0.4516 -0.9365
 8532SOL     OW37054   2.720   1.142   5.850 -0.4565  0.1838 -0.0274
 8532SOL    HW137055   2.686   1.213   5.905  1.2018 -0.0489  1.2986
 8532SOL    HW237056   2.753   1.088   5.922  2.6352  1.2171 -0.6727
 8533SOL     OW37057   3.978   1.626  16.228 -0.0075  0.2011  0.1711
 8533SOL    HW137058   4.058   1.665  16.193 -0.3510  2.7785  2.2526
 8533SOL    HW237059   3.992   1.533  16.213  0.8993  0.4629 -0.6190
 8534SOL     OW37060   0.843   1.216   7.670  0.2442 -0.1031  0.0975
 8534SOL    HW137061   0.938   1.224   7.685  0.9525 -3.6353 -2.5399
 8534SOL    HW237062   0.827   1.303   7.632 -2.5948 -0.4660  0.4648
 8535SOL     OW37063   1.172   1.786   6.400 -0.8827  0.4054  0.1352
 8535SOL    HW137064   1.260   1.814   6.424 -1.0075  0.8778  0.0379
 8535SOL    HW237065   1.132   1.770   6.486  0.4227 -1.6545  0.3645
 8536SOL     OW37066   0.115   0.284   2.270 -0.5946  0.5201  0.2132
 8536SOL    HW137067   0.141   0.356   2.328 -1.4079  0.1619  1.0041
 8536SOL    HW237068   0.180   0.298   2.201 -0.7451 -0.1269 -0.0626
 8537SOL     OW37069   0.788   1.873   7.316  0.4256 -0.3849 -0.4378
 8537SOL    HW137070   0.760   1.932   7.246  3.2096  0.7923 -0.5451
 8537SOL    HW237071   0.708   1.878   7.368 -1.2258 -0.1569 -2.9958
 8538SOL     OW37072   3.950   0.280   4.213 -0.0207  0.4261  0.7646
 8538SOL    HW137073   4.037   0.292   4.252  0.8637 -1.6949 -0.5833
 8538SOL    HW237074   3.896   0.340   4.265 -0.2590  1.7955 -1.0675
 8539SOL     OW37075   1.863   3.448   4.984  0.1527 -0.1990  0.0121
 8539SOL    HW137076   1.799   3.518   4.972  0.4043  0.2996  1.6445
 8539SOL    HW237077   1.946   3.489   4.963 -1.0984  1.2893 -2.0020
 8540SOL     OW37078   0.552   0.618   3.620  0.4164 -0.2787 -0.9082
 8540SOL    HW137079   0.522   0.534   3.656 -1.4091  0.3533 -0.9458
 8540SOL    HW237080   0.645   0.620   3.642  0.2813 -0.2305 -0.3503
 8541SOL     OW37081   2.143   3.214   1.302 -0.4874 -0.1461 -0.2074
 8541SOL    HW137082   2.050   3.191   1.303 -0.4049 -0.5693 -3.2613
 8541SOL    HW237083   2.159   3.191   1.394  0.8565 -0.3656 -0.5031
 8542SOL     OW37084   2.940   1.552  15.357  0.0015  0.7411  0.3730
 8542SOL    HW137085   2.977   1.636  15.383 -2.2728  1.8365  0.0570
 8542SOL    HW237086   2.919   1.510  15.440  2.8299 -0.1851  0.6339
 8543SOL     OW37087   4.483   1.487  10.897 -0.0108  0.0244  1.0977
 8543SOL    HW137088   4.429   1.563  10.916  0.9353  0.9336  0.1602
 8543SOL    HW237089   4.437   1.454  10.820  0.3756  0.2520  0.7711
 8544SOL     OW37090   2.811   3.810  11.099  0.7515 -0.3594 -0.0928
 8544SOL    HW137091   2.875   3.824  11.169 -0.4706 -1.5552  1.2797
 8544SOL    HW237092   2.754   3.741  11.134 -0.0823  0.2299 -0.2771
 8545SOL     OW37093   1.163   3.041   7.168 -0.1469 -0.1899 -0.2290
 8545SOL    HW137094   1.143   3.134   7.155 -0.4304 -0.3084 -0.6147
 8545SOL    HW237095   1.070   3.025   7.182 -0.8236  2.9954 -1.0327
 8546SOL     OW37096   3.947   2.543   7.430  0.2743 -0.1737  0.1957
 8546SOL    HW137097   4.011   2.598   7.383  0.6425 -2.5077 -2.0731
 8546SOL    HW237098   3.997   2.462   7.432  1.3783  0.3667 -4.3547
 8547SOL     OW37099   1.541   4.370   0.054 -0.1954 -0.4674  0.0840
 8547SOL    HW137100   1.514   4.279   0.037 -0.3809 -0.4875  0.4940
 8547SOL    HW237101   1.519   4.380   0.146  0.3740 -1.8482  0.3755
 8548SOL     OW37102   3.152   2.980  10.192 -0.1607 -0.4226 -0.3423
 8548SOL    HW137103   3.153   3.071  10.220  0.0467  0.0589 -1.9686
 8548SOL    HW237104   3.244   2.963  10.171 -0.1106  0.4022 -0.7562
 8549SOL     OW37105   4.499   3.468   5.225  0.0295  0.3908 -0.3166
 8549SOL    HW137106   4.416   3.431   5.256  0.9665 -0.7294  0.8572
 8549SOL    HW237107   4.559   3.402   5.259 -2.0661 -1.7155 -0.7784
 8550SOL     OW37108   0.293   1.433   4.735 -0.0767 -0.4416 -0.1858
 8550SOL    HW137109   0.220   1.426   4.673  1.4392  1.8391 -2.2181
 8550SOL    HW237110   0.342   1.504   4.695  0.9902 -2.0380 -1.7360
 8551SOL     OW37111   0.387   3.695   8.690 -0.4632  0.2245  0.0408
 8551SOL    HW137112   0.353   3.778   8.722  0.4360 -0.0570  1.7049
 8551SOL    HW237113   0.470   3.695   8.737 -0.3849 -2.0841 -0.0725
 8552SOL     OW37114   1.667   0.595   3.203 -0.0184  0.2532  0.6797
 8552SOL    HW137115   1.727   0.549   3.143  0.2577 -1.0197  1.9347
 8552SOL    HW237116   1.726   0.631   3.269  2.3787 -1.1654 -0.6838
 8553SOL     OW37117   3.162   0.385  13.956  0.0053 -0.1187 -0.1744
 8553SOL    HW137118   3.220   0.336  13.898  1.2749  1.4818 -0.2783
 8553SOL    HW237119   3.135   0.320  14.021 -0.4412  2.7871  2.5748
 8554SOL     OW37120   0.754   0.764   5.216  0.3800  0.6425  0.1410
 8554SOL    HW137121   0.695   0.782   5.143 -0.6633  0.2070  0.8656
 8554SOL    HW237122   0.747   0.837   5.278 -1.6932 -1.0721  1.9443
 8555SOL     OW37123   4.604   0.064   9.689  0.3441 -0.4820  0.0854
 8555SOL    HW137124   4.526   0.040   9.640  2.9049 -2.6711 -2.9221
 8555SOL    HW237125   4.664   0.075   9.615 -0.8795 -2.5279 -1.2010
 8556SOL     OW37126   3.356   4.158   4.260 -0.1511  0.0757  0.0861
 8556SOL    HW137127   3.269   4.160   4.302 -0.5991  2.1167 -0.9768
 8556SOL    HW237128   3.331   4.099   4.189  0.3558 -0.4619  0.3594
 8557SOL     OW37129   1.280   1.721   6.816  0.1527  0.2562  0.9121
 8557SOL    HW137130   1.325   1.798   6.851 -0.1062  2.2875 -3.1344
 8557SOL    HW237131   1.192   1.757   6.824  0.1661  0.4587  0.1183
 8558SOL     OW37132   1.099   1.981   8.960 -0.4684  0.5288  0.0256
 8558SOL    HW137133   1.111   2.060   8.907  0.1963 -0.6257 -1.5912
 8558SOL    HW237134   1.091   2.015   9.048 -0.0986 -1.7992  0.9632
 8559SOL     OW37135   2.186   4.480  14.718 -0.1313 -0.4914  0.5043
 8559SOL    HW137136   2.260   4.487  14.780 -0.6196  2.7107  0.7380
 8559SOL    HW237137   2.202   4.559  14.667  1.4256 -0.0927  1.6007
 8560SOL     OW37138   0.797   3.444   6.409 -0.0102  0.1179  0.4242
 8560SOL    HW137139   0.780   3.386   6.335 -2.2273  2.6057 -1.0039
 8560SOL    HW237140   0.846   3.519   6.377 -1.7564  0.9018 -0.3628
 8561SOL     OW37141   3.561   2.150   4.603 -0.2096  0.1685 -0.6716
 8561SOL    HW137142   3.545   2.062   4.569  0.9597  0.5114 -2.0808
 8561SOL    HW237143   3.610   2.193   4.533 -1.7428  2.8763 -0.0944
 8562SOL     OW37144   1.542   4.708   3.942  0.2705 -0.0746 -0.4354
 8562SOL    HW137145   1.498   4.626   3.918 -0.2380 -0.0223  0.3080
 8562SOL    HW237146   1.462   0.035   3.962  0.5521  2.3916 -5.5722
 8563SOL     OW37147   2.621   2.346   7.144 -0.5681 -0.0024  0.2443
 8563SOL    HW137148   2.701   2.342   7.195  0.2801 -0.6576 -1.1288
 8563SOL    HW237149   2.560   2.335   7.217 -1.0467 -0.2153 -0.1842
 8564SOL     OW37150   0.698   0.519   5.324  0.0793  0.0515  0.4436
 8564SOL    HW137151   0.623   0.557   5.369  0.1429 -1.0830  1.5093
 8564SOL    HW237152   0.730   0.601   5.286 -0.3689 -0.8717 -1.9121
 8565SOL     OW37153   1.944   1.249   5.194 -0.6981  0.3845 -0.4572
 8565SOL    HW137154   1.964   1.221   5.105  1.1360 -1.7616  0.6280
 8565SOL    HW237155   1.885   1.178   5.219  3.4362 -2.4055  1.3330
 8566SOL     OW37156   3.476   1.276   1.210  0.1057 -0.3837  0.0506
 8566SOL    HW137157   3.434   1.193   1.231  0.5534 -0.3248  1.1721
 8566SOL    HW237158   3.411   1.346   1.216 -1.0230 -1.2235 -2.4638
 8567SOL     OW37159   2.503   3.079   3.576 -0.3235 -0.0987 -0.2279
 8567SOL    HW137160   2.488   3.022   3.500 -0.1568  1.3760 -1.3813
 8567SOL    HW237161   2.512   3.014   3.646 -1.2838 -0.0490 -0.0682
 8568SOL     OW37162   0.419   4.189   4.124 -0.0954 -0.1990  0.4780
 8568SOL    HW137163   0.496   4.140   4.098 -0.0141  1.2703 -1.9958
 8568SOL    HW237164   0.357   4.182   4.051  0.1544 -1.0755  0.3527
 8569SOL     OW37165   3.881   1.784   2.478  0.2843 -0.6488 -0.4260
 8569SOL    HW137166   3.823   1.791   2.555  0.0222 -2.1982 -0.4860
 8569SOL    HW237167   3.830   1.840   2.420  1.1414  1.2562  0.6388
 8570SOL     OW37168   3.488   0.339  11.981 -0.2502  0.3409  0.0309
 8570SOL    HW137169   3.552   0.372  12.045  1.4959  2.4388 -2.7930
 8570SOL    HW237170   3.516   0.391  11.905 -0.4806 -1.3968 -1.2303
 8571SOL     OW37171   3.274   1.034   3.206  0.0897 -0.0555 -0.4655
 8571SOL    HW137172   3.356   1.015   3.160 -0.5368 -0.4966 -1.3944
 8571SOL    HW237173   3.219   1.088   3.149  0.1135 -0.6090 -1.0140
 8572SOL     OW37174   3.911   1.745   4.033 -0.3007 -0.1410  0.3244
 8572SOL    HW137175   3.970   1.691   4.086 -1.4119 -0.7545  0.9499
 8572SOL    HW237176   3.966   1.813   3.995 -0.5610 -0.9366 -1.4861
 8573SOL     OW37177   3.107   3.742   7.693  0.5668  0.5451  0.0963
 8573SOL    HW137178   3.180   3.712   7.748  1.0822  1.2467 -0.2059
 8573SOL    HW237179   3.111   3.672   7.627  2.0295  0.8710 -0.1716
 8574SOL     OW37180   0.046   4.470  14.292 -0.1671 -0.2794 -0.2080
 8574SOL    HW137181   0.095   4.422  14.358  0.3323 -0.3432 -0.6228
 8574SOL    HW237182   4.690   4.416  14.292  1.3520 -2.4924  0.2079
 8575SOL     OW37183   2.769   3.520  14.145 -0.6892  0.3430 -0.2533
 8575SOL    HW137184   2.743   3.541  14.055 -0.5366 -0.5950 -0.5242
 8575SOL    HW237185   2.778   3.601  14.195  1.4993 -0.1384  0.1261
 8576SOL     OW37186   0.114   1.118  15.293 -0.0179 -0.1362  0.4572
 8576SOL    HW137187   0.032   1.075  15.270  0.0964 -0.4636  0.6685
 8576SOL    HW237188   0.128   1.114  15.388 -0.8243 -1.6099  0.5000
 8577SOL     OW37189   3.164   1.302   3.356  0.3065 -0.0927 -0.0936
 8577SOL    HW137190   3.258   1.314   3.368  0.1697  0.7530  0.1192
 8577SOL    HW237191   3.162   1.284   3.262 -1.1083  0.4400 -0.1704
 8578SOL     OW37192   3.833   2.110   7.576 -0.6449  0.5384  0.4592
 8578SOL    HW137193   3.813   2.019   7.601 -0.3857  0.4442  0.3265
 8578SOL    HW237194   3.787   2.160   7.643  0.3080  1.4294  0.4542
 8579SOL     OW37195   4.047   2.327  16.983  0.3258  0.2407  0.6187
 8579SOL    HW137196   3.976   2.362  16.929  0.8076 -0.4873 -0.4982
 8579SOL    HW237197   4.004   2.265  17.041  3.4871 -0.9958  1.6816
 8580SOL     OW37198   4.346   0.205   9.351  0.1040 -0.5011  0.4600
 8580SOL    HW137199   4.440   0.220   9.337 -0.1067 -1.6808 -2.3436
 8580SOL    HW237200   4.325   0.296   9.374 -2.2245 -1.1005  0.6604
 8581SOL     OW37201   4.566   0.462   8.059  0.1782  0.1246  0.3837
 8581SOL    HW137202   4.496   0.519   8.027 -0.4250 -0.4439  0.6930
 8581SOL    HW237203   4.636   0.477   7.995  0.1247 -0.2891  0.2266
 8582SOL     OW37204   0.836   1.813  13.509 -0.1466 -0.3519 -0.4904
 8582SOL    HW137205   0.787   1.772  13.579 -0.9233  0.4201 -0.5839
 8582SOL    HW237206   0.765   1.864  13.469  2.0109  2.2423 -1.0591
 8583SOL     OW37207   0.869   3.976  15.026  0.1792 -0.4795 -0.5251
 8583SOL    HW137208   0.911   4.043  15.079 -0.6321 -0.0015 -0.4802
 8583SOL    HW237209   0.888   3.999  14.935 -1.4896 -0.9821 -1.0129
 8584SOL     OW37210   0.393   4.717  15.123  0.0834  0.9033  0.8363
 8584SOL    HW137211   0.430   4.717  15.211 -0.6825  1.0713  1.1617
 8584SOL    HW237212   0.338   4.638  15.127 -0.7880  1.3069 -2.5301
 8585SOL     OW37213   1.266   1.746   4.888  0.0737 -0.2292 -0.0962
 8585SOL    HW137214   1.198   1.799   4.931  2.5012  1.7142  1.4026
 8585SOL    HW237215   1.278   1.662   4.931 -0.0344 -0.2038 -0.0140
 8586SOL     OW37216   4.599   0.219   3.031 -0.1679  0.0549 -0.4960
 8586SOL    HW137217   4.557   0.274   3.098  3.1045  1.1649  0.6160
 8586SOL    HW237218   4.545   0.242   2.955 -0.9826 -0.2760 -0.0277
 8587SOL     OW37219   4.284   1.093   4.289 -0.0888 -0.3704 -0.3570
 8587SOL    HW137220   4.368   1.133   4.312  0.9338 -1.1535 -2.6385
 8587SOL    HW237221   4.260   1.152   4.218  2.0211 -0.1434 -0.8959
 8588SOL     OW37222   2.913   3.818   2.196  0.7387  0.1405 -0.2185
 8588SOL    HW137223   2.870   3.862   2.269 -0.1167  0.9358 -1.2135
 8588SOL    HW237224   2.913   3.885   2.129 -0.4215  0.0548 -0.2962
 8589SOL     OW37225   3.982   4.036   4.976  0.1286 -0.3283  0.2662
 8589SOL    HW137226   4.059   4.007   5.025  0.0702 -1.8244 -0.5320
 8589SOL    HW237227   3.923   3.962   4.987 -1.0493  0.5628 -0.0043
 8590SOL     OW37228   0.646   3.197  12.173 -0.1640 -0.0331  0.6935
 8590SOL    HW137229   0.591   3.200  12.251  1.5368 -1.5350  1.9530
 8590SOL    HW237230   0.663   3.103  12.163 -0.1719  0.0120  0.2381
 8591SOL     OW37231   2.662   3.699   9.357  0.5646 -0.0339 -0.5571
 8591SOL    HW137232   2.601   3.646   9.409  0.5018 -0.8670 -1.4826
 8591SOL    HW237233   2.743   3.667   9.397  1.0691  0.8490 -0.8700
 8592SOL     OW37234   2.078   3.289   4.125  0.6754  0.3105 -0.5006
 8592SOL    HW137235   2.027   3.368   4.106 -1.5953 -0.3819  2.7517
 8592SOL    HW237236   2.006   3.229   4.142  1.6178 -0.7234 -0.1676
 8593SOL     OW37237   0.057   3.731  16.910  0.2487 -0.2806 -0.1320
 8593SOL    HW137238   0.092   3.728  16.998 -1.0789  1.3287  0.4559
 8593SOL    HW237239   4.711   3.665  16.906 -0.9219  0.8349  1.4943
 8594SOL     OW37240   3.205   3.888   9.379  0.7876  0.6937 -0.1644
 8594SOL    HW137241   3.176   3.966   9.332  1.3745  0.5438 -0.7795
 8594SOL    HW237242   3.139   3.865   9.445  1.2623 -0.2679 -0.0183
 8595SOL     OW37243   3.929   0.078   0.348 -0.0655  0.1727  0.3124
 8595SOL    HW137244   3.922   0.091   0.253 -0.3594 -0.9743  0.1767
 8595SOL    HW237245   4.023   0.081   0.363 -0.1507  0.9189  0.7218
 8596SOL     OW37246   3.270   2.617   7.937  0.6651  0.3629  0.1650
 8596SOL    HW137247   3.279   2.573   7.853  0.3638 -0.8038  0.7544
 8596SOL    HW237248   3.363   2.636   7.945  0.6784  0.6471 -0.6483
 8597SOL     OW37249   1.337   3.214  13.514 -0.0619 -0.1182 -0.3853
 8597SOL    HW137250   1.400   3.161  13.561  0.9954  1.2859 -0.2264
 8597SOL    HW237251   1.262   3.154  13.513  0.4339 -0.7288 -0.1611
 8598SOL     OW37252   1.082   3.314   7.429  0.0353 -0.7712  0.0237
 8598SOL    HW137253   1.043   3.228   7.445 -0.0907 -0.2451  2.5983
 8598SOL    HW237254   1.130   3.330   7.511 -0.6823  0.6494  0.1600
 8599SOL     OW37255   1.510   1.342   4.759 -0.4217  0.1760 -0.4884
 8599SOL    HW137256   1.430   1.336   4.708 -0.9211 -2.5297  0.6330
 8599SOL    HW237257   1.569   1.388   4.698  0.7868 -1.1152 -0.3041
 8600SOL     OW37258   4.186   4.000   9.964 -0.0890  0.4638  0.2956
 8600SOL    HW137259   4.176   3.945   9.886 -1.1429  0.6654  0.2861
 8600SOL    HW237260   4.211   3.932  10.026 -0.8947 -0.0136  0.1062
 8601SOL     OW37261   1.161   0.297   6.373 -0.2742  0.3792 -0.0017
 8601SOL    HW137262   1.109   0.374   6.399 -1.9619 -0.9020  0.3825
 8601SOL    HW237263   1.181   0.327   6.284 -0.3633  0.6190  0.0582
 8602SOL     OW37264   3.888   1.240  17.654 -0.2342 -0.2322 -0.1716
 8602SOL    HW137265   3.933   1.280   0.033 -0.8667  0.6759 -0.2741
 8602SOL    HW237266   3.813   1.202   0.004  0.8786 -2.7946 -0.4966
 8603SOL     OW37267   3.377   2.988  17.123  0.4392 -0.1531  0.3425
 8603SOL    HW137268   3.438   3.033  17.181  0.9169 -0.0525 -0.2485
 8603SOL    HW237269   3.329   2.935  17.187  1.1304 -0.1088  0.8915
 8604SOL     OW37270   4.242   0.359  16.715 -0.5506 -0.5649  0.5657
 8604SOL    HW137271   4.291   0.330  16.792 -0.6908  0.4455  1.0367
 8604SOL    HW237272   4.167   0.399  16.760  0.9368  3.0590 -0.1428
 8605SOL     OW37273   2.259   1.867   2.590 -0.6119 -0.0096 -0.6786
 8605SOL    HW137274   2.352   1.846   2.580 -1.2030 -2.2467 -1.4584
 8605SOL    HW237275   2.264   1.961   2.606 -0.2281  0.1872 -1.9340
 8606SOL     OW37276   3.386   0.041  14.678  0.0463  0.1468  0.7155
 8606SOL    HW137277   3.443   4.712  14.735  3.2790  1.4063 -1.3546
 8606SOL    HW237278   3.310   4.706  14.668 -0.0746  0.7573 -1.9333
 8607SOL     OW37279   1.827   3.575   3.584 -0.0092 -0.5493 -0.1195
 8607SOL    HW137280   1.843   3.550   3.675 -0.9175 -1.7569 -0.2914
 8607SOL    HW237281   1.860   3.665   3.583 -0.4997 -0.3333  1.8699
 8608SOL     OW37282   0.774   4.697  13.698 -0.7645  0.0317 -0.2078
 8608SOL    HW137283   0.832   4.706  13.623  0.2108  0.6915  0.6169
 8608SOL    HW237284   0.793   4.608  13.726  2.1033  0.3066 -1.2661
 8609SOL     OW37285   4.358   2.998   7.397 -0.4561  0.2162 -0.3577
 8609SOL    HW137286   4.376   2.922   7.452 -1.0629  0.3789  0.0742
 8609SOL    HW237287   4.426   3.065   7.410 -1.3542  1.6196 -3.0441
 8610SOL     OW37288   1.069   3.189   3.694  0.6400 -0.2421 -0.3765
 8610SOL    HW137289   1.088   3.107   3.739 -1.8766 -0.3373  0.5500
 8610SOL    HW237290   1.074   3.164   3.602 -2.1821  1.6564 -1.0680
 8611SOL     OW37291   2.917   1.146  10.290 -0.1134 -0.2731  0.8927
 8611SOL    HW137292   2.899   1.238  10.310  1.7159  0.2100  0.3377
 8611SOL    HW237293   2.987   1.128  10.353  0.4063  0.4953  0.5410
 8612SOL     OW37294   3.498   3.303   4.383 -0.2065  0.4879 -0.1203
 8612SOL    HW137295   3.434   3.245   4.343  1.3271 -0.2001 -1.5683
 8612SOL    HW237296   3.578   3.273   4.340 -0.1756 -1.0921  1.0232
 8613SOL     OW37297   0.490   2.518   5.959  0.3032 -0.3840  0.2782
 8613SOL    HW137298   0.413   2.576   5.957 -1.0924 -2.2307  0.6994
 8613SOL    HW237299   0.534   2.549   6.038  1.1045 -0.1110 -0.2691
 8614SOL     OW37300   2.538   2.757   6.920 -0.5183 -0.6575  0.0183
 8614SOL    HW137301   2.585   2.678   6.946  1.0485 -0.2383 -1.5034
 8614SOL    HW237302   2.468   2.769   6.985 -1.2247 -4.5123 -0.0762
 8615SOL     OW37303   0.527   1.372   2.264  1.0458  0.3845  0.2678
 8615SOL    HW137304   0.432   1.376   2.275  1.0216 -1.0917  0.7201
 8615SOL    HW237305   0.557   1.460   2.245  1.1484  0.0925 -0.9415
 8616SOL     OW37306   3.235   1.084   7.283  1.0166  0.4530  0.4386
 8616SOL    HW137307   3.264   1.130   7.205  2.0374 -0.7422  0.0970
 8616SOL    HW237308   3.319   1.088   7.329  1.7938 -3.0199 -0.6716
 8617SOL     OW37309   0.436   0.157  10.885 -0.7754  0.2252 -0.0780
 8617SOL    HW137310   0.354   0.188  10.924 -0.7564 -0.6714  0.6691
 8617SOL    HW237311   0.502   0.225  10.898  1.6432 -1.8469 -1.4881
 8618SOL     OW37312   3.276   1.639   6.025 -0.6457  0.4780 -0.4819
 8618SOL    HW137313   3.320   1.627   5.941  0.2501 -1.8453  0.3212
 8618SOL    HW237314   3.199   1.685   5.992 -0.0895  1.6097 -0.1921
 8619SOL     OW37315   2.529   2.272   8.865  0.4424 -0.0362 -0.3725
 8619SOL    HW137316   2.437   2.290   8.885  0.4598 -1.9397  1.4095
 8619SOL    HW237317   2.524   2.222   8.784  0.3520 -1.9340  0.7928
 8620SOL     OW37318   3.913   2.175  13.000 -0.0005 -0.0347  0.1530
 8620SOL    HW137319   3.833   2.141  12.960 -0.4446  0.6557  0.4495
 8620SOL    HW237320   3.971   2.100  12.999 -1.9630 -1.5625  0.8741
 8621SOL     OW37321   3.338   2.068   8.400 -0.1784  0.3086 -0.5495
 8621SOL    HW137322   3.309   1.980   8.422  2.7954 -0.2078  1.2305
 8621SOL    HW237323   3.285   2.095   8.325  2.3245  1.3371 -1.9348
 8622SOL     OW37324   3.410   1.612   7.125 -0.1791 -0.0280  0.6028
 8622SOL    HW137325   3.414   1.569   7.210  3.8418  0.7172  0.7928
 8622SOL    HW237326   3.503   1.627   7.108  0.0114 -2.8079 -0.8174
 8623SOL     OW37327   1.400   4.385   0.873 -0.0194  0.4642 -0.0661
 8623SOL    HW137328   1.480   4.436   0.886 -0.0874  0.3134  0.9109
 8623SOL    HW237329   1.420   4.350   0.786 -2.2918  1.6960 -1.0577
 8624SOL     OW37330   4.028   3.800   3.619  0.0113  0.2341  0.0284
 8624SOL    HW137331   3.950   3.856   3.620 -0.4096 -0.3861  2.6005
 8624SOL    HW237332   4.000   3.715   3.655  1.3648  0.4968  1.6858
 8625SOL     OW37333   3.627   1.236   9.499 -0.5339 -0.1246 -0.5792
 8625SOL    HW137334   3.678   1.182   9.559 -1.2505  0.3262  0.4275
 8625SOL    HW237335   3.677   1.233   9.417 -0.3305 -0.1035 -0.4578
 8626SOL     OW37336   4.719   4.550  12.925 -0.1879 -0.6319 -0.5528
 8626SOL    HW137337   4.699   4.457  12.926  0.4953 -0.7979 -1.9873
 8626SOL    HW237338   4.641   4.583  12.969  0.5585 -2.0262  1.7911
 8627SOL     OW37339   3.110   4.405  16.036 -0.3171  0.1280  0.1432
 8627SOL    HW137340   3.096   4.499  16.027  0.1546 -0.0783 -2.6102
 8627SOL    HW237341   3.092   4.375  15.947  1.2893 -0.5409  0.0254
 8628SOL     OW37342   1.683   3.251   4.941 -0.1716  0.4707 -0.4216
 8628SOL    HW137343   1.752   3.308   4.974  0.0812  0.7284 -1.3924
 8628SOL    HW237344   1.634   3.238   5.022  0.3893  1.8336  0.1301
 8629SOL     OW37345   1.917   2.511  13.165 -0.4834  0.8062 -0.1245
 8629SOL    HW137346   1.832   2.549  13.187 -1.5068 -1.0503 -0.8399
 8629SOL    HW237347   1.927   2.527  13.072 -0.2458  0.3663 -0.1743
 8630SOL     OW37348   2.196   1.319   5.594 -0.4418 -0.4398 -0.2433
 8630SOL    HW137349   2.281   1.360   5.576  0.5159 -2.3245  0.0375
 8630SOL    HW237350   2.197   1.312   5.689  0.4727  2.1656 -0.0676
 8631SOL     OW37351   3.220   1.241   5.846 -0.5369 -0.1780  0.1690
 8631SOL    HW137352   3.211   1.219   5.939  2.3418 -3.4716 -0.3505
 8631SOL    HW237353   3.129   1.249   5.816 -0.5931  0.9215  0.6020
 8632SOL     OW37354   4.249   0.119   3.873  0.3907 -0.6427 -0.6183
 8632SOL    HW137355   4.195   0.082   3.943 -0.2194  0.1040 -0.6946
 8632SOL    HW237356   4.203   0.097   3.792 -0.4569 -0.7510 -0.0971
 8633SOL     OW37357   3.197   4.025   0.035 -0.3389 -0.2323 -0.7047
 8633SOL    HW137358   3.281   4.051  17.692 -1.0874  0.5128 -1.8511
 8633SOL    HW237359   3.157   4.110   0.054  0.0904  0.3033 -2.1707
 8634SOL     OW37360   4.053   3.924   5.942  0.2363  0.5968  0.1686
 8634SOL    HW137361   4.141   3.961   5.938  1.0006 -1.2954 -0.4220
 8634SOL    HW237362   4.051   3.840   5.896  1.0754  1.8668 -2.1599
 8635SOL     OW37363   2.927   0.062   6.206 -0.1166  0.1316 -0.5155
 8635SOL    HW137364   2.950   0.024   6.121 -1.0976 -2.1795  0.2597
 8635SOL    HW237365   3.014   0.086   6.239  0.9963 -1.3354 -2.3502
 8636SOL     OW37366   2.305   0.661   7.086 -0.5062  0.2132  0.3572
 8636SOL    HW137367   2.297   0.685   7.178  0.0094  2.5095 -0.1962
 8636SOL    HW237368   2.232   0.714   7.053 -0.7133 -0.8375 -0.8786
 8637SOL     OW37369   2.003   1.177   4.935 -0.5336 -0.7245  0.3924
 8637SOL    HW137370   1.929   1.228   4.901 -0.2459 -0.4008  0.2517
 8637SOL    HW237371   2.079   1.228   4.906 -1.2074 -1.1560 -2.2040
 8638SOL     OW37372   4.259   0.423  10.729 -0.5790 -0.1645  0.1722
 8638SOL    HW137373   4.308   0.341  10.733  0.0269  0.2424  0.9600
 8638SOL    HW237374   4.234   0.429  10.821 -0.8914 -1.0909  0.1497
 8639SOL     OW37375   2.359   3.482   8.548  0.1046 -0.0776  0.1076
 8639SOL    HW137376   2.271   3.444   8.542  0.6116 -0.9800 -1.4335
 8639SOL    HW237377   2.350   3.556   8.608 -0.0006 -0.5118  0.6275
 8640SOL     OW37378   0.611   3.590   8.500 -0.6406 -0.6617 -0.3928
 8640SOL    HW137379   0.640   3.582   8.591 -2.1895  4.0751  0.5200
 8640SOL    HW237380   0.604   3.498   8.473 -1.2532  0.5431 -4.3054
 8641SOL     OW37381   2.477   2.529  13.434 -0.5717 -0.1397 -0.5538
 8641SOL    HW137382   2.389   2.551  13.403 -0.7527 -0.4543 -0.2617
 8641SOL    HW237383   2.460   2.481  13.515  2.8164 -2.5446 -1.2899
 8642SOL     OW37384   2.253   2.091   4.293  0.1515 -0.0930 -0.3840
 8642SOL    HW137385   2.278   2.014   4.242 -0.0306  2.0922 -3.8029
 8642SOL    HW237386   2.222   2.142   4.218  1.7847  0.3831 -0.7350
 8643SOL     OW37387   0.349   4.377   4.722  0.0986  0.1345  0.2903
 8643SOL    HW137388   0.292   4.439   4.677  1.1622  0.7740 -0.1750
 8643SOL    HW237389   0.286   4.337   4.782  2.0839  1.2876  3.1813
 8644SOL     OW37390   4.656   2.961   8.323  0.0061  0.4851 -1.1120
 8644SOL    HW137391   4.620   3.050   8.322  0.2350  0.5782 -1.2838
 8644SOL    HW237392   4.710   2.965   8.244  0.6566  0.2782 -0.6773
 8645SOL     OW37393   0.635   1.598   2.208 -0.1739 -0.1081 -0.1731
 8645SOL    HW137394   0.633   1.665   2.139  1.4010 -0.3445 -0.4605
 8645SOL    HW237395   0.711   1.545   2.181 -0.7909 -1.1502  0.1272
 8646SOL     OW37396   1.067   2.753  11.005  0.1261  0.0483  0.1321
 8646SOL    HW137397   1.035   2.663  11.006  0.5791 -0.0982  1.2766
 8646SOL    HW237398   1.096   2.770  11.094  0.5609 -0.0251  0.0078
 8647SOL     OW37399   2.306   1.947   6.416  0.2141  0.1886  0.1826
 8647SOL    HW137400   2.262   1.885   6.358 -0.6610  1.9114 -0.9897
 8647SOL    HW237401   2.324   2.024   6.363  1.3666 -0.1279  0.1231
 8648SOL     OW37402   2.758   0.428  12.574 -0.0828 -0.2992 -0.3295
 8648SOL    HW137403   2.663   0.417  12.575 -0.0545 -0.5489 -0.3527
 8648SOL    HW237404   2.787   0.355  12.628 -0.6684 -0.0418  0.3267
 8649SOL     OW37405   2.277   2.449   4.123  0.1150  0.0921  0.0601
 8649SOL    HW137406   2.187   2.460   4.154 -1.1070 -0.4187 -3.2465
 8649SOL    HW237407   2.320   2.409   4.198 -2.1058 -0.1001  1.2145
 8650SOL     OW37408   3.223   3.149   0.419  0.1726  0.3400 -0.2532
 8650SOL    HW137409   3.258   3.109   0.499 -1.6381  1.4150  1.0762
 8650SOL    HW237410   3.219   3.065   0.373 -0.2403  1.5548 -2.4252
 8651SOL     OW37411   4.561   3.315   9.284 -0.3053  0.1234 -0.3375
 8651SOL    HW137412   4.494   3.291   9.349 -0.5871  1.9666  0.0342
 8651SOL    HW237413   4.622   3.241   9.287  1.2339  1.4419  0.6099
 8652SOL     OW37414   1.851   1.268   2.655  0.2890  0.1214  0.1848
 8652SOL    HW137415   1.870   1.357   2.687 -0.3767  0.2049  0.3608
 8652SOL    HW237416   1.904   1.266   2.576  0.3211 -2.8245  0.3027
 8653SOL     OW37417   2.968   2.001   1.980 -0.0578 -0.1508  0.0872
 8653SOL    HW137418   2.943   1.909   1.992 -0.1101  0.0542  1.5025
 8653SOL    HW237419   2.881   2.033   1.956  1.1528  1.1162 -2.5610
 8654SOL     OW37420   1.199   3.159  15.026  0.2598 -0.2133  0.2464
 8654SOL    HW137421   1.130   3.224  15.015  1.6737  0.9723 -1.5088
 8654SOL    HW237422   1.145   3.083  15.049  1.3919 -1.3732 -0.8998
 8655SOL     OW37423   0.403   2.740  11.049 -0.0025 -0.8083  0.0554
 8655SOL    HW137424   0.430   2.651  11.070  0.4486 -0.3141  1.6244
 8655SOL    HW237425   0.372   2.735  10.959  1.3430  3.3509 -0.6331
 8656SOL     OW37426   3.790   0.860   4.524  0.8084 -0.6701 -0.1636
 8656SOL    HW137427   3.756   0.907   4.601 -0.7248 -0.2027 -1.1369
 8656SOL    HW237428   3.878   0.830   4.548  1.1401 -0.0013 -0.5340
 8657SOL     OW37429   2.669   4.042   9.098 -0.4969  0.6523  0.3376
 8657SOL    HW137430   2.703   4.120   9.053 -0.9798  0.0655 -1.0585
 8657SOL    HW237431   2.747   3.990   9.080 -0.8303  0.9279 -1.9687
 8658SOL     OW37432   0.427   3.330   6.341  0.1777  0.0090  0.3260
 8658SOL    HW137433   0.451   3.244   6.376 -0.2819  0.7303  2.4693
 8658SOL    HW237434   0.405   3.369   6.426  0.8266  2.2666 -0.5307
 8659SOL     OW37435   0.543   0.937   4.319 -0.1814  0.0623  0.1161
 8659SOL    HW137436   0.466   0.963   4.370 -1.4519 -3.0233 -0.2431
 8659SOL    HW237437   0.590   1.018   4.298  0.9324 -1.0329 -1.5730
 8660SOL     OW37438   3.904   2.964   9.948 -0.2409  0.1647  0.0305
 8660SOL    HW137439   3.837   2.905   9.982 -0.4977  0.2251 -0.3690
 8660SOL    HW237440   3.862   3.050   9.944  1.0728  0.7464 -1.2142
 8661SOL     OW37441   0.408   3.605   4.083  0.3177  0.1330  0.1127
 8661SOL    HW137442   0.384   3.548   4.010 -0.3553 -0.9449  1.1896
 8661SOL    HW237443   0.380   3.559   4.162  1.2924  0.4712  0.6579
 8662SOL     OW37444   0.884   2.991   4.203 -0.4329  0.5949 -0.4796
 8662SOL    HW137445   0.849   3.047   4.272 -0.5115  1.7653 -1.4792
 8662SOL    HW237446   0.973   3.023   4.195 -0.0192 -0.5586 -0.5672
 8663SOL     OW37447   2.724   3.947   3.774 -0.0911 -0.3141  0.6114
 8663SOL    HW137448   2.641   3.965   3.818 -0.3338  0.2448 -0.0795
 8663SOL    HW237449   2.777   4.026   3.765  2.3351 -2.2656 -2.1248
 8664SOL     OW37450   3.519   2.604  11.158  0.0424  0.1065  0.1327
 8664SOL    HW137451   3.534   2.547  11.083  0.0163 -0.9759  0.9362
 8664SOL    HW237452   3.477   2.674  11.108  0.2594 -1.3158 -2.0501
 8665SOL     OW37453   1.862   4.106  11.490 -0.1807 -0.0123  0.2918
 8665SOL    HW137454   1.929   4.040  11.473 -0.8625 -0.6898  0.2596
 8665SOL    HW237455   1.913   4.187  11.487 -0.9913  0.4418 -1.1232
 8666SOL     OW37456   4.142   0.009   2.186 -0.2376  0.5442 -0.5191
 8666SOL    HW137457   4.147   0.032   2.093  3.4157 -0.6129 -0.5957
 8666SOL    HW237458   4.067   4.673   2.178  1.1796 -1.1917 -0.9614
 8667SOL     OW37459   1.171   3.586   9.566 -0.1490  0.4518  0.2562
 8667SOL    HW137460   1.097   3.547   9.613 -1.6113  0.7256 -1.8355
 8667SOL    HW237461   1.122   3.601   9.485  0.6184  1.3270 -0.0400
 8668SOL     OW37462   3.864   0.176   5.930  0.7461  0.1152 -0.4095
 8668SOL    HW137463   3.857   0.268   5.902 -2.3099  0.6535  2.1530
 8668SOL    HW237464   3.863   0.178   6.026  2.9550  0.2515 -0.3842
 8669SOL     OW37465   2.762   2.129  17.411  0.4469  0.2286 -0.6146
 8669SOL    HW137466   2.679   2.081  17.422  0.9571 -0.8438 -1.3998
 8669SOL    HW237467   2.824   2.074  17.459 -1.1774 -1.5728 -0.5501
 8670SOL     OW37468   3.988   0.997   1.851 -0.4224 -0.5072 -0.0646
 8670SOL    HW137469   3.991   1.060   1.922 -0.8302 -0.4903 -0.0671
 8670SOL    HW237470   3.930   0.933   1.890  0.5036 -0.7511  0.9101
 8671SOL     OW37471   3.789   3.919   3.586 -0.0802  0.0014  0.1584
 8671SOL    HW137472   3.710   3.900   3.636  0.4360  0.6330  1.2084
 8671SOL    HW237473   3.750   3.918   3.499 -2.7755  0.5402  1.3549
 8672SOL     OW37474   0.704   2.320   4.254 -0.7663 -0.4914 -0.2884
 8672SOL    HW137475   0.699   2.224   4.263  0.2568 -0.4320  0.8777
 8672SOL    HW237476   0.749   2.342   4.336  0.4137 -1.6366 -0.6381
 8673SOL     OW37477   3.430   3.215   1.634  0.3172 -0.3709 -0.1397
 8673SOL    HW137478   3.502   3.263   1.675  0.9931 -0.7299 -0.8964
 8673SOL    HW237479   3.345   3.257   1.647 -0.2550 -1.4026 -0.5450
 8674SOL     OW37480   1.346   1.358   7.835 -0.9344  0.3565 -0.2334
 8674SOL    HW137481   1.407   1.431   7.830 -1.1789  0.4768 -1.6902
 8674SOL    HW237482   1.344   1.342   7.740  0.6601 -3.2801  0.3476
 8675SOL     OW37483   4.536   0.926   5.681  0.3078 -0.0226 -0.0094
 8675SOL    HW137484   4.582   0.846   5.657 -0.1325 -0.1358 -0.4777
 8675SOL    HW237485   4.466   0.931   5.616  1.6487 -2.4240 -1.6282
 8676SOL     OW37486   0.089   3.035   3.305  0.2799 -0.3212  0.1079
 8676SOL    HW137487   0.013   2.980   3.285 -0.2524 -0.0271  1.3399
 8676SOL    HW237488   0.130   3.036   3.218 -1.0706  1.6818 -0.4914
 8677SOL     OW37489   0.319   2.459  16.878 -0.0782 -0.1827  0.2998
 8677SOL    HW137490   0.301   2.448  16.972  1.1804 -0.3458  0.5252
 8677SOL    HW237491   0.347   2.548  16.856 -1.7875 -0.8202 -4.3655
 8678SOL     OW37492   1.784   0.937  15.802 -0.3948 -0.7585  0.0264
 8678SOL    HW137493   1.708   0.937  15.860  0.2793 -0.4260  0.9053
 8678SOL    HW237494   1.736   0.960  15.722 -1.0036 -1.4714  0.1879
 8679SOL     OW37495   1.368   4.205   1.098 -0.0837 -0.2520  0.6738
 8679SOL    HW137496   1.391   4.274   1.036 -0.4166  0.8507  1.7582
 8679SOL    HW237497   1.358   4.132   1.037  0.7840 -2.1125  2.7566
 8680SOL     OW37498   0.475   2.831   0.355 -0.7043  0.1180  0.2862
 8680SOL    HW137499   0.485   2.923   0.332  2.6543 -0.1525  0.5959
 8680SOL    HW237500   0.483   2.836   0.450  2.5732  2.6938 -0.1242
 8681SOL     OW37501   1.246   0.113   8.272  0.3289  0.3497 -0.0828
 8681SOL    HW137502   1.233   0.158   8.189 -0.7973 -1.4482 -0.8638
 8681SOL    HW237503   1.192   0.170   8.327 -0.8847 -2.6970  1.8773
 8682SOL     OW37504   2.419   1.506   5.963  0.1367 -0.1236  0.3736
 8682SOL    HW137505   2.512   1.513   5.986  0.8868 -2.1937 -1.9671
 8682SOL    HW237506   2.402   1.412   5.958  0.1539 -0.0118 -2.1151
 8683SOL     OW37507   3.875   1.485  13.650 -0.2521 -0.0175  0.0467
 8683SOL    HW137508   3.825   1.465  13.730  0.0706  1.9863  0.7396
 8683SOL    HW237509   3.901   1.577  13.648 -0.9483  0.1574 -0.9934
 8684SOL     OW37510   4.300   0.539   4.154 -0.8352  0.5437  0.0593
 8684SOL    HW137511   4.346   0.610   4.109  0.6201  1.1052  2.4627
 8684SOL    HW237512   4.223   0.547   4.098 -0.1847  0.3730 -0.8640
 8685SOL     OW37513   1.543   3.193   0.003  0.3173  0.1646 -0.3235
 8685SOL    HW137514   1.577   3.237  17.620 -0.3404 -0.6854 -1.0852
 8685SOL    HW237515   1.613   3.132   0.025 -0.6651 -0.1634  1.9561
 8686SOL     OW37516   1.946   0.472  14.335 -0.3640  0.2957  0.5038
 8686SOL    HW137517   2.021   0.422  14.366 -0.0206  0.4588 -0.0494
 8686SOL    HW237518   1.893   0.399  14.304 -1.8267  2.0575 -1.1442
 8687SOL     OW37519   2.240   2.408   6.657  0.7589 -0.0552  0.1415
 8687SOL    HW137520   2.232   2.398   6.752  1.7231 -1.8017  0.0367
 8687SOL    HW237521   2.162   2.364   6.623 -0.0751  0.2934  1.6214
 8688SOL     OW37522   4.506   0.452   2.178 -1.0284 -0.0234  0.2978
 8688SOL    HW137523   4.526   0.486   2.091  1.8942  0.2100  1.0870
 8688SOL    HW237524   4.509   0.525   2.239  1.4596 -0.8900  1.2064
 8689SOL     OW37525   4.457   1.208   2.078  0.0225  0.3715  0.4368
 8689SOL    HW137526   4.536   1.158   2.099  0.1526  0.3341 -0.1535
 8689SOL    HW237527   4.409   1.143   2.026  0.6769  0.5940 -0.4364
 8690SOL     OW37528   1.217   3.863  13.782  0.1593 -0.3251 -0.2522
 8690SOL    HW137529   1.248   3.809  13.854  1.7329  0.2669 -0.4882
 8690SOL    HW237530   1.283   3.931  13.775 -0.2570 -0.0270 -1.3021
 8691SOL     OW37531   3.360   4.036  15.907 -0.0273 -0.2973  0.3624
 8691SOL    HW137532   3.348   4.065  15.816  1.3359 -3.3758 -0.7824
 8691SOL    HW237533   3.452   4.012  15.901 -0.1357 -0.3363 -1.1919
 8692SOL     OW37534   3.366   1.750   1.388  0.5907  0.0157  0.1464
 8692SOL    HW137535   3.289   1.696   1.409 -0.9028  2.5369  1.1657
 8692SOL    HW237536   3.325   1.818   1.336 -0.0959  1.0441  2.0112
 8693SOL     OW37537   4.456   3.329   6.345  0.0557  0.6434  0.0033
 8693SOL    HW137538   4.507   3.249   6.333  0.2599  1.1847 -2.6160
 8693SOL    HW237539   4.494   3.356   6.429  0.4497  3.8351 -1.2037
 8694SOL     OW37540   1.530   2.727   2.493  0.0045 -0.3445  0.3213
 8694SOL    HW137541   1.504   2.636   2.478  0.8822 -0.6461  0.6514
 8694SOL    HW237542   1.554   2.715   2.584  1.7954  1.6123  0.0996
 8695SOL     OW37543   0.572   2.371   7.813  0.0818  0.0966 -0.1213
 8695SOL    HW137544   0.562   2.422   7.893 -0.3524  0.3895 -0.3591
 8695SOL    HW237545   0.667   2.375   7.807  0.0093 -0.4401 -1.6797
 8696SOL     OW37546   1.948   3.447   4.654  0.3130 -0.4191 -0.0134
 8696SOL    HW137547   2.001   3.393   4.713 -0.4073 -0.4437  0.6121
 8696SOL    HW237548   1.886   3.378   4.634 -1.8609  1.5429 -0.0301
 8697SOL     OW37549   1.369   4.410  15.033  0.0766  0.6754 -0.1283
 8697SOL    HW137550   1.282   4.446  15.048 -1.1739 -1.6308 -1.7532
 8697SOL    HW237551   1.373   4.360  15.115  1.6499 -0.3577 -0.8414
 8698SOL     OW37552   1.386   0.478   6.678 -0.4083  0.0300 -0.2377
 8698SOL    HW137553   1.461   0.476   6.737 -0.7714  2.4748  0.2841
 8698SOL    HW237554   1.340   0.560   6.697 -0.8001 -0.2476  0.0109
 8699SOL     OW37555   3.328   2.036   6.893 -0.1374  0.0277 -0.2284
 8699SOL    HW137556   3.260   2.097   6.922  0.3276  0.6790 -0.5161
 8699SOL    HW237557   3.306   1.954   6.937  0.2787  0.4342  0.7405
 8700SOL     OW37558   0.381   3.341  14.437 -0.0640  0.3196 -0.5000
 8700SOL    HW137559   0.469   3.378  14.444 -0.2669  0.8954 -0.9837
 8700SOL    HW237560   0.338   3.409  14.489 -0.6088  0.7249 -1.4787
 8701SOL     OW37561   3.516   2.920   8.133 -0.2841 -0.1013  0.0648
 8701SOL    HW137562   3.494   2.828   8.117 -0.5335  0.3272 -2.0238
 8701SOL    HW237563   3.460   2.967   8.072 -0.7924  1.2391  1.5575
 8702SOL     OW37564   0.889   2.369   2.790 -0.7303  0.6412  0.2212
 8702SOL    HW137565   0.915   2.304   2.725 -0.8889  0.4196  0.3795
 8702SOL    HW237566   0.909   2.322   2.870 -2.4150 -1.8676 -0.8133
 8703SOL     OW37567   1.593   0.230   7.193  0.2811  0.3973  0.3203
 8703SOL    HW137568   1.572   0.137   7.204 -0.5670  0.4741 -0.7017
 8703SOL    HW237569   1.536   0.245   7.117 -2.5022 -4.0488  1.5483
 8704SOL     OW37570   1.808   3.035   7.556  0.2949 -0.1355  0.8788
 8704SOL    HW137571   1.766   3.082   7.483 -0.1698 -0.8575  0.6806
 8704SOL    HW237572   1.879   3.097   7.573  0.2128  0.1386  0.2354
 8705SOL     OW37573   3.946   0.561   4.757 -0.4331 -0.5758 -0.0901
 8705SOL    HW137574   4.017   0.621   4.735  0.0896 -1.1895 -0.0760
 8705SOL    HW237575   3.871   0.618   4.771  0.6331  0.5219  1.0711
 8706SOL     OW37576   1.153   0.755  16.452 -0.1969  0.2422 -0.4079
 8706SOL    HW137577   1.121   0.817  16.386  1.2790  2.0689  0.5763
 8706SOL    HW237578   1.086   0.768  16.519  1.6477  0.6262  1.3688
 8707SOL     OW37579   1.907   2.596   5.407  0.0421 -0.1068  0.0487
 8707SOL    HW137580   1.889   2.609   5.314  2.5869  0.2663 -0.4010
 8707SOL    HW237581   1.842   2.660   5.436 -0.5048 -0.3395 -0.6519
 8708SOL     OW37582   3.660   2.487   2.259 -0.1752  0.1781 -0.0055
 8708SOL    HW137583   3.606   2.409   2.257 -2.4496  1.7393  0.0996
 8708SOL    HW237584   3.653   2.523   2.171 -1.4109 -2.2835 -0.8899
 8709SOL     OW37585   2.463   2.681  15.851  0.7395  0.7604  0.4376
 8709SOL    HW137586   2.476   2.709  15.760 -1.5474  1.6163  0.3696
 8709SOL    HW237587   2.398   2.612  15.842  0.4568  0.9704  0.9035
 8710SOL     OW37588   2.697   2.121   9.088 -0.0515  0.1986  0.1458
 8710SOL    HW137589   2.769   2.175   9.056  0.7276  0.2313  2.0130
 8710SOL    HW237590   2.637   2.123   9.013 -0.8931  1.3015  0.8425
 8711SOL     OW37591   3.046   0.566   3.602  0.2014  0.5300 -0.0214
 8711SOL    HW137592   3.077   0.603   3.685  1.1188  0.5757 -0.3821
 8711SOL    HW237593   2.951   0.577   3.604  0.2287  0.4911  1.3289
 8712SOL     OW37594   1.517   4.005   3.430 -0.3202  0.2252  0.3349
 8712SOL    HW137595   1.478   4.033   3.348 -2.1843 -2.8129  0.1887
 8712SOL    HW237596   1.458   4.063   3.477 -2.2833 -0.6133 -1.0854
 8713SOL     OW37597   4.286   4.094  13.582  0.2218 -0.0794 -0.4094
 8713SOL    HW137598   4.256   4.147  13.508  0.6173  1.6693  0.6811
 8713SOL    HW237599   4.380   4.084  13.570  0.7332  0.8498  2.7975
 8714SOL     OW37600   0.342   0.899   3.406  0.2005  0.0259  0.3689
 8714SOL    HW137601   0.394   0.823   3.380  1.5213 -0.0960  3.4157
 8714SOL    HW237602   0.274   0.853   3.456 -0.6687  0.1252 -0.7134
 8715SOL     OW37603   4.053   1.245   0.836  0.0254  0.1682 -0.1915
 8715SOL    HW137604   4.101   1.163   0.847 -1.5677 -0.5994  1.0983
 8715SOL    HW237605   4.115   1.315   0.816 -2.9228  2.5149 -1.2239
 8716SOL     OW37606   2.363   4.558   8.952 -0.0907  0.4777  0.0477
 8716SOL    HW137607   2.374   4.637   9.004  3.5636  0.6121 -0.9172
 8716SOL    HW237608   2.397   4.592   8.869 -0.0567  0.1102 -0.0895
 8717SOL     OW37609   2.002   2.070   2.133  0.4721  0.0395  0.3323
 8717SOL    HW137610   2.042   2.115   2.059  2.2021 -0.0435  1.1978
 8717SOL    HW237611   2.049   1.988   2.117 -1.2080 -0.7056 -0.8308
 8718SOL     OW37612   3.981   3.486  17.166 -0.3522  0.0906  0.0361
 8718SOL    HW137613   3.969   3.446  17.252 -0.4483  1.8784  0.8431
 8718SOL    HW237614   3.986   3.412  17.105  2.8885  0.5274 -0.2251
 8719SOL     OW37615   4.188   0.373   7.982 -0.0419  0.8115 -0.0109
 8719SOL    HW137616   4.181   0.389   7.888  0.6710  0.0353 -0.1986
 8719SOL    HW237617   4.185   0.463   8.015  1.2760  1.7174 -2.3829
 8720SOL     OW37618   3.626   0.231  10.039 -0.6893  0.2947  0.1937
 8720SOL    HW137619   3.665   0.264  10.120  0.5213 -0.4622 -0.0679
 8720SOL    HW237620   3.589   0.314  10.010 -0.6801  0.1626 -0.1930
 8721SOL     OW37621   3.465   3.683   4.110 -0.0300  0.1933 -0.3042
 8721SOL    HW137622   3.449   3.595   4.075 -0.3509  0.3872 -0.6396
 8721SOL    HW237623   3.557   3.698   4.089  0.2406  1.4911  1.7938
 8722SOL     OW37624   1.180   2.043   5.412  0.0376 -0.0830  0.2169
 8722SOL    HW137625   1.210   2.123   5.368 -2.0134  0.6937  0.2225
 8722SOL    HW237626   1.215   2.062   5.499  1.6251 -0.2503 -0.3719
 8723SOL     OW37627   0.689   1.357   6.848  0.1388 -0.4983 -0.4093
 8723SOL    HW137628   0.683   1.287   6.912 -2.7206 -0.3435 -0.5223
 8723SOL    HW237629   0.647   1.313   6.774 -1.4977  0.0388  0.2047
 8724SOL     OW37630   3.665   1.210   7.622  0.0039 -0.3515  0.9440
 8724SOL    HW137631   3.747   1.229   7.668  1.1249 -1.4003 -0.5895
 8724SOL    HW237632   3.634   1.301   7.620 -0.2933 -0.4641  0.3864
 8725SOL     OW37633   4.609   0.624  12.612  0.3695  0.3859 -0.2858
 8725SOL    HW137634   4.692   0.608  12.566  0.0131 -1.9318 -0.1060
 8725SOL    HW237635   4.544   0.587  12.552  1.1615  0.6074 -1.2908
 8726SOL     OW37636   2.968   0.730   1.299 -0.5963 -0.5287 -0.0655
 8726SOL    HW137637   2.878   0.752   1.325 -0.6890  0.1238 -0.9535
 8726SOL    HW237638   2.970   0.635   1.299 -0.5422 -0.5277  0.8014
 8727SOL     OW37639   4.532   0.860   6.991  0.1075  0.0016 -0.2318
 8727SOL    HW137640   4.605   0.893   7.043 -0.3020  1.1361 -0.3629
 8727SOL    HW237641   4.585   0.797   6.942 -1.5327 -0.3051 -1.6138
 8728SOL     OW37642   4.397   1.212   3.835 -0.2042  0.7107  0.2470
 8728SOL    HW137643   4.430   1.205   3.746 -1.0533 -0.7832  0.0486
 8728SOL    HW237644   4.436   1.295   3.864 -0.7204  1.2909 -0.7195
 8729SOL     OW37645   2.157   2.195  10.592  0.0422  0.0888 -0.2914
 8729SOL    HW137646   2.226   2.168  10.654  0.5213 -1.1179 -1.3683
 8729SOL    HW237647   2.203   2.184  10.509  2.2404  0.9593  0.8136
 8730SOL     OW37648   3.570   0.960   5.495  0.2121 -0.1171 -0.2598
 8730SOL    HW137649   3.584   1.054   5.484  1.1795  0.0943  2.7714
 8730SOL    HW237650   3.532   0.956   5.583 -0.5225  0.4180 -0.5522
 8731SOL     OW37651   1.459   4.150   7.649  0.0033 -0.7253 -0.0667
 8731SOL    HW137652   1.470   4.157   7.744 -1.5078  0.0678  0.0403
 8731SOL    HW237653   1.546   4.115   7.627 -1.3363 -2.7058 -2.2292
 8732SOL     OW37654   4.370   2.930   8.896  0.3079 -0.4133 -0.7978
 8732SOL    HW137655   4.414   2.951   8.978 -0.6553 -0.8781 -0.1605
 8732SOL    HW237656   4.300   2.868   8.918  0.4463 -0.4741 -0.5281
 8733SOL     OW37657   4.040   3.598   9.071 -0.0786  0.1412 -0.3249
 8733SOL    HW137658   4.081   3.604   8.985  2.2211  0.1479  0.7952
 8733SOL    HW237659   3.987   3.677   9.065 -1.8858 -1.0191 -0.0023
 8734SOL     OW37660   2.476   2.827   3.442 -0.0602 -0.2107 -0.1373
 8734SOL    HW137661   2.563   2.802   3.410  0.0557 -1.4594  1.1257
 8734SOL    HW237662   2.479   2.771   3.520  1.2455 -0.2575 -0.2109
 8735SOL     OW37663   2.273   2.718   7.101  0.4367 -0.3807 -0.6724
 8735SOL    HW137664   2.190   2.739   7.143  0.8628  1.1482 -0.6106
 8735SOL    HW237665   2.285   2.626   7.127  1.1510 -0.2896 -0.6774
 8736SOL     OW37666   4.644   1.904   7.959 -0.2301  0.1422 -0.0401
 8736SOL    HW137667   4.692   1.969   8.010 -0.5097 -0.1053  0.5390
 8736SOL    HW237668   4.718   1.846   7.940  0.4128  0.6542  0.8988
 8737SOL     OW37669   0.755   2.966   6.390 -0.0153  0.0513 -0.0947
 8737SOL    HW137670   0.695   2.963   6.464  0.8674 -0.7653  0.5774
 8737SOL    HW237671   0.837   2.947   6.436 -1.0291 -0.1530  1.5948
 8738SOL     OW37672   1.621   2.519   9.137 -0.1757 -0.4333  0.0206
 8738SOL    HW137673   1.627   2.466   9.216  4.3569  2.6048  1.7348
 8738SOL    HW237674   1.548   2.580   9.150 -0.0746 -0.7253  1.9158
 8739SOL     OW37675   3.514   0.294   8.345 -0.0563 -0.3041 -0.2698
 8739SOL    HW137676   3.472   0.251   8.419 -0.9371 -0.2301 -0.7285
 8739SOL    HW237677   3.494   0.387   8.360  0.5648 -0.0549 -0.9590
 8740SOL     OW37678   3.546   0.341   3.173  0.4558  0.0935 -0.0048
 8740SOL    HW137679   3.633   0.303   3.171  0.6161  0.4413  0.3697
 8740SOL    HW237680   3.574   0.431   3.190  3.5366 -0.6424 -1.2200
 8741SOL     OW37681   0.307   2.831  15.884 -0.0496  0.3898 -0.1840
 8741SOL    HW137682   0.220   2.872  15.880  0.6918  2.1927  2.0261
 8741SOL    HW237683   0.302   2.765  15.815  1.4220  1.2292 -1.0928
 8742SOL     OW37684   4.008   0.409  10.314  0.4077 -0.2268  0.0645
 8742SOL    HW137685   4.056   0.440  10.391  0.3095  0.8132 -0.2941
 8742SOL    HW237686   4.060   0.334  10.287  0.4081 -1.0882  2.4368
 8743SOL     OW37687   3.412   2.778   5.633 -0.2306  0.2210  0.5685
 8743SOL    HW137688   3.420   2.702   5.691  0.3457  0.3631  0.6697
 8743SOL    HW237689   3.362   2.840   5.687 -0.0516  1.6114 -0.8807
 8744SOL     OW37690   4.372   4.508  13.482 -0.0167 -0.3275 -0.3929
 8744SOL    HW137691   4.278   4.521  13.484  0.5306  3.9449 -0.9944
 8744SOL    HW237692   4.398   4.508  13.574 -0.2366  1.5386 -0.3251
 8745SOL     OW37693   1.656   0.704  14.836 -0.1663 -0.3684 -0.3491
 8745SOL    HW137694   1.643   0.697  14.930 -0.6271 -2.0126 -0.5293
 8745SOL    HW237695   1.647   0.799  14.831 -0.3260 -0.3602  0.1188
 8746SOL     OW37696   3.377   4.545  16.578 -0.3955  0.4628 -0.1910
 8746SOL    HW137697   3.327   4.569  16.500  0.3118  0.8591 -0.5201
 8746SOL    HW237698   3.436   4.492  16.524  0.7963  1.4151  0.1750
 8747SOL     OW37699   4.256   1.900   3.108 -0.6216 -0.4446  0.0423
 8747SOL    HW137700   4.255   1.804   3.102 -0.8900 -0.3840 -0.9332
 8747SOL    HW237701   4.310   1.915   3.031 -0.1478 -1.8487  0.1067
 8748SOL     OW37702   4.682   3.189   5.139  0.0567  0.3029  0.2799
 8748SOL    HW137703   0.049   3.157   5.136  0.7150  2.2762 -1.9344
 8748SOL    HW237704   4.699   3.271   5.091  1.5228  0.1631  0.5495
 8749SOL     OW37705   4.137   4.697  11.876 -1.0279 -0.1550 -0.0311
 8749SOL    HW137706   4.204   4.637  11.909  1.2588  1.6859 -1.3846
 8749SOL    HW237707   4.092   4.636  11.817 -1.3559  0.2933 -0.2401
 8750SOL     OW37708   1.077   0.607   6.961  0.1169 -0.7220  0.3897
 8750SOL    HW137709   1.039   0.690   6.988  0.8751  0.4681 -2.3060
 8750SOL    HW237710   0.995   0.568   6.932  0.8397 -2.0985  0.1854
 8751SOL     OW37711   1.941   4.032   3.654 -0.0672  0.3723  0.0671
 8751SOL    HW137712   1.930   4.086   3.732 -2.3874 -0.8617  0.5969
 8751SOL    HW237713   1.850   4.012   3.634 -0.1649  1.8894 -1.0435
 8752SOL     OW37714   0.694   2.811   8.614  0.5297  0.2176  0.2906
 8752SOL    HW137715   0.766   2.865   8.581  0.4968  0.2969  0.3486
 8752SOL    HW237716   0.655   2.775   8.534 -0.0889 -1.0282  1.1661
 8753SOL     OW37717   1.018   3.018   7.976 -0.3994  0.8616  0.0930
 8753SOL    HW137718   1.099   3.027   7.925  0.1235 -2.0508  0.4034
 8753SOL    HW237719   0.974   2.966   7.908  0.6295  1.1867 -0.8347
 8754SOL     OW37720   4.519   2.280   8.410 -0.1777  0.0034  0.1648
 8754SOL    HW137721   4.428   2.288   8.436 -0.1757 -0.7494  0.4046
 8754SOL    HW237722   4.523   2.185   8.396  1.4552 -0.0849  1.1695
 8755SOL     OW37723   2.763   4.319   0.377 -0.0155  0.3446 -0.1937
 8755SOL    HW137724   2.742   4.325   0.284 -1.5986 -3.4633 -0.0666
 8755SOL    HW237725   2.744   4.228   0.401  1.8399 -0.0650 -0.2742
 8756SOL     OW37726   1.115   0.298  12.033  0.1243  0.3117  0.4180
 8756SOL    HW137727   1.138   0.245  12.110  1.1116  1.7381  1.1103
 8756SOL    HW237728   1.186   0.283  11.971 -0.3029  3.0270 -0.7312
 8757SOL     OW37729   4.261   3.765   3.466  0.1039 -0.5106 -0.0964
 8757SOL    HW137730   4.183   3.779   3.519 -0.2817 -0.9233 -0.5480
 8757SOL    HW237731   4.289   3.687   3.513 -1.5960 -1.6696 -0.9958
 8758SOL     OW37732   2.055   2.687   4.881  0.0221  0.7835 -0.5512
 8758SOL    HW137733   2.001   2.634   4.823 -0.3406  1.2602 -0.6409
 8758SOL    HW237734   2.057   2.770   4.834 -0.3446 -0.9015 -3.5287
 8759SOL     OW37735   2.700   1.643  12.939 -0.1415 -0.0668  0.4740
 8759SOL    HW137736   2.659   1.619  13.023 -1.9513  0.9972 -0.1056
 8759SOL    HW237737   2.757   1.568  12.922  1.8871  1.8719 -1.1649
 8760SOL     OW37738   4.643   0.828   7.400 -0.4075 -0.2384 -0.2408
 8760SOL    HW137739   0.001   0.779   7.390 -1.0807 -1.7484  1.7275
 8760SOL    HW237740   4.619   0.835   7.492 -0.2244  1.3558 -0.3174
 8761SOL     OW37741   0.094   2.606  16.297 -0.1400  0.0543 -0.5176
 8761SOL    HW137742   0.145   2.582  16.374 -3.3053  0.7116  1.7653
 8761SOL    HW237743   0.162   2.607  16.229 -1.4065  0.2536 -1.7952
 8762SOL     OW37744   3.926   3.797   3.139  0.0610 -0.7708  0.1231
 8762SOL    HW137745   3.975   3.854   3.079 -0.9298 -0.7705 -0.6927
 8762SOL    HW237746   3.915   3.718   3.087  1.6353 -2.1253  1.8582
 8763SOL     OW37747   4.565   4.609   4.366 -0.6798 -0.0010 -0.0330
 8763SOL    HW137748   4.617   4.667   4.422 -0.2082 -1.1336  0.7072
 8763SOL    HW237749   4.510   4.669   4.315 -0.8321 -0.2498 -0.1611
 8764SOL     OW37750   2.208   1.951   4.515 -0.3196 -0.5735 -0.8795
 8764SOL    HW137751   2.244   1.997   4.439  0.5073 -1.1689 -0.8468
 8764SOL    HW237752   2.171   2.022   4.566  0.1303  0.3115 -1.7822
 8765SOL     OW37753   3.292   1.840   9.268  0.0393  0.3294 -0.0881
 8765SOL    HW137754   3.310   1.932   9.288 -2.0841  1.2679 -2.3740
 8765SOL    HW237755   3.290   1.806   9.357  5.1213  0.7704  0.1971
 8766SOL     OW37756   2.226   1.528  15.543  0.5118 -0.0160  0.3275
 8766SOL    HW137757   2.195   1.571  15.623  0.0735 -0.0737  0.1889
 8766SOL    HW237758   2.239   1.604  15.486 -0.4242  0.8405  1.2491
 8767SOL     OW37759   3.124   4.584  10.862 -0.4920  0.9017  0.0507
 8767SOL    HW137760   3.160   4.523  10.798  0.8074  0.2623  1.4040
 8767SOL    HW237761   3.174   4.558  10.939 -1.5518 -1.8014 -0.1554
 8768SOL     OW37762   2.019   3.688   7.500  0.1076  0.4438  0.0652
 8768SOL    HW137763   2.088   3.661   7.561 -0.5650  0.1752  0.7068
 8768SOL    HW237764   2.050   3.778   7.487  0.6642  0.0441 -1.3899
 8769SOL     OW37765   3.894   4.673  10.690 -0.1388  0.6594 -0.8137
 8769SOL    HW137766   3.899   4.592  10.741  1.2366  0.4500 -1.2660
 8769SOL    HW237767   3.921   4.632  10.608  1.7068 -1.3273  0.7922
 8770SOL     OW37768   1.902   1.550   3.771 -0.5624 -0.3679  0.5382
 8770SOL    HW137769   1.961   1.550   3.695 -0.8343  1.8832  0.3198
 8770SOL    HW237770   1.965   1.516   3.834  1.2148  0.5154 -0.7644
 8771SOL     OW37771   1.866   3.453   7.425 -0.1966 -0.1104  0.5871
 8771SOL    HW137772   1.790   3.509   7.442 -1.8666 -1.5466 -2.1844
 8771SOL    HW237773   1.941   3.511   7.431 -0.4164  0.1185  1.1770
 8772SOL     OW37774   0.372   4.523   6.574 -0.8048  0.3571  0.3040
 8772SOL    HW137775   0.369   4.433   6.606  2.0894  0.3257  0.5308
 8772SOL    HW237776   0.280   4.548   6.580 -0.8802  0.1906 -0.1681
 8773SOL     OW37777   4.149   4.651  13.321  0.3595 -0.2446  0.1577
 8773SOL    HW137778   4.193   4.617  13.244  0.6013 -1.0696  0.6563
 8773SOL    HW237779   4.215   4.706  13.364  2.5269 -1.6156 -1.4142
 8774SOL     OW37780   0.162   3.876   9.039  0.0199  0.3447 -0.0934
 8774SOL    HW137781   0.211   3.935   9.096 -1.7855  1.0291  0.7451
 8774SOL    HW237782   0.079   3.921   9.055 -1.0210 -1.1992 -1.1332
 8775SOL     OW37783   0.089   3.746   4.282 -0.3402 -0.0688  0.4409
 8775SOL    HW137784   0.137   3.824   4.310  0.7953 -1.3924  2.1201
 8775SOL    HW237785   0.016   3.755   4.342 -0.7207 -0.3786  0.0211
 8776SOL     OW37786   2.430   0.127   4.346  0.0182 -0.1122 -0.2172
 8776SOL    HW137787   2.467   0.074   4.275  0.8262 -0.1136  0.2051
 8776SOL    HW237788   2.436   0.215   4.307 -0.5347 -1.0633 -2.4494
 8777SOL     OW37789   4.314   0.253  14.638  0.0458  0.3550  0.3388
 8777SOL    HW137790   4.284   0.250  14.547  0.9965 -3.8987  0.1588
 8777SOL    HW237791   4.354   0.167  14.651  0.2860  0.4206  0.0505
 8778SOL     OW37792   3.660   4.257  14.620  0.1402  1.0039 -0.1830
 8778SOL    HW137793   3.645   4.171  14.661 -0.1147  0.1183 -2.1450
 8778SOL    HW237794   3.616   4.229  14.540 -2.1915  0.0764  1.3834
 8779SOL     OW37795   3.500   3.433  10.926  0.4873  0.1484  0.1129
 8779SOL    HW137796   3.469   3.502  10.868  2.7140  2.1349  1.3090
 8779SOL    HW237797   3.584   3.472  10.947  0.2711  1.2237 -1.0089
 8780SOL     OW37798   4.620   3.138   2.936  0.4713 -0.2493  0.1329
 8780SOL    HW137799   4.569   3.103   3.009 -0.5938  0.9507 -0.0485
 8780SOL    HW237800   4.686   3.073   2.915 -0.7875 -1.7944  0.9335
 8781SOL     OW37801   3.620   2.177  13.087  0.0504 -0.6024  0.1774
 8781SOL    HW137802   3.611   2.196  12.993  2.0071 -0.8868 -0.0748
 8781SOL    HW237803   3.660   2.090  13.077 -0.1026 -0.4842 -1.4729
 8782SOL     OW37804   1.764   2.585   7.212 -0.2094  0.2071 -0.1433
 8782SOL    HW137805   1.762   2.592   7.308  0.5588  0.6655 -0.1632
 8782SOL    HW237806   1.793   2.671   7.181  0.0230  1.1590  2.7039
 8783SOL     OW37807   3.930   4.441   6.908 -0.2029 -0.6256  0.0713
 8783SOL    HW137808   3.966   4.517   6.863 -0.1093 -0.5460  0.2842
 8783SOL    HW237809   3.928   4.476   6.997  0.2438  0.2415 -0.2629
 8784SOL     OW37810   1.880   1.475  14.555 -0.2819 -0.0180  0.1996
 8784SOL    HW137811   1.968   1.478  14.591  0.6685  0.9502 -2.2088
 8784SOL    HW237812   1.882   1.415  14.480 -1.9312 -0.7912  0.7778
 8785SOL     OW37813   3.681   1.405   0.449  0.5420 -0.8665 -0.0728
 8785SOL    HW137814   3.712   1.320   0.482  2.7572 -0.3447 -0.7659
 8785SOL    HW237815   3.685   1.389   0.355 -0.9448 -0.3377 -0.2200
 8786SOL     OW37816   2.201   4.334   0.563  0.1232 -0.1943  0.2979
 8786SOL    HW137817   2.238   4.337   0.651  0.4177  0.2974  0.1558
 8786SOL    HW237818   2.240   4.409   0.519 -1.7259  1.0872  0.8586
 8787SOL     OW37819   2.649   4.487   4.330 -0.4534  0.5485  0.0039
 8787SOL    HW137820   2.563   4.445   4.336 -0.9301  1.5706  0.2738
 8787SOL    HW237821   2.702   4.428   4.384 -0.1159  0.1131 -0.8002
 8788SOL     OW37822   1.521   4.318   4.802  0.5380  0.5511 -0.4692
 8788SOL    HW137823   1.511   4.375   4.879 -0.4342  0.4764 -0.5371
 8788SOL    HW237824   1.471   4.356   4.731  0.6161 -1.2960 -1.5202
 8789SOL     OW37825   2.099   0.903   4.291  0.5271  0.4920  0.1360
 8789SOL    HW137826   2.123   0.981   4.242  0.4539  1.3869  1.5158
 8789SOL    HW237827   2.163   0.901   4.362  2.1415  0.5042 -1.3293
 8790SOL     OW37828   4.154   2.865  13.100  0.0162 -0.0214 -0.3223
 8790SOL    HW137829   4.133   2.836  13.011 -1.9281  0.8089 -0.1367
 8790SOL    HW237830   4.220   2.933  13.082 -0.1642 -0.1372 -1.4564
 8791SOL     OW37831   0.340   1.605   8.373 -0.1103 -0.3129 -0.7249
 8791SOL    HW137832   0.345   1.627   8.466  0.0113 -2.7072 -0.1749
 8791SOL    HW237833   0.434   1.618   8.362 -0.1230  0.1946 -0.2307
 8792SOL     OW37834   2.434   3.948   5.964 -0.0262 -0.0113 -0.5583
 8792SOL    HW137835   2.522   3.937   5.999  0.9629 -1.2508 -3.4232
 8792SOL    HW237836   2.377   3.972   6.037  1.1722 -1.6400  0.9216
 8793SOL     OW37837   1.640   2.850   9.628  0.1023  0.8211 -0.0581
 8793SOL    HW137838   1.671   2.902   9.702  4.1724 -2.8993  0.7967
 8793SOL    HW237839   1.586   2.783   9.670  3.4501  0.3580  3.4823
 8794SOL     OW37840   3.641   3.205  15.422 -0.1181 -0.5185 -0.1214
 8794SOL    HW137841   3.546   3.210  15.429 -0.0147  1.2246  0.0288
 8794SOL    HW237842   3.655   3.144  15.349 -1.7093 -0.9020 -0.1113
 8795SOL     OW37843   0.871   2.247   0.035 -0.3918 -0.4029 -0.4125
 8795SOL    HW137844   0.927   2.262   0.111 -2.2074  0.0918  0.8162
 8795SOL    HW237845   0.861   2.331  17.685 -0.6787 -2.0759 -3.4537
 8796SOL     OW37846   1.415   1.639   1.750 -0.0299 -0.0815 -0.2079
 8796SOL    HW137847   1.358   1.711   1.776  1.5588  0.2784  2.3476
 8796SOL    HW237848   1.466   1.668   1.675 -2.6545  2.5469 -0.9622
 8797SOL     OW37849   0.017   1.034   5.349  0.3194 -0.6394  0.2881
 8797SOL    HW137850   0.036   1.070   5.435  0.7330 -1.3293  0.4864
 8797SOL    HW237851   0.057   0.947   5.348  1.3008 -0.1745 -1.5781
 8798SOL     OW37852   0.375   4.420   3.060 -0.7456  0.2529  0.1085
 8798SOL    HW137853   0.418   4.393   3.141  0.7849 -0.7868 -1.0585
 8798SOL    HW237854   0.432   4.391   2.989 -0.6495  0.8353 -0.0528
 8799SOL     OW37855   2.507   1.402  10.656 -0.0180  0.5175  0.0110
 8799SOL    HW137856   2.412   1.411  10.664  0.3139  0.8498  3.4983
 8799SOL    HW237857   2.525   1.495  10.661  1.0696  0.3792 -1.3538
 8800SOL     OW37858   1.604   4.539   8.506 -0.1302  0.2309 -0.0790
 8800SOL    HW137859   1.549   4.530   8.583 -1.5199  2.3770 -0.8146
 8800SOL    HW237860   1.681   4.579   8.545 -0.8167 -0.6739  2.1828
 8801SOL     OW37861   2.569   4.420  16.696  0.0238 -0.3462 -0.7779
 8801SOL    HW137862   2.565   4.441  16.603 -0.1730  0.3197 -0.6170
 8801SOL    HW237863   2.619   4.339  16.686 -0.6311 -0.8475  0.0470
 8802SOL     OW37864   3.281   4.655  16.343 -0.2520  0.2780 -0.1234
 8802SOL    HW137865   3.352   4.712  16.314 -0.2721 -0.3642 -1.4299
 8802SOL    HW237866   3.221   4.718  16.383  0.3313  1.0922 -0.5289
 8803SOL     OW37867   2.592   2.599  16.071  0.1398  0.4071 -0.3261
 8803SOL    HW137868   2.567   2.619  15.981 -1.2095  0.3508  0.0388
 8803SOL    HW237869   2.604   2.505  16.062 -0.5958  0.1867  0.9554
 8804SOL     OW37870   4.688   4.169   7.641  0.1158 -0.2318  0.0920
 8804SOL    HW137871   4.621   4.134   7.582  0.6936 -1.2783  0.0720
 8804SOL    HW237872   4.667   4.260   7.619 -0.4316 -0.0663  1.3089
 8805SOL     OW37873   0.754   3.280   9.359  0.4355 -0.4386 -0.3033
 8805SOL    HW137874   0.693   3.277   9.285  0.8093  3.3694 -0.7751
 8805SOL    HW237875   0.713   3.360   9.390  0.8900 -0.6056  0.7094
 8806SOL     OW37876   0.177   0.540   4.961  0.6272  0.2756  0.1270
 8806SOL    HW137877   0.219   0.602   5.020 -0.2197  0.2985  0.7128
 8806SOL    HW237878   0.135   0.602   4.902  0.1774 -1.6702 -1.6216
 8807SOL     OW37879   2.822   1.346   2.175 -0.1798  0.2186 -0.3072
 8807SOL    HW137880   2.865   1.338   2.090  1.0479  2.4035  0.0926
 8807SOL    HW237881   2.784   1.433   2.162  0.4246  0.4839 -0.3469
 8808SOL     OW37882   3.835   3.751   8.398  0.5498  0.0577  0.1160
 8808SOL    HW137883   3.927   3.750   8.374  0.2783  2.3398 -1.0038
 8808SOL    HW237884   3.781   3.753   8.319  0.4896 -2.4940  0.1234
 8809SOL     OW37885   0.312   2.530   4.235  0.3258 -0.5173 -0.1593
 8809SOL    HW137886   0.221   2.509   4.254 -0.2283  2.0024 -0.0757
 8809SOL    HW237887   0.309   2.615   4.191 -0.1032 -0.2707  0.3465
 8810SOL     OW37888   0.654   1.176   4.317 -0.3072  0.3749  0.6850
 8810SOL    HW137889   0.728   1.222   4.357 -0.3539 -0.3245  1.5708
 8810SOL    HW237890   0.617   1.245   4.261 -3.3636 -1.0902  0.8928
 8811SOL     OW37891   2.323   3.005  16.719 -0.7429 -0.2876 -0.4256
 8811SOL    HW137892   2.317   2.986  16.625  1.9398  0.2137 -0.7116
 8811SOL    HW237893   2.401   2.953  16.738 -0.2160  0.2499 -1.0860
 8812SOL     OW37894   2.481   1.575   4.650  0.2661 -0.3203 -0.1586
 8812SOL    HW137895   2.423   1.591   4.725  1.2459 -0.0013  0.5312
 8812SOL    HW237896   2.535   1.505   4.687  0.7101  0.8887  1.4703
 8813SOL     OW37897   4.101   2.931  10.171 -0.4742  0.0455 -0.7966
 8813SOL    HW137898   4.080   2.957  10.082 -1.1030 -1.7348 -1.1560
 8813SOL    HW237899   4.091   3.011  10.223 -0.2055 -0.2936 -0.2202
 8814SOL     OW37900   2.333   3.149   4.751  0.5597  0.3114  0.5519
 8814SOL    HW137901   2.286   3.067   4.769 -0.4265  0.4998 -1.1460
 8814SOL    HW237902   2.393   3.112   4.685  0.0959  1.3947 -0.4840
 8815SOL     OW37903   0.587   0.793   4.991 -0.0510  0.2389  0.2280
 8815SOL    HW137904   0.621   0.745   4.916  0.7376  0.2646  0.5634
 8815SOL    HW237905   0.530   0.862   4.956  0.7565  1.7179  1.7795
 8816SOL     OW37906   3.743   3.504  10.974 -0.2365 -0.2102 -0.0735
 8816SOL    HW137907   3.790   3.524  10.893  1.5521 -1.7161  0.5942
 8816SOL    HW237908   3.786   3.424  11.005  2.3935  1.1572 -0.1987
 8817SOL     OW37909   2.555   3.008   6.777  0.2120  0.2591 -0.0395
 8817SOL    HW137910   2.534   2.920   6.809  0.7536 -0.2341 -1.0259
 8817SOL    HW237911   2.483   3.040   6.722 -0.7314 -4.0285 -1.3178
 8818SOL     OW37912   3.946   1.715   3.018  0.1715  0.1219 -0.7115
 8818SOL    HW137913   3.974   1.804   3.039  0.4011 -0.2271  0.4315
 8818SOL    HW237914   4.013   1.664   3.064 -0.3802  0.3616  0.3588
 8819SOL     OW37915   4.217   2.366   6.635 -0.6413  0.0070  0.4764
 8819SOL    HW137916   4.168   2.376   6.554  1.1408  0.9640 -0.4626
 8819SOL    HW237917   4.304   2.349   6.601 -1.6079 -0.3783 -1.7627
 8820SOL     OW37918   4.156   1.180   8.353 -0.5883 -0.8229 -0.1888
 8820SOL    HW137919   4.168   1.097   8.307  2.9037 -0.1514 -0.4088
 8820SOL    HW237920   4.065   1.202   8.332 -0.0939  0.8594 -0.5295
 8821SOL     OW37921   0.317   2.444  17.137  0.1465 -0.0417  0.2434
 8821SOL    HW137922   0.284   2.359  17.165  1.3839 -0.8909 -0.8626
 8821SOL    HW237923   0.360   2.485  17.212 -1.2121  0.5077  0.7278
 8822SOL     OW37924   0.724   2.851   2.636  0.1778  0.6167  0.1374
 8822SOL    HW137925   0.813   2.823   2.612  1.6513  4.0646  1.4480
 8822SOL    HW237926   0.745   2.829   2.726  0.8446  1.7167  0.2589
 8823SOL     OW37927   1.240   2.444   3.560 -0.3236 -0.2189  0.8116
 8823SOL    HW137928   1.175   2.402   3.503  1.0437 -1.4049  0.1111
 8823SOL    HW237929   1.199   2.524   3.593 -3.4307 -2.2006  1.7442
 8824SOL     OW37930   0.425   3.836   7.401  0.9178  0.0102 -0.1006
 8824SOL    HW137931   0.453   3.746   7.384  1.1307  0.1676 -0.5918
 8824SOL    HW237932   0.507   3.866   7.441 -0.4496  3.0141  0.4594
 8825SOL     OW37933   2.481   4.144  11.731 -0.0605 -0.3054 -0.6623
 8825SOL    HW137934   2.505   4.109  11.817 -0.0146 -0.2888 -0.6679
 8825SOL    HW237935   2.546   4.205  11.696 -0.4751  0.8619  0.5448
 8826SOL     OW37936   1.065   3.226   2.695  0.1639  0.2376 -0.4806
 8826SOL    HW137937   1.102   3.164   2.758 -0.7627 -0.3949 -0.5583
 8826SOL    HW237938   1.103   3.187   2.616  0.3393 -0.3541 -0.1110
 8827SOL     OW37939   1.029   2.197   4.278 -0.0195 -0.1832 -0.1151
 8827SOL    HW137940   1.121   2.215   4.294 -0.0142  0.2936 -0.6692
 8827SOL    HW237941   1.010   2.284   4.244  1.3467 -0.1908 -0.9004
 8828SOL     OW37942   2.641   2.759   3.987  0.3867 -0.3647  0.2060
 8828SOL    HW137943   2.592   2.832   3.950  0.9072 -0.2886 -0.3297
 8828SOL    HW237944   2.616   2.688   3.927  1.0640  1.3039 -2.0411
 8829SOL     OW37945   3.157   1.425   8.517  0.2142  0.2299 -0.2175
 8829SOL    HW137946   3.221   1.466   8.576  2.7357 -1.5594 -1.6896
 8829SOL    HW237947   3.158   1.483   8.440 -1.7773 -0.3102 -0.6338
 8830SOL     OW37948   0.847   2.186   6.860  0.0983  0.3038 -0.0381
 8830SOL    HW137949   0.898   2.211   6.937  0.1875  1.6047 -0.5211
 8830SOL    HW237950   0.809   2.269   6.832 -0.0779  0.1070 -0.3758
 8831SOL     OW37951   4.572   4.160  13.605 -0.0877  1.0790  0.5228
 8831SOL    HW137952   4.592   4.243  13.562 -0.5092  1.4718  1.0685
 8831SOL    HW237953   4.543   4.183  13.694 -3.2377 -1.7074  0.2195
 8832SOL     OW37954   4.445   3.400  10.596  0.9943  0.5395 -0.0969
 8832SOL    HW137955   4.539   3.410  10.612  1.0050 -0.1795  0.2625
 8832SOL    HW237956   4.416   3.323  10.645  1.9613 -1.5376 -2.8280
 8833SOL     OW37957   1.447   0.400  16.104 -0.2819 -0.2999  0.3629
 8833SOL    HW137958   1.431   0.369  16.193 -1.0277 -2.6007 -0.5771
 8833SOL    HW237959   1.465   0.489  16.134 -1.9032  1.1474 -2.9723
 8834SOL     OW37960   0.980   0.783   3.398 -0.0215 -0.0995  0.1269
 8834SOL    HW137961   0.932   0.731   3.333 -0.2452 -0.0985  0.2898
 8834SOL    HW237962   1.011   0.725   3.468  2.1338 -0.4800 -1.1428
 8835SOL     OW37963   1.452   0.646   7.741 -0.0196 -0.4739 -0.3743
 8835SOL    HW137964   1.364   0.608   7.736  0.7674 -2.2967 -0.5953
 8835SOL    HW237965   1.454   0.641   7.837 -1.0790  0.2903 -0.3224
 8836SOL     OW37966   2.893   0.126  14.200 -0.1757  0.5333  0.1191
 8836SOL    HW137967   2.933   0.066  14.137 -1.1376  1.3572 -1.2456
 8836SOL    HW237968   2.830   0.062  14.232  0.5062 -1.3259 -2.3034
 8837SOL     OW37969   3.877   0.281   5.641  0.5331  0.8615 -0.1251
 8837SOL    HW137970   3.950   0.220   5.639 -1.0732 -0.8616 -3.9717
 8837SOL    HW237971   3.914   0.365   5.671  0.4458  1.1604 -0.8559
 8838SOL     OW37972   4.071   1.421   4.508  0.1490 -0.2978 -0.4134
 8838SOL    HW137973   4.114   1.368   4.441  2.9343  1.5842 -0.1140
 8838SOL    HW237974   4.133   1.421   4.581 -0.9081  2.5454  0.4863
 8839SOL     OW37975   1.297   0.205   0.998  0.1343  0.0194 -0.3775
 8839SOL    HW137976   1.214   0.251   1.016 -0.4486 -1.7299  1.3520
 8839SOL    HW237977   1.287   0.188   0.904  1.0778  0.8073 -0.6156
 8840SOL     OW37978   2.064   1.755   9.876  0.2209 -0.2169  0.3570
 8840SOL    HW137979   2.145   1.728   9.832 -1.0886 -2.9576 -0.3690
 8840SOL    HW237980   2.071   1.700   9.953  3.1187  3.4548  2.6958
 8841SOL     OW37981   0.686   3.528   1.722 -0.0037  0.3823  0.1253
 8841SOL    HW137982   0.777   3.555   1.734  0.4359 -1.1378  0.2143
 8841SOL    HW237983   0.685   3.463   1.652 -1.3449 -0.8861  1.3154
 8842SOL     OW37984   3.870   0.442   2.648 -0.0285 -0.9051 -0.3708
 8842SOL    HW137985   3.919   0.384   2.707 -0.6914  0.9457  2.0079
 8842SOL    HW237986   3.863   0.387   2.570  1.7445 -0.6208 -0.7346
 8843SOL     OW37987   3.535   3.114   7.482 -0.3447 -0.1465 -0.2245
 8843SOL    HW137988   3.499   3.101   7.570 -0.7695 -0.5507 -0.4613
 8843SOL    HW237989   3.629   3.117   7.499 -0.2367  1.4591 -1.1042
 8844SOL     OW37990   0.904   3.037  13.982 -0.1298  0.1075  0.3494
 8844SOL    HW137991   0.850   2.970  13.938 -0.2306 -0.0644  0.7379
 8844SOL    HW237992   0.848   3.058  14.057  0.4449 -1.1340  1.1251
 8845SOL     OW37993   2.363   0.519  15.540  0.2179  0.3153  0.0230
 8845SOL    HW137994   2.281   0.510  15.588  0.0595  3.6666  0.4092
 8845SOL    HW237995   2.346   0.572  15.461  2.3392 -2.1393 -2.0773
 8846SOL     OW37996   2.503   0.102   2.671  0.5996 -0.7168 -0.2763
 8846SOL    HW137997   2.464   0.185   2.644  2.2230 -0.0180 -0.5348
 8846SOL    HW237998   2.584   0.139   2.707  0.7328 -0.8148 -0.4776
 8847SOL     OW37999   1.324   3.783  15.123  0.3399 -0.0346  0.8184
 8847SOL    HW138000   1.333   3.688  15.128 -0.0758  0.0818  3.6900
 8847SOL    HW238001   1.415   3.804  15.142  0.2498  0.3823  0.7869
 8848SOL     OW38002   4.437   3.325   0.314  0.9757 -0.2404 -0.1568
 8848SOL    HW138003   4.368   3.321   0.249  3.1745  0.7916 -2.5477
 8848SOL    HW238004   4.447   3.235   0.346 -1.8984 -0.6357 -0.3892
 8849SOL     OW38005   2.615   2.162  13.374 -0.1957  0.0823  0.1619
 8849SOL    HW138006   2.647   2.186  13.287 -2.0416  0.7315 -0.3279
 8849SOL    HW238007   2.702   2.157  13.413  1.2652  0.2851 -3.0563
 8850SOL     OW38008   2.969   4.318   3.164 -0.3098  0.3170 -0.0545
 8850SOL    HW138009   2.985   4.234   3.120 -2.8362  0.1073 -0.5191
 8850SOL    HW238010   3.006   4.291   3.249  1.9147 -1.5402 -1.5941
 8851SOL     OW38011   3.273   2.132  12.831 -0.3683  0.2721 -0.3508
 8851SOL    HW138012   3.257   2.145  12.737 -3.1112  0.4885  0.1428
 8851SOL    HW238013   3.318   2.214  12.845 -0.6083  0.4161 -0.4172
 8852SOL     OW38014   0.208   2.917   5.624  0.8058  0.5600 -1.0168
 8852SOL    HW138015   0.148   2.853   5.663  0.8384  1.7636  0.9894
 8852SOL    HW238016   0.284   2.905   5.681  1.9283  2.8279 -2.0601
 8853SOL     OW38017   4.142   2.761   7.835 -0.2453 -0.2778 -0.7835
 8853SOL    HW138018   4.072   2.774   7.900  0.7369 -0.6717  0.3427
 8853SOL    HW238019   4.132   2.669   7.814  4.3847 -0.7129 -0.9799
 8854SOL     OW38020   1.768   0.699   7.115  0.5018  0.0840 -0.0474
 8854SOL    HW138021   1.757   0.669   7.205 -1.3059 -0.3548 -0.4185
 8854SOL    HW238022   1.839   0.637   7.098 -1.4954 -1.7011 -1.7922
 8855SOL     OW38023   0.029   2.593   8.047 -0.4027 -0.0666  0.3621
 8855SOL    HW138024   0.001   2.645   7.972  0.0024  2.2468  1.8165
 8855SOL    HW238025   4.668   2.568   8.085 -0.4451 -1.2221 -0.4740
 8856SOL     OW38026   2.605   1.420  17.218 -0.4157  0.3769 -0.2011
 8856SOL    HW138027   2.690   1.465  17.216 -0.7628  1.0396 -0.0461
 8856SOL    HW238028   2.628   1.355  17.152  1.2121  0.5405  0.1973
 8857SOL     OW38029   4.015   0.331  15.756 -0.4090  0.6452 -0.2606
 8857SOL    HW138030   3.951   0.401  15.746 -1.0364 -0.2920 -2.7613
 8857SOL    HW238031   4.083   0.361  15.696 -0.0469 -2.2777 -1.3067
 8858SOL     OW38032   1.992   2.505   8.429  0.3873  0.3259  0.1039
 8858SOL    HW138033   2.019   2.522   8.338  0.4520  2.2250  0.4755
 8858SOL    HW238034   1.909   2.460   8.413  0.6933  0.5360 -2.0719
 8859SOL     OW38035   2.855   3.334   8.447  0.1993  0.1102  0.4933
 8859SOL    HW138036   2.883   3.379   8.367  0.5917 -0.3232  0.3868
 8859SOL    HW238037   2.760   3.343   8.443  0.1264 -0.3058  1.3996
 8860SOL     OW38038   4.351   2.434   4.601  0.3584 -0.5403  0.4036
 8860SOL    HW138039   4.267   2.476   4.581  1.3952  0.0120 -2.8058
 8860SOL    HW238040   4.397   2.428   4.517  0.8797  0.8323  0.6058
 8861SOL     OW38041   4.377   4.185   5.160  0.3297 -0.4835  0.3100
 8861SOL    HW138042   4.388   4.240   5.083 -1.4939 -2.6445 -1.4815
 8861SOL    HW238043   4.422   4.244   5.221 -1.0749 -0.6111  1.4691
 8862SOL     OW38044   2.666   1.309   6.827 -0.2367 -0.2481 -0.3027
 8862SOL    HW138045   2.597   1.255   6.788  1.8586 -2.0446 -1.5228
 8862SOL    HW238046   2.682   1.371   6.757  2.2866 -1.9675 -1.2475
 8863SOL     OW38047   2.438   2.649  16.536 -0.3142 -0.1622  0.4901
 8863SOL    HW138048   2.422   2.555  16.551  1.9459 -0.8538 -1.5284
 8863SOL    HW238049   2.507   2.649  16.470 -3.9351 -1.1470 -3.2871
 8864SOL     OW38050   1.145   0.492  12.274  0.1212 -0.6656 -0.0509
 8864SOL    HW138051   1.164   0.512  12.366 -3.0088 -1.6275  0.8126
 8864SOL    HW238052   1.137   0.397  12.276 -0.2389 -0.6487 -1.0414
 8865SOL     OW38053   0.174   1.863   5.231 -0.1577  0.0717 -0.3579
 8865SOL    HW138054   0.168   1.776   5.192 -0.0538  0.6909 -1.7703
 8865SOL    HW238055   0.084   1.894   5.221 -0.6955 -1.0530  0.9993
 8866SOL     OW38056   2.160   0.511  16.529 -0.5988 -0.3114 -0.5230
 8866SOL    HW138057   2.097   0.572  16.490 -1.5789 -0.1133  1.3642
 8866SOL    HW238058   2.114   0.429  16.548 -2.6088  0.7842 -0.6394
 8867SOL     OW38059   3.615   2.418   2.870 -0.5974  0.1064  0.0198
 8867SOL    HW138060   3.635   2.327   2.893  0.7650  0.5590  0.6119
 8867SOL    HW238061   3.520   2.416   2.859 -0.3773  2.1066 -2.1363
 8868SOL     OW38062   3.611   1.043   5.137 -0.7027 -0.2485  0.6609
 8868SOL    HW138063   3.555   0.989   5.081  0.8924 -3.3103  2.0012
 8868SOL    HW238064   3.694   1.008   5.106 -0.3428  1.7399 -0.5999
 8869SOL     OW38065   1.980   0.276   4.885  0.1856 -0.7216  0.1465
 8869SOL    HW138066   2.067   0.306   4.911  0.9773 -2.6264 -0.2955
 8869SOL    HW238067   2.006   0.206   4.824 -0.2032  0.0898 -0.9517
 8870SOL     OW38068   3.056   3.797   8.537 -0.5455 -0.2370  0.4976
 8870SOL    HW138069   3.044   3.705   8.513 -0.7346  0.6603 -2.8429
 8870SOL    HW238070   3.151   3.806   8.548 -0.5858  1.3807 -0.4615
 8871SOL     OW38071   0.154   3.948   5.383 -0.4469 -0.0295  0.1724
 8871SOL    HW138072   0.199   3.987   5.308 -2.4942 -1.2649 -1.6661
 8871SOL    HW238073   0.083   3.905   5.335  1.7145 -1.9203 -1.3221
 8872SOL     OW38074   4.280   4.106  10.917 -0.3249  0.3551  0.2197
 8872SOL    HW138075   4.186   4.124  10.923 -0.7532 -1.4632 -0.9764
 8872SOL    HW238076   4.271   4.063  10.832  1.9821 -1.0746  0.6986
 8873SOL     OW38077   3.590   2.731  13.257  0.3982 -0.3361 -0.3939
 8873SOL    HW138078   3.644   2.794  13.304  0.8439 -1.2369  0.3067
 8873SOL    HW238079   3.653   2.661  13.237  1.1890 -0.4921  2.6020
 8874SOL     OW38080   3.343   1.852  17.551 -0.0938  0.3576 -0.2416
 8874SOL    HW138081   3.298   1.767  17.558  2.9952 -1.2365  0.0038
 8874SOL    HW238082   3.362   1.879  17.640 -2.1402  0.3741  0.1891
 8875SOL     OW38083   0.860   4.534   1.734 -0.1660  0.1951  0.0386
 8875SOL    HW138084   0.848   4.629   1.734 -0.1398  0.1882  1.5756
 8875SOL    HW238085   0.933   4.521   1.795 -0.3997  0.3711  0.3530
 8876SOL     OW38086   1.822   4.364   7.886 -0.3522  0.4151 -0.3773
 8876SOL    HW138087   1.818   4.366   7.790  3.4515  0.6702 -0.5155
 8876SOL    HW238088   1.858   4.450   7.907  3.0209 -1.4669  1.5097
 8877SOL     OW38089   0.205   4.203  13.290 -0.1605  0.5272  0.9644
 8877SOL    HW138090   0.197   4.184  13.196  0.5171 -0.2308  1.0684
 8877SOL    HW238091   0.218   4.298  13.291  1.3514  0.3396 -0.5264
 8878SOL     OW38092   3.942   0.714   2.535  0.2144  0.6900  0.4907
 8878SOL    HW138093   3.940   0.622   2.562 -3.0889  0.7838  0.6699
 8878SOL    HW238094   3.993   0.704   2.454 -1.1765 -0.3116 -0.2652
 8879SOL     OW38095   2.682   0.575   8.545 -0.1510 -0.5409 -0.6371
 8879SOL    HW138096   2.751   0.638   8.527  0.3895 -0.6744  0.9570
 8879SOL    HW238097   2.691   0.580   8.640 -0.1386 -0.0802 -0.6620
 8880SOL     OW38098   2.839   1.822   8.687 -0.2121  0.2425  0.0070
 8880SOL    HW138099   2.857   1.728   8.696 -2.3510 -0.3723 -2.3141
 8880SOL    HW238100   2.782   1.846   8.760 -1.1772 -0.8092 -0.3985
 8881SOL     OW38101   2.013   2.304   3.809  0.2495 -0.0808 -0.4760
 8881SOL    HW138102   2.092   2.274   3.855 -0.8588 -2.2168  0.0157
 8881SOL    HW238103   1.972   2.372   3.864  1.4317 -0.4490  0.8818
 8882SOL     OW38104   1.886   3.762   0.331 -0.3682  0.4015 -0.1873
 8882SOL    HW138105   1.922   3.706   0.262 -0.0336  0.5087 -0.0999
 8882SOL    HW238106   1.817   3.804   0.280 -0.0604 -1.2991 -1.9925
 8883SOL     OW38107   3.339   2.402   2.865 -0.2397 -0.0867  0.0319
 8883SOL    HW138108   3.254   2.357   2.866  0.7036 -1.8146  1.5942
 8883SOL    HW238109   3.320   2.495   2.872  0.8850  0.0979  0.5854
 8884SOL     OW38110   1.218   0.276   3.761 -0.6095 -0.2932  0.2775
 8884SOL    HW138111   1.242   0.201   3.706  1.9748 -0.0713  1.1135
 8884SOL    HW238112   1.304   0.295   3.798 -0.2691  0.6649 -1.0236
 8885SOL     OW38113   4.380   1.369  13.199 -0.2312  1.0143 -0.2039
 8885SOL    HW138114   4.456   1.370  13.257 -0.2282 -1.1898 -0.1794
 8885SOL    HW238115   4.375   1.274  13.196  1.1726  0.9396  0.1084
 8886SOL     OW38116   1.707   2.515   5.102 -0.2141  0.3493  0.1188
 8886SOL    HW138117   1.751   2.446   5.051  0.1688 -1.2692  2.6140
 8886SOL    HW238118   1.786   2.563   5.128  1.0562 -0.4264 -2.3798
 8887SOL     OW38119   0.640   2.343   6.459 -0.1054  0.2334 -0.5625
 8887SOL    HW138120   0.652   2.268   6.517 -0.1619  0.8906  0.2987
 8887SOL    HW238121   0.589   2.304   6.389 -0.6153 -1.8328  0.9432
 8888SOL     OW38122   2.272   4.214   6.825  0.1014 -0.2027  0.7609
 8888SOL    HW138123   2.263   4.190   6.917  2.0511 -2.6669  0.3137
 8888SOL    HW238124   2.227   4.140   6.784 -1.0907  1.0207 -0.1373
 8889SOL     OW38125   0.639   2.807   4.389 -0.8521  0.3173 -0.0876
 8889SOL    HW138126   0.591   2.816   4.472  0.5554 -3.8011  1.1894
 8889SOL    HW238127   0.611   2.890   4.352  0.6393  1.1678  0.7009
 8890SOL     OW38128   0.301   2.807  14.224 -0.0113  0.0380 -0.1122
 8890SOL    HW138129   0.312   2.893  14.184 -1.9631  1.0190  1.4778
 8890SOL    HW238130   0.323   2.764  14.141  2.4261 -0.9864  1.0574
 8891SOL     OW38131   1.665   2.614  17.311  0.0947 -0.5095 -0.2919
 8891SOL    HW138132   1.624   2.534  17.343  2.1876 -1.2842  0.4566
 8891SOL    HW238133   1.743   2.587  17.263 -0.9851 -1.1814 -1.6658
 8892SOL     OW38134   4.135   1.900   4.059 -0.6513  0.1236 -0.5424
 8892SOL    HW138135   4.118   1.993   4.045 -0.2906  0.4522  1.1750
 8892SOL    HW238136   4.226   1.900   4.028 -0.5526 -1.4879 -0.2293
 8893SOL     OW38137   1.927   3.867   7.098  0.1245 -0.0911 -0.3454
 8893SOL    HW138138   1.898   3.780   7.072  0.0262 -0.5186  1.1910
 8893SOL    HW238139   1.974   3.851   7.180 -0.0885 -0.1798 -0.2395
 8894SOL     OW38140   0.520   0.291   6.280  0.6222  0.3769  0.3073
 8894SOL    HW138141   0.613   0.288   6.302  0.5483  1.0183  0.7263
 8894SOL    HW238142   0.482   0.265   6.364  2.9834 -0.4246  1.1234
 8895SOL     OW38143   1.646   2.138  17.532  0.2389  0.3127  0.3332
 8895SOL    HW138144   1.619   2.066  17.588  3.1096 -0.2476  0.9863
 8895SOL    HW238145   1.657   2.086  17.453 -0.0381  1.4117 -0.4314
 8896SOL     OW38146   2.693   0.793   2.471  0.1903  0.2409 -0.4399
 8896SOL    HW138147   2.625   0.859   2.461  1.0834  1.1954 -0.2436
 8896SOL    HW238148   2.747   0.844   2.531 -0.8106  0.3040  0.3945
 8897SOL     OW38149   1.733   0.196   7.444  0.1890 -0.6453  0.1490
 8897SOL    HW138150   1.701   0.251   7.372  0.3678  0.9518  1.3011
 8897SOL    HW238151   1.722   0.105   7.416 -0.9051 -0.8687  1.2982
 8898SOL     OW38152   4.598   0.576  10.337 -0.3307  0.6518  0.3197
 8898SOL    HW138153   4.649   0.541  10.410 -0.6250 -0.9933 -0.2629
 8898SOL    HW238154   4.525   0.515  10.336 -0.8519  1.3229 -1.3964
 8899SOL     OW38155   4.334   3.641   2.215 -0.2965  0.6880  0.0750
 8899SOL    HW138156   4.332   3.673   2.125  0.5384  1.8531  0.4888
 8899SOL    HW238157   4.322   3.548   2.193  1.2300 -0.3918  3.8184
 8900SOL     OW38158   0.988   2.862   6.113  0.2004 -0.7956  0.2113
 8900SOL    HW138159   1.015   2.904   6.195  0.4394 -1.1410  0.3084
 8900SOL    HW238160   1.020   2.774   6.129  1.8815 -0.7943 -3.0261
 8901SOL     OW38161   2.674   2.481   1.515  0.2356  1.0107 -0.4581
 8901SOL    HW138162   2.681   2.504   1.608 -0.0986  0.6182 -0.3332
 8901SOL    HW238163   2.581   2.486   1.495  0.3075  0.8768 -0.8290
 8902SOL     OW38164   1.101   1.971   6.764  0.0657 -0.6881  0.1274
 8902SOL    HW138165   1.195   1.985   6.763  0.1832 -1.5276 -0.3351
 8902SOL    HW238166   1.078   2.059   6.735 -0.4135 -0.7586  0.2871
 8903SOL     OW38167   1.826   2.287  13.413 -0.0659  0.3579 -0.0641
 8903SOL    HW138168   1.820   2.216  13.477 -2.7783  1.1461  0.5222
 8903SOL    HW238169   1.921   2.304  13.412 -0.0508  0.3034  0.4580
 8904SOL     OW38170   3.390   0.966  11.727 -0.3909  0.6505  0.1868
 8904SOL    HW138171   3.307   1.005  11.701 -0.2634 -0.1964 -1.4936
 8904SOL    HW238172   3.364   0.929  11.811  0.7641  0.4034  0.4336
 8905SOL     OW38173   1.174   3.660   8.077  0.2890  0.1751 -0.3579
 8905SOL    HW138174   1.195   3.676   8.169  0.0746 -2.4341  0.1570
 8905SOL    HW238175   1.078   3.661   8.084  0.3851  1.5559  0.8943
 8906SOL     OW38176   2.990   0.186  16.030  0.3530  0.4203  0.0258
 8906SOL    HW138177   2.997   0.096  15.999  1.1977 -0.0483  1.5369
 8906SOL    HW238178   3.077   0.214  16.002 -0.0259 -0.1781 -1.7404
 8907SOL     OW38179   4.275   0.802   2.651  0.1749  0.1055 -0.2619
 8907SOL    HW138180   4.335   0.784   2.579  0.8918 -2.5503  1.0244
 8907SOL    HW238181   4.268   0.721   2.700  0.6062  0.4155  0.3144
 8908SOL     OW38182   3.777   4.004   6.815  0.6446  0.3241  0.1124
 8908SOL    HW138183   3.847   4.030   6.875  0.2779  4.0393 -1.0760
 8908SOL    HW238184   3.831   3.971   6.743 -2.0487  2.0419 -2.7033
 8909SOL     OW38185   0.212   3.075  12.913 -0.3256  0.3623 -0.8941
 8909SOL    HW138186   0.233   3.157  12.867 -2.1517  0.3732 -1.7066
 8909SOL    HW238187   0.255   3.009  12.858  2.0938  1.3650 -0.2156
 8910SOL     OW38188   1.947   3.113   9.523 -0.6748 -0.3377  0.2633
 8910SOL    HW138189   1.975   3.199   9.491 -1.0095  0.3142  1.7281
 8910SOL    HW238190   1.945   3.119   9.619 -1.9272  1.8372  0.1028
 8911SOL     OW38191   0.369   0.954  12.920  0.5074  0.3941 -0.5440
 8911SOL    HW138192   0.421   1.019  12.967  0.3205 -0.2056  0.4896
 8911SOL    HW238193   0.390   0.980  12.830 -3.4870  1.0066 -1.3057
 8912SOL     OW38194   3.008   0.484   2.102  0.3897 -0.1122  0.6127
 8912SOL    HW138195   2.979   0.572   2.076 -3.0972 -0.9422  1.8370
 8912SOL    HW238196   2.927   0.436   2.115  1.4547 -1.2082  3.0551
 8913SOL     OW38197   0.543   1.135   5.327 -0.1617  0.0734  0.7389
 8913SOL    HW138198   0.548   1.040   5.331  2.0470  0.0614 -1.9048
 8913SOL    HW238199   0.620   1.146   5.384 -0.2314  1.6020  0.5532
 8914SOL     OW38200   1.100   3.600  15.535  0.2408  0.7645 -0.4193
 8914SOL    HW138201   1.096   3.661  15.609 -0.0779  1.0137 -0.6398
 8914SOL    HW238202   1.147   3.651  15.470  0.2161  1.1377 -0.1465
 8915SOL     OW38203   4.565   1.760  12.667 -0.5288 -0.2280 -0.4951
 8915SOL    HW138204   4.492   1.818  12.647 -0.2366  1.0008  2.0418
 8915SOL    HW238205   4.613   1.768  12.585 -0.5110  0.2147 -0.4437
 8916SOL     OW38206   2.510   3.240   2.034 -0.3202 -0.3825 -0.5249
 8916SOL    HW138207   2.530   3.169   1.975 -2.9557 -1.7603  0.2104
 8916SOL    HW238208   2.511   3.181   2.110 -1.0722  0.8165  0.4389
 8917SOL     OW38209   3.235   1.340   0.852  0.2548 -0.4410  0.1144
 8917SOL    HW138210   3.228   1.245   0.859  0.8800 -0.5286 -0.4668
 8917SOL    HW238211   3.211   1.366   0.941 -0.6039 -2.4776  0.4780
 8918SOL     OW38212   3.416   1.997   1.782  0.1616 -0.6434 -0.5769
 8918SOL    HW138213   3.470   2.004   1.861  0.6273  0.5325 -1.0031
 8918SOL    HW238214   3.335   2.033   1.818  0.1044 -1.6319  0.2955
 8919SOL     OW38215   3.193   0.137  11.059 -0.5969 -0.3652  0.9728
 8919SOL    HW138216   3.152   0.056  11.091 -0.1570 -0.9448  0.0578
 8919SOL    HW238217   3.210   0.183  11.141  1.3872  1.0808 -0.2484
 8920SOL     OW38218   1.737   3.219  10.753  0.5175  0.1999  0.2400
 8920SOL    HW138219   1.731   3.170  10.835  2.8530  1.3443  1.1061
 8920SOL    HW238220   1.803   3.285  10.774  1.3514 -1.1075  1.7675
 8921SOL     OW38221   1.253   1.053   4.222  0.0415  0.0169  0.0174
 8921SOL    HW138222   1.204   1.057   4.304 -0.2367 -1.9495 -0.0654
 8921SOL    HW238223   1.304   0.972   4.225 -0.6371 -0.4205 -0.4070
 8922SOL     OW38224   3.479   1.401   8.614  0.0131  0.2103 -0.3015
 8922SOL    HW138225   3.449   1.446   8.692  4.7044  1.3961  0.8194
 8922SOL    HW238226   3.492   1.474   8.553  0.0653  0.1269 -0.3915
 8923SOL     OW38227   1.361   4.023   6.482 -0.3051 -0.7470  0.0900
 8923SOL    HW138228   1.287   4.079   6.461  0.6935  0.2305 -0.8028
 8923SOL    HW238229   1.385   4.001   6.392 -0.2488  1.9665 -0.5403
 8924SOL     OW38230   0.212   2.386   7.694 -0.0352  0.1364  0.3862
 8924SOL    HW138231   0.297   2.371   7.735 -0.1220  1.9303  1.2391
 8924SOL    HW238232   0.228   2.452   7.627 -0.2537 -0.7903 -0.5814
 8925SOL     OW38233   0.411   3.702  16.194  0.1313 -0.1121  0.0956
 8925SOL    HW138234   0.371   3.789  16.193 -1.7082 -1.0043 -3.1064
 8925SOL    HW238235   0.495   3.720  16.237 -1.0269  2.7748  1.1316
 8926SOL     OW38236   3.918   0.101  11.981  0.0819  0.0783 -0.0983
 8926SOL    HW138237   4.007   0.066  11.982  0.2474  0.5860  2.1169
 8926SOL    HW238238   3.888   0.080  12.069 -2.0711 -1.0065 -1.0691
 8927SOL     OW38239   3.286   3.889   2.300  0.2449 -0.0721  0.4737
 8927SOL    HW138240   3.355   3.904   2.235 -1.9261  3.7054 -0.9739
 8927SOL    HW238241   3.212   3.943   2.273 -0.7381 -1.7602 -0.1827
 8928SOL     OW38242   1.878   3.145   9.178 -0.2245 -0.2524  0.2628
 8928SOL    HW138243   1.960   3.121   9.134 -0.6691  1.6605 -1.5802
 8928SOL    HW238244   1.895   3.237   9.199  0.5349 -0.2983 -0.1430
 8929SOL     OW38245   0.875   2.295   2.025 -0.2285 -0.2625  0.8596
 8929SOL    HW138246   0.902   2.214   2.070  2.0940 -0.8191 -1.5447
 8929SOL    HW238247   0.878   2.266   1.934  1.3069  2.5730  0.0194
 8930SOL     OW38248   1.270   1.166  17.245  0.2532  0.5922  0.4856
 8930SOL    HW138249   1.320   1.139  17.168  0.2000 -0.2997  0.7665
 8930SOL    HW238250   1.340   1.156  17.311 -0.3860 -0.4255  1.0074
 8931SOL     OW38251   2.185   1.203   0.355 -0.1201  0.3793 -0.0672
 8931SOL    HW138252   2.276   1.222   0.333  0.5534 -0.7125  1.7818
 8931SOL    HW238253   2.138   1.277   0.316  0.9874  0.9539 -0.3065
 8932SOL     OW38254   1.237   0.598   8.623  0.3932  0.4639  0.4324
 8932SOL    HW138255   1.324   0.609   8.661  0.0754  3.4770  0.3023
 8932SOL    HW238256   1.216   0.691   8.612  1.4623  0.5600 -0.8551
 8933SOL     OW38257   0.963   4.082   7.738  0.0088 -0.4089 -0.0212
 8933SOL    HW138258   0.946   4.043   7.653  0.9407  1.6966 -1.1752
 8933SOL    HW238259   1.044   4.132   7.724 -0.5200  0.4716  0.0394
 8934SOL     OW38260   0.631   2.428   7.217  0.0937  0.3919 -0.1164
 8934SOL    HW138261   0.576   2.489   7.266  0.2218  0.3149  0.1242
 8934SOL    HW238262   0.678   2.483   7.153  0.0206 -0.3768 -0.8348
 8935SOL     OW38263   2.885   0.732   2.038 -0.0157 -0.7478  0.5762
 8935SOL    HW138264   2.934   0.811   2.062 -2.0183  1.5440 -2.7461
 8935SOL    HW238265   2.812   0.742   2.099 -1.3957 -2.7636 -0.7637
 8936SOL     OW38266   1.169   3.045   8.865  0.4442 -0.0760  0.5140
 8936SOL    HW138267   1.117   2.975   8.826 -0.4001  0.5286  0.5557
 8936SOL    HW238268   1.259   3.014   8.850 -0.8248 -3.0273 -0.9836
 8937SOL     OW38269   1.292   2.690   7.105 -0.0215  0.0387 -0.4743
 8937SOL    HW138270   1.357   2.621   7.097  0.8458  0.9035 -0.8407
 8937SOL    HW238271   1.228   2.661   7.040 -2.5850  0.7275  1.7407
 8938SOL     OW38272   2.616   0.880   4.185 -0.2098  0.3914  0.1816
 8938SOL    HW138273   2.537   0.911   4.142  0.2068 -0.7535 -1.3929
 8938SOL    HW238274   2.641   0.948   4.249  1.0926 -0.0954  0.1926
 8939SOL     OW38275   2.409   4.006  15.201 -0.3822 -0.0551 -0.1770
 8939SOL    HW138276   2.396   4.089  15.156 -1.3684  0.2472  0.6573
 8939SOL    HW238277   2.380   4.026  15.290 -0.0739 -0.4101  0.0023
 8940SOL     OW38278   2.659   1.444   2.951  0.2080  0.1900  0.6759
 8940SOL    HW138279   2.596   1.453   3.022 -2.8994 -0.6547 -1.9099
 8940SOL    HW238280   2.649   1.533   2.916 -0.9921 -0.1716  0.0686
 8941SOL     OW38281   2.601   3.065   3.159 -0.0413 -0.1744  0.2096
 8941SOL    HW138282   2.578   3.151   3.124  1.1016  0.3956  0.8556
 8941SOL    HW238283   2.537   3.004   3.123 -0.5605  1.6298 -1.9188
 8942SOL     OW38284   2.021   2.569   6.357  0.0122  0.5598 -0.7006
 8942SOL    HW138285   1.938   2.594   6.316  1.0787  1.0500 -2.5805
 8942SOL    HW238286   2.067   2.653   6.360  0.8628  0.0372  0.9850
 8943SOL     OW38287   1.148   3.576   9.031 -0.3061  0.2734  0.5248
 8943SOL    HW138288   1.187   3.507   8.977  0.3052 -0.2420  1.6177
 8943SOL    HW238289   1.080   3.530   9.081  0.1683 -1.7598 -0.6902
 8944SOL     OW38290   1.383   3.524  15.175 -0.4572 -0.0404  0.4419
 8944SOL    HW138291   1.431   3.532  15.258 -1.1302  1.5851  0.6761
 8944SOL    HW238292   1.427   3.458  15.122 -2.5934 -0.8278 -0.3240
 8945SOL     OW38293   3.234   4.392   8.242  0.3716 -0.0729  0.0926
 8945SOL    HW138294   3.241   4.407   8.337 -0.7693  0.7270  0.0442
 8945SOL    HW238295   3.142   4.406   8.222  0.5481  0.2452 -0.4725
 8946SOL     OW38296   1.775   2.511   8.902 -0.4679 -0.0617 -0.2516
 8946SOL    HW138297   1.796   2.424   8.935 -0.3381  0.1411  0.2151
 8946SOL    HW238298   1.702   2.523   8.962  0.7500  0.6765  1.1063
 8947SOL     OW38299   1.174   0.286   2.415  0.3315  0.0098 -0.0569
 8947SOL    HW138300   1.264   0.318   2.407  0.2886  0.1446  0.0074
 8947SOL    HW238301   1.130   0.291   2.330  3.9498  2.5525 -1.7947
 8948SOL     OW38302   1.830   3.701  10.765 -0.3779  0.1289 -0.1305
 8948SOL    HW138303   1.808   3.611  10.741  2.4561 -1.3313  2.7163
 8948SOL    HW238304   1.758   3.717  10.826  0.3622  0.4300  0.6658
 8949SOL     OW38305   4.678   2.228   1.194 -0.7668 -0.4811 -0.0101
 8949SOL    HW138306   4.644   2.243   1.283  0.4952  1.0837  0.2141
 8949SOL    HW238307   4.662   2.134   1.191  1.3763 -0.7849 -1.4490
 8950SOL     OW38308   1.295   3.235   6.336  0.5208 -0.8510 -0.1109
 8950SOL    HW138309   1.233   3.276   6.397 -0.5687 -0.0432 -1.7826
 8950SOL    HW238310   1.346   3.313   6.317 -3.0206  1.0135 -2.0203
 8951SOL     OW38311   0.513   3.499   2.876  0.1675 -0.1674  0.5024
 8951SOL    HW138312   0.459   3.568   2.838 -1.0598 -0.5636  1.5558
 8951SOL    HW238313   0.542   3.547   2.954 -1.2140 -0.7750  1.3941
 8952SOL     OW38314   3.624   4.147   3.224  0.5625  0.3047  0.2511
 8952SOL    HW138315   3.606   4.092   3.148 -0.4270 -0.1893  0.8461
 8952SOL    HW238316   3.668   4.090   3.288  1.5067  1.6307  0.7787
 8953SOL     OW38317   1.530   3.414   6.110  0.6212  0.1110 -0.0482
 8953SOL    HW138318   1.591   3.474   6.069  0.8064  0.1783  0.3242
 8953SOL    HW238319   1.514   3.355   6.037 -0.1953  1.3146 -0.8404
 8954SOL     OW38320   3.283   0.956  10.699 -0.4375 -0.1562  0.3687
 8954SOL    HW138321   3.355   0.994  10.750 -0.0252 -0.7586  0.2370
 8954SOL    HW238322   3.308   0.867  10.673  1.8183  0.8335 -0.8081
 8955SOL     OW38323   4.672   2.790   8.675 -0.0218  0.3849 -0.3523
 8955SOL    HW138324   4.647   2.707   8.717 -0.5871  1.5195  1.5652
 8955SOL    HW238325   4.682   2.766   8.583 -1.3060  2.1963 -0.9638
 8956SOL     OW38326   4.607   0.391  14.669  0.4895  0.1141  0.0454
 8956SOL    HW138327   4.614   0.455  14.740  1.8504 -2.0445  1.8683
 8956SOL    HW238328   4.514   0.367  14.665  1.2860 -2.6467 -1.8784
 8957SOL     OW38329   1.826   3.789   8.803  0.4431 -0.0489  0.6290
 8957SOL    HW138330   1.759   3.752   8.746  0.8478 -0.7421  0.6070
 8957SOL    HW238331   1.807   3.881   8.821 -1.4908 -0.1450 -0.9764
 8958SOL     OW38332   0.776   3.850   1.679 -0.4290 -0.4098  0.1957
 8958SOL    HW138333   0.833   3.781   1.646 -0.9311 -0.1331 -1.2691
 8958SOL    HW238334   0.737   3.894   1.603 -0.0480 -0.7682 -0.2086
 8959SOL     OW38335   4.239   3.910   4.427 -0.3961  0.0076  0.4402
 8959SOL    HW138336   4.195   3.991   4.452  1.2319  1.0696 -0.0956
 8959SOL    HW238337   4.327   3.933   4.396 -0.6084  1.2767  0.7639
 8960SOL     OW38338   2.350   4.004  15.455 -0.6131  0.0333  0.0229
 8960SOL    HW138339   2.372   3.936  15.519  0.9467 -0.1109 -0.6506
 8960SOL    HW238340   2.257   4.014  15.476  0.0227  0.2068  2.7902
 8961SOL     OW38341   0.626   1.026   7.729 -0.0751  0.7810 -0.1547
 8961SOL    HW138342   0.699   1.088   7.727  1.1846 -0.6076  2.6213
 8961SOL    HW238343   0.671   0.950   7.768 -2.3760 -1.3586 -1.6684
 8962SOL     OW38344   2.418   0.015  16.540 -0.3021 -0.1073  0.7040
 8962SOL    HW138345   2.380   4.653  16.563 -1.3222 -0.0985 -0.9114
 8962SOL    HW238346   2.413   0.059  16.625 -2.0878 -0.4316  0.7621
 8963SOL     OW38347   1.707   0.990  14.802  0.1113  0.2541 -0.0664
 8963SOL    HW138348   1.765   1.008  14.728  0.5145  0.3661  0.2779
 8963SOL    HW238349   1.652   1.068  14.793  0.0704  0.2928  0.4993
 8964SOL     OW38350   2.210   4.058   0.516  0.5665  0.0188 -0.1228
 8964SOL    HW138351   2.271   4.027   0.583  1.2042  3.4602  0.8677
 8964SOL    HW238352   2.195   4.144   0.554  4.4357  1.3131 -1.5907
 8965SOL     OW38353   1.429   3.657  14.216  0.7314 -0.2343  0.4437
 8965SOL    HW138354   1.444   3.710  14.137 -0.7503 -0.1391  0.2278
 8965SOL    HW238355   1.380   3.584  14.179 -1.0958  1.1568  0.1262
 8966SOL     OW38356   3.692   4.370   1.795  0.6263  0.6077 -0.2793
 8966SOL    HW138357   3.606   4.332   1.777  0.2280  0.9535  0.8819
 8966SOL    HW238358   3.678   4.417   1.877 -1.5466  0.0376 -0.3421
 8967SOL     OW38359   4.021   4.160   7.589  0.1486 -0.3450 -0.1275
 8967SOL    HW138360   4.078   4.211   7.646 -0.5956  0.8085 -0.4194
 8967SOL    HW238361   3.984   4.208   7.514 -0.9629 -0.5521  0.2816
 8968SOL     OW38362   0.504   2.505  11.116  0.5667 -0.4957  0.2390
 8968SOL    HW138363   0.469   2.418  11.135 -4.0902  1.7459  1.8657
 8968SOL    HW238364   0.583   2.484  11.066  1.9259  0.9414  1.8039
 8969SOL     OW38365   0.590   1.035   2.423 -0.3219 -0.1230 -0.5264
 8969SOL    HW138366   0.670   1.084   2.445 -0.6098  0.1158  0.0139
 8969SOL    HW238367   0.592   1.054   2.330  0.6248 -0.8869 -0.6552
 8970SOL     OW38368   2.431   0.990   9.090 -0.1762  0.0837 -0.5897
 8970SOL    HW138369   2.453   1.061   9.151 -1.4897 -1.8343  2.1153
 8970SOL    HW238370   2.472   0.916   9.134  1.2317 -0.3918 -2.7445
 8971SOL     OW38371   4.104   2.697   7.182 -0.3253  0.6913 -0.1012
 8971SOL    HW138372   4.165   2.671   7.113 -0.7360  1.6126 -0.8019
 8971SOL    HW238373   4.078   2.783   7.151 -0.1957  1.0505  0.7815
 8972SOL     OW38374   3.346   0.161  12.142 -0.5193 -0.5417  0.1075
 8972SOL    HW138375   3.399   0.214  12.083 -1.8455 -0.0550 -0.6393
 8972SOL    HW238376   3.273   0.140  12.084 -0.4942  0.9744 -0.4639
 8973SOL     OW38377   0.213   1.905   6.304 -0.6032 -0.3295 -0.1482
 8973SOL    HW138378   0.179   1.940   6.221 -3.1315 -3.2256 -0.3569
 8973SOL    HW238379   0.261   1.982   6.334 -0.9576  0.0976 -0.6577
 8974SOL     OW38380   0.263   1.955  12.746  0.0469  0.0479 -0.4057
 8974SOL    HW138381   0.342   2.000  12.716  1.2090 -1.4022  0.4873
 8974SOL    HW238382   0.264   1.866  12.713  0.3288 -0.5545  1.2247
 8975SOL     OW38383   4.202   4.662   0.562  0.4085  0.1263 -0.1141
 8975SOL    HW138384   4.220   0.027   0.529 -0.9476  0.3258 -0.3149
 8975SOL    HW238385   4.120   4.642   0.517  0.1899  0.7436  0.0111
 8976SOL     OW38386   0.696   3.771  11.633 -0.3878 -0.2976 -0.3758
 8976SOL    HW138387   0.679   3.863  11.614  0.5140  0.1032  0.7881
 8976SOL    HW238388   0.626   3.753  11.696 -1.1219 -0.9274 -1.3613
 8977SOL     OW38389   2.495   3.928   2.006 -0.0204  0.1947  0.1019
 8977SOL    HW138390   2.493   3.843   1.962  0.6739  0.0372  0.3828
 8977SOL    HW238391   2.567   3.974   1.965  1.5922  0.0486  2.7797
 8978SOL     OW38392   2.537   1.681   7.879  0.1728  0.3119  0.4944
 8978SOL    HW138393   2.513   1.761   7.833 -0.7266 -0.1205  0.2159
 8978SOL    HW238394   2.453   1.671   7.925 -0.4332  1.1643 -0.4423
 8979SOL     OW38395   2.649   2.224   5.064  0.0497  0.6753  0.2695
 8979SOL    HW138396   2.606   2.176   5.134  0.2029 -0.4984 -0.4470
 8979SOL    HW238397   2.740   2.224   5.095  0.0850 -0.2344  0.1429
 8980SOL     OW38398   4.384   4.105   9.676  0.5925  0.5688 -0.0696
 8980SOL    HW138399   4.465   4.091   9.725  0.8170  1.3029 -0.2325
 8980SOL    HW238400   4.400   4.049   9.601  0.2744  0.5411 -0.1191
 8981SOL     OW38401   0.550   4.569   0.862  0.3008  0.1276 -0.3080
 8981SOL    HW138402   0.498   4.501   0.905 -1.3586  3.1243  2.4458
 8981SOL    HW238403   0.554   4.528   0.776  1.8804  1.5332 -0.9176
 8982SOL     OW38404   1.681   1.669  12.766  0.1483  0.8624 -0.0103
 8982SOL    HW138405   1.749   1.693  12.703  0.9284  1.6330  1.1215
 8982SOL    HW238406   1.723   1.699  12.847 -0.2333 -0.9066  0.8339
 8983SOL     OW38407   4.201   2.796   3.478  0.0429 -0.4695 -1.0845
 8983SOL    HW138408   4.278   2.773   3.531  0.6141  1.4544 -1.0845
 8983SOL    HW238409   4.179   2.707   3.452  0.2729 -0.2100 -2.1406
 8984SOL     OW38410   4.556   4.648   3.804 -0.2071 -0.5093 -0.1867
 8984SOL    HW138411   4.482   4.587   3.806 -1.8047  1.4975  2.0303
 8984SOL    HW238412   4.519   0.007   3.838  1.9007  0.5664 -0.5370
 8985SOL     OW38413   1.627   1.119   6.582  0.4379 -0.2794  0.4746
 8985SOL    HW138414   1.633   1.170   6.502 -1.5284  1.2966  1.3192
 8985SOL    HW238415   1.594   1.034   6.555 -0.9024 -0.1121  1.5643
 8986SOL     OW38416   4.009   3.975   2.462 -0.2632 -0.0430 -0.2670
 8986SOL    HW138417   4.052   4.052   2.498  1.1958 -1.3434  0.7837
 8986SOL    HW238418   4.071   3.907   2.434  0.1218  0.4654 -0.6327
 8987SOL     OW38419   3.744   4.334   1.525 -0.1016 -0.3877  0.0523
 8987SOL    HW138420   3.838   4.352   1.519 -0.1153  0.1568  1.6105
 8987SOL    HW238421   3.734   4.351   1.618  0.3803  1.2518 -0.1867
 8988SOL     OW38422   2.464   2.898   5.131 -0.2728  0.0079  0.0559
 8988SOL    HW138423   2.448   2.852   5.213  2.4656  1.2221  1.2876
 8988SOL    HW238424   2.528   2.964   5.160 -1.2481 -0.1770  2.6632
 8989SOL     OW38425   3.294   3.350   6.357 -0.2091  0.2320 -0.0035
 8989SOL    HW138426   3.215   3.303   6.384  0.2106 -0.4537  0.0372
 8989SOL    HW238427   3.300   3.360   6.262  2.2887  3.1461  0.4919
 8990SOL     OW38428   4.435   3.277   8.785  0.1810  0.2738  0.4997
 8990SOL    HW138429   4.497   3.325   8.841  0.4242  0.8733 -0.2796
 8990SOL    HW238430   4.468   3.189   8.765  0.9216  0.6372  0.1197
 8991SOL     OW38431   2.678   0.845   2.196  0.2637  0.3388 -0.1302
 8991SOL    HW138432   2.703   0.845   2.289  0.8596 -0.5445 -0.2867
 8991SOL    HW238433   2.676   0.937   2.169 -0.4364 -0.1169 -1.6243
 8992SOL     OW38434   3.511   2.086   8.006 -0.0752  0.3404  0.2602
 8992SOL    HW138435   3.588   2.062   8.057  0.0614 -1.6315 -0.8707
 8992SOL    HW238436   3.448   2.018   8.028 -2.4356  2.5842  0.4564
 8993SOL     OW38437   1.160   2.099   9.221  0.9215  0.1049  0.4675
 8993SOL    HW138438   1.200   2.021   9.259  0.1233  0.1600  1.4035
 8993SOL    HW238439   1.236   2.149   9.191  0.9604  0.2648  0.8366
 8994SOL     OW38440   4.604   0.734  16.991  0.0305 -0.2355 -0.1270
 8994SOL    HW138441   4.592   0.644  17.022  0.8064 -0.7141 -1.2514
 8994SOL    HW238442   4.626   0.712  16.901  1.1280 -1.0285  0.3340
 8995SOL     OW38443   1.412   0.946   6.060  0.1946  0.5273  0.2043
 8995SOL    HW138444   1.356   1.019   6.086  1.4345  1.9134 -1.0475
 8995SOL    HW238445   1.479   0.953   6.129 -2.0410  1.7658  2.2624
 8996SOL     OW38446   3.664   1.776   1.396 -0.1586  0.6621 -0.3365
 8996SOL    HW138447   3.569   1.761   1.400 -0.0447 -0.0988 -0.4839
 8996SOL    HW238448   3.694   1.766   1.486  0.5654  1.1651 -0.5290
 8997SOL     OW38449   3.869   1.394  11.915  0.1436  0.0745 -0.2918
 8997SOL    HW138450   3.838   1.485  11.907 -1.5502 -0.6066 -1.3221
 8997SOL    HW238451   3.831   1.379  12.002 -3.3910  0.1283 -1.8386
 8998SOL     OW38452   0.962   4.352   3.948 -0.3347  0.4819 -0.1203
 8998SOL    HW138453   0.937   4.417   3.882  0.6189  0.0539 -0.8924
 8998SOL    HW238454   0.926   4.276   3.903  1.9346 -0.4243 -0.3471
 8999SOL     OW38455   2.374   3.022   1.374 -0.2305 -0.7336 -0.2511
 8999SOL    HW138456   2.349   3.034   1.283  1.3491 -1.6654 -0.8240
 8999SOL    HW238457   2.442   3.087   1.389  0.8363 -1.6728 -0.9835
 9000SOL     OW38458   4.270   4.099   3.611  0.0264  0.8051 -0.1728
 9000SOL    HW138459   4.192   4.135   3.568 -0.5928 -1.4076 -0.8677
 9000SOL    HW238460   4.259   4.135   3.699 -0.2864 -2.9097  1.3043
 9001SOL     OW38461   1.862   1.883   9.721  0.1363 -0.0683 -0.5035
 9001SOL    HW138462   1.952   1.852   9.725  0.6138  1.3566 -0.4036
 9001SOL    HW238463   1.859   1.958   9.780  3.4922  1.0517 -1.7419
 9002SOL     OW38464   1.119   2.629   6.183 -0.4685  0.2222 -0.3362
 9002SOL    HW138465   1.091   2.562   6.121  0.1179  0.0636 -0.4258
 9002SOL    HW238466   1.212   2.612   6.171 -1.4603 -3.2582 -3.2173
 9003SOL     OW38467   0.181   4.428   6.001 -0.2043 -0.8250 -0.6221
 9003SOL    HW138468   0.210   4.517   5.982 -0.7990 -0.7656 -1.2412
 9003SOL    HW238469   0.153   4.437   6.093 -0.9570  1.4001 -1.0578
 9004SOL     OW38470   0.885   2.727   4.323  0.2042  0.1925  0.1375
 9004SOL    HW138471   0.795   2.746   4.352  0.1184  2.2547 -1.5271
 9004SOL    HW238472   0.907   2.799   4.264 -1.7363  0.5936 -0.1030
 9005SOL     OW38473   0.833   1.622   6.260 -0.9081  0.0212  0.2289
 9005SOL    HW138474   0.824   1.671   6.341  1.9830 -0.2938  0.7593
 9005SOL    HW238475   0.763   1.653   6.204  0.7911  2.2098 -0.6991
 9006SOL     OW38476   2.599   4.126   3.959 -0.0113  0.0394 -0.3207
 9006SOL    HW138477   2.662   4.197   3.947  0.0136 -0.3451 -2.3681
 9006SOL    HW238478   2.591   4.137   4.054 -2.4122 -2.3225 -0.2396
 9007SOL     OW38479   2.362   0.036   6.661 -0.3410 -0.5954  0.2115
 9007SOL    HW138480   2.317   0.085   6.731 -1.6906 -1.8265  0.1954
 9007SOL    HW238481   2.433   0.006   6.718  0.4734 -0.1050 -0.5409
 9008SOL     OW38482   1.444   1.084   3.649  0.0002 -0.3773 -0.5245
 9008SOL    HW138483   1.538   1.088   3.633  0.2038  1.3176  1.0777
 9008SOL    HW238484   1.441   1.010   3.710  0.5004 -0.6934 -0.8835
 9009SOL     OW38485   0.958   1.114  15.100 -0.1631 -0.2587  0.1574
 9009SOL    HW138486   0.960   1.151  15.188  0.0046  3.4934 -1.4171
 9009SOL    HW238487   1.051   1.100  15.079 -0.9305 -1.4291 -2.4369
 9010SOL     OW38488   0.764   4.381   5.955 -0.4742  0.6662 -0.0498
 9010SOL    HW138489   0.788   4.421   5.871  0.3641  0.4884  0.1150
 9010SOL    HW238490   0.727   4.455   6.003 -0.8848 -0.5544  1.5226
 9011SOL     OW38491   3.690   4.236  12.511 -0.5953  1.3574  0.0527
 9011SOL    HW138492   3.720   4.319  12.549  0.1632  1.6561 -1.1919
 9011SOL    HW238493   3.682   4.270  12.422 -1.2758 -0.7065 -0.6779
 9012SOL     OW38494   2.106   0.604   0.691 -0.3400 -0.0293  0.1535
 9012SOL    HW138495   2.147   0.522   0.663  1.3464  0.7214  0.4688
 9012SOL    HW238496   2.096   0.591   0.785 -0.2937 -0.2313  0.1310
 9013SOL     OW38497   3.593   4.448  10.044  0.1086  0.6354  0.1082
 9013SOL    HW138498   3.639   4.522  10.004  2.6538 -1.3277 -0.5824
 9013SOL    HW238499   3.640   4.442  10.127 -1.4528  1.5336  1.0499
 9014SOL     OW38500   1.264   3.959   3.546  0.4951 -0.1937 -0.2311
 9014SOL    HW138501   1.328   3.932   3.612  1.7985  1.6782 -0.7195
 9014SOL    HW238502   1.222   3.874   3.534  1.9083 -1.0227  0.6658
 9015SOL     OW38503   3.227   3.190  13.799 -0.1544 -0.0373  0.5761
 9015SOL    HW138504   3.309   3.239  13.799 -1.1299  1.6297 -0.0899
 9015SOL    HW238505   3.240   3.127  13.729 -1.6102  1.6554 -1.2352
 9016SOL     OW38506   0.874   0.846   6.808 -0.0756  0.0328  0.3758
 9016SOL    HW138507   0.918   0.855   6.892 -2.1033 -0.5920  1.5108
 9016SOL    HW238508   0.859   0.939   6.790  1.0768  0.3213  0.9193
 9017SOL     OW38509   2.116   4.497   5.724  0.1124  0.0825 -0.4882
 9017SOL    HW138510   2.043   4.552   5.695 -0.5502 -0.4284  0.2019
 9017SOL    HW238511   2.076   4.445   5.794  0.0533 -2.4768 -2.4175
 9018SOL     OW38512   3.873   0.281   9.685  0.3156  0.1179  0.1130
 9018SOL    HW138513   3.809   0.218   9.651 -0.6952  1.0971  0.2103
 9018SOL    HW238514   3.821   0.360   9.696  2.8543  1.8863 -0.6077
 9019SOL     OW38515   1.070   3.782   2.992  0.7084 -0.5133  0.1875
 9019SOL    HW138516   1.141   3.830   3.034 -1.1857  2.7284 -0.3382
 9019SOL    HW238517   1.003   3.836   3.033 -2.7041 -3.9664 -0.7404
 9020SOL     OW38518   3.083   3.406   6.042 -0.3212  0.4510 -0.4094
 9020SOL    HW138519   2.989   3.386   6.044 -0.4514  1.2106  1.2581
 9020SOL    HW238520   3.128   3.322   6.035  1.2273  1.1685  1.0340
 9021SOL     OW38521   3.388   2.852   4.865  0.4694  0.1340  0.1640
 9021SOL    HW138522   3.316   2.869   4.926 -0.2765 -0.6546 -0.4970
 9021SOL    HW238523   3.446   2.793   4.913  0.8848  1.3215  1.1146
 9022SOL     OW38524   3.151   2.832   5.752 -0.0631 -0.1106 -0.2273
 9022SOL    HW138525   3.099   2.822   5.672 -0.4800 -2.1959  0.3214
 9022SOL    HW238526   3.134   2.753   5.803 -1.4594 -0.2523 -0.9035
 9023SOL     OW38527   0.542   4.682   3.715 -0.3696  0.1464 -0.8106
 9023SOL    HW138528   0.613   0.006   3.673  0.1130  0.9814  0.9300
 9023SOL    HW238529   0.461   4.698   3.666 -1.5173  1.3860  1.4866
 9024SOL     OW38530   1.727   0.627  12.822 -0.7616  0.1792  0.2278
 9024SOL    HW138531   1.716   0.571  12.745 -0.6147 -1.7697  1.6287
 9024SOL    HW238532   1.771   0.700  12.777 -1.2750  0.2653 -0.1372
 9025SOL     OW38533   1.004   2.734   4.589  0.4974 -0.2743 -0.5009
 9025SOL    HW138534   0.927   2.764   4.636 -0.0471  0.3748 -1.8182
 9025SOL    HW238535   0.982   2.736   4.496  0.1349  0.4002 -0.4022
 9026SOL     OW38536   1.184   4.099   6.908 -0.2393  0.2207 -0.4965
 9026SOL    HW138537   1.265   4.050   6.922 -1.3603 -1.6030 -0.3173
 9026SOL    HW238538   1.188   4.164   6.978 -3.8503  0.3661 -0.3795
 9027SOL     OW38539   1.372   0.931   2.833  0.5261 -0.1980  0.2082
 9027SOL    HW138540   1.348   0.879   2.910 -0.7729 -1.1964 -0.8889
 9027SOL    HW238541   1.441   0.881   2.790  0.6447  0.4256 -0.3242
 9028SOL     OW38542   1.333   4.700   4.354 -0.0059  0.4319 -0.5614
 9028SOL    HW138543   1.323   0.054   4.409  2.8521  0.0239  0.5601
 9028SOL    HW238544   1.427   4.692   4.370 -0.2561 -0.6429  0.4250
 9029SOL     OW38545   3.665   2.668   1.293 -0.3840 -0.0789 -0.1089
 9029SOL    HW138546   3.603   2.733   1.261  0.2089 -0.4987 -2.0861
 9029SOL    HW238547   3.697   2.717   1.369  0.1781  1.6016 -1.4189
 9030SOL     OW38548   2.744   1.847   2.446 -0.3391 -0.1096  0.2177
 9030SOL    HW138549   2.820   1.830   2.503  1.7975 -1.4078 -3.0144
 9030SOL    HW238550   2.726   1.939   2.465 -1.4583 -0.7180  2.1049
 9031SOL     OW38551   3.036   1.744   5.941 -0.3940 -0.5055 -0.0819
 9031SOL    HW138552   3.025   1.832   5.978 -0.7745 -1.9898  3.3275
 9031SOL    HW238553   2.970   1.746   5.872 -0.3450 -1.7422 -0.1709
 9032SOL     OW38554   4.380   3.832   1.724 -0.4316  1.2031 -0.3427
 9032SOL    HW138555   4.340   3.849   1.639 -2.1792  0.5461  0.3412
 9032SOL    HW238556   4.422   3.913   1.752  2.2891 -0.1793 -0.5014
 9033SOL     OW38557   4.465   1.485   5.220  0.3861 -0.1025 -0.3086
 9033SOL    HW138558   4.415   1.475   5.139 -1.5614 -0.0743  0.8968
 9033SOL    HW238559   4.515   1.403   5.217 -0.7010 -0.7427 -0.8636
 9034SOL     OW38560   0.422   0.212  13.083 -0.0055  0.5126 -0.2196
 9034SOL    HW138561   0.406   0.193  13.175  0.9776  0.8470  0.0207
 9034SOL    HW238562   0.350   0.271  13.061 -0.3956  0.7348  1.6678
 9035SOL     OW38563   3.709   0.078   2.645 -0.2561 -0.4811  0.0268
 9035SOL    HW138564   3.758   0.040   2.572 -1.5598  0.7276 -1.4816
 9035SOL    HW238565   3.620   0.048   2.627 -0.8018  0.1248  1.7485
 9036SOL     OW38566   0.738   2.416   4.000 -0.2346  0.0780  0.1441
 9036SOL    HW138567   0.809   2.357   3.976  0.9747  1.5601  0.0493
 9036SOL    HW238568   0.710   2.364   4.075  0.9810 -0.2600  0.3620
 9037SOL     OW38569   3.269   3.764   6.258 -0.3515  0.7903  0.2794
 9037SOL    HW138570   3.205   3.693   6.263 -0.6578  0.7273 -4.7570
 9037SOL    HW238571   3.279   3.785   6.165  0.6165  0.8695  0.4069
 9038SOL     OW38572   3.201   2.552   9.170  0.0532 -0.4078 -0.4324
 9038SOL    HW138573   3.229   2.617   9.235 -0.7110 -0.4823 -0.0289
 9038SOL    HW238574   3.110   2.542   9.196 -0.6023  0.5933 -2.2912
 9039SOL     OW38575   3.291   0.074  15.123 -0.4529  0.2844 -0.3376
 9039SOL    HW138576   3.355   0.144  15.112 -1.9370  1.8535  1.0500
 9039SOL    HW238577   3.277   0.087  15.216  0.5544 -3.3868  0.3497
 9040SOL     OW38578   2.311   0.639   7.382 -0.5144 -0.5157  0.2641
 9040SOL    HW138579   2.254   0.561   7.383 -0.4501 -0.5413  1.7713
 9040SOL    HW238580   2.296   0.666   7.472 -0.0120 -1.2795  0.5831
 9041SOL     OW38581   1.335   3.441  15.684 -0.0135  0.2686  0.3976
 9041SOL    HW138582   1.332   3.354  15.723  0.5036 -0.5256 -1.3556
 9041SOL    HW238583   1.335   3.414  15.592 -0.4544  2.1509 -0.1715
 9042SOL     OW38584   3.730   3.923   3.318  0.1151 -0.2709  0.2272
 9042SOL    HW138585   3.673   3.848   3.301  0.1372 -0.2625  0.1136
 9042SOL    HW238586   3.790   3.926   3.243  1.2620  1.6706  1.2274
 9043SOL     OW38587   2.624   2.737  13.624 -0.1730 -0.0126 -0.4966
 9043SOL    HW138588   2.623   2.832  13.638  1.3530 -0.1672  0.7510
 9043SOL    HW238589   2.586   2.707  13.706  0.1977  0.2176 -0.2372
 9044SOL     OW38590   3.091   4.619   7.454  0.6460  0.5714  0.0420
 9044SOL    HW138591   3.007   4.588   7.420 -0.2218  1.1148  1.6858
 9044SOL    HW238592   3.105   4.704   7.411  0.6140  0.0732 -0.9484
 9045SOL     OW38593   4.563   2.015   0.601  1.0189 -1.1201 -0.0606
 9045SOL    HW138594   4.609   2.084   0.649 -1.5203 -0.9385  2.0793
 9045SOL    HW238595   4.638   1.958   0.582  3.7024  1.8197  1.6883
 9046SOL     OW38596   1.571   4.644   5.175  0.0485 -0.1514 -0.1554
 9046SOL    HW138597   1.646   4.626   5.231 -0.2318  2.7988  1.1377
 9046SOL    HW238598   1.503   4.615   5.236  1.4062  0.5705  1.6948
 9047SOL     OW38599   3.441   1.829   9.951 -0.0527  0.3844 -0.4801
 9047SOL    HW138600   3.511   1.773   9.918 -1.2959 -0.7737 -1.1406
 9047SOL    HW238601   3.480   1.916   9.942  0.8541  0.0636  0.2428
 9048SOL     OW38602   2.216   2.664  11.373 -0.2107 -0.0562 -0.1981
 9048SOL    HW138603   2.181   2.676  11.284  1.8110 -2.4270 -1.3337
 9048SOL    HW238604   2.179   2.741  11.414 -0.9889 -0.6950  0.2963
 9049SOL     OW38605   3.980   1.953   2.178  0.6427 -0.1544  0.0473
 9049SOL    HW138606   4.028   1.870   2.181  0.6066 -0.2213 -1.5763
 9049SOL    HW238607   3.893   1.930   2.209  0.1738 -0.9184 -1.8414
 9050SOL     OW38608   0.091   0.250  10.341 -0.0549  0.1134 -0.2762
 9050SOL    HW138609   0.111   0.157  10.351 -1.0504 -0.3613 -2.5716
 9050SOL    HW238610   0.172   0.289  10.310  1.6847 -3.5650 -0.4197
 9051SOL     OW38611   0.648   4.049   4.215 -0.1533 -0.1100 -0.2653
 9051SOL    HW138612   0.582   3.981   4.225  0.7977 -1.1133 -0.7595
 9051SOL    HW238613   0.689   4.029   4.299  1.2367 -0.6624 -1.0761
 9052SOL     OW38614   1.247   2.539  14.831 -0.1275  0.5384  0.1581
 9052SOL    HW138615   1.202   2.473  14.778 -0.6595  1.8489 -1.0131
 9052SOL    HW238616   1.202   2.534  14.915 -0.5879 -1.7305 -0.2247
 9053SOL     OW38617   2.594   0.061  16.348  0.2526  0.4147  0.4428
 9053SOL    HW138618   2.558   4.714  16.294 -1.4858  0.2924  1.7605
 9053SOL    HW238619   2.529   0.071  16.417  0.2829  0.8596  0.4025
 9054SOL     OW38620   4.408   4.551   5.418 -0.1003 -0.0937  0.5836
 9054SOL    HW138621   4.402   4.586   5.507  0.5968 -1.0029  0.9857
 9054SOL    HW238622   4.320   4.558   5.381  0.4639  0.1731 -0.7245
 9055SOL     OW38623   4.446   3.745   4.014  0.1568 -0.5389 -0.6518
 9055SOL    HW138624   4.409   3.789   3.938 -1.3716  0.2322  0.5579
 9055SOL    HW238625   4.510   3.811   4.041  0.3630 -0.5729 -1.0484
 9056SOL     OW38626   1.809   3.584   7.737  0.1022 -0.5116 -0.1320
 9056SOL    HW138627   1.798   3.650   7.806 -0.4905 -1.8525  1.0512
 9056SOL    HW238628   1.773   3.631   7.662 -1.4711  0.1314  1.0124
 9057SOL     OW38629   1.260   3.489  11.377  0.3218  0.2963  0.7090
 9057SOL    HW138630   1.181   3.477  11.431 -0.6602 -3.2500 -1.5349
 9057SOL    HW238631   1.313   3.551  11.427 -0.9656 -0.1106  2.6255
 9058SOL     OW38632   3.477   0.695  16.919 -0.1598 -0.1113  0.4937
 9058SOL    HW138633   3.448   0.730  17.003 -0.9583 -1.2848  0.7191
 9058SOL    HW238634   3.554   0.650  16.955 -0.3169  1.2533  2.5339
 9059SOL     OW38635   4.383   4.267  16.881 -0.5545  0.3981 -0.6214
 9059SOL    HW138636   4.473   4.258  16.851  0.5973  2.3263  2.1913
 9059SOL    HW238637   4.369   4.361  16.870 -2.3655  0.5766  3.2325
 9060SOL     OW38638   4.103   2.287   4.498 -0.5706 -0.1376  0.5360
 9060SOL    HW138639   4.162   2.282   4.573  0.5480  0.2058 -0.3300
 9060SOL    HW238640   4.106   2.193   4.481 -0.0970  0.3611 -2.0993
 9061SOL     OW38641   4.636   0.972   6.138  0.4255  0.0566  0.3925
 9061SOL    HW138642   4.671   0.979   6.049 -0.1540 -1.1063  0.0650
 9061SOL    HW238643   4.627   1.062   6.167  1.9795  0.1015  0.7223
 9062SOL     OW38644   1.383   0.609  11.938  0.0359  0.1992  0.4848
 9062SOL    HW138645   1.388   0.514  11.948  1.8597  0.1819 -0.5978
 9062SOL    HW238646   1.300   0.605  11.890 -0.0587 -2.0411  0.8729
 9063SOL     OW38647   2.221   2.756  10.749 -0.9447  0.1752 -0.1150
 9063SOL    HW138648   2.229   2.700  10.671  0.4548 -0.8271  0.7548
 9063SOL    HW238649   2.219   2.689  10.817  1.6270  0.3499  0.1054
 9064SOL     OW38650   2.067   0.835   7.938 -0.7372 -0.5400  0.2454
 9064SOL    HW138651   2.082   0.828   8.032 -3.2745 -0.3505  0.6607
 9064SOL    HW238652   1.994   0.773   7.936 -0.0568 -1.3032 -0.6923
 9065SOL     OW38653   0.451   3.725   5.298 -0.0811  0.0076  0.5206
 9065SOL    HW138654   0.496   3.660   5.352  1.4414  0.2776 -0.4589
 9065SOL    HW238655   0.502   3.805   5.308 -1.8182  1.3898 -1.6280
 9066SOL     OW38656   1.367   1.762   5.794  0.5679  0.4470 -0.1140
 9066SOL    HW138657   1.380   1.676   5.754  1.4085 -0.2113  1.5876
 9066SOL    HW238658   1.355   1.825   5.722 -3.5683 -1.3260 -0.9580
 9067SOL     OW38659   2.239   3.762  14.254  0.0443  0.1656 -0.0957
 9067SOL    HW138660   2.169   3.699  14.270  1.0165 -0.3272  2.2364
 9067SOL    HW238661   2.305   3.714  14.204  0.0483  0.5374 -0.4430
 9068SOL     OW38662   1.383   2.467  15.926 -0.2505  0.2351 -0.3675
 9068SOL    HW138663   1.386   2.377  15.957  1.5042  0.2916 -0.3756
 9068SOL    HW238664   1.470   2.502  15.946 -1.0842  0.6769  2.4281
 9069SOL     OW38665   4.597   2.531   8.764 -0.1376 -0.0802 -0.4613
 9069SOL    HW138666   4.508   2.527   8.800  0.3054 -0.4621  0.5556
 9069SOL    HW238667   4.619   2.446   8.802 -0.2523  0.5542  1.0215
 9070SOL     OW38668   1.806   2.748   8.171  0.4130 -0.3412 -0.2747
 9070SOL    HW138669   1.749   2.825   8.180 -0.2219 -0.7930 -0.4470
 9070SOL    HW238670   1.757   2.689   8.114 -0.7202  0.4324 -0.0978
 9071SOL     OW38671   3.997   0.327   4.577 -0.2278 -0.1076 -0.3934
 9071SOL    HW138672   3.913   0.311   4.533  0.7418  0.6215 -2.5094
 9071SOL    HW238673   3.973   0.400   4.635 -0.8144 -0.9545  0.4434
 9072SOL     OW38674   2.329   1.556   8.201 -0.5378  0.4286 -0.2472
 9072SOL    HW138675   2.278   1.603   8.135 -2.5087 -1.1878  0.1376
 9072SOL    HW238676   2.276   1.477   8.197  1.0674 -0.5639 -1.9984
 9073SOL     OW38677   0.609   3.564   0.175 -0.6703  0.3914  0.0907
 9073SOL    HW138678   0.612   3.472   0.149  1.1129  0.0972  1.3038
 9073SOL    HW238679   0.553   3.547   0.250  1.2793  0.1665  1.4851
 9074SOL     OW38680   1.037   1.630   9.997  0.2182  0.5074 -0.1692
 9074SOL    HW138681   0.966   1.576  10.031 -0.6756  0.0196 -2.7648
 9074SOL    HW238682   1.076   1.667  10.076 -1.2977 -0.0257  0.8174
 9075SOL     OW38683   3.525   4.013   8.697 -0.5710  0.4508 -0.1056
 9075SOL    HW138684   3.591   4.059   8.750 -2.4910  1.8076  1.0933
 9075SOL    HW238685   3.556   4.028   8.608 -1.1935  1.0032 -0.2242
 9076SOL     OW38686   1.842   4.423  15.684  0.1282  0.4254  0.0712
 9076SOL    HW138687   1.805   4.335  15.687  2.0133 -0.4056 -0.5623
 9076SOL    HW238688   1.934   4.405  15.704 -0.2662  0.5066  1.9996
 9077SOL     OW38689   0.097   2.600  17.049 -0.9761  0.3440 -0.3714
 9077SOL    HW138690   0.069   2.619  17.139  2.1496  0.8581  0.4943
 9077SOL    HW238691   0.166   2.538  17.069 -2.8930 -2.1644 -1.4692
 9078SOL     OW38692   1.344   0.138  16.827  0.1380 -0.3193  0.6629
 9078SOL    HW138693   1.326   0.215  16.879 -0.3757  0.2232 -0.3219
 9078SOL    HW238694   1.439   0.133  16.844  0.7905  2.0970 -2.2288
 9079SOL     OW38695   2.858   3.692   5.425 -0.0554  0.0568 -0.2179
 9079SOL    HW138696   2.831   3.656   5.340 -0.6618 -0.2114  0.0905
 9079SOL    HW238697   2.796   3.644   5.479  1.3503 -1.9079 -0.3696
 9080SOL     OW38698   0.271   1.408   7.056  1.0100  0.4487 -0.6003
 9080SOL    HW138699   0.307   1.496   7.067  0.7107  0.5071 -0.1052
 9080SOL    HW238700   0.213   1.409   7.132 -0.6694 -0.0794 -1.8599
 9081SOL     OW38701   2.119   3.633   6.558  0.0781  0.7623  0.3979
 9081SOL    HW138702   2.173   3.634   6.637 -0.3397 -1.4813  0.7031
 9081SOL    HW238703   2.189   3.625   6.494  0.2413 -2.1093  0.9262
 9082SOL     OW38704   4.243   0.866   7.835 -0.0037 -0.2494  0.0445
 9082SOL    HW138705   4.238   0.830   7.746 -2.2553 -3.0951  1.2866
 9082SOL    HW238706   4.243   0.958   7.811  0.5568 -0.0977  0.6531
 9083SOL     OW38707   1.038   2.662   3.620 -0.4260 -0.6581  0.5154
 9083SOL    HW138708   0.979   2.627   3.687 -0.1747 -3.9692 -0.9970
 9083SOL    HW238709   1.046   2.756   3.638 -0.7385 -0.4513 -0.4476
 9084SOL     OW38710   2.605   4.680   6.193 -0.4507 -0.1918  0.3970
 9084SOL    HW138711   2.550   4.606   6.219 -1.5892  0.2023 -0.8672
 9084SOL    HW238712   2.609   4.663   6.099 -0.3538 -0.0931  0.3832
 9085SOL     OW38713   3.439   3.350  13.747  0.5384  0.8909 -0.5025
 9085SOL    HW138714   3.489   3.428  13.723  1.2486  0.8388  0.7774
 9085SOL    HW238715   3.514   3.294  13.768 -0.6199 -1.3887 -2.5674
 9086SOL     OW38716   2.659   1.481  13.345 -0.2831 -0.4906 -0.0946
 9086SOL    HW138717   2.671   1.393  13.309 -2.0193 -1.0589  0.6981
 9086SOL    HW238718   2.669   1.467  13.439  1.4156 -0.9356 -0.3483
 9087SOL     OW38719   3.744   3.401   7.118 -0.2890 -0.2974 -1.2218
 9087SOL    HW138720   3.818   3.352   7.081  0.4238 -0.9096  0.9860
 9087SOL    HW238721   3.666   3.347   7.103 -0.0661 -1.8707  3.2284
 9088SOL     OW38722   2.969   1.552   8.703  0.2425  0.9467 -0.2160
 9088SOL    HW138723   2.968   1.506   8.787  0.1831  0.4944 -0.4646
 9088SOL    HW238724   3.010   1.483   8.652 -2.5752 -2.4169  2.0781
 9089SOL     OW38725   0.215   4.078   1.853  0.1336 -0.1832 -0.2011
 9089SOL    HW138726   0.236   3.995   1.810  0.5363 -1.3215  2.2200
 9089SOL    HW238727   0.204   4.135   1.776  0.8325 -0.3916 -0.4594
 9090SOL     OW38728   4.169   3.249   8.885  0.1745 -0.1915  0.6814
 9090SOL    HW138729   4.244   3.287   8.841  1.3858 -0.6617  2.3237
 9090SOL    HW238730   4.103   3.277   8.822  0.0285  1.8169  1.7374
 9091SOL     OW38731   4.630   3.878   6.672  0.0663 -0.0924 -0.0292
 9091SOL    HW138732   4.682   3.838   6.602 -0.1267  0.4899 -0.4975
 9091SOL    HW238733   4.604   3.798   6.718  0.3918  1.1212  2.2443
 9092SOL     OW38734   1.757   4.187   4.767  0.2141  0.1529  0.0036
 9092SOL    HW138735   1.754   4.095   4.739 -0.0902 -0.7104  2.9324
 9092SOL    HW238736   1.666   4.215   4.762  0.1415 -0.0858 -0.0043
 9093SOL     OW38737   4.155   1.457   7.642  0.1412 -0.5759  0.1674
 9093SOL    HW138738   4.069   1.466   7.683 -0.1162  1.6011 -0.8344
 9093SOL    HW238739   4.157   1.552   7.632 -0.7106 -0.7341 -1.5108
 9094SOL     OW38740   1.680   3.689   4.997 -0.1571  0.3090  0.2889
 9094SOL    HW138741   1.585   3.686   5.006 -0.2295  0.5497 -0.4359
 9094SOL    HW238742   1.690   3.712   4.905  0.6225 -0.5810  0.1513
 9095SOL     OW38743   1.749   1.802  13.436 -0.0846 -0.0904 -0.6049
 9095SOL    HW138744   1.701   1.861  13.494 -0.0140 -2.3629  1.8294
 9095SOL    HW238745   1.687   1.731  13.421  1.0327 -1.0252 -0.7811
 9096SOL     OW38746   0.122   2.124   3.245  0.1795  0.3667  0.5593
 9096SOL    HW138747   0.161   2.104   3.160  0.5148 -0.4610  0.9099
 9096SOL    HW238748   0.171   2.074   3.311  1.9236  2.9958  1.2437
 9097SOL     OW38749   2.268   0.314   7.821 -0.1926 -0.2093 -0.2407
 9097SOL    HW138750   2.188   0.272   7.790 -0.8922  0.0664  1.1570
 9097SOL    HW238751   2.239   0.397   7.859  0.5045 -1.3763  2.8586
 9098SOL     OW38752   4.064   2.098   1.931  0.1948  0.3996 -0.1894
 9098SOL    HW138753   4.061   2.087   2.026 -0.5924  0.1587 -0.2382
 9098SOL    HW238754   3.996   2.161   1.905 -0.3940 -1.1687 -2.4664
 9099SOL     OW38755   1.288   1.325  11.564  0.3790  0.0917 -0.2200
 9099SOL    HW138756   1.316   1.240  11.596 -0.6379  0.4344  1.5550
 9099SOL    HW238757   1.310   1.377  11.641 -0.9109 -1.1628  0.9836
 9100SOL     OW38758   3.524   1.082   2.207  0.4230  0.0372  0.0842
 9100SOL    HW138759   3.435   1.056   2.228 -0.3886  2.9137  0.1908
 9100SOL    HW238760   3.515   1.090   2.112  0.6682 -1.4887 -0.0700
 9101SOL     OW38761   3.875   1.250   3.201  0.6123 -0.0485  0.2457
 9101SOL    HW138762   3.927   1.245   3.121  0.5592 -3.3706  0.4047
 9101SOL    HW238763   3.786   1.255   3.166  0.7664  2.8447  0.2998
 9102SOL     OW38764   2.896   0.762  14.040  0.3098  0.0766 -0.6396
 9102SOL    HW138765   2.912   0.687  13.982  0.1140  1.6585 -2.7421
 9102SOL    HW238766   2.980   0.807  14.033  0.4916 -0.2222 -0.3843
 9103SOL     OW38767   2.956   2.560   7.411 -0.7147  0.2987  0.2922
 9103SOL    HW138768   2.934   2.561   7.505  2.9087  0.0888  1.1348
 9103SOL    HW238769   2.956   2.655   7.401 -0.8942  0.2151 -0.4890
 9104SOL     OW38770   4.142   2.528   4.364  0.3461 -0.3573  0.4609
 9104SOL    HW138771   4.062   2.578   4.378  2.3088  2.6578  1.0672
 9104SOL    HW238772   4.120   2.439   4.393 -1.6965  0.0514  0.1642
 9105SOL     OW38773   3.689   0.569   0.007  0.0069 -0.1866  0.0098
 9105SOL    HW138774   3.682   0.658   0.042  0.0257 -0.3079  0.3218
 9105SOL    HW238775   3.647   0.582  17.618 -1.0910 -0.9777  0.4333
 9106SOL     OW38776   0.386   0.806   2.853 -0.1990  0.1579  0.1277
 9106SOL    HW138777   0.438   0.886   2.865 -0.6149  0.7841 -2.1537
 9106SOL    HW238778   0.433   0.751   2.789  0.2305  0.1256  0.4703
 9107SOL     OW38779   0.017   2.519   2.269 -0.5250  0.2047 -0.5910
 9107SOL    HW138780   0.011   2.580   2.195 -1.0576  1.4185  0.4355
 9107SOL    HW238781   0.049   2.445   2.218 -0.0644 -0.8464  1.2140
 9108SOL     OW38782   3.092   2.806   3.992  0.5078 -0.2541 -0.6505
 9108SOL    HW138783   3.181   2.830   3.967  0.5513  0.8014  0.5180
 9108SOL    HW238784   3.046   2.838   3.914 -0.5593  0.5804  0.3131
 9109SOL     OW38785   3.130   0.996   3.938  0.1926  0.3302  0.3014
 9109SOL    HW138786   3.133   0.916   3.885  1.8277  0.9822 -0.5995
 9109SOL    HW238787   3.158   1.055   3.867 -0.4457  1.7266  1.2056
 9110SOL     OW38788   1.709   3.878   1.241 -0.0125  0.0095  0.3947
 9110SOL    HW138789   1.717   3.838   1.328  0.1872  0.0073  0.3755
 9110SOL    HW238790   1.700   3.803   1.181  2.2514 -0.8303  1.1102
 9111SOL     OW38791   0.227   2.709  17.343 -0.0590 -0.0148 -0.8197
 9111SOL    HW138792   0.206   2.773  17.275  0.4362  1.3322  0.2983
 9111SOL    HW238793   0.139   2.675  17.356  0.0385 -0.8891 -2.3707
 9112SOL     OW38794   4.389   1.418   6.410 -0.3189 -0.3954  0.3552
 9112SOL    HW138795   4.441   1.378   6.340 -1.3180 -2.1633  0.6168
 9112SOL    HW238796   4.406   1.510   6.390  1.6924 -1.2979 -2.1855
 9113SOL     OW38797   2.693   2.391   0.402 -0.0724 -0.3982 -0.4990
 9113SOL    HW138798   2.604   2.356   0.398  0.2573 -1.1734 -1.1476
 9113SOL    HW238799   2.703   2.405   0.496 -1.6171  0.2037 -0.4343
 9114SOL     OW38800   1.741   1.396   2.322  0.2132  0.0660 -0.3363
 9114SOL    HW138801   1.738   1.435   2.410  0.9839 -1.2940  0.3011
 9114SOL    HW238802   1.798   1.464   2.287  1.3695 -1.2853 -1.0788
 9115SOL     OW38803   1.937   4.624   3.780 -0.4552  0.4261  0.1461
 9115SOL    HW138804   1.991   4.661   3.850  0.9218 -0.6061 -0.3684
 9115SOL    HW238805   1.872   4.695   3.778 -0.7509  0.1774  1.3386
 9116SOL     OW38806   0.970   1.584   7.128 -0.5965 -0.3392  0.4493
 9116SOL    HW138807   0.952   1.677   7.136  1.3527  0.3955 -3.8132
 9116SOL    HW238808   0.959   1.569   7.034 -0.9783  0.4573  0.3682
 9117SOL     OW38809   0.130   0.104   7.148  0.0566 -0.7275  0.2985
 9117SOL    HW138810   0.074   0.051   7.205 -0.6531 -0.5772 -0.2568
 9117SOL    HW238811   0.218   0.077   7.176 -0.0131 -1.1903  0.0877
 9118SOL     OW38812   4.203   2.463  11.006 -0.2354  0.1781  0.0575
 9118SOL    HW138813   4.156   2.444  11.088 -0.2771 -1.7069 -0.4052
 9118SOL    HW238814   4.295   2.464  11.034 -0.2435  0.1954  0.0843
 9119SOL     OW38815   2.685   4.137   2.159 -0.1720  0.5773  0.6770
 9119SOL    HW138816   2.713   4.095   2.241  0.7973  0.5479  0.3333
 9119SOL    HW238817   2.647   4.063   2.111 -1.4878  1.6568  0.0503
 9120SOL     OW38818   1.265   3.852   6.672  0.2148  0.0494 -0.2065
 9120SOL    HW138819   1.320   3.906   6.616 -1.7889  0.7602 -1.4747
 9120SOL    HW238820   1.278   3.764   6.636  2.4307 -0.1709  1.1823
 9121SOL     OW38821   0.758   2.073   0.812 -0.9186 -0.0991  0.1930
 9121SOL    HW138822   0.825   2.065   0.744  0.3314 -0.6772  1.4977
 9121SOL    HW238823   0.811   2.069   0.892 -0.1071 -2.7739 -0.4903
 9122SOL     OW38824   1.303   3.735   6.954  0.5374 -0.0339  0.1677
 9122SOL    HW138825   1.312   3.778   6.869  0.9008 -0.4759 -0.0186
 9122SOL    HW238826   1.297   3.811   7.011 -0.9838 -0.3587  0.4485
 9123SOL     OW38827   1.323   2.313   5.843 -0.4260 -0.5627  0.1365
 9123SOL    HW138828   1.325   2.391   5.899 -0.3811  0.5158 -1.3809
 9123SOL    HW238829   1.414   2.296   5.817 -0.1615  2.3844 -0.7789
 9124SOL     OW38830   1.595   4.714   7.750  0.7894  0.3346  0.0796
 9124SOL    HW138831   1.503   4.690   7.738  0.4041  0.8080  2.1023
 9124SOL    HW238832   1.606   0.070   7.698  0.5586  0.0227 -0.4375
 9125SOL     OW38833   4.066   2.727  11.620  0.0542  0.8392  0.1129
 9125SOL    HW138834   4.113   2.808  11.603 -0.2052  1.3537  1.8201
 9125SOL    HW238835   4.031   2.713  11.532  1.4974 -0.4846 -0.2499
 9126SOL     OW38836   1.543   3.101   4.131 -0.0485 -0.4942  0.0501
 9126SOL    HW138837   1.484   3.175   4.144  0.7036 -0.3204  2.5769
 9126SOL    HW238838   1.600   3.121   4.206  0.5863 -1.0878 -0.2658
 9127SOL     OW38839   3.779   4.657  17.643 -0.4306  0.2777 -0.0445
 9127SOL    HW138840   3.823   4.578  17.611 -0.4980 -0.0753  0.7306
 9127SOL    HW238841   3.763   4.635   0.040 -1.9093  0.8107 -0.1679
 9128SOL     OW38842   2.689   2.287   7.719 -0.0766  0.1486  0.2580
 9128SOL    HW138843   2.665   2.234   7.643 -1.7081  1.7090 -0.3087
 9128SOL    HW238844   2.667   2.376   7.693  0.6592  0.1748 -0.2765
 9129SOL     OW38845   4.146   0.169   5.657  0.1313  0.3098 -0.1419
 9129SOL    HW138846   4.151   0.207   5.745 -0.2307 -1.4637  0.6511
 9129SOL    HW238847   4.209   0.220   5.606 -0.0994 -0.3188 -1.0365
 9130SOL     OW38848   1.972   0.501   7.024 -0.3460 -0.5176 -0.2874
 9130SOL    HW138849   2.048   0.455   6.988  0.0843 -0.1157  0.1117
 9130SOL    HW238850   1.981   0.567   6.955  0.5745  0.5706  0.8731
 9131SOL     OW38851   2.287   2.589  12.042  0.4943 -0.3582  0.5100
 9131SOL    HW138852   2.246   2.561  12.124 -0.0795 -0.4452  0.1948
 9131SOL    HW238853   2.216   2.580  11.978  0.3828 -2.5031  0.9329
 9132SOL     OW38854   4.689   1.149  15.544 -0.1038 -0.4085 -0.0489
 9132SOL    HW138855   4.618   1.086  15.533 -2.1040  2.2209 -2.1883
 9132SOL    HW238856   4.646   1.207  15.606  0.2015 -0.4062  0.1622
 9133SOL     OW38857   3.016   2.839   4.244 -0.0893  0.2812  0.0215
 9133SOL    HW138858   3.044   2.750   4.266  0.9576  0.8865  1.1348
 9133SOL    HW238859   3.031   2.843   4.149 -0.2782 -0.7545 -0.0506
 9134SOL     OW38860   0.610   4.272   9.727  0.2290 -1.1357 -0.3533
 9134SOL    HW138861   0.613   4.277   9.822 -0.1965 -4.2069 -0.1806
 9134SOL    HW238862   0.703   4.263   9.706 -0.0900 -1.2647 -1.7442
 9135SOL     OW38863   2.669   2.747  17.141 -0.0324  0.7165  0.0128
 9135SOL    HW138864   2.645   2.758  17.233  0.6745 -0.7992  0.3777
 9135SOL    HW238865   2.739   2.687  17.164 -0.8703 -0.4153 -0.4046
 9136SOL     OW38866   0.703   4.479   7.438  0.1282  0.2874 -0.1820
 9136SOL    HW138867   0.737   4.441   7.357  0.9229  0.5231  0.0408
 9136SOL    HW238868   0.610   4.492   7.419  0.6974  3.9281 -0.5359
 9137SOL     OW38869   1.078   1.896   4.980  0.4191  0.6382 -0.7126
 9137SOL    HW138870   1.017   1.952   4.931  2.3350 -0.4313 -4.3122
 9137SOL    HW238871   1.016   1.867   5.047  1.6178 -0.8484 -0.2468
 9138SOL     OW38872   3.026   0.582   7.431 -0.1272  0.3320  0.3097
 9138SOL    HW138873   3.071   0.666   7.441 -1.8122  1.2277  0.3759
 9138SOL    HW238874   2.939   0.608   7.462  1.2421  1.4249  3.3074
 9139SOL     OW38875   2.957   1.275   5.837  0.1757 -0.2380 -0.0931
 9139SOL    HW138876   2.942   1.343   5.902  3.3981  1.0055 -0.6567
 9139SOL    HW238877   2.871   1.232   5.836 -0.6175  1.4422 -2.5373
 9140SOL     OW38878   3.996   1.890   9.868  0.2163  0.1173 -0.6577
 9140SOL    HW138879   3.992   1.962   9.930  2.4688 -2.3813  2.3744
 9140SOL    HW238880   4.022   1.815   9.921  1.0025  1.9354  1.5161
 9141SOL     OW38881   0.395   1.620   1.723  0.0793  0.1675 -0.3373
 9141SOL    HW138882   0.374   1.713   1.732 -1.4866 -0.0024 -2.1527
 9141SOL    HW238883   0.491   1.623   1.715  0.1288  3.1461  1.5449
 9142SOL     OW38884   0.965   2.047   3.785  0.2605  0.2652 -0.2542
 9142SOL    HW138885   0.910   1.983   3.829  1.7744  0.2633  1.6550
 9142SOL    HW238886   1.009   1.991   3.721 -0.0863 -0.0873 -0.1857
 9143SOL     OW38887   0.196   1.433  16.065  0.0373 -0.3228 -0.1857
 9143SOL    HW138888   0.236   1.516  16.041  0.8456 -0.2411  1.3966
 9143SOL    HW238889   0.279   1.398  16.100 -1.6275 -0.5419  3.5317
 9144SOL     OW38890   0.541   0.815   0.349 -0.2891 -0.4264 -0.5384
 9144SOL    HW138891   0.526   0.904   0.381  1.8015 -1.3426  2.9959
 9144SOL    HW238892   0.610   0.831   0.285  0.8519 -0.1318  0.7838
 9145SOL     OW38893   3.647   1.202   6.674  0.3321 -0.0723  0.3278
 9145SOL    HW138894   3.566   1.250   6.685  0.8066  0.9486 -0.6395
 9145SOL    HW238895   3.702   1.274   6.706  0.8038 -0.1707 -0.2399
 9146SOL     OW38896   4.688   3.611   0.091 -0.0595 -0.5429 -0.1300
 9146SOL    HW138897   4.722   3.683   0.143 -0.0821 -0.5839 -0.0581
 9146SOL    HW238898   4.616   3.662   0.053 -0.1146  0.4622  1.3465
 9147SOL     OW38899   1.789   0.667   6.768  0.0046  0.0173  0.2157
 9147SOL    HW138900   1.871   0.704   6.802 -0.2609 -0.8894  1.8533
 9147SOL    HW238901   1.831   0.643   6.686 -0.0476 -0.4804  0.3305
 9148SOL     OW38902   2.714   3.744   8.384  0.5317 -0.1360  0.0316
 9148SOL    HW138903   2.735   3.836   8.370 -0.1642  0.1533  0.9251
 9148SOL    HW238904   2.714   3.701   8.298  0.3356  1.1703 -0.6153
 9149SOL     OW38905   1.608   0.866   2.158 -0.6814 -0.0215 -0.2423
 9149SOL    HW138906   1.676   0.853   2.224 -0.5607 -0.5304 -0.4711
 9149SOL    HW238907   1.561   0.934   2.206 -1.3399 -1.4465  1.1740
 9150SOL     OW38908   3.459   1.241   0.620  0.5917  0.4063 -0.4390
 9150SOL    HW138909   3.466   1.179   0.693 -0.2446 -1.4273 -1.8985
 9150SOL    HW238910   3.426   1.177   0.557  1.2239  0.0188 -0.3672
 9151SOL     OW38911   4.318   0.428   0.449 -0.1020  0.0132 -0.2405
 9151SOL    HW138912   4.287   0.518   0.454 -1.0112 -0.3186  0.0534
 9151SOL    HW238913   4.404   0.443   0.410  0.5738 -2.3589  0.3265
 9152SOL     OW38914   3.581   3.302   9.252  0.6361  0.6470  0.2490
 9152SOL    HW138915   3.657   3.277   9.200 -0.0860  0.4210 -0.6948
 9152SOL    HW238916   3.558   3.391   9.228 -0.7563  0.1267 -0.3856
 9153SOL     OW38917   4.186   3.624  13.106 -0.3336  0.2291 -0.2132
 9153SOL    HW138918   4.207   3.594  13.194 -0.4874  0.7711  0.0068
 9153SOL    HW238919   4.158   3.547  13.056  3.1717 -0.0822 -1.7221
 9154SOL     OW38920   0.549   4.122   5.380 -0.6633 -0.1829  0.4716
 9154SOL    HW138921   0.591   4.053   5.432  0.8666  0.6920  0.3979
 9154SOL    HW238922   0.507   4.173   5.450  0.2720  2.9123 -1.2486
 9155SOL     OW38923   2.118   0.238   4.128  0.4030 -0.7278  0.5066
 9155SOL    HW138924   2.163   0.245   4.211  1.6053 -0.3229 -0.1861
 9155SOL    HW238925   2.056   0.311   4.128 -0.6788 -1.6285  0.0214
 9156SOL     OW38926   3.792   2.018   1.338  0.0615 -0.0490  0.1885
 9156SOL    HW138927   3.747   1.934   1.341  0.9259 -0.5873 -2.1681
 9156SOL    HW238928   3.714   2.073   1.349  1.0299  0.7336  3.1321
 9157SOL     OW38929   1.628   3.303   7.095 -0.2328 -0.0281  0.1827
 9157SOL    HW138930   1.546   3.254   7.103 -0.5358  0.3569 -0.5330
 9157SOL    HW238931   1.592   3.382   7.055  0.9164  0.5113  0.2155
 9158SOL     OW38932   2.730   3.210  12.894 -0.9463  0.2096  0.7355
 9158SOL    HW138933   2.687   3.187  12.812 -1.5990  0.1826  1.0829
 9158SOL    HW238934   2.787   3.283  12.871 -0.3998 -0.0194  1.3454
 9159SOL     OW38935   3.367   2.112   6.629  0.0003  0.0871 -0.2459
 9159SOL    HW138936   3.360   2.069   6.714  0.9309 -0.4597 -0.4424
 9159SOL    HW238937   3.369   2.201   6.664 -0.3128  0.0456 -0.1228
 9160SOL     OW38938   0.292   0.599   1.737 -0.2217  0.3250  0.2227
 9160SOL    HW138939   0.268   0.536   1.669 -3.8562  2.5025 -0.4950
 9160SOL    HW238940   0.224   0.584   1.803 -1.2558 -0.3584 -1.0066
 9161SOL     OW38941   3.529   3.434  14.000  0.0234  0.2031  0.1923
 9161SOL    HW138942   3.522   3.526  14.028  0.1936  0.6008 -1.0677
 9161SOL    HW238943   3.505   3.452  13.909  0.5282 -2.2947 -0.4234
 9162SOL     OW38944   4.385   3.609   2.636 -0.2537 -0.5538 -0.0541
 9162SOL    HW138945   4.337   3.684   2.599  0.4277 -0.4457 -0.7017
 9162SOL    HW238946   4.443   3.659   2.693  0.0668  0.1153 -0.9678
 9163SOL     OW38947   3.581   2.101   5.228  0.3001  0.1776  0.1811
 9163SOL    HW138948   3.663   2.148   5.218 -1.1522  2.6898  0.0205
 9163SOL    HW238949   3.526   2.174   5.258  1.2054  1.4902 -1.3697
 9164SOL     OW38950   2.637   0.296   3.018 -0.8577 -0.0140 -0.1994
 9164SOL    HW138951   2.717   0.348   3.021 -0.8391 -0.0852  0.4833
 9164SOL    HW238952   2.664   0.204   3.025 -1.0179 -0.2553 -2.7536
 9165SOL     OW38953   3.166   2.930   8.153 -0.5798 -0.8108 -0.2653
 9165SOL    HW138954   3.152   3.022   8.178  2.1854 -1.3730  3.4452
 9165SOL    HW238955   3.241   2.944   8.095 -1.5221  1.4010 -0.9409
 9166SOL     OW38956   4.142   1.936   8.397  0.0097 -0.3085 -0.0691
 9166SOL    HW138957   4.097   1.860   8.435 -1.4788  0.5239 -0.1628
 9166SOL    HW238958   4.179   1.960   8.482  1.5890  0.4551 -0.9838
 9167SOL     OW38959   3.509   2.876   1.226  0.0112 -0.0355 -0.2130
 9167SOL    HW138960   3.438   2.851   1.285 -0.5102 -2.5967 -1.9456
 9167SOL    HW238961   3.534   2.962   1.259 -3.1041  0.4650  0.8813
 9168SOL     OW38962   0.056   1.936   4.733  0.5582 -0.3159 -0.4234
 9168SOL    HW138963   0.115   1.915   4.805  0.5000 -0.0192 -0.2896
 9168SOL    HW238964   0.059   2.031   4.724  2.0377 -0.3745 -0.5333
 9169SOL     OW38965   4.671   0.341   7.155  0.4048 -0.0580  0.6448
 9169SOL    HW138966   0.027   0.296   7.184  0.2031 -1.0691 -0.3873
 9169SOL    HW238967   4.617   0.367   7.229 -0.4552 -2.1314  0.7425
 9170SOL     OW38968   0.854   2.016   9.203 -0.4766  0.1891 -0.5122
 9170SOL    HW138969   0.883   2.101   9.169  0.9722  0.5135  1.5151
 9170SOL    HW238970   0.820   2.042   9.289 -0.9937 -1.7981 -0.1223
 9171SOL     OW38971   4.201   0.195   0.459  0.0110 -0.0794 -0.4322
 9171SOL    HW138972   4.240   0.177   0.373 -0.5495  2.1000 -1.1465
 9171SOL    HW238973   4.234   0.284   0.466  1.4869 -0.8301  1.9912
 9172SOL     OW38974   4.161   2.285  17.598 -0.5244 -0.6981  0.0789
 9172SOL    HW138975   4.192   2.358  17.651 -2.3893 -0.3435  0.6896
 9172SOL    HW238976   4.234   2.275  17.538  0.0107  0.7462  0.4835
 9173SOL     OW38977   0.610   1.143   2.162 -0.0832  0.1956  0.2254
 9173SOL    HW138978   0.582   1.139   2.070 -0.1359 -2.4169  0.3597
 9173SOL    HW238979   0.576   1.229   2.186  1.5436  1.0248 -0.4046
 9174SOL     OW38980   4.155   1.922   7.167  0.7788  0.1395  0.0357
 9174SOL    HW138981   4.101   1.933   7.088  0.1075 -1.2691  0.3053
 9174SOL    HW238982   4.162   1.827   7.168 -3.1135 -0.1848 -0.7816
 9175SOL     OW38983   1.119   1.905   8.028 -0.2811  0.2101 -0.1645
 9175SOL    HW138984   1.063   1.967   8.074  0.2727  0.4241  0.2291
 9175SOL    HW238985   1.152   1.861   8.107 -1.6354  0.6407  0.6442
 9176SOL     OW38986   4.452   4.318  15.592 -0.2983  0.6235 -0.0114
 9176SOL    HW138987   4.479   4.409  15.603  1.7647  0.1589 -1.1367
 9176SOL    HW238988   4.361   4.327  15.565 -0.7875 -1.4478  0.9556
 9177SOL     OW38989   3.267   3.493   3.345 -0.0755  0.0560 -0.0861
 9177SOL    HW138990   3.269   3.547   3.266  1.8025 -1.1904 -0.8758
 9177SOL    HW238991   3.172   3.483   3.357 -0.2299 -0.2463 -1.5103
 9178SOL     OW38992   1.999   2.538  12.875 -0.2768 -0.1464 -0.1459
 9178SOL    HW138993   1.963   2.585  12.800 -0.3207  1.4660  0.8662
 9178SOL    HW238994   2.071   2.601  12.891 -1.1946  0.6297  0.9537
 9179SOL     OW38995   1.751   1.469   7.079 -0.4029 -0.4319 -0.3781
 9179SOL    HW138996   1.812   1.485   7.152 -0.2031  0.0854 -0.6609
 9179SOL    HW238997   1.809   1.457   7.004  0.3830 -0.1095  0.1763
 9180SOL     OW38998   2.305   4.176   4.618 -0.1951 -0.1726  0.1578
 9180SOL    HW138999   2.245   4.103   4.632  0.3231 -0.8038 -0.8665
 9180SOL    HW239000   2.232   4.238   4.621 -1.3237 -1.4931  0.0683
 9181SOL     OW39001   3.671   1.260   7.954 -0.7595 -0.6906  0.6227
 9181SOL    HW139002   3.629   1.339   7.921 -1.8652 -1.1248  0.9683
 9181SOL    HW239003   3.594   1.209   7.980 -1.3469  0.0636  0.3270
 9182SOL     OW39004   0.502   1.904   1.380  0.2155  0.4255 -0.6956
 9182SOL    HW139005   0.568   1.852   1.333 -0.1217 -0.4616 -0.1902
 9182SOL    HW239006   0.533   1.899   1.470  0.3490  1.1011 -0.7072
 9183SOL     OW39007   1.978   2.846   2.479  0.2622  0.8509 -0.3758
 9183SOL    HW139008   1.962   2.752   2.478 -2.0598  1.2572 -0.2362
 9183SOL    HW239009   1.944   2.864   2.392 -1.5386 -1.6949 -0.1897
 9184SOL     OW39010   3.539   2.758   0.943 -0.5076  0.1374 -0.0838
 9184SOL    HW139011   3.566   2.667   0.955 -1.1975 -0.0404  0.1336
 9184SOL    HW239012   3.520   2.783   1.034 -2.0844  0.2194 -0.4336
 9185SOL     OW39013   1.266   2.940   8.483  0.2011 -0.2900  0.2442
 9185SOL    HW139014   1.220   2.879   8.425 -0.4139  1.2831 -0.9136
 9185SOL    HW239015   1.322   2.988   8.422  0.3765 -0.4061  0.3129
 9186SOL     OW39016   0.313   1.376   3.086 -0.0425 -0.0229  0.5616
 9186SOL    HW139017   0.340   1.284   3.091  1.4560  0.3760 -0.1511
 9186SOL    HW239018   0.220   1.358   3.073  0.1579 -0.3792 -0.3986
 9187SOL     OW39019   4.222   3.688   4.599 -0.2981  0.2885  0.1319
 9187SOL    HW139020   4.130   3.714   4.608 -0.2999  0.6687 -0.9468
 9187SOL    HW239021   4.243   3.753   4.532  0.1777  2.1878  2.1525
 9188SOL     OW39022   3.474   1.471   0.947  0.2726 -0.5905  0.0775
 9188SOL    HW139023   3.395   1.423   0.924 -1.4478  0.2708  4.3764
 9188SOL    HW239024   3.534   1.446   0.876 -0.4980 -2.3215  0.0387
 9189SOL     OW39025   3.328   2.852   4.608 -0.1676  0.1072 -0.0271
 9189SOL    HW139026   3.340   2.825   4.699 -3.7816 -0.0792  0.3998
 9189SOL    HW239027   3.413   2.824   4.575 -1.0206 -1.4583 -0.8888
 9190SOL     OW39028   2.688   4.108  10.996  0.3398  0.2445  0.0425
 9190SOL    HW139029   2.759   4.076  11.053 -0.2175 -0.4937  0.3156
 9190SOL    HW239030   2.725   4.105  10.908 -0.2946  0.8416 -0.2432
 9191SOL     OW39031   2.803   4.300   6.748 -0.1678 -0.4241 -0.6743
 9191SOL    HW139032   2.724   4.279   6.797 -0.9945 -0.1122 -1.8879
 9191SOL    HW239033   2.843   4.360   6.811  1.8527  0.6539 -2.9940
 9192SOL     OW39034   2.431   4.537  10.707 -0.2744  0.6513  0.4930
 9192SOL    HW139035   2.498   4.472  10.688 -2.4393 -1.2029 -0.8271
 9192SOL    HW239036   2.392   4.567  10.625 -1.3623  0.8151  1.0691
 9193SOL     OW39037   0.479   0.575  13.775 -0.0611 -0.4258 -0.3077
 9193SOL    HW139038   0.556   0.520  13.787 -0.1946 -0.1202  1.9438
 9193SOL    HW239039   0.505   0.642  13.711 -1.2974  2.4617  2.2562
 9194SOL     OW39040   1.997   2.930   5.180  0.4665  0.8284 -0.2542
 9194SOL    HW139041   2.044   2.960   5.103  2.0369 -0.7374  0.0850
 9194SOL    HW239042   1.947   3.009   5.198 -0.0354  0.4522  0.0070
 9195SOL     OW39043   4.020   1.016  16.572  0.4009  0.2801 -0.6982
 9195SOL    HW139044   3.926   0.995  16.577  0.4892 -0.3148 -1.5829
 9195SOL    HW239045   4.030   1.003  16.478  1.4031 -0.6976 -0.4570
 9196SOL     OW39046   2.016   4.654   1.665 -0.5307 -0.0857  0.4753
 9196SOL    HW139047   2.079   4.616   1.726  0.5997  2.2437  0.7406
 9196SOL    HW239048   1.930   4.648   1.708 -1.5004 -3.1003 -1.8865
 9197SOL     OW39049   1.830   4.443  12.913  0.1969  0.2790  0.3889
 9197SOL    HW139050   1.850   4.464  13.004  3.7930 -0.1183 -0.3023
 9197SOL    HW239051   1.773   4.515  12.890  0.2130 -0.6139 -2.4027
 9198SOL     OW39052   4.411   0.098   4.884  0.0031 -0.4660 -0.4597
 9198SOL    HW139053   4.451   0.076   4.800  0.8546 -3.6671  0.7983
 9198SOL    HW239054   4.342   0.160   4.858  0.3129 -0.3968 -1.1123
 9199SOL     OW39055   4.098   2.543   1.511  0.3006  0.3476  0.1098
 9199SOL    HW139056   4.118   2.636   1.507  0.6587  0.2697  0.0887
 9199SOL    HW239057   4.190   2.514   1.508 -0.2038 -0.9996 -2.2675
 9200SOL     OW39058   1.839   0.949   4.558  0.5302  0.5685  0.0594
 9200SOL    HW139059   1.837   0.901   4.475 -2.0164  0.7443  0.0091
 9200SOL    HW239060   1.786   1.025   4.533  0.9798  1.2970  1.3299
 9201SOL     OW39061   3.636   1.701  15.200 -0.5773  0.2065  0.4263
 9201SOL    HW139062   3.577   1.769  15.234  1.3777  1.4835  1.2227
 9201SOL    HW239063   3.653   1.651  15.280 -0.6262 -1.8771 -0.8678
 9202SOL     OW39064   2.008   1.051   7.638  0.0318  0.3873  0.0757
 9202SOL    HW139065   1.931   1.065   7.692  1.5391  1.2837  1.9860
 9202SOL    HW239066   2.072   1.114   7.671 -0.7370 -0.6471  3.4606
 9203SOL     OW39067   2.399   4.693   4.752 -0.8226  0.1350 -0.8885
 9203SOL    HW139068   2.379   0.030   4.823  1.1368 -0.9797  0.5955
 9203SOL    HW239069   2.402   4.610   4.800 -0.8508  1.1516  0.8355
 9204SOL     OW39070   4.234   3.296   7.035  0.4439  0.5159 -0.1928
 9204SOL    HW139071   4.328   3.284   7.043  0.6520  1.8402 -0.6327
 9204SOL    HW239072   4.213   3.218   6.984 -2.6612  0.2092  1.5336
 9205SOL     OW39073   3.678   1.226   7.238 -0.0068 -0.5927 -0.3417
 9205SOL    HW139074   3.694   1.299   7.299 -1.1494 -1.1015  0.5731
 9205SOL    HW239075   3.739   1.249   7.168 -0.5781  0.3941 -0.5209
 9206SOL     OW39076   0.263   3.527  14.591  0.3273 -0.7932 -0.4484
 9206SOL    HW139077   0.213   3.558  14.667 -0.1799  2.3394 -2.0728
 9206SOL    HW239078   0.291   3.614  14.563  0.0123 -0.0038  1.6321
 9207SOL     OW39079   0.140   1.076   7.332 -0.3520  0.2530 -0.2620
 9207SOL    HW139080   0.148   1.170   7.348  4.1316 -0.0024 -1.0130
 9207SOL    HW239081   0.086   1.051   7.407  2.3061 -1.1777  1.1838
 9208SOL     OW39082   3.562   0.297   4.190 -0.9265 -0.1196 -0.0398
 9208SOL    HW139083   3.644   0.315   4.145  0.1988 -2.3236  1.1294
 9208SOL    HW239084   3.493   0.336   4.136 -0.8782 -0.7837 -0.5822
 9209SOL     OW39085   0.254   3.644   5.100 -0.5868  0.2384 -0.0444
 9209SOL    HW139086   0.166   3.636   5.137 -0.2126 -0.6686  0.6495
 9209SOL    HW239087   0.313   3.684   5.164 -1.4558  1.0895  0.2220
 9210SOL     OW39088   3.756   4.343   8.596 -0.1899  0.2512  0.1308
 9210SOL    HW139089   3.792   4.431   8.604 -0.3135  0.3195 -0.0634
 9210SOL    HW239090   3.777   4.313   8.684  0.9905  0.7868  0.0236
 9211SOL     OW39091   0.943   3.622   1.692 -0.0502  0.1403 -0.0433
 9211SOL    HW139092   0.993   3.660   1.620 -0.9877 -1.9013 -1.7899
 9211SOL    HW239093   1.014   3.587   1.745 -0.3683 -2.1240 -1.0785
 9212SOL     OW39094   0.034   3.895   3.583 -0.1039  0.6249  0.1763
 9212SOL    HW139095   4.671   3.920   3.616 -1.1693  1.5984 -3.2494
 9212SOL    HW239096   4.722   3.827   3.525  1.4169 -0.2615  0.2884
 9213SOL     OW39097   3.824   2.717  15.004 -0.3132 -0.1007  0.4409
 9213SOL    HW139098   3.750   2.693  14.946 -0.2237  0.6844  0.0043
 9213SOL    HW239099   3.812   2.811  15.016 -1.0518 -0.0588 -0.5854
 9214SOL     OW39100   1.642   3.286  10.276  0.1857  0.0215  0.4120
 9214SOL    HW139101   1.715   3.319  10.224 -0.1707  1.9138  1.0899
 9214SOL    HW239102   1.569   3.334  10.238  0.6704  1.1850  0.9406
 9215SOL     OW39103   0.423   4.545  11.015  0.0427  0.6747 -0.3265
 9215SOL    HW139104   0.357   4.477  11.023  0.2064  0.7936  1.8419
 9215SOL    HW239105   0.399   4.601  11.089  2.2039  1.0315  0.0934
 9216SOL     OW39106   2.288   2.976   0.753  0.0909 -1.0198 -0.4573
 9216SOL    HW139107   2.220   2.925   0.709  1.1604  1.2892 -4.7571
 9216SOL    HW239108   2.250   2.964   0.840  0.1683 -3.7791 -0.7962
 9217SOL     OW39109   0.321   2.223   6.713 -0.2876 -0.2154  0.4207
 9217SOL    HW139110   0.304   2.315   6.693  0.0610 -0.3686 -0.6099
 9217SOL    HW239111   0.233   2.187   6.723 -1.2722  2.3438  0.8083
 9218SOL     OW39112   3.842   4.349  14.373  0.4845  0.3292 -0.6315
 9218SOL    HW139113   3.786   4.426  14.365  1.6289  1.0756 -1.5520
 9218SOL    HW239114   3.857   4.353  14.467  1.0944  2.2501 -0.7926
 9219SOL     OW39115   1.065   0.252   2.183  0.2655  0.6125 -0.2482
 9219SOL    HW139116   1.058   0.336   2.137  2.1944  1.1738  0.4716
 9219SOL    HW239117   1.080   0.185   2.116  0.0127 -1.2176  1.5510
 9220SOL     OW39118   2.120   0.294   8.763  0.7592  0.1054  0.2612
 9220SOL    HW139119   2.171   0.248   8.696 -0.7462 -1.2080  0.0243
 9220SOL    HW239120   2.155   0.383   8.775  0.1312  0.1651  1.6311
 9221SOL     OW39121   0.299   0.701   0.463  0.0898 -0.2621  0.1222
 9221SOL    HW139122   0.336   0.788   0.478  2.1130 -0.7045 -2.2643
 9221SOL    HW239123   0.346   0.647   0.526 -1.3516 -3.1994 -1.3423
 9222SOL     OW39124   1.040   3.984  15.678  0.2987 -0.7016  0.7061
 9222SOL    HW139125   1.058   3.891  15.689  2.9837 -0.1484  1.0831
 9222SOL    HW239126   1.125   4.024  15.660  0.6125 -0.0051  3.9005
 9223SOL     OW39127   2.943   4.171   7.088  0.4297  0.2708  0.4950
 9223SOL    HW139128   2.998   4.166   7.167 -0.2659 -0.9616  0.8973
 9223SOL    HW239129   2.951   4.264   7.066 -0.7561  0.0695 -0.7792
 9224SOL     OW39130   3.978   0.498   9.153 -0.9415  0.3788  0.3789
 9224SOL    HW139131   3.991   0.492   9.247  2.0018  2.3988  0.1128
 9224SOL    HW239132   4.063   0.485   9.110  0.5828  3.9269  2.3264
 9225SOL     OW39133   1.266   0.508   2.109  0.0544  0.0596 -0.3932
 9225SOL    HW139134   1.171   0.504   2.098 -0.0111  0.5477 -0.0096
 9225SOL    HW239135   1.273   0.602   2.128 -1.6746 -0.1733  1.4123
 9226SOL     OW39136   3.425   0.550   9.978  0.1242 -0.1420  0.3453
 9226SOL    HW139137   3.411   0.536  10.072 -0.3771 -1.9578  0.0016
 9226SOL    HW239138   3.396   0.465   9.946  0.7607 -0.0165 -0.5546
 9227SOL     OW39139   2.744   1.599   4.334 -0.5904 -0.5810  0.7037
 9227SOL    HW139140   2.740   1.644   4.418  1.9325 -0.6139  0.8603
 9227SOL    HW239141   2.823   1.548   4.356  0.3596  1.6079  2.3206
 9228SOL     OW39142   2.662   1.783   0.383  0.0445  0.1629 -0.1138
 9228SOL    HW139143   2.598   1.750   0.447 -0.0300 -1.4659 -1.0155
 9228SOL    HW239144   2.739   1.734   0.411  0.1743  0.7472  0.5554
 9229SOL     OW39145   1.055   4.095   2.688  0.0688 -0.0769 -0.1025
 9229SOL    HW139146   0.992   4.165   2.672  0.4817 -0.0838 -1.7801
 9229SOL    HW239147   0.999   4.040   2.745  0.4566 -0.3482  0.0172
 9230SOL     OW39148   1.189   3.606  14.780  0.0736  0.2165 -0.5594
 9230SOL    HW139149   1.130   3.609  14.706  2.0864 -0.4942 -2.1952
 9230SOL    HW239150   1.211   3.697  14.798 -1.5104  0.3399  0.7255
 9231SOL     OW39151   3.357   4.186   3.251  0.1729  0.4351 -0.0672
 9231SOL    HW139152   3.451   4.185   3.238  0.2304 -0.7268  0.4608
 9231SOL    HW239153   3.344   4.094   3.273  0.1179  0.5793  0.5073
 9232SOL     OW39154   1.791   4.669   8.654 -0.2153 -0.1951  0.2439
 9232SOL    HW139155   1.800   0.005   8.579  0.6336  0.0684  0.5573
 9232SOL    HW239156   1.827   0.003   8.722  1.2447 -1.5338  0.6018
 9233SOL     OW39157   2.173   1.850   4.816 -0.0513  0.1241  0.2708
 9233SOL    HW139158   2.132   1.855   4.902  2.1535  3.6253  1.0871
 9233SOL    HW239159   2.098   1.874   4.762 -1.5028 -0.3190  2.0770
 9234SOL     OW39160   0.526   2.710   2.506  0.2178  0.3676 -0.4675
 9234SOL    HW139161   0.503   2.681   2.594 -2.2664  0.1483 -1.1909
 9234SOL    HW239162   0.597   2.772   2.524 -0.4114  0.7693  0.6387
 9235SOL     OW39163   4.636   0.387   3.457  0.9798  0.0371 -0.7706
 9235SOL    HW139164   4.714   0.443   3.455  2.8341 -2.5569 -0.5029
 9235SOL    HW239165   4.636   0.362   3.549 -1.3557  2.4626 -0.0750
 9236SOL     OW39166   3.638   2.051   5.738 -0.0378 -0.0041  0.0946
 9236SOL    HW139167   3.686   2.039   5.820 -1.8020  0.1206  1.1443
 9236SOL    HW239168   3.625   2.145   5.726  1.6404  0.3235  0.9381
 9237SOL     OW39169   3.226   3.858   3.406  0.0733 -0.3462  0.3599
 9237SOL    HW139170   3.157   3.797   3.433 -0.0277 -0.1899  0.4558
 9237SOL    HW239171   3.190   3.888   3.323  2.7755 -2.0244 -1.4207
 9238SOL     OW39172   3.995   1.739  12.383  0.6022 -0.6822  0.1830
 9238SOL    HW139173   4.071   1.710  12.433  1.3493 -0.9021 -1.0677
 9238SOL    HW239174   4.020   1.807  12.320  0.7317 -1.1302 -0.2499
 9239SOL     OW39175   3.644   2.403   1.647  0.0537 -0.7167  0.0916
 9239SOL    HW139176   3.574   2.383   1.709  0.7671 -2.6178  0.2736
 9239SOL    HW239177   3.589   2.424   1.572  0.8457 -2.9511 -1.1133
 9240SOL     OW39178   1.521   1.026   7.709 -0.4284 -0.2448 -0.4020
 9240SOL    HW139179   1.593   1.082   7.680 -0.7307  0.8641  1.0129
 9240SOL    HW239180   1.564   0.940   7.715 -0.8518 -0.2796  2.0031
 9241SOL     OW39181   2.252   4.393  11.715 -0.1175  0.1499  0.6469
 9241SOL    HW139182   2.246   4.392  11.620  0.5993 -1.0373  0.6114
 9241SOL    HW239183   2.297   4.476  11.729  2.5459 -1.4691  1.6381
 9242SOL     OW39184   3.352   3.478  17.298 -0.5078  0.8363  0.2803
 9242SOL    HW139185   3.280   3.518  17.347 -0.0057  0.6211  1.1861
 9242SOL    HW239186   3.418   3.457  17.364  1.7036  0.3734 -2.1004
 9243SOL     OW39187   1.111   0.329  12.534  0.1452  0.2581  0.1693
 9243SOL    HW139188   1.114   0.421  12.563 -1.7239  0.5381 -0.5202
 9243SOL    HW239189   1.150   0.293  12.613  2.1868 -2.6117 -2.1633
 9244SOL     OW39190   3.914   1.887   5.297  0.6276 -0.1190 -0.9141
 9244SOL    HW139191   3.880   1.939   5.369  4.3898  0.2212  0.6311
 9244SOL    HW239192   3.853   1.914   5.228 -1.0229  0.6189  0.8384
 9245SOL     OW39193   1.726   2.823  12.254  0.0552  0.6773  0.4719
 9245SOL    HW139194   1.803   2.781  12.217  0.8000  0.4384  2.3350
 9245SOL    HW239195   1.751   2.810  12.345  0.4046 -1.2874  0.1015
 9246SOL     OW39196   4.275   2.025   5.627 -0.6651 -0.8640  0.1929
 9246SOL    HW139197   4.354   2.061   5.667 -0.9814  0.1341 -0.0714
 9246SOL    HW239198   4.277   2.073   5.544 -1.3281 -0.0687  0.6377
 9247SOL     OW39199   4.189   3.461   3.461 -0.3008 -0.2477 -0.3464
 9247SOL    HW139200   4.223   3.495   3.378  1.8330 -1.6559 -0.0508
 9247SOL    HW239201   4.095   3.468   3.448 -0.4877 -2.9973 -0.5272
 9248SOL     OW39202   0.823   2.577   2.357  0.1842 -0.1633 -0.3209
 9248SOL    HW139203   0.783   2.578   2.444  0.6703 -0.9571 -0.0867
 9248SOL    HW239204   0.895   2.514   2.370  1.7725  2.0180  1.5539
 9249SOL     OW39205   3.680   3.983   6.314  0.4317 -0.2791  0.1233
 9249SOL    HW139206   3.711   3.983   6.224 -0.5036  0.6513 -0.2065
 9249SOL    HW239207   3.733   4.047   6.361 -2.7684  1.0253  1.9786
 9250SOL     OW39208   0.308   0.029  11.175  0.0743  0.2159 -0.1312
 9250SOL    HW139209   0.267   0.109  11.141 -0.5670 -1.1424 -2.5592
 9250SOL    HW239210   0.227   4.708  11.198  2.4088 -3.8308  0.2344
 9251SOL     OW39211   4.221   3.650   6.507 -0.4238 -0.0097 -0.0867
 9251SOL    HW139212   4.237   3.591   6.581 -1.2351  0.7153  0.6733
 9251SOL    HW239213   4.241   3.734   6.549 -0.8910  0.8389 -1.5698
 9252SOL     OW39214   4.024   4.111   9.021 -0.2589  0.3253  0.2167
 9252SOL    HW139215   4.013   4.163   9.101  0.6797 -0.5729  0.9283
 9252SOL    HW239216   4.108   4.147   8.995 -0.1506  0.0325  0.1558
 9253SOL     OW39217   0.319   3.637   7.149 -0.2234 -0.7782  0.1704
 9253SOL    HW139218   0.404   3.652   7.107 -0.3580 -1.7988 -0.4667
 9253SOL    HW239219   0.288   3.728   7.145  2.7094  0.1589 -1.0786
 9254SOL     OW39220   2.751   3.414   2.394  0.0741 -0.1068  0.3943
 9254SOL    HW139221   2.782   3.501   2.420 -1.7159  0.3818  0.8585
 9254SOL    HW239222   2.780   3.416   2.302  1.6083  2.2271  0.9436
 9255SOL     OW39223   0.518   3.280   7.195 -0.5282  0.4492 -0.0569
 9255SOL    HW139224   0.497   3.319   7.280  0.2782  0.7297  0.0134
 9255SOL    HW239225   0.584   3.342   7.164 -0.6277  1.1300  1.0972
 9256SOL     OW39226   2.630   1.072   9.502 -0.3908 -0.3594  0.3982
 9256SOL    HW139227   2.626   1.104   9.592  0.1445  1.3748 -0.1891
 9256SOL    HW239228   2.674   0.993   9.531  0.4916  1.4030  3.8312
 9257SOL     OW39229   4.575   2.505   6.136  0.4818  0.6359 -0.5749
 9257SOL    HW139230   4.534   2.495   6.222 -0.2547  2.3456 -0.7518
 9257SOL    HW239231   4.517   2.569   6.097 -0.7077 -0.6655 -0.9397
 9258SOL     OW39232   2.848   1.967   0.237  0.1070  0.0745 -0.0557
 9258SOL    HW139233   2.798   1.888   0.256  0.2220 -0.0591 -0.3126
 9258SOL    HW239234   2.919   1.942   0.179  0.9953 -2.0629  1.9792
 9259SOL     OW39235   4.324   0.856  11.019  0.9918 -0.0270 -0.4011
 9259SOL    HW139236   4.388   0.902  10.964  0.5456  0.3985 -0.5602
 9259SOL    HW239237   4.295   0.780  10.968  4.5771 -1.1942 -0.7607
 9260SOL     OW39238   0.590   2.693  14.132  0.3741 -0.1826  0.6380
 9260SOL    HW139239   0.609   2.786  14.147 -1.7574 -0.2010  3.4070
 9260SOL    HW239240   0.675   2.650  14.128  0.9352  1.0831 -1.1411
 9261SOL     OW39241   3.325   3.809  13.527  0.7490  0.6670  0.6412
 9261SOL    HW139242   3.230   3.802  13.540  0.4745  2.4677 -0.3560
 9261SOL    HW239243   3.350   3.762  13.448 -0.2012  2.5106 -0.7657
 9262SOL     OW39244   2.337   0.028   1.110 -0.4359 -0.0118 -0.3273
 9262SOL    HW139245   2.277   0.012   1.183  0.6037  0.4058  0.6063
 9262SOL    HW239246   2.289   0.017   1.027  1.2543 -2.6240 -0.9742
 9263SOL     OW39247   0.721   4.649   6.044 -0.1599 -0.6234  0.0679
 9263SOL    HW139248   0.755   4.685   6.126  0.8836  2.5986 -1.7718
 9263SOL    HW239249   0.628   4.653   6.065 -0.1246 -0.1916  0.1362
 9264SOL     OW39250   3.901   0.275   3.937 -0.2963 -0.1105  0.3640
 9264SOL    HW139251   3.840   0.204   3.917  0.2061 -0.6375  0.7278
 9264SOL    HW239252   3.934   0.252   4.024  2.0345  1.2269 -0.1699
 9265SOL     OW39253   1.763   3.522   9.843  0.3531  0.1975  0.1929
 9265SOL    HW139254   1.670   3.539   9.862  0.9074  1.5142  1.7100
 9265SOL    HW239255   1.764   3.476   9.759  1.4801 -1.0243  0.8773
 9266SOL     OW39256   3.414   1.258   2.584  0.2058  0.0608 -0.0952
 9266SOL    HW139257   3.365   1.176   2.578  2.2165 -1.2758  2.3629
 9266SOL    HW239258   3.384   1.302   2.664  1.7913 -0.1946  0.6204
 9267SOL     OW39259   2.805   2.284   2.794 -0.4127 -0.1781  0.7021
 9267SOL    HW139260   2.744   2.253   2.727  0.3491 -0.0748 -0.0334
 9267SOL    HW239261   2.760   2.366   2.815  0.1017  0.0135  1.0671
 9268SOL     OW39262   4.033   2.352   1.708 -0.3452  0.2890 -0.5481
 9268SOL    HW139263   4.058   2.400   1.787 -1.8524  1.5842 -0.8759
 9268SOL    HW239264   4.079   2.401   1.639  1.2525 -2.1808 -1.2337
 9269SOL     OW39265   2.065   3.001  13.604 -0.2973 -0.0862 -0.0650
 9269SOL    HW139266   2.146   3.009  13.655 -0.6863  0.3399  0.4898
 9269SOL    HW239267   2.009   2.945  13.658  1.0437 -1.5831 -0.2328
 9270SOL     OW39268   3.904   2.185  16.238 -0.9574 -0.0129 -0.4840
 9270SOL    HW139269   3.852   2.177  16.158  0.1284 -0.8507 -1.1032
 9270SOL    HW239270   3.976   2.129  16.210 -1.2583 -0.4275 -0.4359
 9271SOL     OW39271   4.702   4.006   4.208  0.5475 -0.2585 -0.2565
 9271SOL    HW139272   4.710   4.091   4.251  0.7108  0.8961 -2.5288
 9271SOL    HW239273   4.689   4.030   4.116 -0.1375  1.9213  0.4171
 9272SOL     OW39274   1.881   1.481   3.175 -0.0555 -0.0017  0.0330
 9272SOL    HW139275   1.976   1.489   3.175  0.0638 -1.2921  1.1480
 9272SOL    HW239276   1.861   1.410   3.237  1.9745  1.0198  1.8647
 9273SOL     OW39277   1.954   1.489   7.713  0.2961  0.2113  0.5674
 9273SOL    HW139278   1.989   1.441   7.788  0.5477 -0.7854 -0.1888
 9273SOL    HW239279   2.028   1.459   7.659 -0.0637  3.2460 -1.6113
 9274SOL     OW39280   3.883   4.250   8.162 -0.6513 -0.2464 -0.8684
 9274SOL    HW139281   3.856   4.172   8.211 -0.6173  0.1017 -0.2993
 9274SOL    HW239282   3.835   4.231   8.081 -1.4716  0.1116 -0.4618
 9275SOL     OW39283   3.192   3.895  16.626  0.5259 -0.2135  0.8424
 9275SOL    HW139284   3.214   3.875  16.534  1.1483  0.4237  0.8494
 9275SOL    HW239285   3.263   3.958  16.638  0.1519  0.9209 -2.9347
 9276SOL     OW39286   3.309   2.175   4.723  0.9561  0.0938 -0.6034
 9276SOL    HW139287   3.287   2.094   4.770  1.2780 -0.3730 -1.2471
 9276SOL    HW239288   3.402   2.156   4.708  0.1718 -2.7888 -1.8773
 9277SOL     OW39289   3.496   4.282   2.621  0.1291 -0.0346  0.2992
 9277SOL    HW139290   3.419   4.330   2.589 -0.3609 -1.6053 -0.8711
 9277SOL    HW239291   3.497   4.205   2.565  0.2459 -1.9035  2.8427
 9278SOL     OW39292   1.204   3.030   6.876 -0.0519  0.4463 -0.1467
 9278SOL    HW139293   1.201   3.007   6.969  0.2304  0.9942 -0.0039
 9278SOL    HW239294   1.112   3.017   6.850  0.4997 -1.5305 -1.1225
 9279SOL     OW39295   3.668   4.607   9.666  0.0576 -0.4622 -0.3246
 9279SOL    HW139296   3.674   4.692   9.621 -0.9144  0.0332  0.4831
 9279SOL    HW239297   3.676   4.622   9.760  2.9685 -2.0218 -0.3452
 9280SOL     OW39298   2.363   0.914   4.390  0.1470  0.2346  0.1774
 9280SOL    HW139299   2.429   0.900   4.458 -1.0845 -1.0423  1.1119
 9280SOL    HW239300   2.356   1.009   4.400  0.7806  0.2249  0.7083
 9281SOL     OW39301   3.335   4.007   5.827 -0.8913 -0.4008  0.2448
 9281SOL    HW139302   3.255   4.046   5.794 -0.5382 -1.8740 -2.3761
 9281SOL    HW239303   3.375   4.090   5.851  1.6856 -1.0723 -1.6458
 9282SOL     OW39304   3.439   2.397  16.715 -0.3299  0.2816  0.4249
 9282SOL    HW139305   3.362   2.341  16.703  0.8595 -1.2858  0.0824
 9282SOL    HW239306   3.403   2.468  16.768  0.2861  0.2418  0.8970
 9283SOL     OW39307   0.198   4.513   0.692  0.2799  0.1185  0.2776
 9283SOL    HW139308   0.289   4.524   0.717  0.4306 -0.3726 -0.0513
 9283SOL    HW239309   0.156   4.525   0.777 -0.7470  1.5956 -0.4376
 9284SOL     OW39310   2.523   0.838   7.018 -0.1901 -0.1168 -0.5738
 9284SOL    HW139311   2.430   0.814   7.019  0.4008 -2.4194 -1.8727
 9284SOL    HW239312   2.552   0.807   7.104 -1.3411 -2.0895 -0.8992
 9285SOL     OW39313   0.582   1.105   1.877  0.3219  0.0475 -0.2989
 9285SOL    HW139314   0.662   1.141   1.839 -1.0816  2.0573 -1.3298
 9285SOL    HW239315   0.519   1.140   1.814 -0.2525 -0.1951  0.1479
 9286SOL     OW39316   0.307   0.590   6.688 -0.0505 -0.1170  0.2189
 9286SOL    HW139317   0.374   0.657   6.701 -0.1618  0.1981 -0.8009
 9286SOL    HW239318   0.246   0.633   6.749 -2.3461 -2.5167 -0.3962
 9287SOL     OW39319   2.218   4.296  15.397 -0.1708 -0.9739 -0.2300
 9287SOL    HW139320   2.146   4.269  15.341 -1.3166  1.9072 -0.1676
 9287SOL    HW239321   2.287   4.320  15.335 -0.9918 -1.8000 -1.4368
 9288SOL     OW39322   1.081   2.020   4.653  0.0762  0.3439 -0.4663
 9288SOL    HW139323   1.136   2.098   4.656 -0.8178  0.9225  1.0618
 9288SOL    HW239324   1.128   1.963   4.592 -0.8378  1.9556 -2.6565
 9289SOL     OW39325   0.942   1.374  15.996 -0.2454  0.0875 -0.0322
 9289SOL    HW139326   0.950   1.379  15.901  0.8816  0.6751  0.0962
 9289SOL    HW239327   0.852   1.401  16.009  0.3528  0.8917  2.4712
 9290SOL     OW39328   1.297   2.810  17.068  0.0884  0.4428  0.3634
 9290SOL    HW139329   1.356   2.735  17.071 -0.0912  0.3488  1.3790
 9290SOL    HW239330   1.284   2.819  16.973  1.3429  1.7618  0.3157
 9291SOL     OW39331   3.822   0.283   9.134  0.2486 -0.5832  0.4524
 9291SOL    HW139332   3.874   0.361   9.148  1.2930 -1.4747  1.5342
 9291SOL    HW239333   3.863   0.228   9.200  1.0870  1.0434  1.2630
 9292SOL     OW39334   2.812   0.158  17.299 -0.2836  0.1299 -0.0896
 9292SOL    HW139335   2.882   0.212  17.336 -2.1395  1.0016  2.1079
 9292SOL    HW239336   2.832   0.165  17.205  3.3778  0.2303  0.7193
 9293SOL     OW39337   2.974   2.584  12.755  0.2913 -0.0136 -0.1491
 9293SOL    HW139338   3.060   2.624  12.743  0.5622 -0.8952 -1.0671
 9293SOL    HW239339   2.992   2.491  12.749  1.2112  0.1156  0.6105
 9294SOL     OW39340   3.249   1.416   5.512  0.0974  0.2573  0.0049
 9294SOL    HW139341   3.208   1.427   5.426  0.6222  0.4276 -0.2296
 9294SOL    HW239342   3.204   1.484   5.562  2.2401  2.1274 -0.5844
 9295SOL     OW39343   1.176   3.302   5.918 -0.2030 -0.1214 -0.3833
 9295SOL    HW139344   1.252   3.360   5.925  0.8885 -1.4508 -1.0464
 9295SOL    HW239345   1.129   3.332   5.995  2.0843 -0.0818  1.0020
 9296SOL     OW39346   2.364   3.250   0.556  0.0481 -0.6459 -0.5887
 9296SOL    HW139347   2.313   3.184   0.509 -0.3552 -1.2251  0.6531
 9296SOL    HW239348   2.444   3.252   0.505  1.4640 -0.7207  1.6309
 9297SOL     OW39349   2.163   4.434   2.277 -0.0732 -0.6664  0.1458
 9297SOL    HW139350   2.135   4.449   2.186  1.7597  1.3931 -0.0703
 9297SOL    HW239351   2.199   4.521   2.295  0.5823 -0.8298 -0.3498
 9298SOL     OW39352   2.133   2.009   9.401 -0.4118  0.3150 -0.0402
 9298SOL    HW139353   2.097   2.097   9.391 -0.8390  0.0876 -0.5160
 9298SOL    HW239354   2.078   1.956   9.343  1.4028 -3.3593  1.5899
 9299SOL     OW39355   4.632   3.441   2.554  0.2205  0.3270 -0.0827
 9299SOL    HW139356   4.662   3.364   2.602  0.6126  0.5474  0.0217
 9299SOL    HW239357   4.569   3.492   2.605 -0.8423  0.3056 -1.3842
 9300SOL     OW39358   0.733   2.205   5.560 -0.2795 -0.4722  0.0073
 9300SOL    HW139359   0.677   2.160   5.496  1.3524 -2.8919  0.2830
 9300SOL    HW239360   0.674   2.264   5.605 -0.7577  0.1034 -1.3799
 9301SOL     OW39361   0.388   3.910   4.437  0.4934  0.2744  0.6084
 9301SOL    HW139362   0.331   3.876   4.507 -0.8548  1.1531 -0.0468
 9301SOL    HW239363   0.355   4.000   4.429  1.6561  0.5816 -0.5527
 9302SOL     OW39364   4.523   0.384   7.394 -0.5892  0.3899  0.0307
 9302SOL    HW139365   4.517   0.462   7.448 -0.1815  0.4028  0.0601
 9302SOL    HW239366   4.431   0.365   7.378 -0.8803 -0.2246  2.3693
 9303SOL     OW39367   1.499   4.095   2.648  0.2170  0.1644 -0.3858
 9303SOL    HW139368   1.552   4.016   2.639  1.2666  0.7641  0.4044
 9303SOL    HW239369   1.441   4.097   2.572 -0.3719 -0.7834  0.0452
 9304SOL     OW39370   0.559   4.466  12.969 -0.0094 -0.2712  0.1478
 9304SOL    HW139371   0.633   4.520  12.997 -0.9833  1.8562 -1.3898
 9304SOL    HW239372   0.584   4.441  12.880  1.7777 -1.8102  1.0973
 9305SOL     OW39373   2.696   2.367   3.207 -0.0217  0.1218 -0.1635
 9305SOL    HW139374   2.763   2.314   3.165 -1.0029 -0.1059 -1.4641
 9305SOL    HW239375   2.690   2.437   3.141 -0.1257  0.1428 -0.1322
 9306SOL     OW39376   3.900   3.302   7.742 -0.0258  0.4404  0.0669
 9306SOL    HW139377   3.857   3.226   7.781 -2.2899  1.7815  0.1910
 9306SOL    HW239378   3.877   3.367   7.808 -2.3121  0.4672 -0.7477
 9307SOL     OW39379   3.549   1.589   2.701 -0.6508  0.1984  0.3349
 9307SOL    HW139380   3.488   1.651   2.659 -0.4610  0.5372  0.5618
 9307SOL    HW239381   3.630   1.640   2.708 -0.5213 -0.3361  2.5096
 9308SOL     OW39382   2.573   2.502   9.196 -0.3180 -0.1623  0.3062
 9308SOL    HW139383   2.520   2.512   9.275 -1.8723 -2.6857 -0.4375
 9308SOL    HW239384   2.598   2.410   9.199  0.9800  0.2002  0.8123
 9309SOL     OW39385   0.114   2.099   6.838 -0.0341 -0.3326  0.0888
 9309SOL    HW139386   0.080   2.063   6.756 -2.3148  0.8669  0.4979
 9309SOL    HW239387   0.103   2.025   6.898 -1.3352 -0.0583  0.1983
 9310SOL     OW39388   0.046   3.454  13.712 -0.7849  0.3127  0.4802
 9310SOL    HW139389   4.694   3.396  13.707 -0.6233 -0.1326  3.0943
 9310SOL    HW239390   0.043   3.470  13.807 -2.1819  0.7724  0.3599
 9311SOL     OW39391   1.776   3.605   5.419 -0.1835 -0.0398  0.2403
 9311SOL    HW139392   1.686   3.621   5.391 -0.1867 -2.1332 -0.9421
 9311SOL    HW239393   1.792   3.688   5.464 -1.0310 -0.1582  0.7444
 9312SOL     OW39394   4.378   0.492   6.181  0.0839 -0.6634 -0.2365
 9312SOL    HW139395   4.472   0.492   6.200  0.3039 -1.2765 -1.3590
 9312SOL    HW239396   4.377   0.427   6.112  1.7839 -0.0909 -0.8114
 9313SOL     OW39397   0.351   4.606  10.560 -0.1149  0.4081  0.0609
 9313SOL    HW139398   0.314   4.568  10.640  1.2031  0.5986  0.7636
 9313SOL    HW239399   0.432   4.555  10.553  0.8459  1.9543 -0.0572
 9314SOL     OW39400   1.308   3.824  11.365 -0.1431 -0.5941  0.4809
 9314SOL    HW139401   1.400   3.848  11.353 -0.6522  0.5969 -1.1078
 9314SOL    HW239402   1.269   3.852  11.282  1.5193  1.3077  0.3341
 9315SOL     OW39403   2.202   0.109   3.619  0.0814 -0.2027 -1.1013
 9315SOL    HW139404   2.125   0.146   3.663  1.3353  0.0066  0.8828
 9315SOL    HW239405   2.249   0.105   3.702 -2.6888 -0.2333  0.4952
 9316SOL     OW39406   2.135   3.955   7.354 -0.1669  0.1172  0.7984
 9316SOL    HW139407   2.188   3.888   7.310 -1.0425  0.2440 -0.4558
 9316SOL    HW239408   2.174   4.031   7.311  0.7471 -0.6011  0.3507
 9317SOL     OW39409   3.756   1.993   8.150 -0.0011  0.2306  0.7272
 9317SOL    HW139410   3.822   2.029   8.209  1.0279 -0.2547 -0.1314
 9317SOL    HW239411   3.808   1.931   8.099 -2.1018  0.6537 -1.9323
 9318SOL     OW39412   2.399   3.268  11.714 -1.1236 -0.1342 -0.1546
 9318SOL    HW139413   2.397   3.198  11.780 -0.8235 -0.5920 -0.6280
 9318SOL    HW239414   2.477   3.231  11.671  0.2388  2.8862 -0.2867
 9319SOL     OW39415   2.941   2.526  14.306 -0.8602 -0.7261  0.4386
 9319SOL    HW139416   2.908   2.605  14.264  0.6492  1.1875  2.8420
 9319SOL    HW239417   2.903   2.458  14.250 -3.1287  1.3416 -0.5229
 9320SOL     OW39418   2.904   4.505   3.490  0.4939 -0.0371 -0.2082
 9320SOL    HW139419   2.948   4.424   3.465 -0.7015 -0.3857 -1.1723
 9320SOL    HW239420   2.969   4.547   3.547  0.7493 -3.0216  1.6705
 9321SOL     OW39421   0.874   0.427   3.522  0.0593 -0.3371  0.4147
 9321SOL    HW139422   0.902   0.336   3.531 -2.7608 -1.3321 -0.6899
 9321SOL    HW239423   0.787   0.425   3.481  0.9598 -3.1349 -1.3350
 9322SOL     OW39424   3.673   2.292   7.227  0.5910  0.4717 -0.3799
 9322SOL    HW139425   3.648   2.284   7.135 -0.9853  0.3151  0.0789
 9322SOL    HW239426   3.765   2.266   7.216  0.6887  0.3835  0.5883
 9323SOL     OW39427   4.111   4.691   8.725  0.0935  0.9830 -0.3701
 9323SOL    HW139428   4.128   0.060   8.712 -1.1222  1.4401  1.2578
 9323SOL    HW239429   4.201   4.659   8.723  0.9342  3.2217  1.6562
 9324SOL     OW39430   3.599   3.692  12.881  0.0536  0.6095 -0.1463
 9324SOL    HW139431   3.673   3.683  12.941  0.5450  2.0456 -0.5435
 9324SOL    HW239432   3.570   3.602  12.864 -1.0099  1.1699 -1.3065
 9325SOL     OW39433   4.687   0.817   2.482 -0.7703  0.0802 -0.1562
 9325SOL    HW139434   4.661   0.909   2.478  1.7519  0.8707  2.1487
 9325SOL    HW239435   0.018   0.819   2.561 -1.3004  0.6399  0.1930
 9326SOL     OW39436   0.468   2.294   4.115  0.0389 -0.5808  0.2934
 9326SOL    HW139437   0.545   2.308   4.169  0.2268 -0.8987  0.1051
 9326SOL    HW239438   0.409   2.365   4.139 -0.7588 -1.5970  1.3102
 9327SOL     OW39439   3.849   0.572   3.424  0.3354 -0.1957 -0.0418
 9327SOL    HW139440   3.901   0.511   3.476 -1.5017 -1.4871  0.2806
 9327SOL    HW239441   3.854   0.532   3.337  1.8592 -1.6193  0.7124
 9328SOL     OW39442   0.645   3.942   7.564  0.0647 -0.6706  0.4323
 9328SOL    HW139443   0.638   3.940   7.659 -0.8825 -0.4983  0.3715
 9328SOL    HW239444   0.653   4.037   7.557 -1.5558 -0.6225 -0.8349
 9329SOL     OW39445   0.332   0.459   3.272 -0.1957  0.7074  0.1587
 9329SOL    HW139446   0.347   0.509   3.192  1.2522  1.1149  0.6793
 9329SOL    HW239447   0.349   0.369   3.244  1.6058  0.8287  0.8716
 9330SOL     OW39448   1.543   3.161  12.943 -0.1338  0.1050 -0.0523
 9330SOL    HW139449   1.622   3.178  12.892 -0.6111  0.1535 -0.7680
 9330SOL    HW239450   1.576   3.078  12.978 -0.4826 -0.1818 -0.3938
 9331SOL     OW39451   0.265   4.207  11.442 -0.3099 -0.5260 -0.3059
 9331SOL    HW139452   0.308   4.288  11.472 -0.0351 -0.5961 -0.5076
 9331SOL    HW239453   0.341   4.149  11.443 -0.7962 -1.1541  0.0799
 9332SOL     OW39454   3.928   3.076   3.217 -0.2126 -0.0083  0.1825
 9332SOL    HW139455   3.883   3.036   3.142  0.8376  1.7518 -1.3902
 9332SOL    HW239456   3.883   3.159   3.231 -0.1011  0.5973 -2.8936
 9333SOL     OW39457   3.355   2.036   8.798  0.0056 -0.1794 -0.0954
 9333SOL    HW139458   3.327   2.086   8.874 -0.4994  0.0185 -0.4140
 9333SOL    HW239459   3.289   1.970   8.779  0.8047 -1.4010  1.3433
 9334SOL     OW39460   1.315   0.141  10.865  0.6705  0.1138  0.0618
 9334SOL    HW139461   1.330   0.112  10.955 -1.8563  3.5024  1.5590
 9334SOL    HW239462   1.388   0.202  10.858  1.1142 -0.5595 -1.1473
 9335SOL     OW39463   2.202   1.779   8.920 -0.0916 -0.4285 -0.3244
 9335SOL    HW139464   2.231   1.719   8.851 -1.2333 -1.1336 -0.1899
 9335SOL    HW239465   2.228   1.866   8.890  1.6609 -0.6314  0.5542
 9336SOL     OW39466   1.344   3.523   7.430  1.0252 -0.8187  0.3060
 9336SOL    HW139467   1.264   3.497   7.386  1.4756 -1.5271 -0.1008
 9336SOL    HW239468   1.315   3.605   7.471  0.1863 -0.2124 -1.4859
 9337SOL     OW39469   3.198   0.056   4.303  0.0375 -0.1587 -0.4093
 9337SOL    HW139470   3.158   4.699   4.270 -0.7234  0.3230 -0.6527
 9337SOL    HW239471   3.121   0.098   4.342  0.7493  0.6891  0.0840
 9338SOL     OW39472   1.413   2.204   9.157 -0.4811  0.2623  0.1340
 9338SOL    HW139473   1.450   2.168   9.076  0.3878 -0.4632  0.8535
 9338SOL    HW239474   1.488   2.188   9.214 -0.0176  0.6226 -0.3815
 9339SOL     OW39475   1.555   2.598   4.866 -0.5418  0.2121 -0.5132
 9339SOL    HW139476   1.600   2.558   4.940  1.1578  0.9451 -1.1520
 9339SOL    HW239477   1.490   2.652   4.910  0.9205 -1.1728  3.3078
 9340SOL     OW39478   0.839   2.864   1.701  0.0712 -0.2304  0.3262
 9340SOL    HW139479   0.857   2.939   1.758 -0.2363 -0.4777  0.7563
 9340SOL    HW239480   0.903   2.873   1.631  0.4940 -1.9334  0.4988
 9341SOL     OW39481   2.648   2.586   1.806 -0.4806  0.7380 -0.3713
 9341SOL    HW139482   2.682   2.643   1.875  0.2087  1.1692 -1.0618
 9341SOL    HW239483   2.592   2.522   1.850 -0.9355 -0.5816 -2.8640
 9342SOL     OW39484   0.551   0.013   6.532 -0.7712 -0.4521  0.1141
 9342SOL    HW139485   0.493   4.661   6.543 -1.2530 -0.1668 -0.4487
 9342SOL    HW239486   0.500   0.093   6.546  0.0755 -0.4120  2.9223
 9343SOL     OW39487   2.200   2.943  16.161  0.4198  0.0983  0.5264
 9343SOL    HW139488   2.197   2.972  16.252  1.9975  0.2502  0.5200
 9343SOL    HW239489   2.289   2.908  16.163 -0.0374 -1.1620 -0.7283
 9344SOL     OW39490   4.539   4.331   5.325 -0.2941 -1.0603 -0.4495
 9344SOL    HW139491   4.491   4.409   5.353 -1.2005 -0.0740 -4.7534
 9344SOL    HW239492   4.590   4.309   5.404  0.5053  1.7434 -0.1746
 9345SOL     OW39493   1.670   3.056  15.316  0.5437  0.5321 -0.1198
 9345SOL    HW139494   1.584   3.021  15.294  1.0123  0.3730 -1.7339
 9345SOL    HW239495   1.695   3.079  15.227 -0.2225  0.3748 -0.3757
 9346SOL     OW39496   3.589   1.143   8.258 -0.7357 -0.1474  0.1321
 9346SOL    HW139497   3.571   1.137   8.352 -0.3307  0.2315  0.2304
 9346SOL    HW239498   3.550   1.230   8.250  1.9146  1.0398  0.2038
 9347SOL     OW39499   1.980   1.590   9.229  0.4002  0.1158 -0.4654
 9347SOL    HW139500   1.904   1.549   9.269  1.0860 -1.2024 -0.5170
 9347SOL    HW239501   2.048   1.543   9.278  0.4243  1.1601  0.5247
 9348SOL     OW39502   4.083   0.512  16.934  0.0343 -0.5724  0.3297
 9348SOL    HW139503   4.012   0.570  16.960 -0.8204 -1.4503 -0.0263
 9348SOL    HW239504   4.165   0.550  16.965  0.4750  0.4541 -2.1093
 9349SOL     OW39505   4.348   3.708   9.826  0.1618 -0.2678  0.5290
 9349SOL    HW139506   4.337   3.701   9.921 -0.8392  0.8169  0.4795
 9349SOL    HW239507   4.299   3.787   9.804  0.5141 -0.6983 -1.8105
 9350SOL     OW39508   4.304   0.896   6.319  0.4449 -0.0857  0.0621
 9350SOL    HW139509   4.249   0.839   6.373  0.3989 -2.0722 -2.0917
 9350SOL    HW239510   4.324   0.845   6.241 -0.0109  0.6213 -0.5153
 9351SOL     OW39511   2.941   0.754  12.031  0.4129 -0.1864  0.3469
 9351SOL    HW139512   2.956   0.659  12.028 -1.2805 -0.5168  1.9240
 9351SOL    HW239513   3.013   0.774  12.091  1.7705  0.3185 -1.4764
 9352SOL     OW39514   0.633   2.965  11.517 -0.2575  0.4399 -0.3386
 9352SOL    HW139515   0.677   2.962  11.432  3.5788 -0.4406  1.6535
 9352SOL    HW239516   0.592   3.052  11.515  0.6826  0.9141  1.1983
 9353SOL     OW39517   0.249   1.843   4.914  0.8692 -0.2831 -0.2600
 9353SOL    HW139518   0.333   1.864   4.954  0.9874  0.9037 -1.1433
 9353SOL    HW239519   0.257   1.748   4.908  0.5695 -0.5562  3.5966
 9354SOL     OW39520   3.287   0.886   1.651  0.3618  0.1886 -0.3009
 9354SOL    HW139521   3.267   0.897   1.744  0.0809 -0.8723 -0.2406
 9354SOL    HW239522   3.311   0.978   1.636  1.1548 -0.4370 -3.0032
 9355SOL     OW39523   4.683   2.706   1.338  0.0274 -0.5991 -0.1749
 9355SOL    HW139524   0.039   2.711   1.392 -0.6364 -0.9780  0.8418
 9355SOL    HW239525   4.648   2.795   1.338  2.0443  0.1948 -1.6373
 9356SOL     OW39526   0.340   0.020   9.362 -0.0068 -0.7023 -0.0517
 9356SOL    HW139527   0.302   4.720   9.277 -0.9004 -0.5479  0.3096
 9356SOL    HW239528   0.270   0.053   9.417  1.3582  0.7592  0.7999
 9357SOL     OW39529   0.209   0.058   6.107  0.2162 -0.1724 -0.3118
 9357SOL    HW139530   0.182   0.015   6.187  0.4145 -2.8933 -1.7207
 9357SOL    HW239531   0.134   0.044   6.049 -2.2932  4.3590  1.8768
 9358SOL     OW39532   4.030   3.505   4.252  0.1836 -0.1748  0.4920
 9358SOL    HW139533   4.061   3.480   4.339  0.2033 -0.2030  0.4772
 9358SOL    HW239534   4.076   3.588   4.240 -1.8892  0.8383 -0.4551
 9359SOL     OW39535   0.401   0.611   6.244 -0.0320 -0.6291 -0.3640
 9359SOL    HW139536   0.467   0.671   6.280 -0.7339  0.8500 -1.5284
 9359SOL    HW239537   0.450   0.551   6.188 -2.0299 -2.7664  0.1924
 9360SOL     OW39538   0.932   3.400  14.150 -0.4159  0.1302 -0.2572
 9360SOL    HW139539   0.867   3.464  14.178  0.4980  0.7771  0.3655
 9360SOL    HW239540   0.921   3.375  14.058 -0.5420  0.4630 -0.3325
 9361SOL     OW39541   2.690   1.702   4.580 -0.4065 -0.1705  0.3122
 9361SOL    HW139542   2.600   1.678   4.601 -0.4391  0.0736  0.4523
 9361SOL    HW239543   2.725   1.694   4.669  0.7920  1.5761  0.0032
 9362SOL     OW39544   2.258   3.877   8.325 -0.2449  0.0755  0.0778
 9362SOL    HW139545   2.326   3.926   8.371  0.7815 -0.1309 -1.2093
 9362SOL    HW239546   2.260   3.790   8.365  0.4785 -0.0562 -0.2400
 9363SOL     OW39547   1.441   3.444   0.241  0.1190 -0.0687  0.0025
 9363SOL    HW139548   1.470   3.414   0.327  0.5114  0.9250  0.2076
 9363SOL    HW239549   1.426   3.537   0.253  0.6188 -0.2078  1.6515
 9364SOL     OW39550   2.363   3.019   9.260  0.2251  0.2625  0.2848
 9364SOL    HW139551   2.397   2.930   9.264  0.3327  0.2542 -0.8658
 9364SOL    HW239552   2.387   3.060   9.344 -0.9274 -0.7826  1.1223
 9365SOL     OW39553   2.506   3.012   4.592  0.1839 -0.2440 -0.0669
 9365SOL    HW139554   2.516   2.948   4.522  0.4610 -0.6808  0.3677
 9365SOL    HW239555   2.594   3.046   4.608  0.4506 -0.8217 -0.3038
 9366SOL     OW39556   1.080   1.355  17.649  0.6169 -0.4008  0.7868
 9366SOL    HW139557   0.991   1.353  17.683  0.9017 -0.8557  1.5063
 9366SOL    HW239558   1.104   1.404   0.032 -0.0268  0.2551  0.5704
 9367SOL     OW39559   2.681   0.755   5.788 -0.3501 -0.1273 -0.3855
 9367SOL    HW139560   2.701   0.826   5.727 -0.2605  1.0775  1.0431
 9367SOL    HW239561   2.642   0.796   5.865  0.0075 -0.4750 -0.0170
 9368SOL     OW39562   4.593   1.534   8.459 -0.1257  0.4166 -0.6003
 9368SOL    HW139563   4.513   1.542   8.408 -1.5384 -2.0872  1.1860
 9368SOL    HW239564   4.589   1.615   8.509 -0.3394 -0.2438  0.4744
 9369SOL     OW39565   3.069   3.697   6.786 -0.2880 -0.1254 -0.4425
 9369SOL    HW139566   2.989   3.741   6.757 -0.9305  0.2383  1.9145
 9369SOL    HW239567   3.028   3.648   6.857 -0.4513  0.2382 -0.2866
 9370SOL     OW39568   0.980   4.607   0.052  0.3698  0.0949 -0.3698
 9370SOL    HW139569   1.069   4.572   0.046 -0.3605 -1.9099  0.3350
 9370SOL    HW239570   0.968   4.625  17.654  0.6250  1.6402 -0.1031
 9371SOL     OW39571   3.641   1.885   9.317 -0.3822 -0.4283 -0.4833
 9371SOL    HW139572   3.637   1.802   9.363 -0.8606 -1.6274 -2.6710
 9371SOL    HW239573   3.634   1.943   9.393  0.5184 -1.0636  0.0829
 9372SOL     OW39574   0.865   0.212  14.986 -0.5514  0.2884 -0.2759
 9372SOL    HW139575   0.910   0.200  14.902  1.1803  0.3440  0.6550
 9372SOL    HW239576   0.820   0.128  14.986  0.0052  0.0019 -2.5572
 9373SOL     OW39577   1.501   2.695   5.548 -0.4727  0.1031  0.2762
 9373SOL    HW139578   1.456   2.664   5.469 -0.5450 -0.3556  0.4974
 9373SOL    HW239579   1.556   2.757   5.501  0.0471 -0.1505  0.5569
 9374SOL     OW39580   3.071   2.100  12.572  0.1894  0.4855  0.7370
 9374SOL    HW139581   3.159   2.062  12.562 -0.3766 -0.3992 -0.8570
 9374SOL    HW239582   3.004   2.032  12.568 -1.0915  1.6536  2.3251
 9375SOL     OW39583   0.786   4.261  11.110  0.2100 -0.1362  0.2586
 9375SOL    HW139584   0.862   4.284  11.163 -0.1539 -0.9183  1.1193
 9375SOL    HW239585   0.819   4.201  11.043 -1.9746  0.8927 -1.7542
 9376SOL     OW39586   2.460   3.057   7.662 -0.2858 -0.0051 -0.4895
 9376SOL    HW139587   2.369   3.058   7.633 -0.4361 -1.7356 -0.0536
 9376SOL    HW239588   2.445   3.080   7.754  2.0121 -2.9731  0.6193
 9377SOL     OW39589   3.360   0.799   5.159 -0.7529  0.0965 -0.4759
 9377SOL    HW139590   3.394   0.733   5.099  0.9793 -0.5289  1.1724
 9377SOL    HW239591   3.379   0.771   5.249  0.2362 -0.3787 -0.8253
 9378SOL     OW39592   2.811   2.292   4.770  0.0541  0.4942 -0.2808
 9378SOL    HW139593   2.717   2.310   4.775  0.3303  1.4330  1.6277
 9378SOL    HW239594   2.815   2.198   4.755 -2.2835  0.0873  1.6900
 9379SOL     OW39595   2.225   3.064  16.960  0.5260 -0.0061  0.0922
 9379SOL    HW139596   2.235   3.064  16.865 -2.3986  2.2433 -0.2067
 9379SOL    HW239597   2.221   2.968  16.966  2.3330  0.1166  3.0712
 9380SOL     OW39598   0.862   2.688   7.142 -0.1733 -0.0180 -0.3950
 9380SOL    HW139599   0.912   2.606   7.141 -0.1588 -0.0016 -1.2635
 9380SOL    HW239600   0.868   2.717   7.051  3.0015 -0.1086 -0.2156
 9381SOL     OW39601   3.397   4.638   9.734 -0.3025  0.2761 -0.4685
 9381SOL    HW139602   3.352   4.599   9.659 -2.9732  1.2320  0.5987
 9381SOL    HW239603   3.489   4.629   9.710 -0.8735 -2.3443 -1.6575
 9382SOL     OW39604   2.765   0.271   4.951 -0.1763  0.0334  0.5834
 9382SOL    HW139605   2.770   0.205   4.883 -3.3540  0.5817 -0.1536
 9382SOL    HW239606   2.714   0.336   4.903  1.1122  1.3977  1.0342
 9383SOL     OW39607   2.010   2.360   6.503  0.4867  0.0241  0.5837
 9383SOL    HW139608   2.026   2.294   6.436  0.7722  0.1602  0.5165
 9383SOL    HW239609   2.023   2.438   6.449  1.9965  0.8599  2.1394
 9384SOL     OW39610   2.779   0.661   9.264 -0.0239 -0.0579  0.0166
 9384SOL    HW139611   2.761   0.584   9.318 -0.1407  0.6486  0.9957
 9384SOL    HW239612   2.694   0.704   9.267 -0.8267 -1.4580 -2.5801
 9385SOL     OW39613   4.672   3.864   3.863 -0.0766  0.1310  0.2480
 9385SOL    HW139614   4.707   3.831   3.780 -1.5454 -1.3367  0.2000
 9385SOL    HW239615   4.693   3.796   3.926  2.4773  1.5357  0.9041
 9386SOL     OW39616   4.181   1.279  10.943  0.1823  0.3492 -0.0800
 9386SOL    HW139617   4.231   1.346  10.990  0.4154  1.0463 -1.3255
 9386SOL    HW239618   4.207   1.289  10.851 -0.4419  0.6075 -0.2284
 9387SOL     OW39619   0.191   3.116   9.991  0.4938 -0.5213  0.0109
 9387SOL    HW139620   0.280   3.124   9.956  0.9353  0.2022  1.3208
 9387SOL    HW239621   0.204   3.045  10.054  1.2024  0.2950  0.7884
 9388SOL     OW39622   3.298   0.513  11.869 -0.1473  0.1504 -0.3068
 9388SOL    HW139623   3.325   0.441  11.926  0.5382  0.2163 -0.5425
 9388SOL    HW239624   3.236   0.471  11.808  1.4485 -2.5826 -0.0435
 9389SOL     OW39625   1.428   3.968   2.151  0.4691  0.0982  0.0400
 9389SOL    HW139626   1.367   4.010   2.091 -0.1999 -0.7585  0.1265
 9389SOL    HW239627   1.460   3.897   2.094  1.6949  0.8246 -0.1818
 9390SOL     OW39628   3.884   3.355   9.357 -0.0263  0.1724  0.3730
 9390SOL    HW139629   3.832   3.364   9.437 -0.9737 -1.5548 -0.0393
 9390SOL    HW239630   3.972   3.372   9.390  1.1798  1.5848 -3.5765
 9391SOL     OW39631   4.114   1.565   5.904  0.0291 -0.0787 -0.1714
 9391SOL    HW139632   4.104   1.576   5.809 -1.3652  0.8438  0.0758
 9391SOL    HW239633   4.039   1.507   5.922  0.2311 -0.2229  0.2023
 9392SOL     OW39634   0.465   2.572   7.985 -0.2233  0.5960  0.4544
 9392SOL    HW139635   0.416   2.577   7.903 -1.3430 -2.7686  0.9209
 9392SOL    HW239636   0.397   2.521   8.028 -0.5894  1.1749  0.5668
 9393SOL     OW39637   1.384   3.479   5.830 -0.1033 -0.0566 -0.4537
 9393SOL    HW139638   1.440   3.524   5.767  0.3720  0.6065  0.4408
 9393SOL    HW239639   1.358   3.402   5.781 -1.2714  0.7499 -1.1071
 9394SOL     OW39640   3.394   2.114   3.859 -0.1685 -0.3343  0.6274
 9394SOL    HW139641   3.450   2.075   3.792  0.5100 -0.7898  1.4555
 9394SOL    HW239642   3.452   2.187   3.883  0.6774 -0.1123 -2.1095
 9395SOL     OW39643   2.764   2.633   9.015 -0.1758 -0.2468  0.0177
 9395SOL    HW139644   2.803   2.556   8.974 -0.5198  0.9033 -2.4747
 9395SOL    HW239645   2.682   2.605   9.054  0.7562  0.8792  2.7964
 9396SOL     OW39646   0.345   3.083   6.474  0.0404 -0.1896  0.0559
 9396SOL    HW139647   0.262   3.113   6.510 -0.3964 -0.8493 -0.4216
 9396SOL    HW239648   0.306   3.048   6.395 -2.2982 -0.8174  1.5023
 9397SOL     OW39649   3.610   2.874   0.688  0.1145 -0.1009  0.4752
 9397SOL    HW139650   3.582   2.852   0.777  0.5771  1.3868  0.9695
 9397SOL    HW239651   3.531   2.900   0.641  1.5504  2.1517 -0.6876
 9398SOL     OW39652   1.430   1.478   2.443 -0.1204 -0.1544  0.7833
 9398SOL    HW139653   1.474   1.563   2.441 -0.7873  0.1224 -1.7959
 9398SOL    HW239654   1.462   1.449   2.529  0.1252  0.5811  0.9400
 9399SOL     OW39655   1.429   3.712   3.581 -0.5893  0.5709 -0.1327
 9399SOL    HW139656   1.519   3.699   3.610 -0.2795  0.5843 -1.0779
 9399SOL    HW239657   1.424   3.645   3.512  0.0463 -0.7835  1.1311
 9400SOL     OW39658   1.601   0.357   2.219 -0.4595 -0.3557 -0.1166
 9400SOL    HW139659   1.694   0.348   2.203 -0.4968 -0.6989 -0.1471
 9400SOL    HW239660   1.577   0.415   2.147 -0.9548  0.4147  0.6608
 9401SOL     OW39661   0.347   3.257   9.536 -0.7338 -0.0465  0.0652
 9401SOL    HW139662   0.334   3.313   9.460  2.3575 -0.5752 -0.8296
 9401SOL    HW239663   0.263   3.211   9.533 -0.3395 -0.6846 -0.7335
 9402SOL     OW39664   1.713   0.730   2.729  0.4199  0.7731  0.9736
 9402SOL    HW139665   1.672   0.782   2.660 -0.7511 -0.6076  0.6301
 9402SOL    HW239666   1.736   0.803   2.786  1.7414  0.7127  0.5309
 9403SOL     OW39667   1.405   1.128   1.547 -0.5504 -0.6938  0.2496
 9403SOL    HW139668   1.477   1.124   1.484 -0.4383  0.1358  0.3274
 9403SOL    HW239669   1.441   1.179   1.619  0.4575 -1.8345  0.5580
 9404SOL     OW39670   3.842   3.598  12.259 -0.2316  0.4477 -0.0250
 9404SOL    HW139671   3.817   3.510  12.231  2.1543 -0.3178  0.1731
 9404SOL    HW239672   3.936   3.588  12.276 -0.6500 -1.6469  1.0134
 9405SOL     OW39673   0.688   4.700   5.372  0.2353 -0.1145 -0.4976
 9405SOL    HW139674   0.672   0.005   5.282  2.0146  1.7736 -0.2114
 9405SOL    HW239675   0.678   4.606   5.357 -0.7149  0.1980 -1.9128
 9406SOL     OW39676   4.015   0.653   6.720  0.2997  0.5237 -0.1517
 9406SOL    HW139677   4.096   0.603   6.732 -0.3206 -0.5780 -0.5746
 9406SOL    HW239678   4.050   0.741   6.706  1.5864  0.3838  2.1987
 9407SOL     OW39679   1.625   3.729   4.203 -0.6041  0.6558 -0.2494
 9407SOL    HW139680   1.585   3.669   4.266 -2.2670  0.8128 -1.1597
 9407SOL    HW239681   1.565   3.802   4.214  0.8175  2.3492 -3.7160
 9408SOL     OW39682   1.061   3.593  12.110  0.3963 -0.1441  0.0092
 9408SOL    HW139683   1.064   3.514  12.056  0.1850 -0.6127  0.6742
 9408SOL    HW239684   0.971   3.593  12.143  0.4259 -0.0693  0.0904
 9409SOL     OW39685   3.663   2.650   9.514  0.1683 -0.3198  0.1489
 9409SOL    HW139686   3.676   2.700   9.595 -0.5549  0.0506  0.0306
 9409SOL    HW239687   3.749   2.647   9.472  0.1120 -2.4020  0.1931
 9410SOL     OW39688   3.614   1.829  14.489  0.0593 -0.3303 -0.3012
 9410SOL    HW139689   3.583   1.782  14.566  0.4785  0.3280  0.2657
 9410SOL    HW239690   3.568   1.779  14.422  2.4211 -0.3808 -1.8799
 9411SOL     OW39691   1.015   0.067   7.254 -0.1937 -0.4480 -0.0854
 9411SOL    HW139692   1.012   0.040   7.346  2.0269  0.9791  0.4212
 9411SOL    HW239693   1.053   4.715   7.209 -0.9561 -0.1669 -1.1734
 9412SOL     OW39694   4.496   1.586   4.516  0.2117 -0.0918  0.7932
 9412SOL    HW139695   4.447   1.575   4.435 -1.0099 -2.1272  1.8030
 9412SOL    HW239696   4.503   1.681   4.516 -0.0897 -0.0758  1.8044
 9413SOL     OW39697   3.055   1.194   2.018 -0.0680  0.4863 -0.0872
 9413SOL    HW139698   3.132   1.208   2.073  0.8566  1.9003 -1.7554
 9413SOL    HW239699   3.068   1.260   1.950 -1.8182 -0.2417 -1.1325
 9414SOL     OW39700   1.872   3.495   2.948 -0.3700 -0.1987  0.4462
 9414SOL    HW139701   1.963   3.471   2.960 -0.2268  1.4233  2.6850
 9414SOL    HW239702   1.867   3.566   3.013 -1.5811  0.7689 -0.7014
 9415SOL     OW39703   0.090   0.399   0.588 -0.2981 -0.0015  0.0305
 9415SOL    HW139704   0.085   0.494   0.593 -0.6526  0.1019 -1.9742
 9415SOL    HW239705   0.034   0.370   0.660 -1.9582 -0.9724 -1.6478
 9416SOL     OW39706   4.184   3.058   3.662  0.2553 -0.3360  0.0115
 9416SOL    HW139707   4.094   3.026   3.672  1.2008 -2.2878  2.4395
 9416SOL    HW239708   4.225   2.972   3.652 -1.6371 -1.7161  3.9705
 9417SOL     OW39709   3.627   0.677   6.887  0.0036  0.1978 -0.8257
 9417SOL    HW139710   3.672   0.761   6.898 -1.4397  1.0606 -1.4560
 9417SOL    HW239711   3.553   0.687   6.947 -0.1487  0.8315 -1.1244
 9418SOL     OW39712   3.476   1.788  10.969  0.0607  0.7076  0.6632
 9418SOL    HW139713   3.413   1.741  11.025 -0.6951  0.6767 -0.2050
 9418SOL    HW239714   3.550   1.780  11.029  0.9408 -0.6966 -0.5950
 9419SOL     OW39715   0.484   3.907   5.778  0.7117  0.1459 -0.1100
 9419SOL    HW139716   0.514   3.930   5.690 -0.3027 -0.9283 -0.7487
 9419SOL    HW239717   0.393   3.902   5.749  1.1985 -0.7219 -1.4830
 9420SOL     OW39718   1.169   0.351   7.079  0.4523  0.0787 -0.6688
 9420SOL    HW139719   1.141   0.439   7.053 -1.6431 -0.0852  1.0502
 9420SOL    HW239720   1.125   0.286   7.024 -1.3780  0.9948 -0.2748
 9421SOL     OW39721   0.874   3.326  10.925 -0.4643 -0.3840  0.5559
 9421SOL    HW139722   0.943   3.372  10.877  0.2560 -0.8711  1.1122
 9421SOL    HW239723   0.821   3.403  10.946  1.8102  1.3023  0.1016
 9422SOL     OW39724   3.457   0.757   7.091  0.2675  0.2355 -0.5714
 9422SOL    HW139725   3.510   0.811   7.150  1.3584 -2.3292  0.8136
 9422SOL    HW239726   3.426   0.687   7.148  0.7475 -0.7103 -1.4720
 9423SOL     OW39727   2.698   4.007   8.304 -0.1401  0.1631  0.1732
 9423SOL    HW139728   2.788   4.032   8.325 -0.2222 -0.2934  1.0629
 9423SOL    HW239729   2.694   4.038   8.214 -0.5229 -0.8643 -0.1561
 9424SOL     OW39730   3.702   3.288   2.129  0.4195 -0.3779  0.1678
 9424SOL    HW139731   3.671   3.202   2.159  3.7118 -1.0620  1.6375
 9424SOL    HW239732   3.625   3.342   2.147  1.4992  1.3350 -0.3546
 9425SOL     OW39733   1.566   1.236   1.747  0.3777 -0.1760  0.5754
 9425SOL    HW139734   1.637   1.223   1.810 -0.0182 -2.1806  0.5967
 9425SOL    HW239735   1.612   1.290   1.683 -0.4578  1.7498  1.5693
 9426SOL     OW39736   3.376   0.965   7.827  0.4190 -0.4013 -0.0443
 9426SOL    HW139737   3.457   0.971   7.777 -0.6098 -0.1326 -1.7051
 9426SOL    HW239738   3.382   0.872   7.847  1.2474 -0.2313  0.4865
 9427SOL     OW39739   4.651   1.413   4.842 -0.0729  0.3463 -0.8215
 9427SOL    HW139740   4.632   1.507   4.847 -2.5715 -0.0300 -3.2233
 9427SOL    HW239741   4.687   1.406   4.754 -1.5377 -0.2721 -1.3716
 9428SOL     OW39742   1.074   1.745   2.874  0.0715  0.2012  0.3399
 9428SOL    HW139743   0.998   1.732   2.817 -0.4610  1.8783  0.6727
 9428SOL    HW239744   1.041   1.776   2.958 -1.8057 -0.1438 -0.2682
 9429SOL     OW39745   2.318   1.585   4.847 -0.1986  0.2646 -0.5284
 9429SOL    HW139746   2.266   1.665   4.839 -2.5575 -1.4254 -2.0087
 9429SOL    HW239747   2.372   1.610   4.923 -0.4332  0.3559 -0.3921
 9430SOL     OW39748   3.967   4.201  10.357  0.0157 -0.4017  0.0568
 9430SOL    HW139749   3.909   4.132  10.325  0.1096  0.1315 -1.2809
 9430SOL    HW239750   4.026   4.200  10.282 -1.0542 -3.8223 -0.7671
 9431SOL     OW39751   2.557   3.949   6.609  0.2638 -0.1438  0.1476
 9431SOL    HW139752   2.624   3.931   6.675  0.8414 -0.4509 -0.5249
 9431SOL    HW239753   2.528   4.039   6.626 -0.0166 -0.3215  0.6153
 9432SOL     OW39754   0.800   0.092  15.329  0.1030 -0.3424 -0.5004
 9432SOL    HW139755   0.712   0.126  15.348 -0.9223 -1.0448 -3.9657
 9432SOL    HW239756   0.853   0.159  15.371 -0.3671  0.6733 -1.5354
 9433SOL     OW39757   4.064   2.293   8.661  0.0374 -0.3709 -0.4967
 9433SOL    HW139758   4.032   2.369   8.710  3.4060  1.9919 -1.9565
 9433SOL    HW239759   4.143   2.273   8.712 -0.2538 -2.0084 -0.6906
 9434SOL     OW39760   3.835   1.380   4.615  0.0221  0.9032 -0.3356
 9434SOL    HW139761   3.924   1.410   4.593 -0.0656  0.0046 -1.8901
 9434SOL    HW239762   3.853   1.293   4.649 -0.9833  1.0488  0.5560
 9435SOL     OW39763   2.209   4.430   7.776  0.5755 -0.0186 -0.1217
 9435SOL    HW139764   2.294   4.442   7.819  0.0971  1.3893  0.4450
 9435SOL    HW239765   2.187   4.353   7.828 -0.4199  0.0504 -0.4497
 9436SOL     OW39766   4.452   0.144   7.628  0.1006 -0.2365  0.1833
 9436SOL    HW139767   4.462   0.233   7.659 -0.0602 -0.7478  1.7093
 9436SOL    HW239768   4.544   0.128   7.607  0.2800 -1.5266  1.9048
 9437SOL     OW39769   1.234   4.458  17.683 -0.2332  0.0259  0.0925
 9437SOL    HW139770   1.214   4.413  17.600 -1.5880  2.1671 -0.7445
 9437SOL    HW239771   1.310   4.506  17.651 -0.7350  0.9414  0.2748
 9438SOL     OW39772   3.335   1.114  15.364  0.0108  0.2004 -0.6215
 9438SOL    HW139773   3.283   1.046  15.407  1.4893  0.6129  1.8290
 9438SOL    HW239774   3.426   1.086  15.369 -0.0952  0.1784  1.4534
 9439SOL     OW39775   2.336   2.022   6.001 -0.5748 -0.1002  0.4354
 9439SOL    HW139776   2.346   2.058   6.089 -1.3015 -0.3307  0.6173
 9439SOL    HW239777   2.242   2.019   6.018 -0.6243 -0.0085  0.1742
 9440SOL     OW39778   4.392   1.876   2.294 -0.2030 -0.0468  0.5356
 9440SOL    HW139779   4.451   1.878   2.218 -2.0194 -0.7919 -0.9107
 9440SOL    HW239780   4.400   1.786   2.323 -2.9741 -0.5613 -0.2979
 9441SOL     OW39781   0.150   1.965   7.685 -0.6173  0.2560 -0.0183
 9441SOL    HW139782   0.202   1.975   7.764 -0.1636 -1.8045 -0.0617
 9441SOL    HW239783   0.211   1.943   7.615 -1.4402 -2.0173 -0.0290
 9442SOL     OW39784   1.774   0.107   8.451 -0.3605 -0.3600 -0.5007
 9442SOL    HW139785   1.850   0.123   8.394 -0.4571 -1.3467 -0.9173
 9442SOL    HW239786   1.723   0.056   8.388  1.5448 -1.5256 -1.1224
 9443SOL     OW39787   2.162   0.613   5.353 -0.0543 -0.5932  0.3308
 9443SOL    HW139788   2.136   0.681   5.291 -0.3666 -2.5293 -1.6301
 9443SOL    HW239789   2.248   0.648   5.377  0.0904 -0.7293  0.0080
 9444SOL     OW39790   4.265   0.453   9.425  0.0659  0.4895 -0.3094
 9444SOL    HW139791   4.175   0.485   9.413  0.1724  0.8739 -0.0812
 9444SOL    HW239792   4.289   0.499   9.505 -2.1020  2.9154 -1.0407
 9445SOL     OW39793   1.855   3.161   4.208 -0.1696 -0.2570  0.7427
 9445SOL    HW139794   1.854   3.079   4.256  1.1066  0.4135  1.8846
 9445SOL    HW239795   1.844   3.229   4.274  0.4334 -0.3671  0.9477
 9446SOL     OW39796   0.078   2.937   6.926 -0.0334 -0.2933  0.0219
 9446SOL    HW139797   0.152   2.891   6.886 -0.7236  0.4314 -2.1149
 9446SOL    HW239798   0.073   2.901   7.014  1.1671  0.2052  0.3031
 9447SOL     OW39799   4.171   0.145   4.732 -0.1535 -0.5182  0.1156
 9447SOL    HW139800   4.095   0.114   4.782 -0.9368 -1.0587 -1.4287
 9447SOL    HW239801   4.134   0.220   4.687 -2.1201 -0.7386  1.3699
 9448SOL     OW39802   4.573   1.240   7.360  0.3308  0.2781  0.6673
 9448SOL    HW139803   4.597   1.178   7.428 -0.4491  0.2271  0.8979
 9448SOL    HW239804   4.555   1.313   7.419 -0.0075  1.6617 -1.1475
 9449SOL     OW39805   0.428   3.035   5.990 -0.0137  0.2416 -0.2528
 9449SOL    HW139806   0.371   3.108   6.014 -1.4414 -0.2662 -2.0201
 9449SOL    HW239807   0.437   2.981   6.069 -1.9714 -0.6185 -0.6054
 9450SOL     OW39808   3.418   3.332  11.161 -0.2066 -0.4933 -0.0989
 9450SOL    HW139809   3.455   3.346  11.074  1.3776 -2.7825  0.1963
 9450SOL    HW239810   3.348   3.397  11.162 -1.6194 -2.0027 -1.4004
 9451SOL     OW39811   1.067   2.195  15.981  0.7474  0.2941 -0.2335
 9451SOL    HW139812   0.990   2.152  16.019  0.7809 -1.8959 -2.6364
 9451SOL    HW239813   1.106   2.224  16.064 -1.2842 -2.3682  1.6589
 9452SOL     OW39814   1.499   4.287  15.698  0.1716  0.3689  0.1609
 9452SOL    HW139815   1.504   4.359  15.635 -0.1566 -0.2813 -0.6086
 9452SOL    HW239816   1.485   4.336  15.778 -3.0581 -0.3659  0.0174
 9453SOL     OW39817   1.942   1.466  11.472  0.0232 -0.0502 -0.1760
 9453SOL    HW139818   1.921   1.509  11.389  0.8785 -0.8571 -0.8083
 9453SOL    HW239819   1.874   1.485  11.537 -0.7475 -0.2774 -0.9323
 9454SOL     OW39820   2.653   3.579   7.083  0.4967 -0.2091  0.0781
 9454SOL    HW139821   2.651   3.568   7.178  0.6434 -0.5198  0.0447
 9454SOL    HW239822   2.747   3.581   7.064  0.2355 -0.7419 -1.2378
 9455SOL     OW39823   4.707   3.335   0.218  0.4521 -0.3190 -0.4072
 9455SOL    HW139824   4.615   3.343   0.242  0.4662 -1.5157  0.0261
 9455SOL    HW239825   0.004   3.420   0.178 -2.9127  0.6179 -0.1763
 9456SOL     OW39826   1.346   1.766   5.196 -0.5176 -0.0202 -0.4413
 9456SOL    HW139827   1.436   1.799   5.199 -0.7011  0.5081 -0.8369
 9456SOL    HW239828   1.306   1.852   5.208 -0.6799 -0.2155  0.4139
 9457SOL     OW39829   1.041   1.809   9.276  0.8308 -0.6255  0.2010
 9457SOL    HW139830   0.969   1.868   9.252 -1.2801 -2.9057  0.9337
 9457SOL    HW239831   1.009   1.730   9.233 -1.6596  0.3493  0.2488
 9458SOL     OW39832   1.327   2.856   4.007 -0.3001 -0.0528 -0.3814
 9458SOL    HW139833   1.411   2.855   4.053 -1.2763 -0.0017  1.4196
 9458SOL    HW239834   1.342   2.910   3.929 -1.9017  0.3044 -0.4509
 9459SOL     OW39835   4.563   0.825   9.426  0.0464  0.4658 -0.7692
 9459SOL    HW139836   4.488   0.789   9.473  1.1577 -1.3232 -0.3563
 9459SOL    HW239837   4.572   0.901   9.482  3.5024 -0.9491  0.6342
 9460SOL     OW39838   3.919   2.450   3.300 -0.0446  0.1854 -0.0917
 9460SOL    HW139839   3.929   2.443   3.205  2.3282  1.4424  0.0659
 9460SOL    HW239840   3.856   2.522   3.310 -0.5055 -0.3458  0.8977
 9461SOL     OW39841   1.444   3.593  15.445  0.6253  0.1478 -0.0116
 9461SOL    HW139842   1.383   3.665  15.435  0.8848  0.1599 -1.4593
 9461SOL    HW239843   1.436   3.585  15.540 -1.0266 -2.2949 -0.3649
 9462SOL     OW39844   3.693   1.432   7.414 -0.2074 -0.1982 -0.0560
 9462SOL    HW139845   3.611   1.476   7.434  1.8581  4.0829 -0.9393
 9462SOL    HW239846   3.752   1.464   7.483 -0.8514 -0.5403  0.6560
 9463SOL     OW39847   4.072   1.703   3.429  0.1857 -0.1785 -0.3188
 9463SOL    HW139848   3.988   1.672   3.395 -0.2379 -0.1589  0.6979
 9463SOL    HW239849   4.126   1.660   3.363  1.2288  2.8920 -1.4455
 9464SOL     OW39850   0.865   3.182  12.833  0.2436 -0.4869 -0.8720
 9464SOL    HW139851   0.825   3.156  12.916 -0.2268  0.7889 -0.7004
 9464SOL    HW239852   0.942   3.126  12.833 -0.8815 -2.0379 -2.1932
 9465SOL     OW39853   2.260   1.935   7.200 -0.2071  0.2495  0.0672
 9465SOL    HW139854   2.204   1.986   7.143 -0.1214  0.2814  0.0115
 9465SOL    HW239855   2.269   1.853   7.152  0.3709  0.3163  0.0624
 9466SOL     OW39856   1.577   2.817  16.884 -0.3657 -0.6266 -0.2256
 9466SOL    HW139857   1.586   2.910  16.863  1.1732 -1.2249 -2.2448
 9466SOL    HW239858   1.666   2.799  16.914 -0.2607  0.6397  0.2162
 9467SOL     OW39859   0.931   4.483   9.845  0.2846  0.2280 -0.0143
 9467SOL    HW139860   0.994   4.436   9.900 -0.3270 -0.9259 -0.3038
 9467SOL    HW239861   0.929   4.414   9.779 -0.9187 -3.1850  3.5970
 9468SOL     OW39862   3.417   3.413   4.014  0.1872  0.0830 -0.0019
 9468SOL    HW139863   3.351   3.356   4.053  1.3492 -0.6760  0.8772
 9468SOL    HW239864   3.406   3.414   3.919  0.5158  0.3418 -0.0389
 9469SOL     OW39865   1.537   1.816   7.483 -0.0836  0.9533 -0.3620
 9469SOL    HW139866   1.482   1.851   7.413  0.0030 -0.6688 -1.2511
 9469SOL    HW239867   1.568   1.736   7.438 -1.6643  0.6962 -0.9923
 9470SOL     OW39868   0.805   3.918   1.954 -0.3120  0.1621 -0.1522
 9470SOL    HW139869   0.815   3.922   1.859  0.7877 -1.2667 -0.1023
 9470SOL    HW239870   0.855   3.839   1.974  0.8238  1.2600  1.3445
 9471SOL     OW39871   1.001   3.790  10.882 -0.6100  0.5467 -0.7338
 9471SOL    HW139872   1.003   3.859  10.948  0.5004  0.3822 -0.5822
 9471SOL    HW239873   0.916   3.803  10.841 -1.3265  1.2253  0.9854
 9472SOL     OW39874   3.066   1.541   9.914 -0.1589  0.2512  0.1361
 9472SOL    HW139875   2.974   1.515   9.909  0.4881 -1.8816 -0.6719
 9472SOL    HW239876   3.092   1.537   9.822 -1.3413 -2.0180 -0.1158
 9473SOL     OW39877   3.337   3.868   4.373 -0.0183 -0.0422 -0.0409
 9473SOL    HW139878   3.314   3.915   4.293 -1.0856  0.8279  0.7873
 9473SOL    HW239879   3.374   3.784   4.344  2.1827  1.6031 -1.9655
 9474SOL     OW39880   3.664   1.515   4.829  0.2333  0.8441  0.0825
 9474SOL    HW139881   3.737   1.559   4.872  0.3467  0.5335  0.2098
 9474SOL    HW239882   3.714   1.481   4.755 -2.7752 -0.9560 -1.1206
 9475SOL     OW39883   1.831   0.287   2.453  0.5226 -0.5265  0.1608
 9475SOL    HW139884   1.811   0.354   2.519  0.1553  0.2736 -0.7721
 9475SOL    HW239885   1.757   0.228   2.468 -0.9279  0.9564 -1.2411
 9476SOL     OW39886   2.554   4.234   2.562  0.2910  0.0985 -0.1882
 9476SOL    HW139887   2.563   4.305   2.499 -1.0405  0.3136 -0.1406
 9476SOL    HW239888   2.466   4.196   2.554 -0.0269  0.9903 -0.8591
 9477SOL     OW39889   1.734   3.147   0.840  0.1821  0.4885 -0.0354
 9477SOL    HW139890   1.793   3.110   0.774  1.7838 -0.5427  1.9643
 9477SOL    HW239891   1.646   3.135   0.807  0.2594 -0.1587  0.0005
 9478SOL     OW39892   4.623   1.307   5.889  0.1396  0.2374  0.3145
 9478SOL    HW139893   4.539   1.315   5.934 -0.3071 -0.2100 -0.4280
 9478SOL    HW239894   4.613   1.213   5.877  1.5515  0.1303 -0.0151
 9479SOL     OW39895   0.157   4.516   3.937 -0.0146  0.3166  0.6935
 9479SOL    HW139896   0.142   4.429   3.898 -0.1614  0.8049 -0.3483
 9479SOL    HW239897   0.102   4.502   4.014 -0.4245 -0.8227  0.1949
 9480SOL     OW39898   2.815   3.641   4.006 -0.3543  0.5648  0.1578
 9480SOL    HW139899   2.789   3.592   4.084 -0.0299  0.2566  0.0702
 9480SOL    HW239900   2.821   3.568   3.945  0.8422 -2.4248  3.8765
 9481SOL     OW39901   3.595   1.030   2.661 -0.3405 -0.1267 -0.4630
 9481SOL    HW139902   3.621   0.939   2.649  0.9330  0.2207 -0.3563
 9481SOL    HW239903   3.601   1.073   2.575  1.8693  0.6638  0.0672
 9482SOL     OW39904   0.746   3.251  15.965  0.4051 -0.5138 -0.5067
 9482SOL    HW139905   0.840   3.266  15.972  0.0214  0.4175  2.4771
 9482SOL    HW239906   0.738   3.296  15.881  3.3241 -1.8086 -1.4800
 9483SOL     OW39907   2.987   0.462   6.214  0.6741 -0.1414 -0.4398
 9483SOL    HW139908   3.035   0.539   6.244  1.0898  0.4162 -2.5302
 9483SOL    HW239909   3.024   0.437   6.130 -0.6719  0.4837 -1.2213
 9484SOL     OW39910   2.021   0.894   2.835 -0.1362  0.3907  0.2479
 9484SOL    HW139911   1.928   0.895   2.812 -0.2725  2.7646  0.9208
 9484SOL    HW239912   2.057   0.944   2.762  1.2242  0.9630  1.3185
 9485SOL     OW39913   1.356   2.938   2.946  0.3079 -0.3809  0.1664
 9485SOL    HW139914   1.339   2.849   2.979  0.6764 -0.3679  0.3893
 9485SOL    HW239915   1.406   2.911   2.870  2.5039  0.2556  1.3925
 9486SOL     OW39916   0.059   3.784   0.272 -0.4514  0.2429 -0.1765
 9486SOL    HW139917   0.094   3.864   0.313 -2.9729 -0.0302  2.4623
 9486SOL    HW239918   4.697   3.777   0.314 -0.7234  0.8259 -0.6261
 9487SOL     OW39919   0.990   2.260  13.741  0.9433 -0.0654  0.0870
 9487SOL    HW139920   1.058   2.301  13.794  0.2672  1.7046 -0.4216
 9487SOL    HW239921   0.917   2.242  13.801 -0.8076  0.5014 -1.8761
 9488SOL     OW39922   1.243   4.102  14.609  0.7461 -0.0145 -0.1418
 9488SOL    HW139923   1.180   4.032  14.591  0.6976  0.1762 -0.7262
 9488SOL    HW239924   1.205   4.148  14.684  2.1188  1.8036 -0.5568
 9489SOL     OW39925   0.039   4.199   1.652  0.2346  0.2067 -0.2488
 9489SOL    HW139926   0.078   4.190   1.564  3.3313 -0.9013  1.2451
 9489SOL    HW239927   0.063   4.285   1.686  3.0058 -0.1358 -1.3480
 9490SOL     OW39928   3.212   4.309  14.142 -0.6480  0.2829  0.0546
 9490SOL    HW139929   3.168   4.302  14.227  0.4367 -1.8239  0.4473
 9490SOL    HW239930   3.203   4.221  14.105 -1.8705  0.3110  0.2679
 9491SOL     OW39931   4.119   4.377   8.478 -0.0718 -0.6740  0.1382
 9491SOL    HW139932   4.115   4.283   8.495 -1.2040 -0.6380  0.0850
 9491SOL    HW239933   4.213   4.392   8.490 -0.2367 -0.3285  0.9548
 9492SOL     OW39934   2.154   1.845   2.067 -0.4047  0.3113  0.0953
 9492SOL    HW139935   2.222   1.877   2.127  3.8517 -0.0680 -4.5522
 9492SOL    HW239936   2.165   1.750   2.057 -0.8574  0.3210 -0.4831
 9493SOL     OW39937   0.651   2.345   2.943  0.2005 -0.8319 -0.0728
 9493SOL    HW139938   0.730   2.356   2.890 -0.9134  0.2614 -1.5144
 9493SOL    HW239939   0.599   2.297   2.878 -0.7130 -1.6238  1.2415
 9494SOL     OW39940   3.043   0.560   6.512  0.3645 -0.0543 -0.6293
 9494SOL    HW139941   3.055   0.468   6.490 -2.4671 -0.1386 -1.8042
 9494SOL    HW239942   3.075   0.565   6.602  1.6363 -1.6482 -0.9989
 9495SOL     OW39943   2.701   1.037  11.719 -0.0726  0.7465 -0.5966
 9495SOL    HW139944   2.650   0.965  11.755 -0.7493  2.2529  1.4806
 9495SOL    HW239945   2.686   1.107  11.782 -0.1879 -0.3474  0.5765
 9496SOL     OW39946   1.138   3.725   3.825 -0.3037  0.0183  0.0853
 9496SOL    HW139947   1.087   3.805   3.813  0.9695  0.9101  0.5765
 9496SOL    HW239948   1.066   3.667   3.848  0.6516  0.2141  3.4987
 9497SOL     OW39949   1.557   0.594   4.237 -0.4441 -0.0774 -0.0165
 9497SOL    HW139950   1.589   0.540   4.165 -0.1972  1.3493 -0.9585
 9497SOL    HW239951   1.481   0.538   4.255  0.2709 -1.2909 -0.7815
 9498SOL     OW39952   2.478   4.484   5.139  0.3836  0.2515 -0.4655
 9498SOL    HW139953   2.520   4.569   5.122 -1.2244  1.4999  1.7028
 9498SOL    HW239954   2.413   4.498   5.208 -1.5436 -0.1639 -2.2210
 9499SOL     OW39955   1.358   4.631   7.674 -0.1647  0.0277  0.1151
 9499SOL    HW139956   1.341   4.654   7.582  0.0692 -0.7363 -0.1206
 9499SOL    HW239957   1.280   4.585   7.702  0.2721  0.8451  2.6771
 9500SOL     OW39958   1.948   4.486   4.402 -0.3401  0.0818  0.5310
 9500SOL    HW139959   1.980   4.542   4.472  0.3972 -0.1593  0.3861
 9500SOL    HW239960   1.930   4.543   4.327 -1.3174  0.6573  1.2051
 9501SOL     OW39961   3.165   1.930   8.026 -0.3147 -0.3643 -0.0781
 9501SOL    HW139962   3.137   2.005   8.079 -1.7440 -1.6248  0.9321
 9501SOL    HW239963   3.116   1.956   7.948 -1.6319  0.1468  0.9289
 9502SOL     OW39964   2.482   3.752  16.499 -0.0828 -0.7610  0.1571
 9502SOL    HW139965   2.512   3.843  16.509  1.8704 -1.4604  0.5658
 9502SOL    HW239966   2.411   3.769  16.437 -1.3207 -0.5020  1.6438
 9503SOL     OW39967   0.690   4.617  14.826  0.0188  0.2331 -0.3381
 9503SOL    HW139968   0.717   4.655  14.742  1.0994 -1.8208 -0.9299
 9503SOL    HW239969   0.604   4.656  14.836 -0.0290 -0.2346  0.9958
 9504SOL     OW39970   3.924   0.272   1.353 -0.0627  0.0924 -0.3596
 9504SOL    HW139971   3.971   0.351   1.328  0.5125  0.0313  0.5011
 9504SOL    HW239972   3.943   0.211   1.282  0.8297  2.6633 -2.3323
 9505SOL     OW39973   0.933   1.833  14.455 -0.0635  0.4234  0.2969
 9505SOL    HW139974   0.875   1.828  14.531 -1.0441  0.5384 -0.4400
 9505SOL    HW239975   0.879   1.805  14.381 -0.3574 -0.9915  1.0466
 9506SOL     OW39976   1.354   0.175   4.067  0.6189 -0.6421  0.4796
 9506SOL    HW139977   1.292   0.234   4.110 -0.4637 -0.4410 -1.3617
 9506SOL    HW239978   1.296   0.099   4.063  0.1008 -0.2613  0.7958
 9507SOL     OW39979   3.296   1.656   8.588 -0.1966  0.4344  0.8251
 9507SOL    HW139980   3.276   1.700   8.671  0.2162  1.7694  0.2236
 9507SOL    HW239981   3.239   1.713   8.536  0.3149 -0.9300 -1.1868
 9508SOL     OW39982   2.188   4.456   1.962 -0.2836  0.2873 -0.0004
 9508SOL    HW139983   2.147   4.408   1.890  1.7266  1.4197 -1.9043
 9508SOL    HW239984   2.263   4.405   1.994 -2.4253 -1.6721  1.9186
 9509SOL     OW39985   1.944   2.312   1.952  0.1574  0.4219 -0.5824
 9509SOL    HW139986   2.010   2.247   1.930  0.2058  0.3301 -0.1451
 9509SOL    HW239987   1.979   2.379   1.893 -1.1341 -0.7586 -2.7179
 9510SOL     OW39988   3.225   1.021  17.253  0.3916 -0.2223  0.4304
 9510SOL    HW139989   3.248   1.043  17.343 -1.2258  0.0340  0.7761
 9510SOL    HW239990   3.176   1.097  17.223  0.7366  0.6292  2.0135
 9511SOL     OW39991   2.775   0.677   7.497  0.0590 -0.3985 -0.5046
 9511SOL    HW139992   2.705   0.681   7.562  0.2254  1.7267 -0.4498
 9511SOL    HW239993   2.719   0.625   7.439 -0.4881 -1.2009  0.7365
 9512SOL     OW39994   4.520   4.568  16.955 -0.1874 -0.8513  0.2815
 9512SOL    HW139995   4.444   4.611  16.915 -1.1217  0.0140  2.9817
 9512SOL    HW239996   4.578   4.554  16.881  0.5422  2.9840  0.1254
 9513SOL     OW39997   0.642   3.331  11.207 -0.3737  0.1216  0.1589
 9513SOL    HW139998   0.555   3.294  11.222 -0.4684  0.8358  1.4090
 9513SOL    HW239999   0.693   3.300  11.282 -1.2261  0.4967  0.9098
 9514SOL     OW40000   4.651   4.359   2.271 -0.0788 -0.3967 -0.1953
 9514SOL    HW140001   4.645   4.267   2.246  2.3549 -0.6616  0.1600
 9514SOL    HW240002   4.559   4.368   2.295  0.3737 -1.4238  1.9856
 9515SOL     OW40003   3.384   0.510  10.264 -0.1191 -0.5271 -0.1293
 9515SOL    HW140004   3.360   0.557  10.344  1.9805  0.4440 -0.0703
 9515SOL    HW240005   3.354   0.421  10.277 -1.2964 -0.0410  0.4428
 9516SOL     OW40006   4.374   3.473  11.474 -0.7346 -0.3805  0.0104
 9516SOL    HW140007   4.450   3.523  11.502  1.2160 -2.0074 -2.4609
 9516SOL    HW240008   4.397   3.458  11.383  1.3050  0.5798  0.3664
 9517SOL     OW40009   3.489   1.040   6.833  0.3383 -0.0881  0.1134
 9517SOL    HW140010   3.495   0.945   6.819  0.0041 -0.1414  0.3180
 9517SOL    HW240011   3.574   1.063   6.795 -0.3792  0.1781 -1.3370
 9518SOL     OW40012   2.837   3.795   4.996  0.0793 -0.1890  0.0437
 9518SOL    HW140013   2.843   3.756   5.084 -1.5405  1.4366  0.8771
 9518SOL    HW240014   2.753   3.759   4.969  0.0268  0.2298 -0.3331
 9519SOL     OW40015   2.634   4.388   7.344  0.5000  0.3625  0.1352
 9519SOL    HW140016   2.641   4.342   7.428  1.9902 -0.1145 -0.2526
 9519SOL    HW240017   2.728   4.402   7.336  0.4729  1.3910  1.7346
 9520SOL     OW40018   1.955   4.467   6.328  0.1631 -0.2381 -0.7148
 9520SOL    HW140019   1.992   4.553   6.306 -2.3333  1.5258  1.9976
 9520SOL    HW240020   2.040   4.430   6.352  0.1299  1.2910  1.7304
 9521SOL     OW40021   3.275   2.439   9.945  0.0171  0.7308  0.0888
 9521SOL    HW140022   3.316   2.524   9.958  0.6101  0.3338  0.8403
 9521SOL    HW240023   3.306   2.388  10.020  0.7604  2.8500  1.1995
 9522SOL     OW40024   0.229   1.460   6.326  0.4022 -0.6468 -0.2770
 9522SOL    HW140025   0.254   1.453   6.418  3.0013  0.1908 -0.9142
 9522SOL    HW240026   0.269   1.380   6.293  0.8336 -0.2995 -0.6024
 9523SOL     OW40027   0.580   1.575   9.836 -0.1329 -0.2862  0.0096
 9523SOL    HW140028   0.598   1.568   9.930  2.5980  0.2921 -0.4766
 9523SOL    HW240029   0.667   1.565   9.799 -0.0752 -0.8219  0.2967
 9524SOL     OW40030   3.238   2.361   3.840  0.1235  0.0079  0.0005
 9524SOL    HW140031   3.157   2.374   3.791  0.2805 -0.8485 -0.4870
 9524SOL    HW240032   3.239   2.266   3.845  0.7149  0.0342  0.4491
 9525SOL     OW40033   4.665   4.572   3.376 -0.0981 -0.2525  0.4715
 9525SOL    HW140034   4.673   4.667   3.368  0.0384 -0.1485  1.9293
 9525SOL    HW240035   4.570   4.560   3.385 -0.1442 -0.1676  0.1270
 9526SOL     OW40036   1.079   3.626  13.374 -0.2164 -0.3160 -0.0001
 9526SOL    HW140037   1.061   3.669  13.290 -1.0686  0.3831  0.5320
 9526SOL    HW240038   1.067   3.701  13.433  0.5084 -0.6083  0.5137
 9527SOL     OW40039   1.828   3.610   7.014 -0.4239 -0.5355  0.4922
 9527SOL    HW140040   1.880   3.538   7.051  2.8549  1.8304  0.5444
 9527SOL    HW240041   1.840   3.596   6.919  1.5140 -1.0957  0.8056
 9528SOL     OW40042   2.581   2.852   4.381  0.3727  0.3054 -0.0085
 9528SOL    HW140043   2.504   2.808   4.347 -0.9405  1.8238  1.0332
 9528SOL    HW240044   2.629   2.787   4.432  1.0270  0.0755 -0.9017
 9529SOL     OW40045   0.392   3.629   4.856  0.7216 -0.1373 -0.1892
 9529SOL    HW140046   0.449   3.705   4.868 -0.8162  0.9434  0.2578
 9529SOL    HW240047   0.333   3.646   4.929  2.6207  2.0644  0.8424
 9530SOL     OW40048   2.078   1.869   3.035 -0.3799 -0.1413 -0.3470
 9530SOL    HW140049   2.126   1.926   2.975 -0.2927 -1.2057 -1.2878
 9530SOL    HW240050   2.021   1.931   3.081  1.4867  0.2746  1.4254
 9531SOL     OW40051   3.027   2.025   6.716 -0.5628  0.1435 -0.4569
 9531SOL    HW140052   2.978   2.028   6.797 -0.1097  0.4506 -0.1917
 9531SOL    HW240053   3.062   1.936   6.717 -2.1374 -0.4750 -1.5134
 9532SOL     OW40054   2.943   4.301  13.912  0.2373 -1.1716 -0.7292
 9532SOL    HW140055   2.852   4.330  13.914  0.6595  0.1407 -0.3344
 9532SOL    HW240056   2.939   4.206  13.905  0.9508 -1.3920  1.8956
 9533SOL     OW40057   1.979   3.071   4.539 -0.3631 -0.3325  0.3935
 9533SOL    HW140058   2.063   3.056   4.497  0.3199  0.6751  1.3953
 9533SOL    HW240059   1.933   3.012   4.480  1.6294 -2.9723  1.5089
 9534SOL     OW40060   4.027   2.349   2.178  0.3278  0.3120  0.1717
 9534SOL    HW140061   3.953   2.403   2.151 -0.7100 -1.9047 -1.4598
 9534SOL    HW240062   3.998   2.317   2.263 -1.1185 -1.7041 -1.0669
 9535SOL     OW40063   4.560   4.286  11.877  0.3100 -0.0959 -0.0873
 9535SOL    HW140064   4.597   4.234  11.806  0.0301  0.6112 -0.7514
 9535SOL    HW240065   4.470   4.283  11.843 -0.0485  0.8560  0.7735
 9536SOL     OW40066   2.904   1.135  14.576 -0.1408 -0.2516 -0.1809
 9536SOL    HW140067   2.934   1.106  14.490 -0.1001 -3.7780  1.0075
 9536SOL    HW240068   2.889   1.048  14.613 -1.0948  0.2934  0.7060
 9537SOL     OW40069   1.239   2.316  15.443 -0.5526 -0.0608 -0.0717
 9537SOL    HW140070   1.168   2.353  15.390 -1.4691  1.4811  2.2401
 9537SOL    HW240071   1.261   2.387  15.502  1.0393 -0.2235 -0.4527
 9538SOL     OW40072   3.242   1.137   6.799  0.2337 -0.2491  0.3322
 9538SOL    HW140073   3.178   1.092   6.855 -0.0667 -1.3242 -0.8737
 9538SOL    HW240074   3.320   1.092   6.833 -0.3959 -2.0027 -0.5467
 9539SOL     OW40075   3.556   2.360   3.883  0.1768  0.4652  0.3790
 9539SOL    HW140076   3.643   2.357   3.843 -0.4166  0.9138 -0.9403
 9539SOL    HW240077   3.564   2.448   3.920  1.5207 -0.7816  3.0084
 9540SOL     OW40078   2.049   0.561   3.107  0.1990  0.0952  0.1191
 9540SOL    HW140079   2.108   0.557   3.032 -0.1505  0.4311 -0.1744
 9540SOL    HW240080   2.110   0.601   3.169  2.5393  0.7125 -2.5734
 9541SOL     OW40081   4.397   2.715   1.765  0.1344  0.1398 -0.6984
 9541SOL    HW140082   4.460   2.788   1.774  0.6194 -0.1129 -2.1370
 9541SOL    HW240083   4.353   2.713   1.851 -0.5603  1.4563 -1.0243
 9542SOL     OW40084   3.713   2.640   0.605  0.0947 -0.4040 -0.2375
 9542SOL    HW140085   3.675   2.587   0.675  2.1330 -1.0022  0.4179
 9542SOL    HW240086   3.654   2.714   0.621  0.0238 -0.2909 -0.9866
 9543SOL     OW40087   1.631   2.434   8.664 -0.6910 -0.2880 -0.1866
 9543SOL    HW140088   1.598   2.344   8.667  0.8030 -0.8334 -0.1049
 9543SOL    HW240089   1.670   2.449   8.751 -3.8936  1.9143  0.8619
 9544SOL     OW40090   2.327   3.571   2.513  0.3630 -0.4585  0.1961
 9544SOL    HW140091   2.376   3.581   2.431 -2.1160 -0.4352 -1.3044
 9544SOL    HW240092   2.287   3.658   2.522  0.1251 -0.4266 -1.1439
 9545SOL     OW40093   2.587   2.524   2.550 -0.2970 -0.4221  0.2697
 9545SOL    HW140094   2.583   2.467   2.473 -2.2870 -0.5897  0.4979
 9545SOL    HW240095   2.613   2.601   2.500  0.2245 -0.9915 -0.3391
 9546SOL     OW40096   4.502   0.668   0.425  0.7367 -0.0307  0.5567
 9546SOL    HW140097   4.571   0.615   0.385  1.5083 -0.3529  2.3216
 9546SOL    HW240098   4.552   0.702   0.499  0.8172 -1.6333  1.2364
 9547SOL     OW40099   1.749   3.524  10.526  0.3476 -0.5658  0.1501
 9547SOL    HW140100   1.842   3.513  10.547  1.0146  0.3371 -2.4103
 9547SOL    HW240101   1.759   3.545  10.434  2.5531 -0.2557  0.4452
 9548SOL     OW40102   2.540   1.564   8.727 -0.1498  0.1688 -0.2417
 9548SOL    HW140103   2.604   1.585   8.658  0.8890  0.7310  0.8855
 9548SOL    HW240104   2.595   1.595   8.800  0.9065  0.2519 -1.0742
 9549SOL     OW40105   4.458   2.674   6.836  0.3168 -0.1810  0.5450
 9549SOL    HW140106   4.444   2.706   6.925 -1.4107  1.7322 -0.4079
 9549SOL    HW240107   4.371   2.637   6.818  0.1768 -1.1544  3.2898
 9550SOL     OW40108   0.187   0.092  14.812  0.4582 -0.4768 -0.9709
 9550SOL    HW140109   0.126   0.154  14.852  1.3150  1.0768 -2.1045
 9550SOL    HW240110   0.136   0.024  14.769 -0.3381  1.1246 -2.5335
 9551SOL     OW40111   0.636   4.111   1.960 -0.0761 -0.2005 -0.3615
 9551SOL    HW140112   0.709   4.159   1.920  0.7705  0.3982  1.9251
 9551SOL    HW240113   0.680   4.029   1.979  1.0387  0.8094  1.3814
 9552SOL     OW40114   3.517   4.479   5.698  0.5881 -0.4525  0.0667
 9552SOL    HW140115   3.470   4.467   5.616  1.3987 -0.1080 -0.4590
 9552SOL    HW240116   3.513   4.572   5.720 -1.4968 -1.1968  2.7524
 9553SOL     OW40117   2.181   4.327   5.096 -0.3300 -0.0832 -0.2837
 9553SOL    HW140118   2.093   4.340   5.131  0.1950 -0.9248  1.3546
 9553SOL    HW240119   2.209   4.418   5.105 -1.7884  0.2707  0.6824
 9554SOL     OW40120   0.289   4.013   7.607 -0.0254 -0.2214  0.0897
 9554SOL    HW140121   0.322   3.936   7.560  1.4265  1.2356 -1.2759
 9554SOL    HW240122   0.195   4.002   7.622 -0.4457  2.9560 -0.1707
 9555SOL     OW40123   3.099   0.389   0.934 -0.6375 -0.6067  0.2601
 9555SOL    HW140124   3.112   0.324   0.865 -1.5830  0.2560 -0.7221
 9555SOL    HW240125   3.029   0.443   0.898  0.2575  0.5202  0.2290
 9556SOL     OW40126   0.417   4.673   5.426 -0.3686  0.2727 -0.7121
 9556SOL    HW140127   0.440   4.626   5.506  0.3239  0.9210 -0.5259
 9556SOL    HW240128   0.494   0.006   5.416 -0.3071  0.1474 -0.9387
 9557SOL     OW40129   4.375   2.515   9.442  0.2012 -0.1768  0.1880
 9557SOL    HW140130   4.452   2.487   9.392  1.3789 -0.0007  1.8916
 9557SOL    HW240131   4.339   2.590   9.394  0.5215 -0.0447  0.1510
 9558SOL     OW40132   4.332   0.555   8.481  0.3786  0.3356 -0.1029
 9558SOL    HW140133   4.358   0.609   8.556 -3.2718  1.5692  0.2854
 9558SOL    HW240134   4.304   0.615   8.411  0.4223  1.8231  1.1466
 9559SOL     OW40135   4.588   2.877   3.294 -0.6759 -0.0036  0.2703
 9559SOL    HW140136   4.538   2.875   3.376 -1.1056 -1.4075 -0.0200
 9559SOL    HW240137   4.591   2.786   3.264 -1.3654  0.4725 -1.2661
 9560SOL     OW40138   3.547   3.141  17.317  0.9035  0.0716 -0.1740
 9560SOL    HW140139   3.540   3.074  17.386 -2.6831  1.6083  0.9815
 9560SOL    HW240140   3.525   3.219  17.368 -2.8326  0.2728 -2.1060
 9561SOL     OW40141   1.130   4.072   0.102  0.2038 -0.3813 -0.0460
 9561SOL    HW140142   1.056   4.062   0.042  0.4009  0.8832 -0.5070
 9561SOL    HW240143   1.157   3.982   0.121  1.4962  0.0443  0.1224
 9562SOL     OW40144   2.665   2.793   7.358 -0.0246 -0.2231 -0.4044
 9562SOL    HW140145   2.572   2.809   7.340  0.6539  4.5183  0.3353
 9562SOL    HW240146   2.654   2.698   7.364  1.9815 -0.2821  2.2326
 9563SOL     OW40147   2.156   4.071   7.042  0.0355  0.3464  0.2055
 9563SOL    HW140148   2.065   4.061   7.014  0.9819 -0.7193 -2.4507
 9563SOL    HW240149   2.156   4.137   7.111 -0.9865  0.5666 -0.0002
 9564SOL     OW40150   3.068   4.224   4.029  0.1116 -0.0043 -0.6996
 9564SOL    HW140151   3.008   4.177   4.087 -1.4993  0.9329 -1.6032
 9564SOL    HW240152   3.123   4.271   4.091 -1.7838  0.4076  0.6919
 9565SOL     OW40153   0.921   2.494  12.120  0.0661 -0.0817 -0.1144
 9565SOL    HW140154   1.016   2.498  12.111  0.2528  0.5645  2.0778
 9565SOL    HW240155   0.901   2.420  12.062  0.7593 -1.9360  1.9906
   4.72334   4.72334  17.69516
