Membrane in water
40155
    1TCq1    O1    1   2.199   2.075  11.342 -0.1751 -0.1062  0.1519
    1TCq1    C1    2   2.071   2.055  11.347  0.4894  0.0560 -0.0912
    1TCq1    O2    3   1.992   2.004  11.266 -0.0354  0.1731 -0.0060
    1TCq1    C2    4   2.031   2.062  11.483 -0.5908 -0.2061  0.2202
    1TCq1    C3    5   2.019   2.188  11.533  0.1737  0.3226 -0.0220
    1TCq1    C4    6   1.950   2.218  11.646 -0.4334  0.2229  1.3873
    1TCq1    C5    7   1.887   2.110  11.714 -0.6735  0.3740 -0.8449
    1TCq1    C6    8   1.884   1.983  11.649  0.8865  0.3491  0.1697
    1TCq1    C7    9   1.964   1.957  11.539 -0.2918 -0.1676  0.1866
    1TCq1    C8   10   1.811   1.882  11.717  0.4568 -0.5205 -0.1908
    1TCq1    O4   11   1.729   1.918  11.800  0.7368 -0.5927 -0.4315
    1TCq1    C9   12   1.966   2.352  11.701 -0.7105 -0.2479  0.3279
    1TCq1    O5   13   2.012   2.449  11.632 -0.5501 -0.0538  0.3763
    1TCq1    O6   14   1.885   2.364  11.798  0.5311 -0.0265  0.1346
    1TCq1    H1   15   2.225   2.106  11.431 -0.8453  0.3384  0.1934
    1TCq1    H2   16   2.057   2.260  11.461 -0.1794 -1.4024 -1.9435
    1TCq1    H3   17   1.856   2.117  11.817  0.3411  0.4788 -0.5441
    1TCq1    H4   18   1.966   1.865  11.483  1.6673 -0.0024 -0.0282
    2MPD2     C   19   1.768   1.395  11.846 -0.0805  0.3731 -0.3637
    2MPD2    C1   20   1.703   1.506  11.901  0.6098  0.7931 -0.2763
    2MPD2    C2   21   1.738   1.627  11.845  0.2862 -0.5978  0.2583
    2MPD2    C3   22   1.821   1.634  11.737  0.6075  0.1476  0.7476
    2MPD2    C4   23   1.873   1.520  11.679 -0.8670 -0.3705 -0.3755
    2MPD2    C5   24   1.853   1.402  11.739 -0.2626  0.4812 -0.0604
    2MPD2     H   25   1.698   1.717  11.891 -2.8007 -1.2953 -1.0400
    2MPD2    H1   26   1.940   1.532  11.594 -2.4237  2.2174 -1.2337
    2MPD2    H2   27   1.742   1.298  11.886  1.6141  0.6973  1.5419
    2MPD2    H3   28   1.880   1.305  11.698  1.1441  0.0170  1.9557
    2MPD2     N   29   1.859   1.762  11.684 -0.4958 -0.0552  0.2012
    2MPD2    H5   30   1.927   1.764  11.609  0.4061  0.2851  1.0312
    2MPD2    N1   31   1.636   1.510  12.029  0.4283  0.4739  0.0679
    2MPD2    H7   32   1.616   1.599  12.073  0.0282  0.6721 -0.5202
    3TCq1    O1   33   2.011   3.582  11.011 -0.6119  0.2280 -0.3318
    3TCq1    C1   34   1.909   3.491  11.008 -0.5842  0.1644  0.4348
    3TCq1    O2   35   1.913   3.370  11.034 -0.4520  0.4309 -0.1675
    3TCq1    C2   36   1.796   3.585  11.002 -0.5065 -0.0139  0.3972
    3TCq1    C3   37   1.802   3.690  10.917  0.2358  0.1358 -0.2194
    3TCq1    C4   38   1.697   3.780  10.930  0.0720  0.0951  0.2183
    3TCq1    C5   39   1.602   3.763  11.021 -0.2283 -0.8846  0.4188
    3TCq1    C6   40   1.601   3.656  11.105 -0.3372 -0.3284  1.4063
    3TCq1    C7   41   1.697   3.561  11.089 -0.1048 -0.4064 -0.8868
    3TCq1    C8   42   1.523   3.658  11.228  0.6934  0.3065 -0.2861
    3TCq1    O4   43   1.581   3.616  11.327 -0.0871  0.3152 -0.0151
    3TCq1    C9   44   1.696   3.886  10.840  0.0015 -0.2601 -0.3614
    3TCq1    O5   45   1.801   3.907  10.772  0.1573  0.2016 -0.2013
    3TCq1    O6   46   1.601   3.968  10.851  0.3858  0.1823  0.2950
    3TCq1    H1   47   1.971   3.672  11.009 -0.3878  0.2413 -3.7859
    3TCq1    H2   48   1.879   3.698  10.841  0.2931 -0.5395 -0.2316
    3TCq1    H3   49   1.530   3.843  11.034 -1.6634 -2.1397  0.2286
    3TCq1    H4   50   1.703   3.476  11.155 -1.8887 -0.3989 -0.6977
    4MPD2     C   51   1.077   3.757  11.480 -0.1446 -0.4412 -0.0861
    4MPD2    C1   52   1.051   3.749  11.343  0.8202  1.2607  0.7272
    4MPD2    C2   53   1.156   3.728  11.258  0.2511 -0.1021  0.6537
    4MPD2    C3   54   1.287   3.722  11.298  0.2471  0.1706  0.0226
    4MPD2    C4   55   1.311   3.730  11.439  0.0564 -0.5978  0.1141
    4MPD2    C5   56   1.206   3.745  11.526  0.9641  0.5108  1.4248
    4MPD2     H   57   1.137   3.736  11.152  0.4639 -1.8060  0.4934
    4MPD2    H1   58   1.405   3.723  11.492 -0.4291  0.2731  1.0819
    4MPD2    H2   59   1.006   3.782  11.558  0.9134  2.7509 -0.1412
    4MPD2    H3   60   1.221   3.763  11.632  1.7339 -1.5323  1.6753
    4MPD2     N   61   1.389   3.697  11.203  0.0914  0.6157  0.7314
    4MPD2    H5   62   1.355   3.699  11.107 -1.3076  1.6735  1.2559
    4MPD2    N1   63   0.920   3.769  11.291 -0.5816  0.4017  0.0390
    4MPD2    H7   64   0.906   3.750  11.192  1.2269 -0.4508 -0.0470
    5TCq1    O1   65   1.433   4.393  10.903  0.1009 -0.3698 -0.3654
    5TCq1    C1   66   1.496   4.503  10.938  0.0718  0.1877  0.2039
    5TCq1    O2   67   1.443   4.577  11.020  0.3381  0.4578 -0.0977
    5TCq1    C2   68   1.561   4.544  10.814  0.1944 -0.5022 -0.0347
    5TCq1    C3   69   1.557   4.676  10.775  0.4530  0.6095 -0.2735
    5TCq1    C4   70   1.639   4.716  10.672  0.2390  0.1136  0.5834
    5TCq1    C5   71   1.723   4.627  10.611 -0.1945 -0.7147 -0.3843
    5TCq1    C6   72   1.716   4.501  10.649 -1.6171  0.1814  0.9942
    5TCq1    C7   73   1.634   4.450  10.746 -0.0796  0.1930 -0.4405
    5TCq1    C8   74   1.794   4.400  10.585 -0.2484  0.1427 -0.2849
    5TCq1    O4   75   1.773   4.286  10.609 -0.2744  0.0404 -0.2435
    5TCq1    C9   76   1.645   0.130  10.642  0.5148  0.2938  0.0290
    5TCq1    O5   77   1.560   0.208  10.689  0.3589 -0.0803  0.3507
    5TCq1    O6   78   1.713   0.167  10.538 -0.2012  0.2902 -0.1195
    5TCq1    H1   79   1.449   4.359  10.812 -1.5075 -0.2618 -0.6986
    5TCq1    H2   80   1.500   0.012  10.845  0.1952  1.7434 -1.4472
    5TCq1    H3   81   1.786   4.660  10.530 -0.4212  0.2360 -0.1683
    5TCq1    H4   82   1.629   4.346  10.775  1.5707 -0.4185 -2.3352
    6MPD2     C   83   2.120   4.465  10.423 -0.1925  0.5825 -0.6870
    6MPD2    C1   84   2.017   4.390  10.467 -0.6071  0.3417 -0.1048
    6MPD2    C2   85   2.023   4.247  10.473  0.3314  0.1861 -0.4264
    6MPD2    C3   86   2.136   4.187  10.420  0.0152  0.8230  0.1700
    6MPD2    C4   87   2.235   4.267  10.371 -0.3866  0.3822 -0.1946
    6MPD2    C5   88   2.226   4.403  10.369  0.3958 -1.1215 -1.2166
    6MPD2     H   89   1.943   4.185  10.512  0.9364 -1.2163 -1.4550
    6MPD2    H1   90   2.326   4.233  10.324 -0.6498 -1.6038  0.7533
    6MPD2    H2   91   2.113   4.573  10.424 -0.8648  0.5347 -0.7547
    6MPD2    H3   92   2.308   4.456  10.321  2.0763 -2.0428  0.6709
    6MPD2     N   93   2.151   4.046  10.424 -0.4253 -0.4977  0.1746
    6MPD2    H5   94   2.092   3.990  10.485  0.0303  0.6785  1.6815
    6MPD2    N1   95   1.904   4.453  10.522 -0.1652  0.2153 -0.4984
    6MPD2    H7   96   1.910   4.553  10.539  0.6776 -0.5344  3.5656
    7TCq1    O1   97   3.125   4.493  13.798  0.1564 -0.7289 -0.4674
    7TCq1    C1   98   3.212   4.552  13.722  0.0448 -0.3318 -0.6964
    7TCq1    O2   99   3.302   4.629  13.749 -0.0126 -0.4917 -0.2997
    7TCq1    C2  100   3.217   4.488  13.598 -0.0721  0.0041  0.2443
    7TCq1    C3  101   3.103   4.480  13.522  0.2734 -0.4367 -0.1970
    7TCq1    C4  102   3.123   4.395  13.413 -0.1833 -0.6336 -0.0179
    7TCq1    C5  103   3.240   4.336  13.379  0.2868  0.1216  0.2137
    7TCq1    C6  104   3.352   4.357  13.451 -0.5070  0.4793 -0.2335
    7TCq1    C7  105   3.335   4.442  13.561 -0.1880  0.0799  0.1046
    7TCq1    C8  106   3.463   4.262  13.441 -0.3520 -0.2862 -0.3726
    7TCq1    O4  107   3.447   4.172  13.357  0.0512  0.1355  0.0159
    7TCq1    C9  108   3.014   4.365  13.334 -0.4429 -0.0309  0.5045
    7TCq1    O5  109   2.910   4.423  13.364 -0.7019 -0.5492 -1.1305
    7TCq1    O6  110   3.029   4.300  13.232 -0.4056  0.1039 -0.0725
    7TCq1    H1  111   3.092   4.411  13.756  1.2388 -0.5724 -1.6195
    7TCq1    H2  112   3.007   4.522  13.549  0.2283 -0.1300 -0.8160
    7TCq1    H3  113   3.237   4.269  13.293  0.5981 -0.0865  0.3632
    7TCq1    H4  114   3.411   4.462  13.637 -0.3252 -0.3421  0.3499
    8MPD2     C  115   3.952   4.142  13.528  0.0897 -1.0013 -0.7644
    8MPD2    C1  116   3.860   4.076  13.447 -0.6733 -0.0912 -0.1810
    8MPD2    C2  117   3.730   4.125  13.442 -0.1361 -0.4825  0.2189
    8MPD2    C3  118   3.695   4.234  13.515 -1.4596 -0.4087  0.1738
    8MPD2    C4  119   3.790   4.303  13.589  0.1303 -0.2040  0.1253
    8MPD2    C5  120   3.916   4.254  13.595  0.6415  0.1387  0.2035
    8MPD2     H  121   3.647   4.069  13.400  0.7081 -0.6556 -1.2183
    8MPD2    H1  122   3.765   4.386  13.654  2.5672 -0.4276  1.3568
    8MPD2    H2  123   4.057   4.116  13.537 -0.7319 -3.7143  0.9031
    8MPD2    H3  124   3.983   4.312  13.656  0.9873  1.1029 -1.0854
    8MPD2     N  125   3.568   4.292  13.518  0.1366 -0.4024 -1.2033
    8MPD2    H5  126   3.560   4.369  13.584  2.1019 -0.1490 -1.2415
    8MPD2    N1  127   3.898   3.951  13.389  0.6979  0.1573  0.1512
    8MPD2    H7  128   3.986   3.910  13.417  2.6258  3.2443 -1.3767
    9TCq1    O1  129   1.416   1.711  10.903 -0.1490 -1.1280 -0.5134
    9TCq1    C1  130   1.372   1.839  10.888 -0.1057  0.1352 -0.2678
    9TCq1    O2  131   1.388   1.897  10.780  0.4095  0.3680 -0.3602
    9TCq1    C2  132   1.337   1.893  11.018  0.0605 -0.7624  0.0157
    9TCq1    C3  133   1.317   1.803  11.124  0.4536 -0.0455  0.1856
    9TCq1    C4  134   1.290   1.861  11.243  0.1550 -0.2723  0.0544
    9TCq1    C5  135   1.275   1.996  11.267  0.3318 -0.0577  0.3223
    9TCq1    C6  136   1.292   2.082  11.157  0.2515 -0.4885 -0.6336
    9TCq1    C7  137   1.334   2.033  11.040  0.1635 -0.4782  0.3867
    9TCq1    C8  138   1.285   2.230  11.174 -0.0214  0.5601  0.2198
    9TCq1    O4  139   1.314   2.301  11.079  0.2791  0.3905  0.1768
    9TCq1    C9  140   1.251   1.768  11.349 -0.3614  0.1977 -0.4817
    9TCq1    O5  141   1.297   1.649  11.331 -0.0240 -0.9288  0.0286
    9TCq1    O6  142   1.216   1.820  11.460 -0.1202  0.3172  0.3186
    9TCq1    H1  143   1.436   1.689  10.997  1.5634  0.8908 -0.4015
    9TCq1    H2  144   1.283   1.704  11.096  0.8355 -0.2360  0.4055
    9TCq1    H3  145   1.254   2.029  11.368 -1.0867  0.9611 -0.2990
    9TCq1    H4  146   1.351   2.097  10.954  0.8421 -2.2210 -0.7892
   10MPD2     C  147   1.312   2.505  11.303 -0.0910  0.0525  0.1112
   10MPD2    C1  148   1.243   2.397  11.362 -0.0090 -0.3106 -0.0386
   10MPD2    C2  149   1.213   2.404  11.495  0.4257  0.5964  0.8399
   10MPD2    C3  150   1.245   2.517  11.567 -0.0250  0.4545  0.2469
   10MPD2    C4  151   1.288   2.633  11.503 -0.1548 -0.3047 -0.7530
   10MPD2    C5  152   1.334   2.622  11.372  0.0176 -0.0667  0.4653
   10MPD2     H  153   1.169   2.313  11.535 -1.1701  1.0656  0.1565
   10MPD2    H1  154   1.305   2.724  11.559 -1.9233 -1.0196  0.9435
   10MPD2    H2  155   1.344   2.512  11.199 -1.2542  1.6698 -0.1361
   10MPD2    H3  156   1.398   2.699  11.330 -2.5429  0.4389 -2.5098
   10MPD2     N  157   1.222   2.524  11.707  0.1134 -0.3784  0.6223
   10MPD2    H5  158   1.228   2.619  11.744 -0.0789 -0.2939  0.4390
   10MPD2    N1  159   1.224   2.270  11.296 -0.7913 -0.0930  0.4152
   10MPD2    H7  160   1.197   2.189  11.351  0.3222  0.4041  1.6877
   11TCq1    O1  161   2.689   2.690  14.037 -0.1038  0.1049 -0.3878
   11TCq1    C1  162   2.636   2.561  14.058  0.4157  0.1607  0.1272
   11TCq1    O2  163   2.548   2.512  13.988  0.1923 -0.0267  0.2869
   11TCq1    C2  164   2.647   2.536  14.196 -0.1251  0.9634 -0.2429
   11TCq1    C3  165   2.744   2.602  14.264  0.1482 -0.6376 -0.1074
   11TCq1    C4  166   2.724   2.613  14.401  0.0802 -0.5919  0.4511
   11TCq1    C5  167   2.602   2.574  14.460 -0.0725 -0.2342  0.4515
   11TCq1    C6  168   2.503   2.516  14.381 -0.3197 -0.1366 -0.1067
   11TCq1    C7  169   2.526   2.486  14.251 -0.2093  0.8661  0.3696
   11TCq1    C8  170   2.369   2.480  14.437  0.1020 -0.1834 -0.7634
   11TCq1    O4  171   2.348   2.507  14.557 -0.1422 -0.7131  0.2782
   11TCq1    C9  172   2.822   2.672  14.492  0.1494  0.0240  0.1435
   11TCq1    O5  173   2.795   2.651  14.614  0.5040  0.4169 -0.1094
   11TCq1    O6  174   2.916   2.738  14.441  0.3875  0.1670  0.1083
   11TCq1    H1  175   2.750   2.728  14.103  0.6410  0.3602 -1.2298
   11TCq1    H2  176   2.837   2.623  14.212 -0.4199  0.4324 -0.6915
   11TCq1    H3  177   2.583   2.597  14.564 -1.1904  0.2156  0.1449
   11TCq1    H4  178   2.460   2.421  14.194  1.1828 -1.0326  0.8930
   12MPD2     C  179   2.066   2.466  14.457 -0.2571  0.1578  0.2864
   12MPD2    C1  180   2.143   2.397  14.368 -0.1503  0.5368  0.6419
   12MPD2    C2  181   2.077   2.316  14.271  0.2199 -0.3477 -0.4600
   12MPD2    C3  182   1.938   2.308  14.261 -0.7926  0.0374  0.6926
   12MPD2    C4  183   1.867   2.379  14.350 -0.0819  0.0850 -0.2178
   12MPD2    C5  184   1.935   2.457  14.440 -0.3875 -0.6386 -0.4876
   12MPD2     H  185   2.132   2.272  14.188 -2.2379 -1.4481 -1.5238
   12MPD2    H1  186   1.759   2.381  14.358 -0.0487  1.1782 -0.0764
   12MPD2    H2  187   2.116   2.519  14.537 -0.2926 -0.7530  0.9092
   12MPD2    H3  188   1.876   2.502  14.518  1.9063  1.0373  0.2807
   12MPD2     N  189   1.862   2.239  14.158  0.0791  0.5441  0.9146
   12MPD2    H5  190   1.765   2.268  14.148  0.6198  1.4426 -1.6898
   12MPD2    N1  191   2.283   2.416  14.353  0.3129  0.2934  0.1409
   12MPD2    H7  192   2.319   2.400  14.260 -1.6068 -2.2292 -0.1485
   13TCq1    O1  193   1.054   1.265  11.497 -0.1410 -0.3726  0.2173
   13TCq1    C1  194   0.924   1.228  11.456  0.0444 -0.3563 -0.7486
   13TCq1    O2  195   0.870   1.125  11.485 -0.2646  0.3506  0.7825
   13TCq1    C2  196   0.910   1.301  11.327 -0.2790  0.3713  0.5700
   13TCq1    C3  197   0.883   1.222  11.226 -0.1137 -0.0299 -0.0925
   13TCq1    C4  198   0.911   1.274  11.100 -0.4625 -0.0452 -0.0657
   13TCq1    C5  199   0.961   1.400  11.082  0.1568 -0.0965  0.4370
   13TCq1    C6  200   0.989   1.476  11.191 -0.7556  0.7060  0.4518
   13TCq1    C7  201   0.964   1.425  11.322 -0.2998  0.0851 -0.4531
   13TCq1    C8  202   0.977   1.620  11.180  0.6479 -0.1521  0.8044
   13TCq1    O4  203   0.933   1.680  11.275  0.1097  0.1107 -0.2620
   13TCq1    C9  204   0.875   1.191  10.985 -0.4072 -1.0128 -0.5714
   13TCq1    O5  205   0.893   1.232  10.871 -0.2881  0.1803 -0.0949
   13TCq1    O6  206   0.854   1.067  11.017 -0.1614 -0.1416  0.0865
   13TCq1    H1  207   1.090   1.348  11.461 -0.2336 -0.1647  0.5969
   13TCq1    H2  208   0.841   1.123  11.239  1.3957 -0.8695 -1.6260
   13TCq1    H3  209   0.956   1.442  10.983 -0.3739  1.8295  1.2827
   13TCq1    H4  210   0.976   1.478  11.416 -1.2275  1.9012 -1.3434
   14MPD2     C  211   1.054   1.824  10.892  0.4934  0.3213  0.1047
   14MPD2    C1  212   1.013   1.806  11.020 -0.3334 -0.3428  0.1393
   14MPD2    C2  213   0.982   1.907  11.104  0.3933 -0.7499  0.3589
   14MPD2    C3  214   0.983   2.034  11.059 -0.3678  0.4932 -0.9009
   14MPD2    C4  215   1.009   2.052  10.924 -0.0876  0.5431  0.8501
   14MPD2    C5  216   1.039   1.949  10.839 -0.2049  0.1739  0.5999
   14MPD2     H  217   0.959   1.892  11.209  0.5135 -0.7122  0.3910
   14MPD2    H1  218   1.004   2.152  10.884  1.1719  0.1025 -0.3691
   14MPD2    H2  219   1.094   1.746  10.828 -0.0298 -1.8005  2.3743
   14MPD2    H3  220   1.078   1.963  10.739 -2.7833 -0.8576 -0.5599
   14MPD2     N  221   0.962   2.144  11.145  0.3969 -0.4542  0.4890
   14MPD2    H5  222   0.976   2.118  11.242 -0.6217  1.1181  1.0540
   14MPD2    N1  223   1.015   1.665  11.059  0.5487  0.0523 -0.3914
   14MPD2    H7  224   1.067   1.591  11.012  0.9730  1.7096 -2.5117
   15TCq1    O1  225   2.928   0.906   0.614 -0.4020 -0.2638 -0.7192
   15TCq1    C1  226   3.056   0.863   0.611  0.4325  0.0450  0.8268
   15TCq1    O2  227   3.106   0.782   0.533 -0.1937  0.2649  0.0976
   15TCq1    C2  228   3.121   0.888   0.744 -0.7530  0.3713  0.3652
   15TCq1    C3  229   3.091   1.008   0.794 -0.4226  0.2521 -0.5330
   15TCq1    C4  230   3.145   1.043   0.913 -0.2725 -0.0269  0.1717
   15TCq1    C5  231   3.244   0.959   0.969  0.3443 -0.3738 -0.1785
   15TCq1    C6  232   3.285   0.841   0.914 -0.2770  0.4875  0.4564
   15TCq1    C7  233   3.211   0.800   0.800 -0.0941 -0.3053 -0.3551
   15TCq1    C8  234   3.383   0.760   0.982  0.0533  0.1424 -0.0022
   15TCq1    O4  235   3.448   0.818   1.066  0.2834 -0.1218 -0.0113
   15TCq1    C9  236   3.118   1.169   0.969 -0.1806 -0.2256 -0.0464
   15TCq1    O5  237   3.169   1.194   1.083 -0.1862 -0.2387  0.2043
   15TCq1    O6  238   3.064   1.253   0.898 -0.1169 -0.3485 -0.1617
   15TCq1    H1  239   2.904   0.957   0.694  1.4698 -2.4615  1.2544
   15TCq1    H2  240   3.021   1.072   0.741  1.3488  1.3167 -1.6121
   15TCq1    H3  241   3.301   0.991   1.055  0.1903 -1.2656  0.2603
   15TCq1    H4  242   3.226   0.701   0.760 -1.8616 -0.4008 -0.7811
   16MPD2     C  243   3.480   0.408   0.904  0.0236 -0.2411 -0.6344
   16MPD2    C1  244   3.483   0.530   0.974 -0.6323  0.2376  0.1118
   16MPD2    C2  245   3.579   0.546   1.068  0.4561 -0.3370 -0.0228
   16MPD2    C3  246   3.669   0.443   1.095  0.0079  0.7387 -0.0579
   16MPD2    C4  247   3.664   0.334   1.018 -0.2282 -0.3965  0.5115
   16MPD2    C5  248   3.572   0.309   0.928  0.0023 -0.1125  0.1836
   16MPD2     H  249   3.586   0.637   1.127 -1.0340 -1.4906  1.9483
   16MPD2    H1  250   3.737   0.255   1.031  1.2960  1.2396  1.9662
   16MPD2    H2  251   3.405   0.386   0.828 -1.9582 -0.7582  1.4928
   16MPD2    H3  252   3.567   0.221   0.865 -0.7026 -0.5603  0.8629
   16MPD2     N  253   3.766   0.470   1.201 -0.0743 -0.2400  0.4626
   16MPD2    H5  254   3.753   0.555   1.254  0.0479  0.3440 -0.4423
   16MPD2    N1  255   3.395   0.637   0.931  0.0956 -0.2337 -0.0443
   16MPD2    H7  256   3.340   0.619   0.848  0.1451 -4.9621  0.9549
   17TCq1    O1  257   1.687   2.313  11.960  0.2429 -0.1174 -0.5601
   17TCq1    C1  258   1.566   2.280  11.906 -0.0305 -0.0550 -0.1730
   17TCq1    O2  259   1.470   2.227  11.956  0.6238  0.3650  0.4508
   17TCq1    C2  260   1.576   2.287  11.765 -0.3395 -0.1268 -0.7161
   17TCq1    C3  261   1.621   2.408  11.715 -0.7292  0.1255 -0.0046
   17TCq1    C4  262   1.616   2.424  11.575  0.0859  0.2944 -0.0984
   17TCq1    C5  263   1.562   2.321  11.497 -0.6396  0.9790 -0.5260
   17TCq1    C6  264   1.528   2.201  11.552  0.5213 -0.8744 -0.4085
   17TCq1    C7  265   1.525   2.182  11.687  0.3775  0.6799  0.2349
   17TCq1    C8  266   1.543   2.082  11.474 -0.0433 -0.5114  0.1392
   17TCq1    O4  267   1.502   1.979  11.525  0.4919 -0.3521  0.0151
   17TCq1    C9  268   1.642   2.552  11.515 -0.1751 -0.5464 -0.3957
   17TCq1    O5  269   1.668   2.557  11.395  0.2889  0.2498 -0.1964
   17TCq1    O6  270   1.659   2.643  11.599 -0.2486  0.2586 -0.0137
   17TCq1    H1  271   1.748   2.343  11.889  0.5161  0.3114 -0.1424
   17TCq1    H2  272   1.648   2.487  11.785 -0.4118 -0.4601  0.5318
   17TCq1    H3  273   1.546   2.350  11.394  1.3056 -0.8721 -1.3472
   17TCq1    H4  274   1.516   2.085  11.735  1.8804  0.6468  0.4555
   18MPD2     C  275   1.643   1.852  11.301  0.2653  0.0896 -0.0276
   18MPD2    C1  276   1.643   1.990  11.269  0.2339  0.5417 -0.2559
   18MPD2    C2  277   1.666   2.019  11.133  0.2352  0.5713  0.0934
   18MPD2    C3  278   1.679   1.919  11.038 -0.0421  0.5104 -0.1190
   18MPD2    C4  279   1.694   1.786  11.081 -0.1297  0.1415 -1.0667
   18MPD2    C5  280   1.672   1.751  11.210 -0.2914  0.0565 -0.1792
   18MPD2     H  281   1.679   2.125  11.111 -2.4479  0.8569 -0.1794
   18MPD2    H1  282   1.724   1.706  11.014 -0.6243 -1.0575  0.1325
   18MPD2    H2  283   1.634   1.819  11.404 -1.0950  2.0511  0.4794
   18MPD2    H3  284   1.694   1.652  11.250  1.0375  0.2422 -0.4334
   18MPD2     N  285   1.703   1.956  10.903 -0.1094  0.3884  0.4263
   18MPD2    H5  286   1.743   1.881  10.848  1.3742  1.0790  0.5702
   18MPD2    N1  287   1.613   2.095  11.357 -0.2153  0.1684 -0.0129
   18MPD2    H7  288   1.633   2.190  11.327  0.4076 -0.6651 -2.2428
   19TMC2    C1  289   2.999   2.053  13.870 -0.1307  0.3955  0.4325
   19TMC2    C2  290   2.979   2.177  13.931  0.2833  0.4035 -0.8868
   19TMC2    C3  291   2.876   2.251  13.887  0.2819  0.4991 -0.0739
   19TMC2    C4  292   2.907   2.011  13.771 -0.3634 -0.6266 -1.0035
   19TMC2    C5  293   2.796   2.089  13.744 -0.2804  0.4042 -0.2262
   19TMC2    C6  294   2.785   2.209  13.802  0.1739 -0.3031 -0.3544
   19TMC2     C  295   3.040   1.942  13.954 -0.4567  0.5592  0.4348
   19TMC2     O  296   3.004   1.832  13.911  0.4161 -0.8830  0.2146
   19TMC2     H  297   3.050   2.221  14.000  1.3025 -0.1243 -1.5977
   19TMC2    H1  298   2.921   1.913  13.726 -1.1772 -0.8440 -0.7705
   19TMC2    H2  299   2.702   2.272  13.774 -0.4221 -1.1054 -0.4144
   19TMC2    C7  300   2.692   2.016  13.675  0.1170  0.4262  0.3218
   19TMC2    C8  301   2.871   2.384  13.929  0.1278  0.2364  0.3225
   19TMC2    O1  302   2.721   1.926  13.601 -0.4445 -0.2893 -0.2557
   19TMC2    O2  303   2.923   2.414  14.037 -0.0548 -0.3135  0.6538
   19TMC2    O5  304   2.855   2.464  13.824 -0.0155  0.0499 -0.0995
   19TMC2    H5  305   2.835   2.431  13.733 -1.2612 -3.6920  1.5398
   20MPD2     C  306   3.150   1.746  14.141 -0.1366  0.5626  0.3514
   20MPD2    C1  307   3.123   1.881  14.174  0.2086  0.1906 -0.5988
   20MPD2    C2  308   3.148   1.923  14.301  0.0978 -0.4818 -1.4791
   20MPD2    C3  309   3.188   1.833  14.401  0.2854 -0.9344  0.1034
   20MPD2    C4  310   3.209   1.706  14.368 -0.1287  0.4946  0.7924
   20MPD2    C5  311   3.199   1.661  14.241 -0.1059  0.1971  0.0937
   20MPD2     H  312   3.112   2.023  14.320  1.6695  0.1065 -1.6196
   20MPD2    H1  313   3.237   1.633  14.443  2.5278 -0.3026 -0.9695
   20MPD2    H2  314   3.144   1.703  14.042  0.9380 -1.6644  1.2415
   20MPD2    H3  315   3.217   1.556  14.220 -0.9772 -0.1127  0.8653
   20MPD2     N  316   3.221   1.861  14.539  0.5571 -0.2495 -0.6159
   20MPD2    H5  317   3.266   1.794  14.600 -0.5872  0.5427  1.0829
   20MPD2    N1  318   3.087   1.971  14.076  0.7436  0.0501  0.4621
   20MPD2    H7  319   3.112   2.068  14.091  2.7745 -0.4652  0.3300
   21MPD2     C  320   1.159   2.772  14.773  0.1372  0.4467  0.1483
   21MPD2    C1  321   1.162   2.636  14.751 -0.8575  0.0457  0.4297
   21MPD2    C2  322   1.049   2.573  14.696 -0.2200  0.2169  0.8262
   21MPD2    C3  323   0.936   2.656  14.669  0.2242  0.1566  0.2464
   21MPD2    C4  324   0.933   2.791  14.691  0.4268  0.7633 -0.0306
   21MPD2    C5  325   1.050   2.847  14.740 -0.1689 -0.1117  0.4840
   21MPD2     H  326   1.039   2.467  14.676 -1.0794  0.3064  0.7758
   21MPD2    H1  327   0.838   2.843  14.679  0.8575  1.0806 -2.1036
   21MPD2    H2  328   1.249   2.827  14.797  0.2368 -0.2714  1.3720
   21MPD2    H3  329   1.059   2.954  14.754  2.6410 -0.3362  0.2892
   21MPD2     N  330   0.808   2.600  14.636  0.1304 -0.0058 -0.0173
   21MPD2    H5  331   0.728   2.661  14.619  0.9852  1.6914  2.2260
   21MPD2    N1  332   1.281   2.561  14.762 -0.4246  0.3860 -0.4155
   21MPD2    H7  333   1.281   2.466  14.726 -1.9364  0.6777 -1.2016
   22TCq2    C1  334   0.775   2.468  14.645 -0.6212  0.1843  0.3280
   22TCq2    O2  335   0.841   2.364  14.649  0.5697 -0.3255  0.2197
   22TCq2    C2  336   0.632   2.456  14.632 -0.2895 -0.1878  0.1695
   22TCq2    C3  337   0.577   2.332  14.606  0.4947  0.4744 -0.3437
   22TCq2    C4  338   0.441   2.315  14.623  0.9814 -0.2151 -0.2200
   22TCq2    C5  339   0.363   2.411  14.684 -0.8955 -0.3538  0.4727
   22TCq2    C6  340   0.433   2.521  14.720 -0.0500 -0.7418 -0.1097
   22TCq2    C7  341   0.561   2.557  14.681  0.0246 -0.3175 -0.0566
   22TCq2    C8  342   0.365   2.607  14.810  0.5997 -0.1704  0.5804
   22TCq2    O4  343   0.385   2.588  14.929 -0.5961 -0.0470  0.1033
   22TCq2    C9  344   0.387   2.183  14.598 -0.0251  0.3412 -0.1085
   22TCq2    O5  345   0.271   2.204  14.570 -0.3958 -0.2928 -0.3497
   22TCq2    O6  346   0.464   2.090  14.563 -0.0834 -0.1871  0.3205
   22TCq2    H2  347   0.650   2.261  14.569  2.2460  1.7984  0.5777
   22TCq2    H3  348   0.260   2.400  14.715 -2.0237  1.8393 -2.5685
   22TCq2    H4  349   0.600   2.646  14.730 -0.0175 -0.8361  0.9159
   23MPD2     C  350   2.431   3.218  14.657 -0.1634  0.2757  0.0187
   23MPD2    C1  351   2.308   3.195  14.714  0.1815  0.3408  0.0821
   23MPD2    C2  352   2.194   3.201  14.629 -0.1003  0.0700 -0.3751
   23MPD2    C3  353   2.203   3.216  14.492 -0.4988  0.6287 -0.7896
   23MPD2    C4  354   2.331   3.237  14.431  1.1947  0.3889  0.1375
   23MPD2    C5  355   2.436   3.239  14.517  0.0697 -0.3744  0.0212
   23MPD2     H  356   2.099   3.183  14.678  0.9248 -0.7527  1.2942
   23MPD2    H1  357   2.343   3.254  14.325  1.5181  0.0765  0.1201
   23MPD2    H2  358   2.523   3.222  14.713 -0.3890  0.7505  0.3558
   23MPD2    H3  359   2.533   3.254  14.471  0.4484 -0.8376  0.6716
   23MPD2     N  360   2.092   3.189  14.410 -0.1000  0.2623  0.2057
   23MPD2    H5  361   2.097   3.198  14.309 -1.8492 -1.2453 -0.0325
   23MPD2    N1  362   2.295   3.173  14.849 -0.4079 -0.1582  0.2058
   23MPD2    H7  363   2.203   3.181  14.891 -0.2675  1.2397  0.2377
   24TCq2    C1  364   1.974   3.130  14.449 -0.2457 -0.0397 -0.7669
   24TCq2    O2  365   1.948   3.069  14.552  0.2684  0.3293  0.3413
   24TCq2    C2  366   1.868   3.145  14.355  0.2755 -0.0375 -0.4469
   24TCq2    C3  367   1.862   3.242  14.252 -0.5439  0.0145 -1.0713
   24TCq2    C4  368   1.756   3.254  14.170 -0.4884 -0.1503  0.0144
   24TCq2    C5  369   1.636   3.193  14.205 -0.1835  0.7388 -0.4928
   24TCq2    C6  370   1.637   3.107  14.314  0.4168  0.5984  0.6435
   24TCq2    C7  371   1.750   3.072  14.385  0.7374 -0.0475  0.2461
   24TCq2    C8  372   1.514   3.048  14.367 -0.2796 -0.0721  0.5095
   24TCq2    O4  373   1.524   2.989  14.478 -0.2939  0.4783  0.1532
   24TCq2    C9  374   1.755   3.352  14.061 -0.1077 -0.5411 -1.1406
   24TCq2    O5  375   1.670   3.343  13.971  0.0681 -0.2572  0.6867
   24TCq2    O6  376   1.814   3.459  14.090 -0.0256  0.8504 -0.4736
   24TCq2    H2  377   1.945   3.310  14.233 -0.4861  0.4521  0.7745
   24TCq2    H3  378   1.549   3.210  14.143  0.2850  0.9797 -1.0928
   24TCq2    H4  379   1.743   3.002  14.467 -0.2624 -0.9107 -0.5791
   25TMC2    C1  380   1.134   0.693  11.447  0.2651 -0.8262  0.5890
   25TMC2    C2  381   1.211   0.808  11.399 -0.6716 -0.5096  0.3754
   25TMC2    C3  382   1.202   0.931  11.455  0.4572  0.9029  0.0452
   25TMC2    C4  383   1.051   0.715  11.548  0.1685 -0.0577  0.7177
   25TMC2    C5  384   1.048   0.836  11.611 -0.0643  0.2320 -0.8103
   25TMC2    C6  385   1.119   0.945  11.570 -0.5090  0.7374  0.5496
   25TMC2     C  386   1.121   0.583  11.352  0.1585  0.1278 -0.0428
   25TMC2     O  387   1.196   0.591  11.258  0.0457  0.3656 -0.3158
   25TMC2     H  388   1.284   0.798  11.319  0.0340 -3.0125  1.3308
   25TMC2    H1  389   0.994   0.634  11.591 -0.4556  0.4636  0.8665
   25TMC2    H2  390   1.109   1.041  11.618 -0.3926  0.5624  0.9244
   25TMC2    C7  391   1.013   0.840  11.753 -0.5993 -0.0078  0.9403
   25TMC2    C8  392   1.286   1.031  11.404  0.2070  0.3068 -0.0858
   25TMC2    O1  393   0.977   0.950  11.799  0.1500 -1.1887 -0.5430
   25TMC2    O2  394   1.349   1.027  11.299  0.1534  0.3882 -0.2698
   25TMC2    O5  395   1.322   1.115  11.501  0.1428  0.1738 -0.2598
   25TMC2    H5  396   1.311   1.075  11.590 -1.0927  0.2398 -0.3757
   26MPD2     C  397   0.925   0.143  11.204 -0.0858  0.3113 -0.1435
   26MPD2    C1  398   0.823   0.202  11.266 -0.4049 -0.5502 -0.7371
   26MPD2    C2  399   0.850   0.325  11.328 -0.1519 -0.3434  0.1910
   26MPD2    C3  400   0.977   0.387  11.314  0.0535  0.4257  0.3838
   26MPD2    C4  401   1.072   0.320  11.243  0.2771  0.0097 -0.2395
   26MPD2    C5  402   1.045   0.200  11.183 -0.2778  0.0822  0.3900
   26MPD2     H  403   0.766   0.377  11.373  0.2139 -1.7377  2.4769
   26MPD2    H1  404   1.171   0.363  11.233  0.4575 -0.7403 -1.5378
   26MPD2    H2  405   0.911   0.050  11.150 -1.4762  1.0619 -1.0691
   26MPD2    H3  406   1.122   0.139  11.137 -0.2211 -0.7856  1.6387
   26MPD2     N  407   1.006   0.507  11.375  0.0721 -0.2192 -0.6214
   26MPD2    H5  408   0.947   0.546  11.449 -1.1485 -0.3846 -1.5095
   26MPD2    N1  409   0.694   0.140  11.266  0.2377 -0.0868 -0.1039
   26MPD2    H7  410   0.678   0.053  11.216  0.9998  0.7600 -1.8043
   27TMC2    C1  411   4.332   2.908  11.817 -0.2506  0.1073  0.2491
   27TMC2    C2  412   4.256   2.907  11.703 -0.2289  0.2760  0.0760
   27TMC2    C3  413   4.263   3.020  11.624 -1.3012 -0.5723 -0.4880
   27TMC2    C4  414   4.426   3.006  11.850 -0.7958 -1.0431  0.0585
   27TMC2    C5  415   4.424   3.116  11.769 -0.0638  0.3670 -0.4220
   27TMC2    C6  416   4.349   3.121  11.651 -0.1417  0.7335 -0.2544
   27TMC2     C  417   4.256   2.868  11.933 -0.0963 -0.5160 -0.2988
   27TMC2     O  418   4.133   2.881  11.936  0.2483 -0.6247 -0.6438
   27TMC2     H  419   4.197   2.819  11.681 -0.0918  0.8190 -2.4811
   27TMC2    H1  420   4.499   3.005  11.931  0.6602  0.5774 -1.2500
   27TMC2    H2  421   4.358   3.212  11.594  0.2513  0.5805 -0.4298
   27TMC2    C7  422   4.431   3.234  11.848 -0.3407 -0.1131 -0.0592
   27TMC2    C8  423   4.211   3.020  11.484  0.5321  0.4558  0.0376
   27TMC2    O1  424   4.478   3.214  11.959 -0.3446 -0.1176 -0.1022
   27TMC2    O2  425   4.284   3.061  11.394 -0.1318 -0.0604 -0.3305
   27TMC2    O5  426   4.094   2.952  11.480  0.6087 -0.1336 -0.1257
   27TMC2    H5  427   4.068   2.919  11.568 -2.5771  2.3089 -0.1692
   28MPD2     C  428   4.287   2.893  12.449  0.3626  0.6769 -0.2369
   28MPD2    C1  429   4.192   2.944  12.360  0.3044  0.2423 -0.6383
   28MPD2    C2  430   4.219   2.929  12.225 -0.1302  0.3373  0.1720
   28MPD2    C3  431   4.329   2.861  12.177 -0.4809 -0.2300 -0.1916
   28MPD2    C4  432   4.421   2.815  12.267  0.4498 -0.4928 -0.4106
   28MPD2    C5  433   4.405   2.832  12.405  0.1507  0.5962  0.7671
   28MPD2     H  434   4.146   2.969  12.155 -1.3846 -0.3649  1.0871
   28MPD2    H1  435   4.504   2.755  12.233  0.1447  0.2042 -2.3584
   28MPD2    H2  436   4.270   2.897  12.556  0.9248 -0.1585 -0.1143
   28MPD2    H3  437   4.482   2.794  12.471  0.6972  0.8833  0.2881
   28MPD2     N  438   4.345   2.841  12.032 -0.6077 -0.0938 -0.3293
   28MPD2    H5  439   4.434   2.805  11.997 -0.6282 -2.9332  2.5716
   28MPD2    N1  440   4.065   2.997  12.408 -0.7767  0.5995  0.3713
   28MPD2    H7  441   4.059   3.008  12.509 -1.1103  1.6601  0.2287
   29MPD2     C  442   3.946   0.602  14.220  0.5381 -0.2623 -0.5503
   29MPD2    C1  443   4.078   0.601  14.235 -0.3311  0.0398  0.1825
   29MPD2    C2  444   4.145   0.721  14.267  0.5790  0.2064  0.4602
   29MPD2    C3  445   4.079   0.837  14.285  0.1001  0.0859  0.4245
   29MPD2    C4  446   3.939   0.836  14.270  0.5932 -1.1128  0.0315
   29MPD2    C5  447   3.877   0.720  14.242  0.4328  0.4843  0.4612
   29MPD2     H  448   4.252   0.721  14.284  0.4662 -2.0329  1.3064
   29MPD2    H1  449   3.874   0.923  14.277  0.8582 -0.9895  0.9201
   29MPD2    H2  450   3.890   0.511  14.204  1.0459 -0.6725  0.0002
   29MPD2    H3  451   3.769   0.711  14.240  0.3628  1.9203 -2.1213
   29MPD2     N  452   4.133   0.951  14.340 -0.1754 -0.0853  0.0562
   29MPD2    H5  453   4.073   1.029  14.363 -0.0949 -0.0452  0.1331
   29MPD2    N1  454   4.142   0.472  14.236  0.4201 -0.2397  0.2054
   29MPD2    H7  455   4.085   0.389  14.225  0.8728 -0.6607  1.0386
   30TCq2    C1  456   4.270   0.980  14.355  0.7008  0.1874  0.3559
   30TCq2    O2  457   4.370   0.917  14.331  0.0800  0.0612  0.2654
   30TCq2    C2  458   4.296   1.117  14.404  0.0677 -0.8054  0.2137
   30TCq2    C3  459   4.219   1.186  14.490  0.3141 -0.1066 -0.1865
   30TCq2    C4  460   4.267   1.299  14.554 -0.7109  0.7714 -0.0745
   30TCq2    C5  461   4.383   1.357  14.521 -0.2157 -0.6202  0.1344
   30TCq2    C6  462   4.452   1.290  14.427 -0.8108 -0.3052 -0.4089
   30TCq2    C7  463   4.418   1.163  14.379 -0.5426  0.0649 -0.4543
   30TCq2    C8  464   4.571   1.357  14.370 -0.2449  0.3365  0.2206
   30TCq2    O4  465   4.614   1.310  14.266 -0.0092  0.3821 -0.1569
   30TCq2    C9  466   4.179   1.358  14.654  0.0748 -0.3344  0.2108
   30TCq2    O5  467   4.064   1.307  14.682 -0.3851  0.4767 -0.2687
   30TCq2    O6  468   4.210   1.481  14.685  0.2514  0.4057  0.0443
   30TCq2    H2  469   4.119   1.151  14.510  0.7994 -1.6458 -0.3961
   30TCq2    H3  470   4.411   1.454  14.561 -1.1484 -0.3724  0.2023
   30TCq2    H4  471   4.469   1.109  14.300  0.4334 -0.8457  0.7960
   31MPD2     C  472   2.395   4.319  14.910  0.5250  0.3053 -1.2853
   31MPD2    C1  473   2.278   4.338  14.842  0.3064  1.4530  0.4186
   31MPD2    C2  474   2.158   4.320  14.908 -0.2194  0.0876 -0.0038
   31MPD2    C3  475   2.162   4.269  15.040  0.3755 -0.6282  0.0939
   31MPD2    C4  476   2.287   4.238  15.096 -0.2544  0.2738 -0.0993
   31MPD2    C5  477   2.397   4.271  15.039 -0.6522  0.1192 -0.5375
   31MPD2     H  478   2.061   4.331  14.861  0.3997 -0.3954 -1.3746
   31MPD2    H1  479   2.288   4.186  15.191  0.5086 -1.2812 -0.9663
   31MPD2    H2  480   2.488   4.320  14.854  1.8524 -1.5388  0.8921
   31MPD2    H3  481   2.491   4.246  15.088 -0.3637  0.7035 -0.7836
   31MPD2     N  482   2.050   4.233  15.120  0.2896 -0.1650  0.7174
   31MPD2    H5  483   2.073   4.193  15.210  0.0319 -1.1092  0.3590
   31MPD2    N1  484   2.282   4.391  14.710 -0.4831 -0.0793  0.2799
   31MPD2    H7  485   2.369   4.435  14.683 -1.2019  0.4759 -1.1187
   32TCq2    C1  486   1.918   4.249  15.085  0.2506  0.3435 -0.5166
   32TCq2    O2  487   1.875   4.295  14.976  0.4897  0.2006 -0.0732
   32TCq2    C2  488   1.819   4.204  15.185  0.2576  0.4026  0.2967
   32TCq2    C3  489   1.687   4.228  15.144 -0.4463 -0.2087 -0.1829
   32TCq2    C4  490   1.586   4.242  15.232 -0.0035 -0.3747  0.7472
   32TCq2    C5  491   1.607   4.221  15.362  0.1737  0.0265 -0.2121
   32TCq2    C6  492   1.740   4.198  15.405  0.4141  0.1286 -0.3252
   32TCq2    C7  493   1.850   4.206  15.322  0.1666 -0.0600  0.2447
   32TCq2    C8  494   1.770   4.193  15.547 -0.2679  0.0181 -0.0310
   32TCq2    O4  495   1.859   4.115  15.585 -0.3632 -0.3769 -0.1986
   32TCq2    C9  496   1.451   4.270  15.180 -0.2834 -0.0008  0.1789
   32TCq2    O5  497   1.442   4.341  15.074 -0.1700 -0.1325 -0.0427
   32TCq2    O6  498   1.353   4.256  15.257 -0.6523  0.5487  0.7000
   32TCq2    H2  499   1.658   4.250  15.041 -1.0568  0.3909  0.1164
   32TCq2    H3  500   1.522   4.228  15.428  0.5058 -2.1203  0.4415
   32TCq2    H4  501   1.949   4.194  15.365  0.7535 -0.5003 -1.2530
   33MPD2     C  502   1.529   2.609  10.510 -0.2482 -0.1279  0.7368
   33MPD2    C1  503   1.631   2.540  10.443  0.1945 -0.3737 -0.1578
   33MPD2    C2  504   1.669   2.586  10.317 -0.2990  0.6253  0.3978
   33MPD2    C3  505   1.609   2.706  10.270  0.6658  0.7592 -0.0585
   33MPD2    C4  506   1.502   2.760  10.334  0.0188 -0.4862  0.2374
   33MPD2    C5  507   1.465   2.719  10.457  0.6862 -0.3571 -0.1910
   33MPD2     H  508   1.737   2.533  10.252  0.6019  1.3354  0.7723
   33MPD2    H1  509   1.451   2.847  10.294  1.1842 -0.8304 -2.0103
   33MPD2    H2  510   1.493   2.577  10.607 -1.7729  0.2372  0.2988
   33MPD2    H3  511   1.381   2.765  10.508  1.7262 -0.1104  1.2925
   33MPD2     N  512   1.643   2.756  10.148 -0.0345 -0.1826 -0.2261
   33MPD2    H5  513   1.586   2.829  10.106  0.6502 -1.0707 -2.7308
   33MPD2    N1  514   1.665   2.413  10.490 -0.0328 -0.1754 -0.1895
   33MPD2    H7  515   1.616   2.381  10.574  2.1180 -0.4058  0.9865
   34TCq2    C1  516   1.768   2.736  10.089  0.5547 -0.0350  0.0262
   34TCq2    O2  517   1.869   2.691  10.146  0.1190 -0.3572  0.0911
   34TCq2    C2  518   1.774   2.778   9.951 -0.0847 -0.1945  0.9335
   34TCq2    C3  519   1.659   2.784   9.866  0.4344  0.7508 -0.6190
   34TCq2    C4  520   1.677   2.844   9.743  0.3764  0.2021  0.6982
   34TCq2    C5  521   1.791   2.897   9.700 -0.3442  0.1240 -0.5187
   34TCq2    C6  522   1.896   2.887   9.780  0.4952 -0.3602 -0.3413
   34TCq2    C7  523   1.892   2.829   9.902 -0.2213 -0.0774  0.3783
   34TCq2    C8  524   2.031   2.946   9.763  0.2529 -0.5230  0.2778
   34TCq2    O4  525   2.102   2.951   9.864  0.6816 -0.4776  0.2406
   34TCq2    C9  526   1.562   2.855   9.661  0.4484 -0.4381 -0.7443
   34TCq2    O5  527   1.459   2.783   9.686 -0.0964  0.3808  0.3694
   34TCq2    O6  528   1.568   2.917   9.550 -0.2170  0.3702 -0.3593
   34TCq2    H2  529   1.558   2.752   9.889  1.4193 -0.3888  2.1644
   34TCq2    H3  530   1.803   2.937   9.600 -0.9574  1.8989  0.1392
   34TCq2    H4  531   1.976   2.811   9.969 -0.8874 -1.6022  0.8227
   35MPD2     C  532   3.262   3.403  11.638  0.3873 -0.9155  0.2066
   35MPD2    C1  533   3.263   3.267  11.654  0.1117 -0.3279  0.5918
   35MPD2    C2  534   3.237   3.192  11.542  0.3863 -0.0585 -0.0495
   35MPD2    C3  535   3.230   3.247  11.414 -1.1675  0.3483 -0.0365
   35MPD2    C4  536   3.257   3.382  11.407  0.5983  0.5864 -0.3555
   35MPD2    C5  537   3.258   3.463  11.518 -0.0069 -0.0924 -1.4047
   35MPD2     H  538   3.230   3.084  11.543 -1.2881  0.0511 -0.2445
   35MPD2    H1  539   3.257   3.426  11.308 -1.9692 -3.3634 -2.0869
   35MPD2    H2  540   3.278   3.456  11.731  1.9369 -1.7256  0.4041
   35MPD2    H3  541   3.260   3.571  11.510 -0.0167  0.0203  0.1079
   35MPD2     N  542   3.194   3.159  11.308 -0.0690  0.0821 -0.1104
   35MPD2    H5  543   3.167   3.064  11.330  0.4553  0.0538  0.3886
   35MPD2    N1  544   3.276   3.223  11.787 -0.1571  0.1084 -0.5207
   35MPD2    H7  545   3.278   3.295  11.858  1.4594  0.2767 -0.7464
   36TCq2    C1  546   3.172   3.200  11.178  0.8840  0.4874 -0.0893
   36TCq2    O2  547   3.213   3.301  11.119  0.1537  0.1184 -0.2798
   36TCq2    C2  548   3.106   3.104  11.094  0.2183  0.3377 -0.2035
   36TCq2    C3  549   3.145   3.096  10.965  1.0132 -0.1528  0.1868
   36TCq2    C4  550   3.074   3.015  10.877  0.9019  0.4524 -0.2329
   36TCq2    C5  551   2.983   2.932  10.928  0.2436  0.1577 -0.2635
   36TCq2    C6  552   2.945   2.940  11.061 -1.1547 -0.7983 -0.1953
   36TCq2    C7  553   3.005   3.030  11.145 -0.0145 -0.8968  0.2370
   36TCq2    C8  554   2.844   2.851  11.118 -0.3081 -0.3332 -0.0720
   36TCq2    O4  555   2.831   2.873  11.240  0.1923  0.0294  0.1601
   36TCq2    C9  556   3.118   3.004  10.740 -0.4213  0.7482 -0.5751
   36TCq2    O5  557   3.237   3.026  10.720  0.4967  0.1882  0.3234
   36TCq2    O6  558   3.043   2.941  10.668  0.1544 -0.1475  0.6585
   36TCq2    H2  559   3.229   3.153  10.927  0.7933 -1.8143 -2.8312
   36TCq2    H3  560   2.928   2.857  10.874  0.1417 -0.2390  0.3859
   36TCq2    H4  561   2.963   3.056  11.241 -0.2142 -0.3923  0.0165
   37TMC2    C1  562   1.262   3.347  11.621 -0.2786  0.0820  0.0188
   37TMC2    C2  563   1.276   3.267  11.509 -0.2387 -0.4587  0.3852
   37TMC2    C3  564   1.402   3.268  11.455  0.4510  0.0497 -0.3745
   37TMC2    C4  565   1.347   3.437  11.672 -0.6723  0.5401  0.1519
   37TMC2    C5  566   1.465   3.449  11.608 -0.3004 -0.3106 -0.5183
   37TMC2    C6  567   1.494   3.367  11.494  0.3559 -0.1631  0.0706
   37TMC2     C  568   1.123   3.371  11.674 -0.1841  0.4362 -0.2329
   37TMC2     O  569   1.116   3.410  11.791  0.1538 -0.3315  0.0998
   37TMC2     H  570   1.194   3.220  11.456  0.5264 -0.4398 -0.8146
   37TMC2    H1  571   1.329   3.502  11.757 -0.4089 -1.0109  1.3933
   37TMC2    H2  572   1.590   3.377  11.447  0.6318  0.9134  0.8736
   37TMC2    C7  573   1.580   3.500  11.677 -0.0516 -0.2678 -0.2522
   37TMC2    C8  574   1.426   3.186  11.341 -0.2062 -0.0993  0.3943
   37TMC2    O1  575   1.573   3.511  11.794 -0.4606 -0.5186 -0.1133
   37TMC2    O2  576   1.520   3.207  11.263  0.1815  0.1783 -0.1601
   37TMC2    O5  577   1.359   3.068  11.353 -0.1565  0.3473  0.3658
   37TMC2    H5  578   1.318   3.052  11.440 -0.7496 -0.1648 -0.0025
   38MPD2     C  579   0.611   3.484  11.594 -0.0061  0.1940  0.5533
   38MPD2    C1  580   0.692   3.491  11.704  0.1314  0.0035 -0.0022
   38MPD2    C2  581   0.827   3.449  11.704 -0.1747  0.5970 -0.4078
   38MPD2    C3  582   0.890   3.418  11.583 -0.3536  0.0663  0.3818
   38MPD2    C4  583   0.810   3.421  11.472 -0.6838 -0.1205  0.3729
   38MPD2    C5  584   0.671   3.452  11.480  0.0280  0.3198  0.2857
   38MPD2     H  585   0.880   3.447  11.798  0.0299  2.0340 -0.5001
   38MPD2    H1  586   0.859   3.386  11.382 -1.5137  0.2497 -0.2164
   38MPD2    H2  587   0.503   3.498  11.602  0.3255  1.6891  2.3236
   38MPD2    H3  588   0.615   3.427  11.391  2.2929  2.5410 -1.7517
   38MPD2     N  589   1.029   3.366  11.571 -0.1383 -0.2375  0.2194
   38MPD2    H5  590   1.069   3.339  11.482 -2.3939 -1.2987 -0.4863
   38MPD2    N1  591   0.642   3.516  11.837 -0.5014  0.0724  0.2962
   38MPD2    H7  592   0.714   3.525  11.908 -0.9517  0.5401  0.7029
   39MPD2     C  593   3.921   0.395   1.842  0.3177  0.2152  0.2983
   39MPD2    C1  594   3.858   0.518   1.820 -0.2475 -0.5171  0.2629
   39MPD2    C2  595   3.770   0.521   1.711  0.1157 -0.0054 -0.6871
   39MPD2    C3  596   3.752   0.401   1.629 -0.4346 -0.3123  0.7619
   39MPD2    C4  597   3.826   0.293   1.655 -0.0743  0.1439  0.6332
   39MPD2    C5  598   3.896   0.282   1.769  0.1631  0.0949 -0.3322
   39MPD2     H  599   3.718   0.608   1.673 -0.7170 -0.6970 -1.1222
   39MPD2    H1  600   3.808   0.197   1.608 -0.4751  0.3047  0.4580
   39MPD2    H2  601   3.988   0.379   1.925  0.1781  2.1035  0.7831
   39MPD2    H3  602   3.964   0.202   1.796 -0.3427 -0.4859 -0.7679
   39MPD2     N  603   3.664   0.387   1.520  0.1840  0.5318 -0.1652
   39MPD2    H5  604   3.685   0.307   1.462  0.7326  0.0355  0.7181
   39MPD2    N1  605   3.910   0.634   1.878  0.1898 -0.1230 -0.2305
   39MPD2    H7  606   3.991   0.629   1.940  0.6195  2.0899 -0.6141
   40TCq2    C1  607   3.850   0.752   1.872 -0.3088  0.3409  0.6531
   40TCq2    O2  608   3.753   0.797   1.816 -0.3804 -0.2513  0.6484
   40TCq2    C2  609   3.913   0.838   1.968 -0.2236 -0.1076  0.3996
   40TCq2    C3  610   3.830   0.937   2.012  0.1974  0.1723 -0.1458
   40TCq2    C4  611   3.888   1.039   2.081 -0.0906 -0.8843 -0.2352
   40TCq2    C5  612   4.027   1.049   2.079 -0.3339 -0.4850  0.8115
   40TCq2    C6  613   4.099   0.959   2.010 -0.3491 -0.2207 -0.4606
   40TCq2    C7  614   4.049   0.840   1.970  0.0090 -0.3323  0.0908
   40TCq2    C8  615   4.249   0.961   2.011 -0.4500  0.2359  0.3704
   40TCq2    O4  616   4.303   0.851   2.002  0.0218  0.3045  1.0770
   40TCq2    C9  617   3.803   1.137   2.144  1.2214 -0.4693  0.0413
   40TCq2    O5  618   3.679   1.117   2.137 -0.5702  0.7774  0.3076
   40TCq2    O6  619   3.857   1.244   2.183 -0.8501 -0.0613 -0.1425
   40TCq2    H2  620   3.724   0.919   1.998  0.2268  0.5530 -0.8649
   40TCq2    H3  621   4.068   1.140   2.123  1.0317 -0.3536 -0.7556
   40TCq2    H4  622   4.106   0.768   1.914 -2.0249  0.7374 -3.3648
   41TMC2    C1  623   3.395   3.236  13.846 -0.1712 -0.3387 -0.0958
   41TMC2    C2  624   3.307   3.345  13.846  0.4637 -0.0898 -0.9029
   41TMC2    C3  625   3.286   3.409  13.725 -0.3015  0.5052  0.2995
   41TMC2    C4  626   3.458   3.195  13.733 -0.1775  0.0551 -0.0565
   41TMC2    C5  627   3.439   3.273  13.621 -1.3191  0.3177 -0.0183
   41TMC2    C6  628   3.353   3.382  13.614 -0.1302  0.4057 -0.2128
   41TMC2     C  629   3.420   3.168  13.974 -0.1701 -0.0782 -0.1766
   41TMC2     O  630   3.483   3.063  13.974 -0.1899  0.4586  0.1132
   41TMC2     H  631   3.273   3.397  13.935  1.3003  1.7573 -1.6617
   41TMC2    H1  632   3.521   3.107  13.740 -0.9061 -0.4914 -0.3014
   41TMC2    H2  633   3.361   3.454  13.533 -2.0718  1.2082  0.3004
   41TMC2    C7  634   3.527   3.247  13.507  0.4278 -0.4760  0.8161
   41TMC2    C8  635   3.181   3.514  13.712  0.2627  0.0499 -0.2279
   41TMC2    O1  636   3.593   3.146  13.516  0.0300  0.0211  0.2536
   41TMC2    O2  637   3.150   3.571  13.609 -0.7137  0.7083  0.1738
   41TMC2    O5  638   3.091   3.491  13.811  0.1744 -0.2023 -0.0714
   41TMC2    H5  639   3.103   3.411  13.867 -0.7226  1.0981  1.9929
   42MPD2     C  640   3.415   3.054  14.255  0.7245  0.0342 -0.1373
   42MPD2    C1  641   3.358   3.176  14.216 -0.3269  0.1316 -0.2030
   42MPD2    C2  642   3.308   3.255  14.315  0.5794  0.3089 -0.5883
   42MPD2    C3  643   3.307   3.211  14.443  0.5780  0.5025  0.4583
   42MPD2    C4  644   3.367   3.105  14.483 -0.6221 -0.4683 -0.0425
   42MPD2    C5  645   3.428   3.027  14.386 -0.8601  0.2517 -0.1695
   42MPD2     H  646   3.250   3.344  14.294  0.6178 -0.0277 -2.1142
   42MPD2    H1  647   3.364   3.073  14.587 -2.6752 -1.1716 -0.3207
   42MPD2    H2  648   3.464   2.981  14.192 -0.2183 -2.0199  1.5181
   42MPD2    H3  649   3.489   2.945  14.423 -2.7153 -1.8062 -1.6871
   42MPD2     N  650   3.233   3.278  14.548 -0.3489  0.2347  0.7049
   42MPD2    H5  651   3.227   3.232  14.638 -1.9602  0.5467  0.7682
   42MPD2    N1  652   3.354   3.224  14.080  0.8265 -0.1711  0.3599
   42MPD2    H7  653   3.303   3.310  14.065  0.9507  0.1387  1.7076
   43MPD2     C  654   4.299   1.732   0.428  0.1664  0.2054  0.0203
   43MPD2    C1  655   4.373   1.741   0.543  0.4302  0.8081  0.2040
   43MPD2    C2  656   4.331   1.830   0.641 -0.0615  0.4713 -0.5026
   43MPD2    C3  657   4.213   1.900   0.630  0.3735 -0.2639  0.0279
   43MPD2    C4  658   4.142   1.891   0.514 -0.0057  0.6984 -0.3338
   43MPD2    C5  659   4.188   1.808   0.412 -0.0753  0.5067 -0.4552
   43MPD2     H  660   4.401   1.855   0.720 -0.9910 -0.7053  0.6917
   43MPD2    H1  661   4.046   1.941   0.499  0.7083  2.3465  0.5477
   43MPD2    H2  662   4.325   1.663   0.348 -3.0329 -0.3720 -0.5147
   43MPD2    H3  663   4.131   1.821   0.321  1.4043  0.0919 -1.4347
   43MPD2     N  664   4.153   1.978   0.734 -0.0828  0.1743  0.3368
   43MPD2    H5  665   4.062   2.020   0.722  1.1135  2.1966 -1.5115
   43MPD2    N1  666   4.495   1.673   0.565 -0.3290 -0.5432 -0.4403
   43MPD2    H7  667   4.542   1.691   0.653 -1.3462  1.1681 -0.2428
   44TCq2    C1  668   4.187   2.200   1.281  0.2690 -0.0425  0.3469
   44TCq2    O2  669   4.111   2.194   1.376  0.2118 -0.3101  0.5512
   44TCq2    C2  670   4.131   2.190   1.146  0.0009 -0.4212 -0.5868
   44TCq2    C3  671   4.008   2.243   1.122 -0.0866  0.3779  0.4186
   44TCq2    C4  672   3.960   2.211   0.998  0.3832 -0.3696  0.3129
   44TCq2    C5  673   4.032   2.145   0.901  0.2908 -0.4591  0.6883
   44TCq2    C6  674   4.148   2.088   0.940 -0.4982  0.5266 -0.0693
   44TCq2    C7  675   4.193   2.102   1.064  0.6187 -0.0128  0.3619
   44TCq2    C8  676   4.213   1.994   0.857  0.2222  0.3034  0.2083
   44TCq2    O4  677   4.322   1.958   0.898  0.2122 -0.3100  0.1026
   44TCq2    C9  678   3.829   2.270   0.955  0.1404 -0.7086 -0.3794
   44TCq2    O5  679   3.764   2.321   1.049 -0.6245  0.3192  0.2249
   44TCq2    O6  680   3.797   2.263   0.834 -0.0790  0.2888  0.3415
   44TCq2    H2  681   3.950   2.303   1.191 -1.0430 -1.3869  1.1459
   44TCq2    H3  682   3.985   2.145   0.803 -1.7679  2.7664  1.6728
   44TCq2    H4  683   4.273   2.042   1.107  0.9407  0.4443  0.3959
   45TMC2    C1  684   0.560   3.748   9.420 -0.2324 -0.4379  0.0720
   45TMC2    C2  685   0.546   3.727   9.288 -0.8854 -0.0971 -0.9018
   45TMC2    C3  686   0.624   3.805   9.210  0.1462  0.0604 -0.5728
   45TMC2    C4  687   0.649   3.840   9.470  0.5098 -0.7539  0.1841
   45TMC2    C5  688   0.715   3.927   9.385  0.2125 -0.1056  0.0022
   45TMC2    C6  689   0.712   3.898   9.254 -0.1011  0.6143 -0.1666
   45TMC2     C  690   0.453   3.700   9.500  1.0870 -0.0847 -0.1764
   45TMC2     O  691   0.483   3.660   9.612 -0.3860  0.1685 -0.1023
   45TMC2     H  692   0.482   3.650   9.248  0.8259 -2.8636  1.6950
   45TMC2    H1  693   0.656   3.855   9.577 -0.2262  2.8634 -0.2833
   45TMC2    H2  694   0.785   3.949   9.192  0.8693 -0.9765 -0.3486
   45TMC2    C7  695   0.826   4.001   9.436 -0.0326 -0.0297  0.6562
   45TMC2    C8  696   0.579   3.815   9.075  0.1342  0.0095  0.2061
   45TMC2    O1  697   0.904   4.047   9.356  0.7454 -0.3059 -0.5185
   45TMC2    O2  698   0.482   3.752   9.032  0.5362  0.0722  0.3383
   45TMC2    O5  699   0.605   3.939   9.023 -0.9656 -0.3608  0.2244
   45TMC2    H5  700   0.644   4.003   9.086  1.3199 -2.0830  0.5744
   46MPD2     C  701   0.219   3.534   9.564  0.5156  0.5981 -0.2735
   46MPD2    C1  702   0.219   3.625   9.460 -0.5509  0.0906  0.4899
   46MPD2    C2  703   0.104   3.651   9.394 -0.6844  0.7926  0.0852
   46MPD2    C3  704   4.708   3.591   9.418  0.0353  0.3039  0.1219
   46MPD2    C4  705   4.708   3.494   9.522 -0.5021 -0.5235 -0.5158
   46MPD2    C5  706   0.100   3.473   9.592  0.2329 -0.2156 -0.5299
   46MPD2     H  707   0.106   3.730   9.320 -0.5211 -0.4092 -1.2163
   46MPD2    H1  708   4.615   3.455   9.558  0.8873 -2.5903  0.7880
   46MPD2    H2  709   0.297   3.506   9.634 -1.2383 -2.7907  0.3169
   46MPD2    H3  710   0.106   3.415   9.684 -2.6440 -0.7292 -0.6624
   46MPD2     N  711   4.590   3.641   9.361 -1.2521  0.3146  0.5904
   46MPD2    H5  712   4.591   3.726   9.305  0.4703  1.0014  1.6613
   46MPD2    N1  713   0.339   3.694   9.424 -0.3949 -0.1797  0.3376
   46MPD2    H7  714   0.339   3.746   9.337 -1.4158  0.7747  0.9039
   47TMC2    C1  715   2.819   0.154   9.758  0.4577 -0.3852 -0.4491
   47TMC2    C2  716   2.853   0.170   9.625  0.1393 -0.4783  0.3450
   47TMC2    C3  717   2.753   0.143   9.538 -0.5953  0.1707 -0.5074
   47TMC2    C4  718   2.687   0.128   9.799 -0.8014 -0.4076  0.2186
   47TMC2    C5  719   2.593   0.109   9.698  0.6708 -0.0656 -1.0744
   47TMC2    C6  720   2.625   0.108   9.569 -0.4360 -0.0060  1.1649
   47TMC2     C  721   2.919   0.138   9.854 -0.5477 -0.2334 -0.0187
   47TMC2     O  722   2.898   0.183   9.969  0.5048 -0.1439  0.1546
   47TMC2     H  723   2.950   0.210   9.598  0.4272 -0.3426  1.5733
   47TMC2    H1  724   2.667   0.096   9.901  0.4102  0.8710  0.8581
   47TMC2    H2  725   2.547   0.104   9.495  1.2179 -1.2732 -0.4904
   47TMC2    C7  726   2.485   0.012   9.720 -0.1519  0.2458  0.5842
   47TMC2    C8  727   2.765   0.188   9.399 -0.5288  0.2614 -0.1938
   47TMC2    O1  728   2.477   4.647   9.635  0.5829  0.0445  0.0920
   47TMC2    O2  729   2.671   0.186   9.319 -0.5261 -0.0346 -0.1419
   47TMC2    O5  730   2.883   0.130   9.367 -0.1918  0.0204  0.2124
   47TMC2    H5  731   2.922   0.071   9.434 -0.0575  1.8190  1.7136
   48MPD2     C  732   3.199   0.145   9.970 -0.3329  0.0323 -0.5930
   48MPD2    C1  733   3.152   0.059   9.877 -0.4558  0.5588 -0.1566
   48MPD2    C2  734   3.228   4.670   9.848 -0.0093  0.2154 -0.2239
   48MPD2    C3  735   3.350   4.650   9.913  0.0348  0.5820  0.6173
   48MPD2    C4  736   3.400   0.015  10.009 -0.5361 -0.4156  0.1241
   48MPD2    C5  737   3.317   0.124  10.033 -0.6777  0.0354  0.1192
   48MPD2     H  738   3.197   4.610   9.764  0.4002  1.5285 -1.3180
   48MPD2    H1  739   3.495   0.003  10.060 -0.9895 -2.9656  0.3914
   48MPD2    H2  740   3.142   0.233   9.997  0.4606  0.1130  0.8577
   48MPD2    H3  741   3.357   0.202  10.097  1.1427 -1.7350  1.1344
   48MPD2     N  742   3.418   4.537   9.871  0.2909  0.5367 -0.1923
   48MPD2    H5  743   3.391   4.499   9.781  0.3010 -0.1885  0.1114
   48MPD2    N1  744   3.032   0.082   9.803 -0.1076  0.0432  0.3011
   48MPD2    H7  745   3.028   0.031   9.715 -0.5902 -1.5451  1.2460
   49MPD2     C  746   1.277   2.412  10.141  0.5643 -0.2940 -0.4546
   49MPD2    C1  747   1.161   2.353  10.091 -0.3650 -0.0083  0.6432
   49MPD2    C2  748   1.102   2.248  10.161 -0.8375  0.0500  0.1563
   49MPD2    C3  749   1.164   2.194  10.271 -0.1298 -0.0755  0.3858
   49MPD2    C4  750   1.279   2.246  10.312  0.2268  0.5465  0.0968
   49MPD2    C5  751   1.333   2.352  10.244  0.2425  0.2473  0.3644
   49MPD2     H  752   1.004   2.220  10.122 -0.1150 -2.6297  0.2871
   49MPD2    H1  753   1.329   2.206  10.400  3.1886  0.6509 -1.5367
   49MPD2    H2  754   1.336   2.494  10.102 -0.2967  0.2936 -0.5290
   49MPD2    H3  755   1.415   2.406  10.290  1.8333 -0.3277 -1.7956
   49MPD2     N  756   1.126   2.072  10.338 -0.2104  0.0911 -0.0235
   49MPD2    H5  757   1.175   2.041  10.421 -1.9261 -0.9925  0.5861
   49MPD2    N1  758   1.089   2.407   9.980  0.0872 -0.1056 -0.1825
   49MPD2    H7  759   1.000   2.362   9.961  0.4060 -0.5900 -0.5178
   50TCq2    C1  760   1.144   2.505   9.894  0.4721 -0.2591 -0.3413
   50TCq2    O2  761   1.240   2.582   9.904  0.2965 -0.6704  0.0199
   50TCq2    C2  762   1.054   2.534   9.778  0.2655 -0.4027  0.6522
   50TCq2    C3  763   1.074   2.649   9.706 -0.2498 -0.5904  0.3283
   50TCq2    C4  764   1.028   2.648   9.573 -0.5619 -0.0604  0.8725
   50TCq2    C5  765   0.938   2.550   9.531  0.1948  0.3837 -0.0183
   50TCq2    C6  766   0.916   2.444   9.616  0.2022  0.0105  0.4766
   50TCq2    C7  767   0.976   2.428   9.730  0.1026  0.0487 -0.2416
   50TCq2    C8  768   0.842   2.333   9.570  0.3179  0.2226 -0.4017
   50TCq2    O4  769   0.840   2.228   9.636  0.4111 -0.3574 -0.0958
   50TCq2    C9  770   1.062   2.762   9.494  0.4298 -0.5187  0.2516
   50TCq2    O5  771   1.034   2.747   9.373 -0.1677 -0.4713  0.2789
   50TCq2    O6  772   1.129   2.856   9.552  0.0285 -0.2200 -0.3341
   50TCq2    H2  773   1.127   2.730   9.753 -1.6904  0.1326  0.7135
   50TCq2    H3  774   0.897   2.559   9.431  1.4126  0.6809 -0.4918
   50TCq2    H4  775   0.980   2.331   9.779 -3.1621 -1.0419 -2.0860
   51MPD2     C  776   2.063   4.428   1.847  0.3912 -0.8064  0.4678
   51MPD2    C1  777   2.126   4.530   1.774  0.8920  0.8929 -0.5743
   51MPD2    C2  778   2.260   4.543   1.793 -0.1231 -0.4435 -0.0895
   51MPD2    C3  779   2.327   4.469   1.887 -0.7082  0.1796 -0.0701
   51MPD2    C4  780   2.266   4.378   1.960  0.2601 -0.1462 -0.8609
   51MPD2    C5  781   2.136   4.353   1.933  0.4311 -0.0472 -0.2546
   51MPD2     H  782   2.306   4.626   1.739 -0.7252  1.5504  2.4422
   51MPD2    H1  783   2.315   4.309   2.028 -1.5817 -0.4104  0.1988
   51MPD2    H2  784   1.966   4.386   1.823 -0.3964  0.3118  1.7124
   51MPD2    H3  785   2.088   4.265   1.975 -1.2411  0.9506 -0.0333
   51MPD2     N  786   2.461   4.496   1.912 -0.3978  0.3967  0.7439
   51MPD2    H5  787   2.501   4.425   1.972  4.7538  2.9868  0.3268
   51MPD2    N1  788   2.067   4.607   1.669  0.6719 -0.2566  0.6568
   51MPD2    H7  789   2.123   4.677   1.622  0.2373  0.9117  1.8878
   52TCq2    C1  790   2.529   4.615   1.883 -0.4567 -0.5042  0.5618
   52TCq2    O2  791   2.484   4.722   1.839 -0.0513  0.0775  0.8703
   52TCq2    C2  792   2.672   4.614   1.914  0.9462  0.1049  0.1045
   52TCq2    C3  793   2.741   4.491   1.910  0.0220  0.5233  0.1020
   52TCq2    C4  794   2.871   4.487   1.962  0.2285 -0.2190  0.4222
   52TCq2    C5  795   2.940   4.609   1.991  0.3670 -0.3717  0.4734
   52TCq2    C6  796   2.869   0.003   1.978  1.2092  0.0889  0.2697
   52TCq2    C7  797   2.736   0.009   1.945 -0.8626 -0.3058 -0.8825
   52TCq2    C8  798   2.919   0.136   2.013  0.6721  0.0845 -0.3644
   52TCq2    O4  799   2.851   0.235   1.983 -0.1465 -0.4751  0.3494
   52TCq2    C9  800   2.953   4.373   1.953 -0.6161 -0.2159  0.1685
   52TCq2    O5  801   3.077   4.385   1.936  0.3313  0.5470  0.1970
   52TCq2    O6  802   2.892   4.269   1.934 -0.1679  0.1750 -0.4864
   52TCq2    H2  803   2.698   4.395   1.881  3.0025 -0.2569 -1.7784
   52TCq2    H3  804   3.045   4.599   2.016  0.8401 -1.8919 -2.1536
   52TCq2    H4  805   2.682   0.100   1.920 -2.0895 -1.2466 -1.6602
   53TMC2    C1  806   2.087   3.783  12.120  1.1393 -0.4216  0.4035
   53TMC2    C2  807   2.132   3.883  12.201 -0.1872 -0.3178  0.3711
   53TMC2    C3  808   2.133   3.859  12.333 -0.2206 -0.6658  0.1554
   53TMC2    C4  809   2.028   3.669  12.167  0.5235  0.1262 -0.0160
   53TMC2    C5  810   2.018   3.655  12.305  0.6032  0.1772  0.0232
   53TMC2    C6  811   2.074   3.751  12.391  0.5299  0.2708 -0.1097
   53TMC2     C  812   2.061   3.823  11.984  0.7322  0.2605  0.3083
   53TMC2     O  813   2.142   3.899  11.936 -0.0033 -0.1439  0.4391
   53TMC2     H  814   2.187   3.969  12.166  1.0275 -0.4376  2.0067
   53TMC2    H1  815   1.991   3.593  12.099 -1.7071  1.4894 -0.3288
   53TMC2    H2  816   2.072   3.737  12.498 -1.0105 -1.0168 -0.3083
   53TMC2    C7  817   1.886   3.617  12.335 -0.0025 -0.5524 -0.5296
   53TMC2    C8  818   2.208   3.941  12.422 -0.5518  0.3308  0.1819
   53TMC2    O1  819   1.809   3.631  12.243  0.1089  0.0323 -0.2105
   53TMC2    O2  820   2.248   3.898  12.532 -0.2207  0.2349 -0.1653
   53TMC2    O5  821   2.206   4.073  12.387  0.0523 -0.1850 -0.5456
   53TMC2    H5  822   2.147   4.096  12.313 -2.1764  0.4073  1.3861
   54MPD2     C  823   1.966   3.839  11.698  1.5472  0.0776 -0.1515
   54MPD2    C1  824   1.908   3.759  11.798 -0.3580 -0.2680 -0.0183
   54MPD2    C2  825   1.811   3.669  11.765  0.4573 -0.0900  0.0087
   54MPD2    C3  826   1.770   3.642  11.629 -0.0577 -0.9308 -0.2388
   54MPD2    C4  827   1.839   3.713  11.533 -0.1354 -0.2030  0.1797
   54MPD2    C5  828   1.930   3.816  11.565 -0.4530 -0.3504  0.3168
   54MPD2     H  829   1.758   3.615  11.842  0.0401 -1.1683 -1.0237
   54MPD2    H1  830   1.814   3.693  11.430 -1.0276 -0.9190  0.5278
   54MPD2    H2  831   2.019   3.932  11.719 -0.8907  1.5236 -0.3533
   54MPD2    H3  832   1.974   3.876  11.486 -0.0797 -1.5285 -0.3552
   54MPD2     N  833   1.672   3.554  11.595 -0.1185  0.4021 -0.7119
   54MPD2    H5  834   1.646   3.551  11.497  0.2509 -1.0605 -0.7599
   54MPD2    N1  835   1.952   3.761  11.933 -0.3950  0.6799 -0.0783
   54MPD2    H7  836   1.901   3.694  11.989 -0.9121  0.9175 -0.2693
   55MPD2     C  837   2.558   1.340   0.123  0.5811 -0.5100  0.3386
   55MPD2    C1  838   2.521   1.266   0.233  0.3001 -0.3554 -0.1216
   55MPD2    C2  839   2.421   1.310   0.314 -0.7190  0.2614  0.4520
   55MPD2    C3  840   2.364   1.433   0.296  0.1710  0.4388  0.2679
   55MPD2    C4  841   2.419   1.516   0.203 -0.0507  0.3522  0.0765
   55MPD2    C5  842   2.516   1.472   0.120 -0.3731  0.3976 -0.5926
   55MPD2     H  843   2.359   1.249   0.379  1.6665 -2.1509  0.4836
   55MPD2    H1  844   2.387   1.619   0.191 -1.6306 -0.2068 -0.5545
   55MPD2    H2  845   2.632   1.313   0.048  2.0576  1.2578  1.1402
   55MPD2    H3  846   2.547   1.546   0.047  1.1734  0.7070  0.3821
   55MPD2     N  847   2.256   1.467   0.378  1.1634  0.0471 -0.1121
   55MPD2    H5  848   2.227   1.388   0.436  0.2316 -0.6647 -1.5533
   55MPD2    N1  849   2.558   1.131   0.222 -0.7519  0.5780 -0.1361
   55MPD2    H7  850   2.625   1.108   0.149 -1.2105  2.0268 -1.0055
   56TCq2    C1  851   2.540   1.041   0.326  0.5951  0.5026 -1.1768
   56TCq2    O2  852   2.486   1.069   0.430  0.4595  0.0930 -0.6706
   56TCq2    C2  853   2.613   0.911   0.314 -0.0078  0.1388 -0.0292
   56TCq2    C3  854   2.593   0.854   0.190  0.1081 -0.3390 -0.1067
   56TCq2    C4  855   2.604   0.717   0.179 -0.3318 -0.4933 -0.4634
   56TCq2    C5  856   2.638   0.646   0.286  0.3128 -0.0791  0.4690
   56TCq2    C6  857   2.668   0.704   0.405  0.3845  0.4789 -0.1990
   56TCq2    C7  858   2.631   0.831   0.426  0.3120 -0.0972 -0.1343
   56TCq2    C8  859   2.662   0.615   0.518  1.0210 -0.2232 -0.4838
   56TCq2    O4  860   2.719   0.512   0.510 -0.3959 -0.0098  0.3704
   56TCq2    C9  861   2.550   0.649   0.059  0.1263  0.0869  0.5110
   56TCq2    O5  862   2.486   0.726  17.679  0.0154 -0.2033 -0.2089
   56TCq2    O6  863   2.552   0.523   0.053  0.0897  0.3487  0.3203
   56TCq2    H2  864   2.571   0.900   0.094 -1.7706 -0.9978 -0.0025
   56TCq2    H3  865   2.652   0.539   0.280  1.7894  0.2799 -2.4052
   56TCq2    H4  866   2.664   0.876   0.519  2.7974  0.7887 -1.4258
   57TMC2    C1  867   1.552   2.484  13.584 -0.2061 -0.0854  0.1171
   57TMC2    C2  868   1.679   2.453  13.627  0.3648  0.2342  0.2745
   57TMC2    C3  869   1.747   2.352  13.563 -0.2799  0.2772  0.1686
   57TMC2    C4  870   1.508   2.436  13.462 -0.3678 -0.0710  0.7522
   57TMC2    C5  871   1.574   2.336  13.404  0.4998 -1.0430 -0.9588
   57TMC2    C6  872   1.696   2.295  13.455 -0.1789  0.5380 -0.0079
   57TMC2     C  873   1.460   2.574  13.652 -0.6866 -0.7629 -0.4708
   57TMC2     O  874   1.383   2.636  13.582 -0.5983  0.0250  0.8977
   57TMC2     H  875   1.703   2.480  13.729 -0.4690  1.0300  0.2593
   57TMC2    H1  876   1.411   2.460  13.421 -0.2296  0.2028  0.5853
   57TMC2    H2  877   1.747   2.215  13.403 -0.8581 -0.6051  1.0890
   57TMC2    C7  878   1.498   2.255  13.306 -0.8194  0.3547  0.6085
   57TMC2    C8  879   1.840   2.272  13.633  0.6233  0.0512  0.3276
   57TMC2    O1  880   1.379   2.288  13.291  0.1765 -0.2536  0.1672
   57TMC2    O2  881   1.859   2.148  13.613  0.0040 -0.1015  0.2110
   57TMC2    O5  882   1.914   2.354  13.711  0.3214 -0.2922  0.3359
   57TMC2    H5  883   1.893   2.450  13.706 -0.1294 -0.4854 -1.5460
   58MPD2     C  884   1.152   2.628  14.057 -0.2044 -0.5353 -0.1203
   58MPD2    C1  885   1.156   2.699  13.938  0.5884 -0.3438 -0.1638
   58MPD2    C2  886   1.242   2.660  13.842  0.6400 -0.9901  0.7479
   58MPD2    C3  887   1.325   2.550  13.862 -0.1144  0.6008 -0.2930
   58MPD2    C4  888   1.312   2.472  13.975  0.1656  0.2157  0.3374
   58MPD2    C5  889   1.229   2.512  14.075 -0.0091 -0.2886 -0.1645
   58MPD2     H  890   1.227   2.711  13.748 -1.6441  0.6101  1.9750
   58MPD2    H1  891   1.370   2.380  13.981 -0.7172 -0.5297 -2.2737
   58MPD2    H2  892   1.095   2.659  14.144 -0.6155  1.0993 -0.9939
   58MPD2    H3  893   1.220   2.452  14.165  0.3609 -1.2677 -0.7806
   58MPD2     N  894   1.431   2.509  13.774 -0.7954 -0.1085  0.5929
   58MPD2    H5  895   1.496   2.432  13.789 -2.6403 -1.5655  1.0049
   58MPD2    N1  896   1.052   2.796  13.903  0.0043  0.7201 -0.6681
   58MPD2    H7  897   1.065   2.837  13.811 -0.9854 -2.1971 -2.1156
   59MPD2     C  898   4.264   2.825  12.828 -0.1744  0.5913 -0.8874
   59MPD2    C1  899   4.206   2.782  12.936  0.1318 -0.3297  0.7883
   59MPD2    C2  900   4.263   2.807  13.060 -0.2022 -0.2283 -0.5440
   59MPD2    C3  901   4.369   2.900  13.067 -0.0440  0.5692 -0.5839
   59MPD2    C4  902   4.424   2.947  12.945 -0.0818 -0.1385  0.3246
   59MPD2    C5  903   4.369   2.905  12.833  0.4898  0.1658 -0.6660
   59MPD2     H  904   4.212   2.775  13.150 -0.4214 -2.8074 -1.5930
   59MPD2    H1  905   4.508   3.015  12.947 -0.8163  0.7213  1.7336
   59MPD2    H2  906   4.229   2.802  12.728  0.1265  1.3820 -1.1737
   59MPD2    H3  907   4.405   2.946  12.739  1.4642  0.8484  0.0030
   59MPD2     N  908   4.429   2.944  13.183  0.0930 -0.0098 -0.3139
   59MPD2    H5  909   4.515   2.997  13.173 -0.8670  1.3956 -1.1203
   59MPD2    N1  910   4.079   2.714  12.926  0.3711  0.2031  0.6656
   59MPD2    H7  911   4.050   2.668  13.012 -2.3246  0.5473 -0.0761
   60TCq2    C1  912   3.996   2.697  12.816 -0.8435 -0.6660 -0.1810
   60TCq2    O2  913   4.008   2.748  12.706 -0.1287  0.7548  0.3853
   60TCq2    C2  914   3.883   2.611  12.843 -0.4833 -0.0083 -0.3615
   60TCq2    C3  915   3.871   2.563  12.971 -0.4092  0.4746  0.8497
   60TCq2    C4  916   3.791   2.447  12.987  0.2359 -0.5866 -0.3412
   60TCq2    C5  917   3.718   2.393  12.882 -0.3595 -0.0739  0.2546
   60TCq2    C6  918   3.732   2.446  12.763  0.6852  0.2722 -0.2290
   60TCq2    C7  919   3.819   2.552  12.743  0.4288 -0.2194 -0.1382
   60TCq2    C8  920   3.631   2.410  12.662 -0.3035 -0.3427  0.3429
   60TCq2    O4  921   3.565   2.310  12.684 -0.3291  0.0572  0.0838
   60TCq2    C9  922   3.765   2.406  13.123  0.1062 -0.4635 -0.0303
   60TCq2    O5  923   3.811   2.471  13.221 -0.1497 -0.0927 -0.2924
   60TCq2    O6  924   3.667   2.328  13.143  0.0780 -0.6642  0.3739
   60TCq2    H2  925   3.899   2.613  13.063 -1.0461  1.9650  0.2315
   60TCq2    H3  926   3.655   2.306  12.899 -0.0578 -0.5232 -0.9746
   60TCq2    H4  927   3.841   2.578  12.640  0.5177  1.7854  0.3779
   61MPD2     C  928   3.597   3.623  14.906 -0.6604  1.1418  0.0480
   61MPD2    C1  929   3.513   3.729  14.938  0.3733  0.2986  0.4087
   61MPD2    C2  930   3.522   3.848  14.875  0.0773 -0.4716  0.0466
   61MPD2    C3  931   3.619   3.865  14.779 -0.2288 -0.1639  0.1167
   61MPD2    C4  932   3.712   3.763  14.756  0.0859  0.3492  0.6062
   61MPD2    C5  933   3.697   3.637  14.814  0.8112 -0.8323 -0.1756
   61MPD2     H  934   3.459   3.932  14.902 -0.5780 -0.5799 -1.1243
   61MPD2    H1  935   3.788   3.760  14.679  0.6107  2.2269  1.0472
   61MPD2    H2  936   3.590   3.525  14.953 -1.5070  0.1339 -2.1820
   61MPD2    H3  937   3.766   3.556  14.796  0.1177 -1.4786  0.0777
   61MPD2     N  938   3.632   3.991  14.722  0.0874 -0.5324 -0.0338
   61MPD2    H5  939   3.551   4.051  14.731 -1.4523 -2.6354 -0.1629
   61MPD2    N1  940   3.425   3.729  15.050 -0.5316 -0.9659  0.1781
   61MPD2    H7  941   3.381   3.816  15.078  2.1970  1.0730 -1.9570
   62TCq2    C1  942   3.393   3.616  15.122 -0.3016  0.2378  0.7055
   62TCq2    O2  943   3.389   3.498  15.085 -0.1001 -0.5538 -0.1015
   62TCq2    C2  944   3.330   3.657  15.247 -0.1732  0.6629  0.9057
   62TCq2    C3  945   3.237   3.578  15.304  0.4316  0.2076  1.4846
   62TCq2    C4  946   3.184   3.621  15.422  0.3451 -0.2670  0.3009
   62TCq2    C5  947   3.233   3.721  15.494 -0.6052  0.4067  0.4955
   62TCq2    C6  948   3.332   3.791  15.438  0.1110 -0.2858  0.1139
   62TCq2    C7  949   3.381   3.769  15.313  0.3397 -0.2468  0.4625
   62TCq2    C8  950   3.348   3.921  15.493  0.0709  0.2365  0.1773
   62TCq2    O4  951   3.347   4.002  15.403  0.0469 -0.6053  0.5132
   62TCq2    C9  952   3.084   3.536  15.474 -0.3347  0.0576 -0.1183
   62TCq2    O5  953   3.044   3.444  15.398 -0.2306 -0.2169  0.0833
   62TCq2    O6  954   3.022   3.585  15.575 -0.1730  0.4727  0.8392
   62TCq2    H2  955   3.203   3.488  15.255  0.8751 -0.0000  1.5590
   62TCq2    H3  956   3.194   3.745  15.593 -0.9990  0.3831  0.3484
   62TCq2    H4  957   3.460   3.832  15.274 -0.2962 -0.4456 -1.1236
   63TMC2    C1  958   3.142   3.964  11.240 -0.5269  0.3409  0.8903
   63TMC2    C2  959   3.221   4.039  11.317 -0.8629  0.0620  0.5637
   63TMC2    C3  960   3.300   4.133  11.250 -0.4145 -0.5075 -0.8935
   63TMC2    C4  961   3.118   4.001  11.105  0.3459 -0.0665 -0.0935
   63TMC2    C5  962   3.196   4.095  11.043 -0.7177  0.0180 -0.3356
   63TMC2    C6  963   3.287   4.170  11.116 -0.1186  0.5809  0.3185
   63TMC2     C  964   3.032   3.886  11.310  0.4075 -0.0215 -0.0415
   63TMC2     O  965   3.024   3.893  11.431 -0.2176  0.4677 -0.1423
   63TMC2     H  966   3.235   4.022  11.424  0.4765  0.1826  0.4160
   63TMC2    H1  967   3.051   3.946  11.039  0.3469 -1.9672  1.5047
   63TMC2    H2  968   3.339   4.261  11.089  0.4909  0.3150  0.5996
   63TMC2    C7  969   3.161   4.144  10.910  0.0638 -0.4513 -0.1088
   63TMC2    C8  970   3.378   4.212  11.346  0.7109 -0.2249  0.5285
   63TMC2    O1  971   3.061   4.110  10.843 -0.4826 -0.0184 -0.2320
   63TMC2    O2  972   3.344   4.214  11.464 -0.3704  0.1726 -0.0053
   63TMC2    O5  973   3.471   4.292  11.289 -0.1119  0.0111  0.2895
   63TMC2    H5  974   3.502   4.262  11.201 -1.1942 -0.2663  0.0033
   64MPD2     C  975   2.623   3.579  11.280 -0.3178  0.3683  0.6036
   64MPD2    C1  976   2.692   3.581  11.163 -0.2714  1.0209  0.2125
   64MPD2    C2  977   2.811   3.645  11.153  0.2299 -0.1650 -0.1616
   64MPD2    C3  978   2.863   3.718  11.257 -0.8369  0.0851 -0.4426
   64MPD2    C4  979   2.791   3.724  11.372 -0.0503  0.2214 -0.3294
   64MPD2    C5  980   2.670   3.658  11.385 -1.0365  0.1213  0.6738
   64MPD2     H  981   2.854   3.651  11.054  0.3876  2.9089  0.1009
   64MPD2    H1  982   2.808   3.784  11.461 -0.3023  1.3159 -1.0196
   64MPD2    H2  983   2.537   3.515  11.297 -2.8575  3.4042 -0.6740
   64MPD2    H3  984   2.616   3.665  11.478 -3.9004 -1.4979 -0.8796
   64MPD2     N  985   2.980   3.791  11.227  0.3739  0.1908  0.5968
   64MPD2    H5  986   3.011   3.788  11.130  1.3982 -0.5668  0.9596
   64MPD2    N1  987   2.644   3.511  11.052  0.2414  0.3097  0.2253
   64MPD2    H7  988   2.707   3.485  10.977 -0.1633  1.4951 -0.5152
   65MPD2     C  989   3.786   3.734  15.846  1.2447 -0.3307  0.4095
   65MPD2    C1  990   3.792   3.782  15.713 -0.3307 -0.2735 -0.6128
   65MPD2    C2  991   3.739   3.699  15.613 -0.1660  0.6463 -0.6093
   65MPD2    C3  992   3.679   3.577  15.647  0.9973 -0.0013 -0.2714
   65MPD2    C4  993   3.673   3.539  15.782 -0.6463  0.7354 -0.3633
   65MPD2    C5  994   3.737   3.611  15.878 -0.1071 -0.4192  0.1046
   65MPD2     H  995   3.743   3.739  15.513  0.2758  1.0552 -0.4283
   65MPD2    H1  996   3.634   3.441  15.809  1.5931 -0.3743 -1.2383
   65MPD2    H2  997   3.817   3.793  15.931 -2.6077  1.2591  0.7178
   65MPD2    H3  998   3.746   3.585  15.982 -1.4661 -3.0488 -0.4489
   65MPD2     N  999   3.628   3.489  15.553 -0.0873 -0.4566  1.1720
   65MPD2    H5 1000   3.575   3.411  15.590 -2.3776  0.3664 -0.4270
   65MPD2    N1 1001   3.829   3.918  15.684  0.5986 -0.3805 -0.5989
   65MPD2    H7 1002   3.845   3.930  15.585  2.3770  1.5472 -0.0878
   66TCq2    C1 1003   3.847   4.020  15.778 -0.2159  0.2596 -0.1965
   66TCq2    O2 1004   3.813   4.023  15.896  0.0659  0.6163  0.5379
   66TCq2    C2 1005   3.885   4.143  15.712  0.2282  0.2663 -0.6575
   66TCq2    C3 1006   3.938   4.144  15.582 -0.3501 -0.6301 -0.0355
   66TCq2    C4 1007   3.935   4.266  15.523 -0.1484 -0.5067 -0.4626
   66TCq2    C5 1008   3.895   4.383  15.593 -0.3839 -0.0851  0.4809
   66TCq2    C6 1009   3.846   4.372  15.720 -0.2226 -0.2584 -0.2470
   66TCq2    C7 1010   3.843   4.253  15.785 -0.1947  0.5212 -0.2142
   66TCq2    C8 1011   3.764   4.486  15.770  0.2150  0.4638 -0.7005
   66TCq2    O4 1012   3.770   4.584  15.698  0.1614 -0.1961  0.1699
   66TCq2    C9 1013   3.964   4.274  15.379  0.1289 -0.0014  0.0413
   66TCq2    O5 1014   3.940   4.381  15.321  0.4889  0.0442  0.1723
   66TCq2    O6 1015   3.987   4.167  15.322  0.1949  0.1368 -0.2879
   66TCq2    H2 1016   3.974   4.059  15.525  2.8626  2.1785 -2.1433
   66TCq2    H3 1017   3.902   4.477  15.539 -1.6665  0.8074  1.8882
   66TCq2    H4 1018   3.790   4.245  15.880  0.3773 -0.2077  0.0425
   67MPD2     C 1019   3.999   2.723  13.927 -0.8310  0.3258 -0.0159
   67MPD2    C1 1020   3.939   2.841  13.970  0.2896  0.1735 -0.1453
   67MPD2    C2 1021   3.806   2.874  13.932  0.0561  0.6105 -0.9241
   67MPD2    C3 1022   3.738   2.794  13.845 -0.2311  0.1736  0.3121
   67MPD2    C4 1023   3.802   2.683  13.789  0.5066 -0.7839  0.1075
   67MPD2    C5 1024   3.930   2.646  13.827  0.1858 -0.1656  0.4915
   67MPD2     H 1025   3.759   2.958  13.982 -0.3776 -0.0654 -0.1924
   67MPD2    H1 1026   3.750   2.609  13.729 -0.0224 -0.5256  0.2491
   67MPD2    H2 1027   4.100   2.701  13.957 -0.0921  4.4902  0.4914
   67MPD2    H3 1028   3.983   2.566  13.777  0.2438 -0.6059  1.2726
   67MPD2     N 1029   3.600   2.819  13.820 -0.6542 -0.0998  0.2213
   67MPD2    H5 1030   3.555   2.889  13.877 -0.0298 -0.3359  0.9973
   67MPD2    N1 1031   3.988   2.920  14.076  0.1587  0.0613 -0.2853
   67MPD2    H7 1032   3.946   3.008  14.104 -1.8512 -0.3768 -1.9588
   68TCq2    C1 1033   4.082   2.876  14.166 -0.0045 -0.1091 -0.1899
   68TCq2    O2 1034   4.123   2.761  14.186  0.3260 -0.0443 -0.5362
   68TCq2    C2 1035   4.115   2.972  14.276 -0.4528  0.5098  0.1072
   68TCq2    C3 1036   4.076   3.103  14.255  0.1770 -0.2773  0.9453
   68TCq2    C4 1037   4.109   3.189  14.358  0.3499  0.0797  0.5157
   68TCq2    C5 1038   4.173   3.151  14.470  0.0677  0.3328 -0.7656
   68TCq2    C6 1039   4.220   3.022  14.474 -0.4591 -0.8719 -0.8278
   68TCq2    C7 1040   4.189   2.933  14.379  0.3110 -0.0494 -0.0867
   68TCq2    C8 1041   4.304   2.968  14.577 -0.5563  0.0666 -0.2734
   68TCq2    O4 1042   4.355   2.861  14.567 -0.0461 -0.0347  0.5488
   68TCq2    C9 1043   4.063   3.320  14.337 -0.0434 -0.1878  0.1932
   68TCq2    O5 1044   4.021   3.356  14.224 -0.4746 -0.4050 -0.3052
   68TCq2    O6 1045   4.066   3.394  14.441  0.3196  0.5485  0.5921
   68TCq2    H2 1046   4.016   3.135  14.171  0.5601  1.5287  1.3689
   68TCq2    H3 1047   4.180   3.230  14.544  1.0276  0.7252 -1.2695
   68TCq2    H4 1048   4.218   2.830  14.396 -2.5737 -0.5832  1.5215
   69TMC2    C1 1049   1.399   4.305  12.036 -0.2815  0.5905  0.0442
   69TMC2    C2 1050   1.273   4.283  11.983 -0.2182 -0.2546  0.4714
   69TMC2    C3 1051   1.267   4.300  11.848  0.0203 -0.2602 -0.6798
   69TMC2    C4 1052   1.510   4.336  11.954  0.2898 -0.3820 -0.4637
   69TMC2    C5 1053   1.485   4.365  11.823 -0.5296  0.5221 -0.0617
   69TMC2    C6 1054   1.364   4.352  11.768  0.0391 -0.4420  0.3815
   69TMC2     C 1055   1.422   4.245  12.168 -0.0243  0.0891 -0.7017
   69TMC2     O 1056   1.325   4.215  12.236  0.1772  0.3729  0.0897
   69TMC2     H 1057   1.187   4.272  12.048  1.8394 -0.9359  3.0790
   69TMC2    H1 1058   1.604   4.363  12.000  0.2397  0.2703 -0.7416
   69TMC2    H2 1059   1.352   4.367  11.661 -0.8501  2.2205  0.8410
   69TMC2    C7 1060   1.608   4.357  11.747 -1.1085 -0.1111  0.8592
   69TMC2    C8 1061   1.140   4.339  11.806  0.5933 -0.0864  0.2657
   69TMC2    O1 1062   1.710   4.322  11.806  0.2973  0.0351  0.0376
   69TMC2    O2 1063   1.125   4.430  11.728  0.0086 -0.1784  0.3931
   69TMC2    O5 1064   1.040   4.264  11.858 -0.4296 -0.5562  0.0721
   69TMC2    H5 1065   1.057   4.190  11.920  0.1798 -0.0545  0.5189
   70MPD2     C 1066   1.729   4.052  12.256 -0.2748 -0.0715  0.1043
   70MPD2    C1 1067   1.601   4.106  12.282  0.4622  0.0982 -0.2354
   70MPD2    C2 1068   1.544   4.087  12.409  0.4003  0.4728 -0.1091
   70MPD2    C3 1069   1.620   4.017  12.506 -0.4918  0.2481  0.3125
   70MPD2    C4 1070   1.745   3.963  12.473  0.2474  0.0856  0.0605
   70MPD2    C5 1071   1.806   3.990  12.353 -0.0720 -0.8287 -0.7426
   70MPD2     H 1072   1.447   4.129  12.433 -0.2229 -0.8713 -0.3295
   70MPD2    H1 1073   1.801   3.906  12.546 -1.2521 -0.0099  1.1504
   70MPD2    H2 1074   1.764   4.061  12.154  0.6486 -0.3525  0.3942
   70MPD2    H3 1075   1.898   3.938  12.328 -0.7594 -0.5112 -3.8506
   70MPD2     N 1076   1.571   3.982  12.634  0.5705  0.3890 -0.4686
   70MPD2    H5 1077   1.635   3.924  12.687 -1.2981 -0.8943  0.3808
   70MPD2    N1 1078   1.543   4.182  12.174  0.0838  0.0847  0.4880
   70MPD2    H7 1079   1.597   4.202  12.090 -2.2528 -0.3268 -1.0875
   71TMC2    C1 1080   4.111   3.380   1.831 -0.1251 -0.4477 -0.5118
   71TMC2    C2 1081   4.196   3.272   1.821  0.1414 -0.0583  0.3358
   71TMC2    C3 1082   4.132   3.153   1.806 -0.5778  0.1983  0.5397
   71TMC2    C4 1083   3.973   3.369   1.824 -0.1990 -0.5753  0.9187
   71TMC2    C5 1084   3.921   3.241   1.819 -0.5176 -0.5517 -0.1788
   71TMC2    C6 1085   4.000   3.132   1.817  0.1951  0.2115 -0.7847
   71TMC2     C 1086   4.167   3.512   1.860 -0.1195  0.2232  0.0158
   71TMC2     O 1087   4.096   3.606   1.834 -0.7054  0.4033  0.1472
   71TMC2     H 1088   4.304   3.274   1.830  0.1439  1.9512 -0.0234
   71TMC2    H1 1089   3.917   3.458   1.851  1.3766  1.1639 -1.4633
   71TMC2    H2 1090   3.967   3.029   1.806  0.1131 -0.0634  1.9701
   71TMC2    C7 1091   3.776   3.219   1.839 -0.4717  0.1771  0.8014
   71TMC2    C8 1092   4.205   3.037   1.844  0.2355  0.2238 -0.2266
   71TMC2    O1 1093   3.743   3.111   1.870  0.3028  0.4014 -0.5513
   71TMC2    O2 1094   4.164   2.961   1.928  0.0024  0.1131 -0.0687
   71TMC2    O5 1095   4.307   3.022   1.765  0.3132  0.3938  0.4737
   71TMC2    H5 1096   4.311   3.084   1.690  0.7835  0.3147  0.4350
   72MPD2     C 1097   4.523   3.839   2.038 -0.4345 -0.3143  0.0602
   72MPD2    C1 1098   4.409   3.857   1.958  0.2042  0.1296 -0.3856
   72MPD2    C2 1099   4.343   3.744   1.910 -0.4469  0.3810  0.1199
   72MPD2    C3 1100   4.373   3.615   1.952 -0.3555  0.3428 -0.3327
   72MPD2    C4 1101   4.488   3.604   2.032 -0.1780  0.4775  0.5274
   72MPD2    C5 1102   4.554   3.710   2.078  0.2912 -0.4112 -0.1403
   72MPD2     H 1103   4.253   3.767   1.854  1.0589  1.6183 -1.7939
   72MPD2    H1 1104   4.525   3.506   2.058  0.9717  0.4790 -1.1530
   72MPD2    H2 1105   4.588   3.915   2.080  0.6557 -1.2751  0.0856
   72MPD2    H3 1106   4.649   3.701   2.129  0.6807  1.1335 -0.5788
   72MPD2     N 1107   4.292   3.502   1.919 -0.2147  0.3316  0.0118
   72MPD2    H5 1108   4.328   3.415   1.958 -2.1237 -1.6682 -2.7326
   72MPD2    N1 1109   4.367   3.985   1.912  0.2959  0.1243  0.0014
   72MPD2    H7 1110   4.300   3.986   1.836 -1.1031  2.3569  1.2731
   73TMC2    C1 1111   2.802   1.509  13.699 -0.0410 -0.5863  0.3162
   73TMC2    C2 1112   2.751   1.620  13.764  1.2394 -1.4066 -0.1289
   73TMC2    C3 1113   2.762   1.625  13.900  0.2679 -0.8201 -0.3146
   73TMC2    C4 1114   2.851   1.406  13.771  0.0499  0.1401  0.1447
   73TMC2    C5 1115   2.856   1.411  13.904  0.6029 -1.2547 -0.1722
   73TMC2    C6 1116   2.805   1.519  13.972  0.6823 -0.2793  0.5267
   73TMC2     C 1117   2.885   1.535  13.586 -0.2608  0.0229  0.8658
   73TMC2     O 1118   2.982   1.464  13.585 -0.3241  0.4158 -0.3380
   73TMC2     H 1119   2.730   1.718  13.722  0.0428 -0.4209  2.8343
   73TMC2    H1 1120   2.884   1.316  13.721  1.3398  0.7819 -0.1678
   73TMC2    H2 1121   2.827   1.527  14.078 -0.0487  0.1230  0.6468
   73TMC2    C7 1122   2.992   1.388  13.952 -0.3112 -0.5997 -0.7921
   73TMC2    C8 1123   2.707   1.737  13.973  0.2032  0.8728 -0.5695
   73TMC2    O1 1124   3.008   1.386  14.074  0.4408 -0.3477 -0.2655
   73TMC2    O2 1125   2.743   1.780  14.083  0.1195  0.6566 -0.0168
   73TMC2    O5 1126   2.595   1.771  13.911 -0.3371  0.4202 -0.0193
   73TMC2    H5 1127   2.563   1.706  13.845 -0.0851  0.2736  0.0051
   74MPD2     C 1128   3.105   1.847  13.244  0.6583 -0.6224  0.0676
   74MPD2    C1 1129   3.140   1.714  13.287 -0.5305  0.2890 -0.4501
   74MPD2    C2 1130   3.059   1.638  13.368 -0.2119  0.6868  0.5241
   74MPD2    C3 1131   2.943   1.698  13.409 -0.0469 -0.4530 -0.2330
   74MPD2    C4 1132   2.903   1.819  13.365 -0.0220 -0.1459 -0.1169
   74MPD2    C5 1133   2.983   1.897  13.283  0.8611 -0.1738 -0.5593
   74MPD2     H 1134   3.088   1.545  13.414 -1.0385  0.0468 -0.2414
   74MPD2    H1 1135   2.815   1.868  13.407 -0.0357  0.9779 -1.4648
   74MPD2    H2 1136   3.171   1.909  13.183  0.2710 -2.0669 -1.8395
   74MPD2    H3 1137   2.948   1.996  13.257  0.6681 -0.2444 -0.5708
   74MPD2     N 1138   2.861   1.648  13.515  0.1719 -0.0156 -0.8266
   74MPD2    H5 1139   2.790   1.711  13.550  0.5928 -0.1257  0.2122
   74MPD2    N1 1140   3.272   1.679  13.261 -0.4257  0.7665 -0.2117
   74MPD2    H7 1141   3.331   1.743  13.208  0.7364  0.8881  1.2430
   75TCq2    C1 1142   3.517   2.762  13.732  0.7617  0.0712 -0.3704
   75TCq2    O2 1143   3.541   2.679  13.644 -0.2212 -0.2530 -0.2860
   75TCq2    C2 1144   3.381   2.817  13.743 -0.5600 -0.3364 -0.1626
   75TCq2    C3 1145   3.329   2.846  13.862  0.2168 -0.4168 -0.1531
   75TCq2    C4 1146   3.211   2.911  13.870 -0.3319  0.1901  0.4876
   75TCq2    C5 1147   3.150   2.953  13.758  0.3704 -0.3485  0.3813
   75TCq2    C6 1148   3.218   2.928  13.632  0.1367  0.0258  0.5070
   75TCq2    C7 1149   3.337   2.854  13.627  0.3490 -0.2933  0.1550
   75TCq2    C8 1150   3.176   3.003  13.514  0.5384  0.6268  0.4444
   75TCq2    O4 1151   3.197   2.953  13.403  0.3080 -0.2437  0.4955
   75TCq2    C9 1152   3.145   2.914  14.003 -0.2225 -0.2185  0.4127
   75TCq2    O5 1153   3.041   2.986  14.017  0.3986 -0.2787 -0.3323
   75TCq2    O6 1154   3.180   2.839  14.094 -0.6286  0.4552 -0.0338
   75TCq2    H2 1155   3.368   2.807  13.955 -1.6909 -1.4648  0.2077
   75TCq2    H3 1156   3.052   2.998  13.772  0.1736 -1.5244  2.7649
   75TCq2    H4 1157   3.395   2.851  13.536 -1.3545  0.0337 -0.9318
   76MPD2     C 1158   2.477   3.796  11.986 -0.4553 -0.4245  0.3405
   76MPD2    C1 1159   2.510   3.769  11.856  0.3729 -0.3959  1.2136
   76MPD2    C2 1160   2.571   3.649  11.821  0.8481 -0.7215 -0.3356
   76MPD2    C3 1161   2.601   3.563  11.931  0.3397 -0.1467  0.3933
   76MPD2    C4 1162   2.565   3.586  12.061  0.2227 -0.4445  0.0902
   76MPD2    C5 1163   2.506   3.705  12.095  0.2746 -0.2754  0.1416
   76MPD2     H 1164   2.606   3.627  11.721  0.8039  0.0546 -0.5251
   76MPD2    H1 1165   2.587   3.511  12.136 -2.1808  0.5340  1.7727
   76MPD2    H2 1166   2.424   3.887  12.011  0.9180  1.1729 -2.4575
   76MPD2    H3 1167   2.478   3.741  12.194 -0.8351 -2.1025  0.4943
   76MPD2     N 1168   2.666   3.440  11.905  0.2983  0.3833 -0.0026
   76MPD2    H5 1169   2.679   3.376  11.983  0.3973  0.3844 -0.0175
   76MPD2    N1 1170   2.477   3.856  11.747  0.2528 -0.0601  0.3981
   76MPD2    H7 1171   2.481   3.820  11.652  0.0172 -1.2867  0.8632
   77TCq2    C1 1172   2.711   3.382  11.789  0.5497  0.1838 -0.1573
   77TCq2    O2 1173   2.686   3.400  11.675 -0.1206 -0.1457  0.4695
   77TCq2    C2 1174   2.778   3.258  11.833 -0.1412  0.4024  0.5030
   77TCq2    C3 1175   2.778   3.168  11.736 -0.1551 -0.5600  0.6090
   77TCq2    C4 1176   2.868   3.069  11.746 -0.0951  0.0559 -0.5740
   77TCq2    C5 1177   2.946   3.051  11.859 -0.4713 -0.0740  0.1831
   77TCq2    C6 1178   2.943   3.151  11.953  0.4745 -0.9809 -0.2986
   77TCq2    C7 1179   2.863   3.261  11.940 -0.0573 -0.2083  0.0096
   77TCq2    C8 1180   2.990   3.116  12.083 -0.6268  0.7835 -0.6497
   77TCq2    O4 1181   3.019   2.997  12.083 -0.7760 -0.0942 -0.6282
   77TCq2    C9 1182   2.870   2.970  11.645  0.0287 -0.1664  0.2614
   77TCq2    O5 1183   2.780   2.972  11.557 -0.1945 -0.0131  0.5059
   77TCq2    O6 1184   2.959   2.881  11.642 -0.2500 -0.6791  0.2948
   77TCq2    H2 1185   2.720   3.176  11.645  0.4855 -1.7700  0.1002
   77TCq2    H3 1186   3.010   2.963  11.860 -0.9832 -0.4247  2.0246
   77TCq2    H4 1187   2.869   3.344  12.009 -2.0407  0.0585 -0.1437
   78MPD1     C 1188   3.888   3.309   2.162 -0.2039  0.1073  0.1821
   78MPD1    C1 1189   3.947   3.426   2.195 -0.6789 -0.3047 -0.2300
   78MPD1    C2 1190   4.078   3.420   2.224  0.1905  0.0078 -0.2660
   78MPD1    C3 1191   4.159   3.306   2.207 -0.1298  0.0199  0.4096
   78MPD1    C4 1192   4.102   3.194   2.147 -0.0530 -0.0868  0.5538
   78MPD1    C5 1193   3.963   3.193   2.144 -0.6616  0.1438  0.4724
   78MPD1     H 1194   4.121   3.515   2.252  0.1456 -0.7880  2.4945
   78MPD1    H1 1195   4.159   3.102   2.142 -1.3567 -0.8594 -0.2104
   78MPD1    H2 1196   3.780   3.299   2.156 -0.3350  2.8082 -1.7826
   78MPD1    H3 1197   3.907   3.101   2.128  1.3056 -1.1681  1.1977
   78MPD1     N 1198   4.300   3.299   2.239 -0.0251  0.2604  0.1209
   78MPD1    H5 1199   4.344   3.210   2.221 -0.4403 -0.3904  2.3747
   78MPD1    N1 1200   3.855   3.523   2.254 -0.5829  0.3137  0.1437
   78MPD1    H6 1201   3.768   3.518   2.201 -0.8148  0.8214  0.4740
   78MPD1    H7 1202   3.891   3.617   2.241  0.9204 -0.6898 -2.8327
   79TCq2    C1 1203   4.386   3.390   2.290  0.1667 -0.0017  0.6739
   79TCq2    O2 1204   4.366   3.508   2.328 -0.4783  0.0343  0.7504
   79TCq2    C2 1205   4.518   3.334   2.320  0.6178  1.4558 -0.4944
   79TCq2    C3 1206   4.539   3.201   2.357 -0.1902 -0.0296  0.1431
   79TCq2    C4 1207   4.660   3.157   2.404  0.5472 -0.5730 -0.5402
   79TCq2    C5 1208   0.045   3.234   2.411  0.4215 -0.1410  0.2915
   79TCq2    C6 1209   0.027   3.363   2.367 -0.1192 -0.4785 -0.6446
   79TCq2    C7 1210   4.630   3.415   2.323 -0.4466  0.4305 -0.2018
   79TCq2    C8 1211   0.128   3.467   2.391  0.0107  0.1690  0.0564
   79TCq2    O4 1212   0.116   3.577   2.336  0.3542  0.1405  0.4119
   79TCq2    C9 1213   4.677   3.023   2.456 -0.1916  0.2500  0.5106
   79TCq2    O5 1214   0.053   3.009   2.524  0.4632  0.0477 -0.1782
   79TCq2    O6 1215   4.581   2.945   2.445 -0.3058  0.7283 -0.5207
   79TCq2    H2 1216   4.452   3.144   2.384 -0.7815  0.4562 -0.7222
   79TCq2    H3 1217   0.140   3.183   2.419  0.0291 -0.9452 -0.2375
   79TCq2    H4 1218   4.618   3.518   2.291  1.8840  0.9786  0.6523
   80MPD2     C 1219   1.289   3.408  12.290 -0.3607 -0.0191 -0.8994
   80MPD2    C1 1220   1.225   3.397  12.164 -0.6269  0.0671 -0.3790
   80MPD2    C2 1221   1.094   3.445  12.149  0.1397 -1.1561  0.0794
   80MPD2    C3 1222   1.033   3.513  12.256  0.4965  0.2618  0.1113
   80MPD2    C4 1223   1.102   3.522  12.376  0.1274  0.0748  0.2608
   80MPD2    C5 1224   1.229   3.473  12.395  0.5210  0.2872  0.1927
   80MPD2     H 1225   1.050   3.430  12.051 -0.9888  1.5586  0.1656
   80MPD2    H1 1226   1.058   3.560  12.468 -2.5473  0.9508 -1.3726
   80MPD2    H2 1227   1.393   3.383  12.304  0.4902  2.0634 -3.3961
   80MPD2    H3 1228   1.288   3.463  12.485 -0.8436  2.3450  1.2946
   80MPD2     N 1229   0.900   3.550  12.251  0.3702 -0.8274 -0.5736
   80MPD2    H5 1230   0.854   3.577  12.337  2.3052  1.4371 -0.2401
   80MPD2    N1 1231   1.285   3.326  12.057 -0.2109 -0.7287 -0.5802
   80MPD2    H7 1232   1.219   3.289  11.990 -0.9711 -0.3235 -0.0574
   81TCq2    C1 1233   1.418   3.283  12.056  0.6043  0.0348  0.3845
   81TCq2    O2 1234   1.513   3.334  12.116 -0.1100 -0.3494 -0.1721
   81TCq2    C2 1235   1.442   3.188  11.948 -0.6735 -0.2968  0.0454
   81TCq2    C3 1236   1.567   3.173  11.901  0.2115  0.1234  0.3055
   81TCq2    C4 1237   1.595   3.110  11.781  0.3352 -0.2697  1.0654
   81TCq2    C5 1238   1.493   3.053  11.707 -0.1777  0.4544 -0.7397
   81TCq2    C6 1239   1.367   3.058  11.771  0.3586  0.6596  0.1153
   81TCq2    C7 1240   1.339   3.113  11.894  0.2732 -0.7479  0.9592
   81TCq2    C8 1241   1.253   2.993  11.712  0.0113  0.2560  0.4961
   81TCq2    O4 1242   1.239   2.995  11.592 -1.1231 -0.0154  0.3822
   81TCq2    C9 1243   1.721   3.103  11.731  0.0747 -0.2386  0.1511
   81TCq2    O5 1244   1.812   3.132  11.812  0.0436 -0.0314  0.0242
   81TCq2    O6 1245   1.741   3.091  11.607 -0.7455  0.0499 -0.0659
   81TCq2    H2 1246   1.650   3.228  11.944  1.6666 -2.6234  0.9997
   81TCq2    H3 1247   1.508   3.007  11.610  1.1646  0.5582 -0.5829
   81TCq2    H4 1248   1.235   3.121  11.922  0.1635  1.9193 -0.2599
   82MPD2     C 1249   0.056   3.070  10.935  0.4867 -0.2807 -0.6698
   82MPD2    C1 1250   4.661   3.001  10.927 -0.2571  0.3958  0.3764
   82MPD2    C2 1251   4.655   2.877  10.990  0.3510  0.2450 -0.2497
   82MPD2    C3 1252   0.044   2.821  11.051  0.6309  0.2435 -0.3533
   82MPD2    C4 1253   0.165   2.887  11.055 -0.1713  0.2384 -0.3522
   82MPD2    C5 1254   0.166   3.013  10.992  0.2273 -0.6055  0.0810
   82MPD2     H 1255   4.561   2.824  10.999  0.3292  0.2234 -0.6205
   82MPD2    H1 1256   0.253   2.850  11.106 -0.8260 -0.3103  0.3718
   82MPD2    H2 1257   0.068   3.173  10.906  0.6506 -0.0780  0.1146
   82MPD2    H3 1258   0.259   3.066  11.007  0.4476 -0.9340 -0.1079
   82MPD2     N 1259   0.044   2.699  11.116  0.3149  0.0243  0.1047
   82MPD2    H5 1260   0.134   2.677  11.156  1.4302  0.6015 -2.1133
   82MPD2    N1 1261   4.545   3.054  10.860 -0.0882  0.0299 -0.2120
   82MPD2    H7 1262   4.555   3.149  10.827  3.0748  0.1690  1.1109
   83TCq2    C1 1263   4.667   2.613  11.133 -0.6273  0.4210  0.7237
   83TCq2    O2 1264   4.544   2.634  11.137 -0.8975  0.6174 -0.3452
   83TCq2    C2 1265   4.711   2.477  11.167 -0.2088 -0.3470  0.0693
   83TCq2    C3 1266   0.112   2.434  11.122 -0.2446  0.2855 -0.6190
   83TCq2    C4 1267   0.127   2.300  11.101  0.2007  0.4531  0.4390
   83TCq2    C5 1268   0.028   2.209  11.134  0.6621 -0.1614 -0.3673
   83TCq2    C6 1269   4.635   2.259  11.181  0.0041 -0.5626  0.0357
   83TCq2    C7 1270   4.610   2.391  11.191  0.7363 -0.4248  0.3319
   83TCq2    C8 1271   4.568   2.174  11.266 -0.7617  0.0182 -0.4841
   83TCq2    O4 1272   4.452   2.199  11.282 -0.2098  0.6098  0.4208
   83TCq2    C9 1273   0.246   2.248  11.046 -0.1201 -0.1833  0.9447
   83TCq2    O5 1274   0.258   2.121  11.044  0.3350  0.5323 -0.0415
   83TCq2    O6 1275   0.336   2.327  11.005 -0.0729 -0.2754 -0.0638
   83TCq2    H2 1276   0.186   2.509  11.094  0.5294 -0.0765  0.4827
   83TCq2    H3 1277   0.043   2.103  11.116 -2.0485 -0.7716  1.0669
   83TCq2    H4 1278   4.511   2.427  11.220  1.1565  0.6459  0.4166
   84TCq2    C1 1279   1.014   2.001  10.310 -0.7367  0.3843 -0.1787
   84TCq2    O2 1280   0.923   2.027  10.228  0.1677  0.4465  0.1910
   84TCq2    C2 1281   1.004   1.885  10.396 -0.1428 -0.1936 -0.2191
   84TCq2    C3 1282   1.114   1.804  10.411  0.2346  0.1393  0.9209
   84TCq2    C4 1283   1.119   1.712  10.515 -0.0870 -0.3926  0.7811
   84TCq2    C5 1284   1.001   1.684  10.580 -0.2719 -0.1820 -0.4268
   84TCq2    C6 1285   0.886   1.755  10.552  0.1320 -1.0023 -0.8735
   84TCq2    C7 1286   0.884   1.866  10.463 -0.9297 -0.3367  0.1618
   84TCq2    C8 1287   0.785   1.765  10.658  0.0510 -0.6149  0.0682
   84TCq2    O4 1288   0.711   1.861  10.655  0.1358 -0.4560  0.8794
   84TCq2    C9 1289   1.237   1.630  10.528  0.2796 -0.1937 -0.2352
   84TCq2    O5 1290   1.330   1.647  10.444 -0.6108 -0.4727 -0.1571
   84TCq2    O6 1291   1.222   1.529  10.596  0.4152  0.5526  0.2335
   84TCq2    H2 1292   1.203   1.809  10.350  0.1090 -1.7892  0.5701
   84TCq2    H3 1293   1.018   1.621  10.667  1.1600 -0.0412 -0.6137
   84TCq2    H4 1294   0.810   1.944  10.456 -0.3266  0.0458 -1.8896
   85MPD2     C 1295   0.672   4.644  16.360  0.2324 -0.5867 -0.0751
   85MPD2    C1 1296   0.777   4.598  16.280 -0.4240 -1.1796  0.0974
   85MPD2    C2 1297   0.833   4.679  16.187  0.2935  0.1436 -0.7848
   85MPD2    C3 1298   0.797   0.088  16.179  0.2529 -0.0428  0.1948
   85MPD2    C4 1299   0.695   0.134  16.262  0.2338  0.4378  0.3945
   85MPD2    C5 1300   0.632   0.049  16.344 -0.5176 -0.4719 -0.0154
   85MPD2     H 1301   0.902   4.636  16.115 -0.9359 -0.1889 -1.7654
   85MPD2    H1 1302   0.664   0.238  16.259 -0.8698 -0.0062 -3.2525
   85MPD2    H2 1303   0.617   4.584  16.431  1.8629 -1.3023  0.5962
   85MPD2    H3 1304   0.539   0.079  16.390 -1.3596 -2.6414 -0.3080
   85MPD2     N 1305   0.853   0.177  16.095  0.3724 -0.2452 -0.0321
   85MPD2    H5 1306   0.794   0.258  16.078 -0.4074 -0.7413  0.2947
   85MPD2    N1 1307   0.813   4.461  16.277  0.7919 -0.1677  0.4570
   85MPD2    H7 1308   0.879   4.439  16.203 -1.4262 -1.3618 -1.1570
   86TCq2    C1 1309   0.980   0.170  16.048 -0.2721 -0.0268  0.3309
   86TCq2    O2 1310   1.077   0.107  16.087 -0.6822  0.1612  0.1572
   86TCq2    C2 1311   0.998   0.247  15.918  0.0347 -0.7700  0.0992
   86TCq2    C3 1312   0.899   0.344  15.898  0.3713  1.0035  0.0727
   86TCq2    C4 1313   0.942   0.454  15.832 -0.7442 -0.6564  0.3280
   86TCq2    C5 1314   1.068   0.480  15.789 -0.6331  0.0642 -0.3927
   86TCq2    C6 1315   1.162   0.388  15.822 -0.0928 -0.5564  0.1446
   86TCq2    C7 1316   1.124   0.269  15.874 -0.4310 -0.2967 -0.3256
   86TCq2    C8 1317   1.292   0.385  15.758 -0.1576  0.3319  0.5564
   86TCq2    O4 1318   1.344   0.275  15.749  0.4269  0.4106  0.2834
   86TCq2    C9 1319   0.839   0.549  15.800  0.2354 -0.2301 -1.0004
   86TCq2    O5 1320   0.722   0.524  15.842 -0.2591 -0.3644  0.0143
   86TCq2    O6 1321   0.878   0.665  15.772  0.1478  0.0875  0.0768
   86TCq2    H2 1322   0.795   0.318  15.914  0.3287 -0.3124 -2.3230
   86TCq2    H3 1323   1.083   0.575  15.739  1.6418  0.5571  1.2299
   86TCq2    H4 1324   1.195   0.197  15.914 -0.4637 -0.7529 -1.0870
   87MPD2     C 1325   3.379   3.639   1.406 -0.2820  0.2006  0.2487
   87MPD2    C1 1326   3.273   3.560   1.425  0.9016  0.0509  0.4703
   87MPD2    C2 1327   3.151   3.602   1.376 -0.0279  0.0812 -0.0497
   87MPD2    C3 1328   3.132   3.727   1.324  0.1262  0.1181  0.6090
   87MPD2    C4 1329   3.242   3.809   1.318 -0.7686 -0.0689  0.0848
   87MPD2    C5 1330   3.365   3.764   1.344  0.2131  0.4733 -0.2123
   87MPD2     H 1331   3.072   3.528   1.376 -0.0384  0.0941 -1.8576
   87MPD2    H1 1332   3.240   3.912   1.284 -1.3094  0.0913  0.6061
   87MPD2    H2 1333   3.471   3.608   1.452  1.0405  2.5271 -0.8147
   87MPD2    H3 1334   3.449   3.828   1.320 -0.6729  2.1275  1.0976
   87MPD2     N 1335   3.008   3.774   1.271  0.2455 -0.2441  0.4442
   87MPD2    H5 1336   3.026   3.869   1.239  0.0788 -1.2400 -2.6347
   87MPD2    N1 1337   3.293   3.440   1.488  0.4073  0.2517 -1.1347
   87MPD2    H7 1338   3.390   3.416   1.507  0.2972  1.5146  1.0573
   88TCq2    C1 1339   3.195   3.340   1.514  0.1675 -0.6826  0.0553
   88TCq2    O2 1340   3.075   3.336   1.502 -0.6142  0.2488  0.8163
   88TCq2    C2 1341   3.253   3.214   1.568  0.4703  1.1802 -0.0550
   88TCq2    C3 1342   3.178   3.131   1.646 -0.9716  0.2771  0.1448
   88TCq2    C4 1343   3.231   3.020   1.713  0.4455  0.5567 -0.0199
   88TCq2    C5 1344   3.364   2.985   1.688 -0.1461  0.4103 -0.4718
   88TCq2    C6 1345   3.438   3.062   1.598 -0.0785 -0.0038  0.0227
   88TCq2    C7 1346   3.385   3.182   1.541 -0.5703 -0.2774  0.1492
   88TCq2    C8 1347   3.543   3.002   1.531  0.1320 -0.0370  0.2465
   88TCq2    O4 1348   3.569   3.028   1.413  0.2384 -0.2647 -0.4376
   88TCq2    C9 1349   3.151   2.918   1.775  0.1510 -0.6887  0.8421
   88TCq2    O5 1350   3.023   2.918   1.749 -0.2243  0.3000 -0.2138
   88TCq2    O6 1351   3.202   2.838   1.860  0.0522 -0.5510  1.1806
   88TCq2    H2 1352   3.073   3.155   1.657 -0.3417  3.2177 -0.2235
   88TCq2    H3 1353   3.406   2.894   1.729 -0.2051  0.0226 -1.2599
   88TCq2    H4 1354   3.443   3.237   1.468 -1.8524  0.4124 -0.3430
   89MPD2     C 1355   4.520   1.007   2.102 -0.2579 -0.3550 -0.1542
   89MPD2    C1 1356   4.443   1.105   2.044 -0.4892  0.1673 -0.4917
   89MPD2    C2 1357   4.505   1.229   2.022 -0.2828 -0.4168  0.1623
   89MPD2    C3 1358   4.644   1.251   2.043 -0.4433  0.1114 -0.2824
   89MPD2    C4 1359   4.719   1.145   2.084  0.0483  0.5892 -0.0603
   89MPD2    C5 1360   4.660   1.026   2.110 -0.4461  0.1470  0.2544
   89MPD2     H 1361   4.448   1.315   1.988  2.0911  0.3420 -1.9241
   89MPD2    H1 1362   0.102   1.150   2.102 -0.2285 -1.4182  2.2357
   89MPD2    H2 1363   4.478   0.913   2.135  0.8609 -1.0883 -0.8445
   89MPD2    H3 1364   4.716   0.949   2.161  0.1724  0.3641 -0.0927
   89MPD2     N 1365   4.697   1.376   2.016  0.2531 -0.1352 -0.0711
   89MPD2    H5 1366   4.637   1.458   2.007  0.0887 -0.4723 -2.1963
   89MPD2    N1 1367   4.310   1.082   2.014  0.5830  0.1487 -0.5762
   89MPD2    H7 1368   4.250   1.161   1.995 -0.9736 -0.8578  0.1260
   90TCq2    C1 1369   0.109   1.413   2.023  0.8329  0.0428 -0.2302
   90TCq2    O2 1370   0.207   1.344   2.049  0.2510  0.4927 -0.4002
   90TCq2    C2 1371   0.128   1.547   1.974  0.3160 -0.4452  0.0775
   90TCq2    C3 1372   0.063   1.598   1.863  0.8685  0.5323  0.0120
   90TCq2    C4 1373   0.121   1.701   1.796  0.2881  0.1348  0.6499
   90TCq2    C5 1374   0.242   1.756   1.838  0.2478  0.1709  0.5014
   90TCq2    C6 1375   0.303   1.700   1.944  0.4177 -0.1151 -0.0886
   90TCq2    C7 1376   0.244   1.594   2.012  0.0785  0.3194  0.3552
   90TCq2    C8 1377   0.445   1.746   1.969 -0.1350 -0.8267  0.7951
   90TCq2    O4 1378   0.511   1.697   2.058 -0.2895  0.0776  0.5539
   90TCq2    C9 1379   0.057   1.755   1.672 -0.1815 -0.4700  0.6501
   90TCq2    O5 1380   4.685   1.691   1.629  0.4083 -0.2726 -0.6318
   90TCq2    O6 1381   0.129   1.833   1.602 -0.1887 -0.1442  0.1102
   90TCq2    H2 1382   4.704   1.544   1.819  0.8180  0.9222 -0.3639
   90TCq2    H3 1383   0.280   1.846   1.790 -0.4114  0.4927  0.5717
   90TCq2    H4 1384   0.302   1.536   2.082  0.3371  1.7064  1.3042
   91TMC2    C1 1385   1.041   0.500  16.362 -0.1072 -0.0594  0.1288
   91TMC2    C2 1386   1.081   0.462  16.485 -0.3926 -0.0944  0.2095
   91TMC2    C3 1387   0.993   0.442  16.588 -0.0670  0.2288 -0.5664
   91TMC2    C4 1388   0.912   0.530  16.343 -0.1698 -1.1660 -0.4151
   91TMC2    C5 1389   0.819   0.501  16.445  0.6321  0.6562  0.0796
   91TMC2    C6 1390   0.857   0.452  16.569 -0.4727  0.1426 -0.0657
   91TMC2     C 1391   1.128   0.490  16.244  0.0482 -0.2041  0.0839
   91TMC2     O 1392   1.081   0.483  16.128  0.1132  0.2225  0.4604
   91TMC2     H 1393   1.184   0.433  16.504 -0.3648 -1.0481 -1.4125
   91TMC2    H1 1394   0.876   0.579  16.252 -1.3622 -1.2792 -0.0090
   91TMC2    H2 1395   0.788   0.439  16.651  0.8130  0.1229  0.9996
   91TMC2    C7 1396   0.703   0.589  16.455  0.4024 -0.6783 -0.2593
   91TMC2    C8 1397   1.047   0.397  16.716  0.0280  0.6084 -0.5503
   91TMC2    O1 1398   0.660   0.624  16.565 -0.3347 -0.2376 -0.2516
   91TMC2    O2 1399   0.972   0.346  16.796  0.0112 -0.1164 -0.4267
   91TMC2    O5 1400   1.137   0.500  16.740 -0.3295 -0.2754  0.0477
   91TMC2    H5 1401   1.177   0.543  16.661  0.9777  3.9463  3.0382
   92MPD2     C 1402   1.358   0.362  16.100 -0.5299  0.1580 -0.3965
   92MPD2    C1 1403   1.374   0.451  16.207 -0.6240 -0.8940 -0.3858
   92MPD2    C2 1404   1.500   0.471  16.262 -0.2086 -0.2328  0.0206
   92MPD2    C3 1405   1.609   0.421  16.195 -0.4825 -0.4128  0.0255
   92MPD2    C4 1406   1.598   0.338  16.085  0.1647  0.1239 -0.2221
   92MPD2    C5 1407   1.470   0.308  16.037  0.0350  0.2142  0.0939
   92MPD2     H 1408   1.516   0.525  16.354  0.9981 -2.7457  1.2780
   92MPD2    H1 1409   1.683   0.291  16.038  1.1217  0.8800  0.7713
   92MPD2    H2 1410   1.260   0.318  16.086 -0.5063 -0.2257  0.6594
   92MPD2    H3 1411   1.452   0.240  15.954  0.1320 -0.3510  0.5387
   92MPD2     N 1412   1.738   0.470  16.233  0.0142  0.1256  0.4026
   92MPD2    H5 1413   1.736   0.551  16.294  1.5359  0.3957  0.0943
   92MPD2    N1 1414   1.262   0.497  16.286  0.0040  0.6165  0.0246
   92MPD2    H7 1415   1.279   0.528  16.382  0.3894 -1.1281  0.5268
   93MPD2     C 1416   3.009   1.012  13.728 -0.2688 -0.9405 -0.2257
   93MPD2    C1 1417   2.977   1.050  13.857  0.1193  0.2809  0.5653
   93MPD2    C2 1418   2.844   1.073  13.881  0.0934 -0.5370 -0.4094
   93MPD2    C3 1419   2.745   1.068  13.785  0.7203 -0.1627  0.8833
   93MPD2    C4 1420   2.780   1.036  13.657  0.3067  1.0051  0.4459
   93MPD2    C5 1421   2.915   0.999  13.636 -0.4895  0.2711 -0.4235
   93MPD2     H 1422   2.819   1.101  13.983  1.1060  2.6886 -1.0572
   93MPD2    H1 1423   2.712   1.017  13.575 -0.3773  1.1412  0.9850
   93MPD2    H2 1424   3.112   0.992  13.700  0.5749  2.6039  0.2668
   93MPD2    H3 1425   2.951   0.963  13.541  2.6545  2.0615  0.0588
   93MPD2     N 1426   2.611   1.088  13.814  0.8703  0.4054  0.2213
   93MPD2    H5 1427   2.549   1.089  13.733  0.9967  4.0062  0.1632
   93MPD2    N1 1428   3.067   1.055  13.965 -0.6343  0.0270 -0.0416
   93MPD2    H7 1429   3.029   1.091  14.052 -0.3829 -0.8385  0.4252
   94TCq2    C1 1430   3.204   1.029  13.953  0.4041  0.7216  0.2044
   94TCq2    O2 1431   3.245   0.948  13.870 -0.1883 -0.0637 -0.2885
   94TCq2    C2 1432   3.291   1.080  14.057 -0.7149 -0.3168 -0.1208
   94TCq2    C3 1433   3.247   1.157  14.162 -0.2680  0.8166 -0.3045
   94TCq2    C4 1434   3.327   1.191  14.263  0.5898 -0.0951 -0.2186
   94TCq2    C5 1435   3.455   1.142  14.269 -0.1418  0.0611  0.5511
   94TCq2    C6 1436   3.506   1.076  14.163 -0.1613 -0.5197 -0.3880
   94TCq2    C7 1437   3.427   1.055  14.053 -0.3690  0.8786  0.3971
   94TCq2    C8 1438   3.652   1.078  14.142 -0.5232  0.1248  0.1843
   94TCq2    O4 1439   3.693   0.988  14.073  0.1982  0.0841  0.1109
   94TCq2    C9 1440   3.278   1.264  14.374  0.7310 -0.0803 -0.2600
   94TCq2    O5 1441   3.359   1.337  14.430 -0.7911 -0.1674 -0.0975
   94TCq2    O6 1442   3.156   1.275  14.385 -0.6358  0.0185 -0.1487
   94TCq2    H2 1443   3.141   1.179  14.174 -0.3908 -0.2231  0.5196
   94TCq2    H3 1444   3.509   1.163  14.360  0.7003  1.9212 -0.3864
   94TCq2    H4 1445   3.472   1.019  13.961 -0.4005  1.9496 -0.0343
   95TMC2    C1 1446   3.020   3.141  16.099 -0.2319  0.1933 -0.0329
   95TMC2    C2 1447   3.030   3.026  16.168  0.1818 -0.0542  0.2447
   95TMC2    C3 1448   3.076   3.043  16.294  0.0331 -0.2131 -0.9436
   95TMC2    C4 1449   3.053   3.261  16.156  0.2683  0.0200  0.3080
   95TMC2    C5 1450   3.085   3.275  16.290 -0.0819  0.1289  0.0964
   95TMC2    C6 1451   3.101   3.160  16.360  0.2871  0.2469  0.4981
   95TMC2     C 1452   3.043   3.141  15.958 -0.1558  0.5758 -0.1962
   95TMC2     O 1453   3.078   3.244  15.904  0.1164  0.4262 -0.5616
   95TMC2     H 1454   3.044   2.926  16.131  0.0769  0.5040 -1.2831
   95TMC2    H1 1455   3.036   3.350  16.097 -0.4861 -1.1791 -1.3205
   95TMC2    H2 1456   3.133   3.154  16.464  0.4819 -1.8753  0.3243
   95TMC2    C7 1457   3.118   3.402  16.359  0.0828  0.0651  0.0171
   95TMC2    C8 1458   3.110   2.935  16.375  0.2549 -0.4460 -0.3931
   95TMC2    O1 1459   3.159   3.387  16.477 -0.7175  0.3240  0.2454
   95TMC2    O2 1460   3.048   2.831  16.369  0.2454  0.0083  0.2752
   95TMC2    O5 1461   3.246   2.937  16.377  0.4392 -0.3390 -0.3797
   95TMC2    H5 1462   3.287   3.010  16.325  0.4026 -1.0763 -1.4317
   96MPD2     C 1463   3.004   2.953  15.494 -0.8689 -0.1688 -0.3113
   96MPD2    C1 1464   3.097   3.044  15.544  0.1648  0.5776  0.0536
   96MPD2    C2 1465   3.088   3.066  15.683  0.5338  0.2516 -0.5790
   96MPD2    C3 1466   3.003   2.998  15.765 -0.1713  0.4369 -1.3419
   96MPD2    C4 1467   2.920   2.902  15.716 -0.3445  0.4919 -1.0345
   96MPD2    C5 1468   2.926   2.879  15.578 -0.0936  0.0311  0.2249
   96MPD2     H 1469   3.156   3.141  15.723  0.6021 -0.7234  1.1722
   96MPD2    H1 1470   2.849   2.837  15.765  1.6345 -1.0598 -0.2384
   96MPD2    H2 1471   3.002   2.936  15.387  0.6442 -2.2058 -0.0239
   96MPD2    H3 1472   2.870   2.797  15.535 -0.8837  0.4380  0.4690
   96MPD2     N 1473   2.990   3.025  15.898 -0.2199  0.3673 -0.4047
   96MPD2    H5 1474   2.936   2.962  15.958  2.4174 -0.4430  1.1235
   96MPD2    N1 1475   3.183   3.115  15.460  0.1058 -0.7748  0.2408
   96MPD2    H7 1476   3.179   3.094  15.360 -0.9738  1.5076 -0.2020
   97MPD2     C 1477   1.323   0.455   1.625 -0.3695  0.1888 -0.2955
   97MPD2    C1 1478   1.182   0.469   1.636  0.4556 -0.1379  0.5492
   97MPD2    C2 1479   1.107   0.388   1.554 -0.2213 -0.2799 -0.0861
   97MPD2    C3 1480   1.163   0.286   1.472 -0.0457 -0.9985 -0.3335
   97MPD2    C4 1481   1.296   0.275   1.461  0.5126 -0.4000 -0.4791
   97MPD2    C5 1482   1.372   0.358   1.538 -0.6131  0.8583  0.0687
   97MPD2     H 1483   1.000   0.405   1.551 -0.0652  0.7543 -0.0187
   97MPD2    H1 1484   1.335   0.217   1.378  1.4818  0.3494 -0.5451
   97MPD2    H2 1485   1.391   0.522   1.676 -0.2185  0.1458 -0.4422
   97MPD2    H3 1486   1.480   0.359   1.526 -0.3441 -0.0763  2.4591
   97MPD2     N 1487   1.093   0.211   1.369  0.1816 -0.0244  0.3557
   97MPD2    H5 1488   1.145   0.146   1.310  0.1761 -0.1028  0.4367
   97MPD2    N1 1489   1.126   0.565   1.719  0.3431  0.2341 -0.4676
   97MPD2    H7 1490   1.190   0.611   1.784 -0.0788 -0.1499  0.2119
   98TCq2    C1 1491   0.953   0.203   1.349  0.4064  0.1710  0.5867
   98TCq2    O2 1492   0.862   0.246   1.418 -0.2308  0.2067  0.0403
   98TCq2    C2 1493   0.924   0.135   1.225  0.4139 -0.1676  0.3814
   98TCq2    C3 1494   0.801   0.076   1.225 -0.7838 -0.6365 -0.3854
   98TCq2    C4 1495   0.743   0.027   1.108 -0.3802 -0.6394 -0.9015
   98TCq2    C5 1496   0.817   0.028   0.997 -0.4581 -0.1111  0.7882
   98TCq2    C6 1497   0.944   0.078   1.003  0.5596  0.5751  0.5692
   98TCq2    C7 1498   1.005   0.130   1.114 -0.0686 -0.5607 -0.5931
   98TCq2    C8 1499   1.011   0.133   0.880  0.2590  0.1614 -0.1063
   98TCq2    O4 1500   1.123   0.177   0.900  0.0575 -0.6778 -0.2473
   98TCq2    C9 1501   0.607   4.703   1.104 -0.5203 -0.4846  0.6755
   98TCq2    O5 1502   0.570   4.626   1.012 -0.3331 -0.1549  0.7063
   98TCq2    O6 1503   0.529   0.035   1.187 -0.8312  0.2845  0.2674
   98TCq2    H2 1504   0.747   0.080   1.319 -0.9259 -0.7250 -0.4634
   98TCq2    H3 1505   0.769   4.711   0.909  2.0560 -2.1726  0.3557
   98TCq2    H4 1506   1.108   0.165   1.113 -0.3112  0.1649 -0.2404
   99MPD2     C 1507   4.583   2.255   1.605  0.0307 -0.2853  0.7956
   99MPD2    C1 1508   4.471   2.179   1.617  0.0696  0.0775  0.4792
   99MPD2    C2 1509   4.382   2.179   1.508  0.4129  0.3494  0.0690
   99MPD2    C3 1510   4.413   2.237   1.391  0.1308 -0.5314  0.3125
   99MPD2    C4 1511   4.534   2.300   1.377  0.0342  0.4894 -0.0951
   99MPD2    C5 1512   4.617   2.311   1.484  0.1821 -0.5771 -0.2603
   99MPD2     H 1513   4.297   2.113   1.517  2.7591 -2.6491  0.0463
   99MPD2    H1 1514   4.566   2.334   1.279  2.8382 -2.4700 -0.1882
   99MPD2    H2 1515   4.656   2.255   1.685  1.7730  0.5837 -0.8008
   99MPD2    H3 1516   4.710   2.362   1.463 -0.1600 -0.1560 -0.7466
   99MPD2     N 1517   4.322   2.233   1.275  0.4710 -0.2980 -0.7056
   99MPD2    H5 1518   4.354   2.255   1.181  0.8618  1.6059 -0.1432
   99MPD2    N1 1519   4.439   2.109   1.742 -0.2951  0.6862  0.0527
   99MPD2    H7 1520   4.362   2.044   1.745  0.6874 -0.4441  0.8909
  100TCq2    C1 1521   4.493   2.145   1.861 -0.8144  0.2597 -0.0132
  100TCq2    O2 1522   4.584   2.222   1.884 -0.1969  0.7269 -0.0255
  100TCq2    C2 1523   4.415   2.079   1.969  0.2315 -0.0113  0.4406
  100TCq2    C3 1524   4.463   2.106   2.096  0.2964 -0.2207 -0.8078
  100TCq2    C4 1525   4.421   2.028   2.203  0.1505  0.0286 -0.1283
  100TCq2    C5 1526   4.338   1.931   2.176  0.3499 -0.5489 -0.5685
  100TCq2    C6 1527   4.290   1.903   2.053  0.0296 -0.2441 -0.5341
  100TCq2    C7 1528   4.331   1.978   1.941 -0.2724  0.5144 -0.0909
  100TCq2    C8 1529   4.173   1.816   2.051 -0.7777  0.2530  0.5329
  100TCq2    O4 1530   4.114   1.791   2.159 -0.2222  0.3486  0.0767
  100TCq2    C9 1531   4.460   2.063   2.341 -0.2815 -0.0686 -0.2835
  100TCq2    O5 1532   4.480   2.185   2.359 -0.1513 -0.1191  0.0820
  100TCq2    O6 1533   4.442   1.972   2.426  0.3228 -0.3813  0.1676
  100TCq2    H2 1534   4.509   2.201   2.119 -2.1829  0.8130 -0.0838
  100TCq2    H3 1535   4.296   1.885   2.265  0.9342 -1.9224 -1.0074
  100TCq2    H4 1536   4.279   1.963   1.847 -0.8710  0.5780  0.2278
  101MPD2     C 1537   0.349   3.173  12.951  0.2924  0.3132 -0.4530
  101MPD2    C1 1538   0.262   3.269  12.993  0.5148 -0.6746 -1.1015
  101MPD2    C2 1539   0.185   3.245  13.108 -0.0987 -0.6287  0.4426
  101MPD2    C3 1540   0.201   3.124  13.174  0.2734 -0.4133  0.1799
  101MPD2    C4 1541   0.292   3.035  13.135  0.0196 -0.8399 -0.4359
  101MPD2    C5 1542   0.363   3.056  13.023  0.5525 -0.3308  0.2874
  101MPD2     H 1543   0.109   3.313  13.142  0.2855 -0.5409  1.1240
  101MPD2    H1 1544   0.298   2.940  13.188  0.3001 -0.0574  0.9312
  101MPD2    H2 1545   0.407   3.188  12.860  1.5565 -1.1893  0.1045
  101MPD2    H3 1546   0.440   2.984  12.996  1.3140 -0.1391  1.9293
  101MPD2     N 1547   0.120   3.094  13.287 -0.5529 -0.5223  0.1598
  101MPD2    H5 1548   0.121   3.004  13.335 -1.8897 -0.6949 -0.1095
  101MPD2    N1 1549   0.244   3.376  12.905  0.0188  0.1031  0.4058
  101MPD2    H7 1550   0.304   3.379  12.824 -1.0974 -2.0099 -0.4950
  102TCq2    C1 1551   0.345   3.687  12.529  0.1136  0.2633 -0.2189
  102TCq2    O2 1552   0.455   3.637  12.558  0.5299 -0.3464  0.1695
  102TCq2    C2 1553   0.232   3.658  12.612  0.4803  0.1374 -0.0128
  102TCq2    C3 1554   0.131   3.750  12.620 -0.3391  0.4856  0.2050
  102TCq2    C4 1555   0.038   3.740  12.722 -0.2962 -0.3048 -0.1609
  102TCq2    C5 1556   0.044   3.644  12.816 -0.6650 -0.0112 -0.0276
  102TCq2    C6 1557   0.153   3.560  12.810 -1.4224  0.3134  0.5681
  102TCq2    C7 1558   0.245   3.563  12.709  0.6012  0.4992 -0.3555
  102TCq2    C8 1559   0.166   3.479  12.929  0.4405 -0.1193  0.3309
  102TCq2    O4 1560   0.094   3.508  13.020 -0.4856  0.0743  0.3066
  102TCq2    C9 1561   4.651   3.827  12.732  0.5032  0.3221 -0.6942
  102TCq2    O5 1562   4.649   3.915  12.646 -0.2444  0.0809 -0.1178
  102TCq2    O6 1563   4.576   3.820  12.833 -0.1742 -0.4503 -0.2414
  102TCq2    H2 1564   0.108   3.827  12.547  1.8146  1.1002  0.1837
  102TCq2    H3 1565   4.685   3.641  12.886 -0.3242  1.7692  0.4614
  102TCq2    H4 1566   0.336   3.504  12.711 -0.2011 -0.6814  1.6173
  103TMC2    C1 1567   3.332   3.627  12.616 -0.3748 -0.0717 -0.3887
  103TMC2    C2 1568   3.296   3.755  12.619 -0.5029  0.1704  0.2761
  103TMC2    C3 1569   3.339   3.839  12.719  0.8688  0.1508  0.3237
  103TMC2    C4 1570   3.410   3.573  12.716  0.1621 -0.2119 -0.4912
  103TMC2    C5 1571   3.441   3.654  12.824  0.5722  0.4534 -0.1609
  103TMC2    C6 1572   3.414   3.790  12.823 -0.7332  0.3816  1.0143
  103TMC2     C 1573   3.275   3.539  12.513  0.5712  0.3555 -1.0583
  103TMC2     O 1574   3.191   3.591  12.441 -0.0275  0.2411  0.2143
  103TMC2     H 1575   3.222   3.794  12.550 -0.3062 -1.0547 -0.6312
  103TMC2    H1 1576   3.435   3.468  12.722 -1.0447 -0.2694  3.3070
  103TMC2    H2 1577   3.443   3.859  12.901  0.5324  0.3269  0.5915
  103TMC2    C7 1578   3.485   3.599  12.947 -0.3309 -0.0025 -0.5245
  103TMC2    C8 1579   3.315   3.983  12.732  0.1533  0.0597 -0.3704
  103TMC2    O1 1580   3.456   3.664  13.046  0.3948  0.4208 -0.8236
  103TMC2    O2 1581   3.303   4.037  12.839  0.0463  0.3770  0.6633
  103TMC2    O5 1582   3.274   4.029  12.611  0.0093 -0.0100  0.3418
  103TMC2    H5 1583   3.318   3.980  12.539 -1.9134 -1.2406 -0.0151
  104MPD2     C 1584   3.332   3.178  12.458  0.1429 -0.4635 -0.2496
  104MPD2    C1 1585   3.272   3.300  12.438 -0.1226  0.3192 -0.4554
  104MPD2    C2 1586   3.162   3.312  12.347  0.1546  0.6046 -0.1429
  104MPD2    C3 1587   3.115   3.200  12.281 -0.1327  0.6093 -0.7139
  104MPD2    C4 1588   3.186   3.083  12.303 -0.3806  0.3703  0.3513
  104MPD2    C5 1589   3.292   3.071  12.390 -0.0498  0.1644  0.8741
  104MPD2     H 1590   3.108   3.404  12.326 -2.0320 -0.8825 -0.9685
  104MPD2    H1 1591   3.154   2.990  12.256 -1.3300  0.8007  0.1274
  104MPD2    H2 1592   3.414   3.169  12.528  0.8273 -2.2290 -1.2575
  104MPD2    H3 1593   3.340   2.975  12.406 -0.6210 -0.2009  0.3982
  104MPD2     N 1594   3.021   3.213  12.175 -0.1106  0.1785 -0.4131
  104MPD2    H5 1595   2.983   3.307  12.163 -0.9033 -0.2980 -1.6583
  104MPD2    N1 1596   3.338   3.413  12.508 -0.1278  0.2289  0.2847
  104MPD2    H7 1597   3.419   3.392  12.565  0.0423 -0.2520 -0.1245
  105MPD2     C 1598   4.472   2.387   0.403  0.5685  0.2752 -0.0559
  105MPD2    C1 1599   4.370   2.476   0.365 -0.3863  0.0935 -0.0256
  105MPD2    C2 1600   4.291   2.522   0.468 -0.1926  0.1395 -0.0133
  105MPD2    C3 1601   4.296   2.473   0.601  0.2036 -0.1536  0.2419
  105MPD2    C4 1602   4.381   2.368   0.630  0.6491 -0.3151 -0.2413
  105MPD2    C5 1603   4.472   2.335   0.535 -0.0091 -0.0068  0.4384
  105MPD2     H 1604   4.214   2.596   0.446  1.1031  1.2613 -0.7587
  105MPD2    H1 1605   4.390   2.324   0.728 -2.4203  1.3370  0.7673
  105MPD2    H2 1606   4.541   2.336   0.337  0.9173  1.4351 -0.5793
  105MPD2    H3 1607   4.541   2.255   0.561 -0.5570 -0.6589 -0.1266
  105MPD2     N 1608   4.196   2.512   0.689 -0.6935  0.0991  0.0592
  105MPD2    H5 1609   4.127   2.579   0.658 -0.0501  0.2681 -1.0100
  105MPD2    N1 1610   4.356   2.524   0.232  0.1213 -0.7116 -0.5079
  105MPD2    H7 1611   4.308   2.611   0.212  0.2540 -0.4948  0.1141
  106TCq2    C1 1612   4.185   2.474   0.821  0.5308  0.3423  0.7005
  106TCq2    O2 1613   4.273   2.425   0.890  0.0628  0.3028 -0.3805
  106TCq2    C2 1614   4.082   2.551   0.883  0.2485  0.6426  0.0113
  106TCq2    C3 1615   3.967   2.573   0.807  0.5171  0.6761 -0.3200
  106TCq2    C4 1616   3.851   2.603   0.874  0.0038  0.7618  0.4653
  106TCq2    C5 1617   3.852   2.621   1.011  0.5476 -1.0379 -0.0522
  106TCq2    C6 1618   3.971   2.617   1.077 -0.2676  0.5231  0.8420
  106TCq2    C7 1619   4.087   2.572   1.019  0.4776 -0.5282 -0.3560
  106TCq2    C8 1620   3.968   2.623   1.220 -0.2478  0.1143 -0.4431
  106TCq2    O4 1621   4.051   2.560   1.285 -0.6334  0.1995  0.2081
  106TCq2    C9 1622   3.726   2.599   0.808 -0.2299 -0.1107  0.2906
  106TCq2    O5 1623   3.724   2.569   0.687  0.5090 -0.1181  0.2822
  106TCq2    O6 1624   3.620   2.585   0.881  0.0940  0.0554 -0.0647
  106TCq2    H2 1625   3.958   2.551   0.702  2.4111 -0.4745 -0.2358
  106TCq2    H3 1626   3.752   2.627   1.054  1.5229  1.0815  1.8812
  106TCq2    H4 1627   4.178   2.555   1.075  0.6766 -0.6490 -0.7182
  107TMC2    C1 1628   0.540   2.174  11.514  0.3250 -0.4856 -0.0187
  107TMC2    C2 1629   0.520   2.296  11.451  0.0308  0.8937 -0.3498
  107TMC2    C3 1630   0.522   2.292  11.310 -0.4620  0.0096  0.3479
  107TMC2    C4 1631   0.579   2.060  11.446  0.0955  0.1004  0.9237
  107TMC2    C5 1632   0.577   2.059  11.308 -0.6176  0.2148  1.0857
  107TMC2    C6 1633   0.542   2.178  11.237 -0.1212  0.3427  0.4630
  107TMC2     C 1634   0.504   2.159  11.658 -0.4705  0.1744 -0.2099
  107TMC2     O 1635   0.407   2.226  11.696 -0.4238 -0.3452  0.2553
  107TMC2     H 1636   0.496   2.386  11.507  1.1274  0.9258  0.0666
  107TMC2    H1 1637   0.585   1.966  11.500 -1.7015 -0.4305  0.1762
  107TMC2    H2 1638   0.518   2.173  11.131 -2.0996 -0.5939  0.9618
  107TMC2    C7 1639   0.578   1.922  11.249  0.5433  0.3102 -0.4429
  107TMC2    C8 1640   0.543   2.423  11.251 -0.4045 -0.0501 -0.1167
  107TMC2    O1 1641   0.535   1.837  11.322  0.2429  0.3546  0.1096
  107TMC2    O2 1642   0.599   2.510  11.319 -0.1260  0.4536  0.0774
  107TMC2    O5 1643   0.556   2.405  11.123 -0.7210  0.1630 -0.5182
  107TMC2    H5 1644   0.474   2.363  11.092  0.1171 -1.6279 -0.2896
  108MPD2     C 1645   0.626   1.906  11.897 -0.0604  1.2677 -0.8362
  108MPD2    C1 1646   0.541   2.008  11.851  0.3013  0.5217 -0.2411
  108MPD2    C2 1647   0.455   2.080  11.938 -0.0662 -0.3094 -0.1349
  108MPD2    C3 1648   0.465   2.061  12.076 -0.4957 -0.5099 -0.5250
  108MPD2    C4 1649   0.561   1.970  12.122  0.1242  0.6444  0.0210
  108MPD2    C5 1650   0.630   1.888  12.036  0.8196  0.2285  0.3230
  108MPD2     H 1651   0.393   2.163  11.905  2.8313  1.8804 -0.0005
  108MPD2    H1 1652   0.576   1.971  12.230  1.8781  0.5181 -0.2240
  108MPD2    H2 1653   0.685   1.845  11.829 -1.0853 -0.2378 -0.3623
  108MPD2    H3 1654   0.704   1.812  12.063 -0.5038 -1.7142 -1.5350
  108MPD2     N 1655   0.381   2.129  12.173 -0.2830 -0.7455  0.5633
  108MPD2    H5 1656   0.406   2.099  12.267  5.0329  1.8203 -0.0157
  108MPD2    N1 1657   0.566   2.052  11.722  0.5228  0.0691 -0.2718
  108MPD2    H7 1658   0.651   2.022  11.677  1.3282  0.0167  1.2991
  109MPD2     C 1659   0.634   4.282   2.811 -0.4076 -0.2431 -0.1084
  109MPD2    C1 1660   0.680   4.336   2.689 -0.0870 -0.1140 -0.2270
  109MPD2    C2 1661   0.753   4.458   2.698  0.9134  0.5638 -0.7226
  109MPD2    C3 1662   0.799   4.504   2.817 -0.3129  0.1538  0.4205
  109MPD2    C4 1663   0.744   4.449   2.928  0.3579 -0.3683  0.4575
  109MPD2    C5 1664   0.655   4.346   2.925  0.5143  0.8348 -0.5470
  109MPD2     H 1665   0.810   4.504   2.618 -0.0852 -0.2644 -1.9184
  109MPD2    H1 1666   0.768   4.493   3.024 -2.0994  0.3426  0.7578
  109MPD2    H2 1667   0.573   4.192   2.809 -1.2583  0.2634  2.3245
  109MPD2    H3 1668   0.613   4.310   3.018  0.0804 -0.9613 -1.4365
  109MPD2     N 1669   0.888   4.617   2.823 -1.0736  0.0919  1.0717
  109MPD2    H5 1670   0.913   4.647   2.730 -0.1940  0.3637  1.3965
  109MPD2    N1 1671   0.647   4.257   2.572  0.3417  0.3496 -0.2721
  109MPD2    H7 1672   0.602   4.168   2.591  1.6736 -0.2979 -0.1217
  110TCq2    C1 1673   0.941   4.688   2.927  0.3024  0.3766  0.1584
  110TCq2    O2 1674   0.926   4.672   3.048  0.3553 -0.3224  0.4592
  110TCq2    C2 1675   1.040   0.062   2.879  0.5580 -0.2254 -0.0295
  110TCq2    C3 1676   1.151   0.079   2.964 -0.8812 -0.6315  0.2759
  110TCq2    C4 1677   1.265   0.136   2.918  0.1948 -0.3474  0.0469
  110TCq2    C5 1678   1.275   0.165   2.781 -0.3309  0.2932  0.4148
  110TCq2    C6 1679   1.157   0.144   2.702 -0.1546  0.0678  0.3490
  110TCq2    C7 1680   1.044   0.085   2.744  0.0775  0.0958  0.0165
  110TCq2    C8 1681   1.146   0.219   2.580 -0.7736  0.3744 -0.0764
  110TCq2    O4 1682   1.034   0.249   2.544  0.6219  0.2434  0.3894
  110TCq2    C9 1683   1.369   0.169   3.015 -0.1701  0.3788 -0.8776
  110TCq2    O5 1684   1.333   0.151   3.136  0.1214  0.7621  0.3630
  110TCq2    O6 1685   1.460   0.252   2.980 -0.1320  0.0043  0.6360
  110TCq2    H2 1686   1.143   0.070   3.072  2.1205  2.6516  0.7799
  110TCq2    H3 1687   1.360   0.220   2.742  0.3380 -0.9566  0.1316
  110TCq2    H4 1688   0.968   0.070   2.668 -1.2247 -1.5679  1.6623
  111TMC2    C1 1689   0.909   4.134  11.250  0.4822  0.2006 -0.0255
  111TMC2    C2 1690   1.000   4.115  11.144 -0.8814 -0.0138 -0.2326
  111TMC2    C3 1691   1.129   4.086  11.181 -0.8601  0.0442  0.1611
  111TMC2    C4 1692   0.941   4.122  11.383  0.0474  0.0737  0.2098
  111TMC2    C5 1693   1.071   4.100  11.405  0.1692 -0.1351  0.6521
  111TMC2    C6 1694   1.169   4.090  11.311  0.4227 -0.6443  0.1797
  111TMC2     C 1695   0.797   4.210  11.208 -0.4517  0.1706 -0.7183
  111TMC2     O 1696   0.760   4.198  11.090 -0.6243 -0.0153 -0.3811
  111TMC2     H 1697   0.973   4.142  11.042 -5.2567 -1.4747  0.5652
  111TMC2    H1 1698   0.868   4.119  11.463 -0.3140  1.6684 -0.0563
  111TMC2    H2 1699   1.268   4.050  11.328  0.3890 -1.4386 -1.4871
  111TMC2    C7 1700   1.123   4.081  11.538  0.3725 -0.0547 -0.6093
  111TMC2    C8 1701   1.229   4.065  11.079 -0.3328 -0.2174 -0.4894
  111TMC2    O1 1702   1.044   4.059  11.628 -0.2556 -0.8445  0.3976
  111TMC2    O2 1703   1.346   4.096  11.089  0.0844  0.4809  0.2149
  111TMC2    O5 1704   1.168   4.014  10.973 -0.0212 -0.0904 -0.0244
  111TMC2    H5 1705   1.074   3.986  10.981  0.8855 -3.1831 -0.1776
  112MPD2     C 1706   0.332   4.369  11.351 -0.3988 -0.3708 -0.1201
  112MPD2    C1 1707   0.378   4.331  11.228  0.6482  0.4672 -0.0023
  112MPD2    C2 1708   0.502   4.287  11.215  0.1257 -0.5302  0.4613
  112MPD2    C3 1709   0.593   4.296  11.318 -0.3189  0.0387  0.0304
  112MPD2    C4 1710   0.550   4.339  11.437 -0.2139 -0.4233  0.1226
  112MPD2    C5 1711   0.426   4.381  11.454  0.2296 -0.0682  0.1743
  112MPD2     H 1712   0.536   4.255  11.117 -0.4608 -3.2265  1.1440
  112MPD2    H1 1713   0.611   4.332  11.527  0.0849 -0.6574 -0.1006
  112MPD2    H2 1714   0.229   4.400  11.365 -0.2887  0.1846 -0.5880
  112MPD2    H3 1715   0.388   4.410  11.552  0.2241 -0.9180  0.4204
  112MPD2     N 1716   0.722   4.243  11.314  0.2175  0.0880  0.0957
  112MPD2    H5 1717   0.769   4.255  11.403 -0.0757  0.3254  0.2181
  112MPD2    N1 1718   0.292   4.319  11.109  0.2467  0.0203 -1.0387
  112MPD2    H7 1719   0.335   4.279  11.027 -0.0906  0.1570 -1.2821
  113MPD2     C 1720   3.848   1.828   0.945  0.2618 -0.2237  0.3283
  113MPD2    C1 1721   3.745   1.913   0.969 -0.1938 -1.1571 -0.4692
  113MPD2    C2 1722   3.648   1.924   0.872 -0.1126 -0.8925  0.7909
  113MPD2    C3 1723   3.657   1.854   0.752  0.5011  0.4031  0.2763
  113MPD2    C4 1724   3.763   1.767   0.730 -0.6432 -0.6868 -0.1857
  113MPD2    C5 1725   3.851   1.749   0.833  0.0595 -0.2887  0.6119
  113MPD2     H 1726   3.565   1.993   0.888  1.5869  1.2817  0.2912
  113MPD2    H1 1727   3.785   1.711   0.640  2.5706  1.7731 -0.8969
  113MPD2    H2 1728   3.935   1.808   1.008  2.2895 -2.0101 -3.0483
  113MPD2    H3 1729   3.934   1.680   0.824  0.0500 -0.2602  0.3099
  113MPD2     N 1730   3.571   1.869   0.640 -0.8694 -0.0358  0.1889
  113MPD2    H5 1731   3.592   1.812   0.559  0.1447 -0.4558  0.7556
  113MPD2    N1 1732   3.728   1.973   1.096  0.1176 -0.0563 -0.1018
  113MPD2    H7 1733   3.663   2.051   1.102 -0.6882 -0.6021 -1.8542
  114TCq2    C1 1734   3.481   1.973   0.630 -0.0946 -0.2324 -0.2127
  114TCq2    O2 1735   3.464   2.076   0.696  0.0875  0.1588  0.4144
  114TCq2    C2 1736   3.417   1.983   0.499  0.1423 -0.1163 -0.0203
  114TCq2    C3 1737   3.405   2.106   0.445 -0.3179  0.2728 -0.8789
  114TCq2    C4 1738   3.325   2.125   0.340  0.4119  0.7667 -1.5060
  114TCq2    C5 1739   3.249   2.029   0.293  0.6280 -0.2108  0.1891
  114TCq2    C6 1740   3.257   1.900   0.347 -0.0420 -0.5047 -0.4474
  114TCq2    C7 1741   3.349   1.877   0.445 -0.2692  0.1884  0.1252
  114TCq2    C8 1742   3.161   1.800   0.312  1.0592 -0.0872 -0.3534
  114TCq2    O4 1743   3.139   1.793   0.194  0.1444  0.3565  0.3728
  114TCq2    C9 1744   3.317   2.256   0.280 -0.2918 -0.5079  0.2656
  114TCq2    O5 1745   3.267   2.269   0.168  0.5748  0.1846  0.2756
  114TCq2    O6 1746   3.409   2.333   0.317  0.2236 -0.2270 -0.7274
  114TCq2    H2 1747   3.446   2.192   0.496 -0.0208  0.1283 -0.8729
  114TCq2    H3 1748   3.182   2.050   0.210  0.5516 -2.6742 -0.3727
  114TCq2    H4 1749   3.349   1.786   0.503  1.3249  0.2372  0.1974
  115TMC2    C1 1750   4.055   0.339  17.250  0.0838  0.1178 -0.0156
  115TMC2    C2 1751   4.035   0.420  17.145 -0.5139  0.2807 -0.8310
  115TMC2    C3 1752   4.092   0.546  17.146  0.4617 -0.0724  0.0388
  115TMC2    C4 1753   4.139   0.370  17.356 -0.1679  0.5614  0.5377
  115TMC2    C5 1754   4.198   0.494  17.346  0.6698  0.0740  0.0643
  115TMC2    C6 1755   4.161   0.585  17.257  0.6009  0.0917  0.2550
  115TMC2     C 1756   3.974   0.222  17.265 -0.6810 -1.0653 -0.0086
  115TMC2     O 1757   3.951   0.166  17.162  0.0751  0.6753 -0.4655
  115TMC2     H 1758   3.959   0.398  17.071  0.2068  1.1210 -1.8048
  115TMC2    H1 1759   4.188   0.301  17.425 -1.2442 -0.4003  0.3459
  115TMC2    H2 1760   4.207   0.682  17.260  2.9518 -1.0097 -0.1254
  115TMC2    C7 1761   4.295   0.533  17.454  0.1070 -0.8313  0.0678
  115TMC2    C8 1762   4.074   0.630  17.029 -0.1465 -0.0338 -0.7216
  115TMC2    O1 1763   4.299   0.462  17.553  0.1078  0.3657  0.7285
  115TMC2    O2 1764   4.044   0.592  16.916 -0.2910  0.5276 -0.3276
  115TMC2    O5 1765   4.015   0.733  17.089  0.4417  0.3847 -0.0997
  115TMC2    H5 1766   4.025   0.737  17.186 -0.7248  0.9070 -0.0040
  116MPD2     C 1767   3.756   4.595  17.575  0.2535  0.0533  0.2149
  116MPD2    C1 1768   3.787   4.593  17.444 -0.5784 -0.1992  0.4201
  116MPD2    C2 1769   3.858   4.692  17.378  0.8833 -0.2023 -0.3151
  116MPD2    C3 1770   3.884   0.079  17.452  0.1137 -0.2893 -0.0932
  116MPD2    C4 1771   3.855   0.085  17.583 -0.2218  0.4398 -0.1212
  116MPD2    C5 1772   3.791   4.703  17.647  0.4071 -0.5269 -0.8139
  116MPD2     H 1773   3.881   4.681  17.273  0.6664  0.4304 -0.4250
  116MPD2    H1 1774   3.875   0.179  17.635  2.6279 -0.4923  0.4728
  116MPD2    H2 1775   3.716   4.517  17.638  0.6040 -2.2722 -2.4267
  116MPD2    H3 1776   3.756   4.705   0.052  0.8154  0.2638 -0.6861
  116MPD2     N 1777   3.953   0.187  17.398  0.2690 -0.4608  0.4982
  116MPD2    H5 1778   3.985   0.251  17.471 -2.3224 -1.1553  2.2565
  116MPD2    N1 1779   3.761   4.480  17.362 -0.5769  0.7619  0.0790
  116MPD2    H7 1780   3.793   4.473  17.266  0.0611 -1.6125  0.4712
  117TMC2    C1 1781   2.160   1.364  13.347  0.1914 -0.3041  0.3508
  117TMC2    C2 1782   2.250   1.259  13.351  0.0387  0.1557  0.0829
  117TMC2    C3 1783   2.385   1.295  13.370  0.1615  0.2164 -0.6653
  117TMC2    C4 1784   2.202   1.495  13.357  0.3586  0.0484  0.4558
  117TMC2    C5 1785   2.333   1.525  13.362 -0.3431  0.5325 -0.2717
  117TMC2    C6 1786   2.424   1.425  13.355 -0.1878 -0.5253  0.6787
  117TMC2     C 1787   2.024   1.331  13.391  0.5522  0.6991 -0.4746
  117TMC2     O 1788   1.989   1.213  13.382 -0.8750  0.0095  0.2832
  117TMC2     H 1789   2.224   1.154  13.345 -0.6291  0.3938 -1.3387
  117TMC2    H1 1790   2.129   1.571  13.333  0.3719 -0.1545 -0.2153
  117TMC2    H2 1791   2.531   1.440  13.346  0.0841 -1.9809  1.4184
  117TMC2    C7 1792   2.383   1.636  13.440  0.1163  0.0230 -0.1888
  117TMC2    C8 1793   2.502   1.212  13.335  0.1636  0.0927  0.0021
  117TMC2    O1 1794   2.501   1.633  13.460  0.1261 -0.6205 -0.3277
  117TMC2    O2 1795   2.487   1.121  13.255  0.9109 -0.4255 -0.1092
  117TMC2    O5 1796   2.597   1.227  13.425  0.5265 -0.1902 -0.0849
  117TMC2    H5 1797   2.587   1.296  13.495 -0.1039  1.4345 -1.7580
  118MPD2     C 1798   2.194   1.897  13.627 -0.3932  0.3393  0.6494
  118MPD2    C1 1799   2.303   1.823  13.581 -0.1060  0.3065 -0.9504
  118MPD2    C2 1800   2.423   1.882  13.612 -0.1224  0.3456 -0.5096
  118MPD2    C3 1801   2.443   1.996  13.684 -0.0360  0.8026  0.0084
  118MPD2    C4 1802   2.331   2.061  13.729  0.0726  0.5028 -0.1512
  118MPD2    C5 1803   2.207   2.008  13.709 -0.3829  0.2425 -0.1001
  118MPD2     H 1804   2.513   1.831  13.581 -0.3346 -0.0543 -0.4691
  118MPD2    H1 1805   2.336   2.154  13.784 -1.1451 -0.3543  1.4131
  118MPD2    H2 1806   2.092   1.869  13.604  0.5079 -1.0485 -1.6657
  118MPD2    H3 1807   2.122   2.057  13.754 -1.8708 -0.5524 -2.0738
  118MPD2     N 1808   2.567   2.059  13.714 -0.1534 -0.2211 -0.7434
  118MPD2    H5 1809   2.561   2.137  13.778  0.0718 -1.4803  0.8053
  118MPD2    N1 1810   2.286   1.705  13.502  0.2173 -0.8515 -0.0769
  118MPD2    H7 1811   2.192   1.674  13.478 -0.1287 -0.1431  0.3540
  119MPD2     C 1812   0.919   2.857  13.296  0.1303  0.3004 -0.7292
  119MPD2    C1 1813   0.812   2.870  13.377 -0.1153  0.6115  0.4448
  119MPD2    C2 1814   0.697   2.805  13.342  0.3398  0.6837 -0.6169
  119MPD2    C3 1815   0.689   2.731  13.224  0.6231 -0.3643  0.0323
  119MPD2    C4 1816   0.799   2.719  13.138 -0.2563  0.2564  0.0748
  119MPD2    C5 1817   0.912   2.782  13.182  0.1407  0.0890 -0.4690
  119MPD2     H 1818   0.609   2.805  13.405  0.5986  0.1519 -0.2604
  119MPD2    H1 1819   0.802   2.666  13.043 -0.2554  1.4333 -0.5763
  119MPD2    H2 1820   1.011   2.908  13.321 -0.9295  1.2283  1.3606
  119MPD2    H3 1821   0.994   2.767  13.114 -0.1132  1.8867 -1.1668
  119MPD2     N 1822   0.576   2.659  13.212  0.4794 -0.2696 -0.5928
  119MPD2    H5 1823   0.507   2.667  13.286  2.9816  1.0774  1.5705
  119MPD2    N1 1824   0.824   2.936  13.499  0.7982  0.0012 -0.6453
  119MPD2    H7 1825   0.913   2.981  13.518 -0.3497  2.4685 -1.0759
  120TCq2    C1 1826   0.541   2.561  13.125 -0.5086 -0.7989  0.2225
  120TCq2    O2 1827   0.612   2.525  13.033  0.0428 -0.3671  0.6019
  120TCq2    C2 1828   0.396   2.518  13.136 -0.2356  0.0932 -0.0303
  120TCq2    C3 1829   0.339   2.493  13.020  0.0770  0.7952  0.0750
  120TCq2    C4 1830   0.209   2.495  13.010 -0.2179  0.4995 -0.3836
  120TCq2    C5 1831   0.129   2.524  13.121 -0.2084 -0.0308  0.1496
  120TCq2    C6 1832   0.192   2.556  13.236 -0.1467  0.5078  0.2853
  120TCq2    C7 1833   0.327   2.556  13.248 -0.0868 -0.2196  0.7035
  120TCq2    C8 1834   0.112   2.613  13.345 -0.8309 -0.0246  0.3472
  120TCq2    O4 1835   4.723   2.653  13.314 -0.2660 -0.0871 -0.7634
  120TCq2    C9 1836   0.153   2.455  12.885 -0.1569 -0.0091  0.2897
  120TCq2    O5 1837   0.030   2.429  12.887 -0.3672  0.2023  0.3259
  120TCq2    O6 1838   0.205   2.518  12.790  0.6085  0.0414  0.0142
  120TCq2    H2 1839   0.404   2.461  12.939 -2.5000 -2.5198 -0.6878
  120TCq2    H3 1840   0.021   2.522  13.112 -0.3295 -0.7232  1.7407
  120TCq2    H4 1841   0.378   2.598  13.333 -0.1479  0.7173  0.2800
  121TMC2    C1 1842   2.085   3.917  14.146  0.1640 -0.3680 -0.2969
  121TMC2    C2 1843   2.130   3.790  14.176 -0.0882  0.5895 -0.2953
  121TMC2    C3 1844   2.084   3.678  14.112 -0.2491 -0.1386  0.0413
  121TMC2    C4 1845   1.993   3.938  14.044  0.2883  0.2422  0.0949
  121TMC2    C5 1846   1.942   3.825  13.982  0.3047  0.0792  0.1346
  121TMC2    C6 1847   1.982   3.689  14.016 -0.4075 -0.5055 -0.4000
  121TMC2     C 1848   2.187   4.027  14.164 -0.3377 -0.6289  0.4896
  121TMC2     O 1849   2.302   3.998  14.190 -0.5940  1.0328 -0.2132
  121TMC2     H 1850   2.212   3.774  14.244  0.4505  0.6473 -0.9304
  121TMC2    H1 1851   1.978   4.037  14.004 -0.3257  0.2220  0.2756
  121TMC2    H2 1852   1.952   3.605  13.953  1.0273 -0.6277 -0.9212
  121TMC2    C7 1853   1.833   3.842  13.890 -0.3563 -0.3815 -1.2257
  121TMC2    C8 1854   2.150   3.549  14.145  0.2433 -0.0936 -0.2583
  121TMC2    O1 1855   1.810   3.744  13.824 -0.6294  0.0216 -0.3987
  121TMC2    O2 1856   2.270   3.543  14.175 -0.3347 -0.6483 -0.3028
  121TMC2    O5 1857   2.078   3.453  14.086  1.0004 -1.1204 -0.7002
  121TMC2    H5 1858   1.983   3.478  14.081  1.5959  1.1588 -0.3887
  122MPD2     C 1859   2.335   4.290  14.165  0.2146  0.2969  0.0897
  122MPD2    C1 1860   2.208   4.267  14.118  0.2812 -0.7307 -0.0951
  122MPD2    C2 1861   2.143   4.376  14.057  0.3207  0.7308  0.2793
  122MPD2    C3 1862   2.207   4.496  14.040  0.2230  0.1236 -0.8825
  122MPD2    C4 1863   2.334   4.515  14.082 -0.2419 -0.1333  0.3339
  122MPD2    C5 1864   2.392   4.414  14.156 -0.3833  0.4002  0.6193
  122MPD2     H 1865   2.041   4.363  14.024  0.9295  1.1941 -1.7483
  122MPD2    H1 1866   2.382   4.612  14.073 -1.4616  0.5600  1.2755
  122MPD2    H2 1867   2.380   4.215  14.230 -3.9251  0.0057  2.6197
  122MPD2    H3 1868   2.492   4.442  14.188  0.5223  0.1301 -1.9709
  122MPD2     N 1869   2.139   4.593  13.955 -0.7318  0.2844  0.5869
  122MPD2    H5 1870   2.045   4.565  13.929 -0.7247  3.1249 -2.4865
  122MPD2    N1 1871   2.133   4.150  14.131 -0.6054 -0.5849 -0.0647
  122MPD2    H7 1872   2.032   4.159  14.125 -0.8041 -2.1539  1.0895
  123MPD2     C 1873   0.818   2.217  10.527 -0.9904  0.5996  0.2037
  123MPD2    C1 1874   0.785   2.278  10.413 -0.2305  0.5506 -0.6156
  123MPD2    C2 1875   0.865   2.380  10.360 -0.1498 -0.8370 -0.0085
  123MPD2    C3 1876   0.976   2.429  10.423  0.8336 -0.3578  0.3546
  123MPD2    C4 1877   1.011   2.376  10.548 -0.1336  0.2166  0.4451
  123MPD2    C5 1878   0.931   2.265  10.589  0.2534  0.6481  0.3055
  123MPD2     H 1879   0.846   2.419  10.261 -0.0844  0.4624  0.5016
  123MPD2    H1 1880   1.094   2.416  10.604 -1.0159  0.6030  1.4774
  123MPD2    H2 1881   0.763   2.136  10.573  1.2280 -0.9143  0.1679
  123MPD2    H3 1882   0.967   2.208  10.674 -0.3453  1.0334  0.8117
  123MPD2     N 1883   1.045   2.537  10.360  0.3181 -0.4428  0.0395
  123MPD2    H5 1884   1.020   2.551  10.263 -2.2161 -1.4134  0.5462
  123MPD2    N1 1885   0.667   2.235  10.349 -0.5355 -0.2592 -0.0511
  123MPD2    H7 1886   0.610   2.164  10.393 -1.3531  0.8785  0.7399
  124TCq2    C1 1887   1.122   2.629  10.430  0.7026  0.1554  0.4367
  124TCq2    O2 1888   1.155   2.635  10.548  0.1967 -0.1802 -0.3121
  124TCq2    C2 1889   1.127   2.749  10.354  0.4090 -0.0489 -0.0282
  124TCq2    C3 1890   1.129   2.868  10.413  0.3481  1.0317  0.1546
  124TCq2    C4 1891   1.082   2.974  10.335 -0.0136  0.2685 -0.5638
  124TCq2    C5 1892   1.044   2.955  10.206  0.0821  0.6382 -0.6720
  124TCq2    C6 1893   1.053   2.829  10.152 -0.2996 -0.1940  0.1215
  124TCq2    C7 1894   1.097   2.735  10.226 -0.3369  0.3208 -0.3869
  124TCq2    C8 1895   0.966   2.802  10.040 -0.5465 -0.4150  0.5797
  124TCq2    O4 1896   0.918   2.689  10.041 -0.6983 -0.3187 -0.1116
  124TCq2    C9 1897   1.086   3.108  10.389 -0.5969 -0.0911  0.6025
  124TCq2    O5 1898   1.114   3.124  10.515  0.1303 -0.3318  0.0995
  124TCq2    O6 1899   1.082   3.201  10.305  0.6050 -0.3281  0.0640
  124TCq2    H2 1900   1.161   2.880  10.516 -0.9139 -2.3200  0.9158
  124TCq2    H3 1901   0.998   3.045  10.166  0.9594  1.0237 -0.8109
  124TCq2    H4 1902   1.117   2.644  10.171 -1.3374 -0.3732  0.4134
  125TMC2    C1 1903   1.845   4.236   9.524  0.9930  0.1660 -0.1148
  125TMC2    C2 1904   1.770   4.123   9.548  0.7014  0.2105 -0.0289
  125TMC2    C3 1905   1.784   4.067   9.674 -0.3130  0.2862 -0.1143
  125TMC2    C4 1906   1.932   4.288   9.610  0.6664  0.3938 -0.4210
  125TMC2    C5 1907   1.947   4.219   9.723  0.0468  0.4337  0.0015
  125TMC2    C6 1908   1.877   4.109   9.762  0.7488 -0.0491  0.4330
  125TMC2     C 1909   1.844   4.292   9.386 -0.0792  0.4253 -0.4202
  125TMC2     O 1910   1.752   4.258   9.315  0.0646 -0.1673 -0.0615
  125TMC2     H 1911   1.696   4.088   9.476  0.8164 -3.0159  1.4167
  125TMC2    H1 1912   1.980   4.385   9.607 -2.6375  2.0153 -0.3146
  125TMC2    H2 1913   1.870   4.075   9.865 -0.0661  2.0273  1.0719
  125TMC2    C7 1914   2.020   4.285   9.831 -0.0694  0.9105 -0.4103
  125TMC2    C8 1915   1.706   3.949   9.720  0.1612 -0.0365  0.4116
  125TMC2    O1 1916   1.966   4.276   9.937  0.3248 -0.2106  0.1492
  125TMC2    O2 1917   1.740   3.889   9.822  0.0493  0.0506  0.0491
  125TMC2    O5 1918   1.653   3.886   9.612 -0.6474  0.5208  0.3371
  125TMC2    H5 1919   1.641   3.942   9.533 -0.4529  0.2411  0.1064
  126MPD1     C 1920   2.073   4.542   8.988  0.7514  0.2550 -0.0527
  126MPD1    C1 1921   2.158   4.562   9.098  0.0500 -0.6930 -0.4360
  126MPD1    C2 1922   2.105   4.508   9.224  0.2480  0.4777 -0.7296
  126MPD1    C3 1923   1.986   4.428   9.232 -0.1319 -0.6123 -0.0226
  126MPD1    C4 1924   1.900   4.417   9.124 -0.1733 -0.0662  0.6415
  126MPD1    C5 1925   1.950   4.479   9.004  0.3153  0.1685 -0.9587
  126MPD1     H 1926   2.154   4.519   9.321 -0.8620 -0.7079 -0.0307
  126MPD1    H1 1927   1.807   4.362   9.126 -0.3267  0.2156  1.3032
  126MPD1    H2 1928   2.116   4.585   8.898 -3.3542  1.6266 -1.3454
  126MPD1    H3 1929   1.892   4.475   8.913 -1.9436  0.1576  0.4924
  126MPD1     N 1930   1.952   4.377   9.358 -0.4725 -0.2069 -0.6365
  126MPD1    H5 1931   2.026   4.380   9.428  1.0247  0.5791 -2.2440
  126MPD1    N1 1932   2.270   4.645   9.100 -0.1352  0.4457 -0.1476
  126MPD1    H6 1933   2.319   4.628   9.013 -0.8621 -0.2638 -0.4144
  126MPD1    H7 1934   2.334   4.633   9.179  0.2852  2.0700 -0.2442
  127MPD2     C 1935   3.071   3.727   9.491 -0.1860  0.3488 -0.2483
  127MPD2    C1 1936   3.039   3.722   9.629  0.2306  0.9750 -0.3023
  127MPD2    C2 1937   3.109   3.803   9.713  0.1247 -0.1888 -0.6318
  127MPD2    C3 1938   3.192   3.897   9.652 -0.3503  0.6054  0.3061
  127MPD2    C4 1939   3.224   3.903   9.521 -0.6395  0.2074 -0.0014
  127MPD2    C5 1940   3.155   3.820   9.440  0.6479  0.2293 -0.5333
  127MPD2     H 1941   3.095   3.805   9.821  1.5082 -0.5503 -0.4458
  127MPD2    H1 1942   3.296   3.968   9.472 -0.7231 -0.0438 -0.4528
  127MPD2    H2 1943   3.018   3.656   9.427 -0.1271  0.6284 -0.6083
  127MPD2    H3 1944   3.174   3.825   9.333  3.4603  0.3739 -0.0276
  127MPD2     N 1945   3.266   3.965   9.755 -0.3697 -0.4219 -0.4609
  127MPD2    H5 1946   3.260   3.936   9.852  3.5186  0.8516  0.1947
  127MPD2    N1 1947   2.937   3.632   9.669  0.1982  0.4473  0.2121
  127MPD2    H7 1948   2.881   3.592   9.594  0.0970  1.5513 -0.3126
  128TCq2    C1 1949   2.906   3.612   9.797  0.5042 -0.4612 -0.2147
  128TCq2    O2 1950   2.974   3.639   9.898  0.4695  0.1082  0.2253
  128TCq2    C2 1951   2.802   3.518   9.827 -0.8245  0.1234 -0.0794
  128TCq2    C3 1952   2.756   3.507   9.951 -0.0014  0.1706 -0.0194
  128TCq2    C4 1953   2.652   3.424   9.977 -0.1438  0.2786  0.6631
  128TCq2    C5 1954   2.595   3.345   9.882 -0.2701 -0.3978 -0.2002
  128TCq2    C6 1955   2.643   3.353   9.752  0.6576  0.4004 -0.3591
  128TCq2    C7 1956   2.737   3.452   9.728 -0.8448 -0.1634  0.1285
  128TCq2    C8 1957   2.567   3.295   9.638 -0.0730  0.1246  0.0620
  128TCq2    O4 1958   2.598   3.335   9.526 -0.4080  0.5092 -0.2347
  128TCq2    C9 1959   2.607   3.412  10.114  0.0043 -0.0873  0.2209
  128TCq2    O5 1960   2.531   3.317  10.151 -0.3804  0.3043 -0.1166
  128TCq2    O6 1961   2.665   3.487  10.192  0.5871 -0.1299 -0.2510
  128TCq2    H2 1962   2.793   3.571  10.029 -0.2635 -0.3287  0.5108
  128TCq2    H3 1963   2.509   3.287   9.911  0.1223 -1.7930 -1.8285
  128TCq2    H4 1964   2.762   3.465   9.623  2.0043 -0.0375  0.8406
  129MPD2     C 1965   1.119   4.556   1.444 -0.0606  0.2382 -0.3306
  129MPD2    C1 1966   1.188   4.550   1.562  0.2296  0.4572  1.2876
  129MPD2    C2 1967   1.317   4.606   1.564  0.0189  0.5861  0.3723
  129MPD2    C3 1968   1.373   4.658   1.448  0.3444  0.4246 -0.0137
  129MPD2    C4 1969   1.301   4.651   1.327 -1.1780 -0.2300 -0.7362
  129MPD2    C5 1970   1.177   4.601   1.334 -0.0190 -0.2143 -0.7355
  129MPD2     H 1971   1.366   4.622   1.659 -0.9854  1.7072  0.7057
  129MPD2    H1 1972   1.331   4.698   1.234  1.4901  0.0025  0.2364
  129MPD2    H2 1973   1.021   4.510   1.436 -0.6462  1.2257  1.1237
  129MPD2    H3 1974   1.110   4.605   1.249 -0.1049 -0.7029 -0.6896
  129MPD2     N 1975   1.508   4.696   1.458 -0.1931 -0.4218  0.5837
  129MPD2    H5 1976   1.546   4.693   1.552 -0.0129  3.0796  0.6147
  129MPD2    N1 1977   1.134   4.507   1.688  0.4933  0.6892 -0.2280
  129MPD2    H7 1978   1.182   4.518   1.777 -0.9006  1.1307  0.4729
  130TCq2    C1 1979   1.015   4.436   1.704 -0.3006  0.2758  0.1892
  130TCq2    O2 1980   0.950   4.372   1.618 -0.1929 -0.3348 -0.3031
  130TCq2    C2 1981   1.003   4.392   1.837 -0.3663  0.5326  0.0959
  130TCq2    C3 1982   1.056   4.469   1.936  0.0677 -0.5076  0.1339
  130TCq2    C4 1983   1.056   4.408   2.059  0.0547  0.2281  0.8893
  130TCq2    C5 1984   1.017   4.278   2.084  0.3114  0.3200 -0.3333
  130TCq2    C6 1985   0.965   4.213   1.981  0.5203 -0.6128  0.1883
  130TCq2    C7 1986   0.963   4.263   1.859 -0.1915 -0.1704  0.0453
  130TCq2    C8 1987   0.905   4.075   1.992  0.2745 -0.0934 -0.4874
  130TCq2    O4 1988   0.811   4.035   1.924 -0.0628 -0.7848  0.1871
  130TCq2    C9 1989   1.093   4.492   2.170 -0.3912  0.3535  0.1145
  130TCq2    O5 1990   1.101   4.439   2.286 -0.3299  0.3146  0.1468
  130TCq2    O6 1991   1.102   4.616   2.145  0.0126 -0.3951  0.8089
  130TCq2    H2 1992   1.078   4.573   1.916 -0.5037 -0.1234  1.5787
  130TCq2    H3 1993   1.010   4.244   2.187 -1.3910 -1.0030 -0.8960
  130TCq2    H4 1994   0.900   4.215   1.786 -0.7000  0.9048 -0.2213
  131MPD2     C 1995   0.123   2.745   9.715 -0.0184 -0.0104  0.0842
  131MPD2    C1 1996   0.238   2.784   9.779 -0.8748  1.0407 -0.0218
  131MPD2    C2 1997   0.287   2.703   9.884 -0.6642 -0.4598  0.4361
  131MPD2    C3 1998   0.222   2.586   9.918 -0.7249  0.0361 -0.1523
  131MPD2    C4 1999   0.114   2.543   9.839  0.1375  0.2574  0.0377
  131MPD2    C5 2000   0.061   2.623   9.741  0.4651  0.2316 -0.0758
  131MPD2     H 2001   0.371   2.733   9.946  1.6202 -0.9467 -2.3862
  131MPD2    H1 2002   0.083   2.440   9.844  0.7555  0.0403 -0.7046
  131MPD2    H2 2003   0.079   2.816   9.645  0.5796  1.5358  1.2802
  131MPD2    H3 2004   4.708   2.579   9.679 -0.4579 -1.6529  2.4314
  131MPD2     N 2005   0.263   2.520  10.034  0.1088  0.3941  0.1784
  131MPD2    H5 2006   0.351   2.548  10.075 -0.1856 -1.0856  1.8615
  131MPD2    N1 2007   0.308   2.905   9.750 -0.4389  0.1924 -0.1100
  131MPD2    H7 2008   0.258   2.971   9.690 -1.8257 -1.0723 -0.3454
  132TCq2    C1 2009   0.520   3.284   9.472  0.0059  0.1816  0.4618
  132TCq2    O2 2010   0.451   3.214   9.396  0.4179 -0.4723  0.0539
  132TCq2    C2 2011   0.496   3.251   9.616 -0.4066 -0.6349  0.1623
  132TCq2    C3 2012   0.545   3.338   9.711 -0.2468 -0.6134  0.3170
  132TCq2    C4 2013   0.555   3.297   9.841  0.3496 -0.3948 -0.6996
  132TCq2    C5 2014   0.504   3.176   9.884 -0.5410  0.6128  0.6691
  132TCq2    C6 2015   0.455   3.091   9.781 -0.5514 -0.8894 -0.7219
  132TCq2    C7 2016   0.444   3.131   9.652 -0.3614  0.3753  0.8426
  132TCq2    C8 2017   0.420   2.954   9.811 -0.1332  0.9545  0.5892
  132TCq2    O4 2018   0.491   2.908   9.899 -0.2172 -0.0871 -0.3138
  132TCq2    C9 2019   0.594   3.389   9.937  0.6533  0.3577  0.0140
  132TCq2    O5 2020   0.615   3.510   9.896 -0.4246  0.2174  0.0773
  132TCq2    O6 2021   0.614   3.348  10.055  0.5026 -0.3568  0.3221
  132TCq2    H2 2022   0.574   3.440   9.687 -0.3247 -0.1299  2.3499
  132TCq2    H3 2023   0.498   3.139   9.986  0.7352 -0.5369  0.3241
  132TCq2    H4 2024   0.414   3.058   9.577 -0.6579  2.2044 -0.8255
  133MPD2     C 2025   4.255   4.494   9.112 -1.0897 -0.4099  0.7180
  133MPD2    C1 2026   4.378   4.435   9.139  0.6118 -0.0582 -0.0563
  133MPD2    C2 2027   4.382   4.293   9.176  0.5823  0.2420 -0.0077
  133MPD2    C3 2028   4.262   4.218   9.165 -0.1584  0.0400  0.2576
  133MPD2    C4 2029   4.143   4.280   9.133  0.3003  0.4073  0.8098
  133MPD2    C5 2030   4.142   4.419   9.105 -0.1644 -0.0547  0.0039
  133MPD2     H 2031   4.475   4.247   9.208 -0.2190 -0.3310  1.4969
  133MPD2    H1 2032   4.048   4.229   9.120  0.4453 -0.0891  1.7461
  133MPD2    H2 2033   4.241   4.601   9.110  1.6039 -0.0619  0.2227
  133MPD2    H3 2034   4.042   4.451   9.080  0.9288  0.3131 -3.8377
  133MPD2     N 2035   4.262   4.076   9.165  0.5896 -0.7984 -0.0484
  133MPD2    H5 2036   4.169   4.039   9.151  0.3071  0.9289 -2.6561
  133MPD2    N1 2037   4.493   4.520   9.135  0.2000 -0.1479 -0.8500
  133MPD2    H7 2038   4.474   4.615   9.105  0.6815  0.0417 -0.5488
  134TCq2    C1 2039   4.615   4.475   9.172 -0.0485 -0.4027  1.0921
  134TCq2    O2 2040   4.657   4.363   9.186 -0.0763 -0.0967 -0.2830
  134TCq2    C2 2041   4.712   4.583   9.169  0.0916 -0.2775  0.4013
  134TCq2    C3 2042   0.105   4.559   9.102  0.1337 -0.2298  0.0311
  134TCq2    C4 2043   0.185   4.664   9.068  0.2733  0.4269  0.0607
  134TCq2    C5 2044   0.156   0.068   9.105  0.3780  0.1410 -0.6645
  134TCq2    C6 2045   0.046   0.084   9.184 -0.6670  0.0524  0.2338
  134TCq2    C7 2046   4.684   4.705   9.218 -0.6053 -0.7821  0.0292
  134TCq2    C8 2047   0.015   0.214   9.230 -0.8044 -0.5446  0.0186
  134TCq2    O4 2048   0.103   0.299   9.219  0.0506 -0.5827 -0.1636
  134TCq2    C9 2049   0.316   4.641   9.009 -0.4609  0.1811 -0.8206
  134TCq2    O5 2050   0.343   4.539   8.947  0.0969 -0.1517  0.1598
  134TCq2    O6 2051   0.400   0.006   9.041 -0.2507 -0.0434  0.0642
  134TCq2    H2 2052   0.130   4.456   9.079  3.2716  0.1659  1.7658
  134TCq2    H3 2053   0.223   0.151   9.088  1.3653 -0.1671  1.6756
  134TCq2    H4 2054   4.587   4.718   9.266 -0.0305  2.4877  0.3192
  135MPD2     C 2055   3.089   0.675   9.950 -0.6469 -0.7964 -0.0688
  135MPD2    C1 2056   3.035   0.606   9.844 -0.1866  0.4099  0.7202
  135MPD2    C2 2057   3.105   0.508   9.768 -0.6469  0.7918 -0.1408
  135MPD2    C3 2058   3.229   0.467   9.807  0.1826  0.3209  0.5665
  135MPD2    C4 2059   3.277   0.527   9.921 -0.0836 -0.3132 -0.3812
  135MPD2    C5 2060   3.208   0.619   9.992  0.4617 -0.6533  0.0903
  135MPD2     H 2061   3.054   0.456   9.688 -1.2395  0.4379  0.4687
  135MPD2    H1 2062   3.368   0.488   9.964  1.0368  1.4860 -1.1085
  135MPD2    H2 2063   3.041   0.749  10.013  0.3123  1.1614 -1.6657
  135MPD2    H3 2064   3.258   0.649  10.083 -1.5540 -1.2361  1.4073
  135MPD2     N 2065   3.319   0.387   9.731 -0.2879  0.5049  0.3255
  135MPD2    H5 2066   3.409   0.370   9.774  0.3057 -0.1528 -1.1801
  135MPD2    N1 2067   2.903   0.627   9.804  0.6103 -0.8253 -0.3124
  135MPD2    H7 2068   2.876   0.586   9.715  0.8423  0.8376 -1.1649
  136TCq2    C1 2069   2.813   0.708   9.864 -0.1521 -0.3900 -0.0270
  136TCq2    O2 2070   2.829   0.775   9.963  0.1909  0.1714  0.5356
  136TCq2    C2 2071   2.684   0.698   9.800 -0.1695  0.3244  0.1648
  136TCq2    C3 2072   2.600   0.808   9.820 -0.4046  0.2021  0.4364
  136TCq2    C4 2073   2.470   0.782   9.790  0.3833  0.4488  0.2017
  136TCq2    C5 2074   2.427   0.667   9.731  0.7067  0.4939 -0.1817
  136TCq2    C6 2075   2.520   0.569   9.711  0.0118  0.2213 -0.1013
  136TCq2    C7 2076   2.653   0.579   9.738  0.0673 -0.1249 -0.8751
  136TCq2    C8 2077   2.490   0.462   9.621  0.6105 -0.2147  0.0495
  136TCq2    O4 2078   2.580   0.434   9.542  0.0018 -0.1638  0.1235
  136TCq2    C9 2079   2.370   0.879   9.806 -0.7659  0.3702 -0.8840
  136TCq2    O5 2080   2.407   0.985   9.866 -0.1282  0.4480  0.3124
  136TCq2    O6 2081   2.252   0.860   9.752  0.1546  0.9818 -0.3270
  136TCq2    H2 2082   2.634   0.904   9.856 -0.8062  0.0777  1.1502
  136TCq2    H3 2083   2.326   0.656   9.691  1.3100 -0.1302 -1.5621
  136TCq2    H4 2084   2.706   0.486   9.752  0.8538  0.4196 -0.2634
  137MPD2     C 2085   1.852   3.259   9.664 -0.0810  0.2846 -0.7298
  137MPD2    C1 2086   1.944   3.347   9.615 -0.1068  0.4856  0.2267
  137MPD2    C2 2087   1.981   3.463   9.687 -0.2994 -0.0369  0.2546
  137MPD2    C3 2088   1.918   3.490   9.808  0.4071  0.0982  0.4935
  137MPD2    C4 2089   1.848   3.395   9.866 -1.0515 -0.1752 -0.3044
  137MPD2    C5 2090   1.808   3.283   9.793 -0.0584 -0.0258 -0.2128
  137MPD2     H 2091   2.054   3.532   9.649  0.7615 -0.5636  1.3185
  137MPD2    H1 2092   1.806   3.403   9.965 -0.6256 -0.8224 -0.0683
  137MPD2    H2 2093   1.814   3.171   9.613  0.7039 -0.9953  0.8772
  137MPD2    H3 2094   1.735   3.218   9.840 -2.6248  2.9713 -0.0801
  137MPD2     N 2095   1.938   3.612   9.874 -0.3518  0.0030 -0.2696
  137MPD2    H5 2096   1.995   3.683   9.829 -1.6664 -0.1989 -2.2472
  137MPD2    N1 2097   1.994   3.310   9.481 -0.2320 -0.2374  0.0255
  137MPD2    H7 2098   1.959   3.228   9.434  0.5552  0.2922 -1.4858
  138TCq2    C1 2099   2.094   3.378   9.415 -0.0168  0.6994  0.2449
  138TCq2    O2 2100   2.157   3.481   9.443 -0.4693 -0.3146  0.0062
  138TCq2    C2 2101   2.115   3.329   9.277 -0.0382 -0.5068 -0.1815
  138TCq2    C3 2102   2.236   3.358   9.226  0.1464  0.4224 -0.4782
  138TCq2    C4 2103   2.268   3.336   9.098 -0.1782 -0.9199  0.2912
  138TCq2    C5 2104   2.173   3.308   9.008 -0.0465 -0.2369 -0.0930
  138TCq2    C6 2105   2.042   3.312   9.053 -0.3866  0.6171  0.1201
  138TCq2    C7 2106   2.009   3.311   9.186 -0.1998  0.5620 -0.1133
  138TCq2    C8 2107   1.946   3.355   8.955  0.7580 -0.3119  0.0503
  138TCq2    O4 2108   1.985   3.343   8.836 -0.3144 -0.2440 -0.0410
  138TCq2    C9 2109   2.408   3.337   9.057 -0.3570 -0.4360  0.3670
  138TCq2    O5 2110   2.435   3.311   8.932  0.2326  0.1404  0.0124
  138TCq2    O6 2111   2.483   3.399   9.132 -0.2750 -0.1075  0.4385
  138TCq2    H2 2112   2.316   3.378   9.296 -0.2150  1.7098 -0.4253
  138TCq2    H3 2113   2.199   3.289   8.904 -1.2945  0.7597 -0.5888
  138TCq2    H4 2114   1.907   3.315   9.223 -1.4168 -1.7962 -3.2179
  139TMC2    C1 2115   2.211   1.914  13.174 -0.3817  1.3201 -0.0495
  139TMC2    C2 2116   2.082   1.949  13.125  0.7600 -0.1138 -0.0356
  139TMC2    C3 2117   2.027   2.064  13.180  0.6355 -0.4033 -0.4677
  139TMC2    C4 2118   2.272   1.991  13.268  0.0359 -0.0635  0.1830
  139TMC2    C5 2119   2.209   2.105  13.312  0.5618  0.3796 -1.0964
  139TMC2    C6 2120   2.084   2.145  13.275  0.2815 -0.0242  0.5885
  139TMC2     C 2121   2.278   1.798  13.118  0.3429 -0.0059 -0.0177
  139TMC2     O 2122   2.201   1.706  13.089  0.2643  0.1271 -0.2400
  139TMC2     H 2123   2.025   1.887  13.056 -1.5430  0.9336  0.9501
  139TMC2    H1 2124   2.366   1.965  13.315  1.8045  3.2641 -1.5599
  139TMC2    H2 2125   2.041   2.240  13.305  1.9560  1.0986 -0.5110
  139TMC2    C7 2126   2.292   2.182  13.409  0.1628 -0.3223 -0.2739
  139TMC2    C8 2127   1.890   2.098  13.141  0.4044  0.2140  0.5947
  139TMC2    O1 2128   2.411   2.162  13.406  0.2880  0.5010 -0.0378
  139TMC2    O2 2129   1.823   2.187  13.192 -0.5517  0.0589 -0.0478
  139TMC2    O5 2130   1.864   2.060  13.014  0.3637  0.1714  0.1046
  139TMC2    H5 2131   1.937   2.003  12.981 -1.5075 -2.0117 -0.2493
  140MPD2     C 2132   2.638   1.703  13.177  0.0493 -0.0915  0.5707
  140MPD2    C1 2133   2.503   1.689  13.140 -0.2969  0.3096 -0.8331
  140MPD2    C2 2134   2.463   1.578  13.070 -0.0404  0.5662  0.5608
  140MPD2    C3 2135   2.556   1.481  13.045  0.2734 -0.4899  0.2095
  140MPD2    C4 2136   2.685   1.495  13.086 -0.5225 -0.4268 -0.2149
  140MPD2    C5 2137   2.729   1.607  13.147 -0.3926  0.1755  0.7891
  140MPD2     H 2138   2.358   1.568  13.045  0.2033 -1.4405  0.3415
  140MPD2    H1 2139   2.756   1.416  13.067 -0.6682 -0.4052 -0.8446
  140MPD2    H2 2140   2.667   1.797  13.223  0.9034  0.3340 -0.8516
  140MPD2    H3 2141   2.833   1.614  13.179  0.1626  0.1802 -1.0370
  140MPD2     N 2142   2.518   1.366  12.971  0.0565 -0.0372 -0.1252
  140MPD2    H5 2143   2.422   1.332  12.965  0.8644 -1.8571 -2.7947
  140MPD2    N1 2144   2.416   1.793  13.155 -0.2036  0.1167  0.0216
  140MPD2    H7 2145   2.463   1.874  13.193  0.4267 -0.7390  1.0683
  141TCq2    C1 2146   3.161   3.397  14.531  0.4188  0.0436 -0.6696
  141TCq2    O2 2147   3.157   3.476  14.435 -0.0451  0.4720  0.3546
  141TCq2    C2 2148   3.088   3.438  14.651  0.3275 -0.2264 -0.0637
  141TCq2    C3 2149   3.037   3.345  14.740 -0.5356 -0.1311 -0.3607
  141TCq2    C4 2150   2.963   3.394  14.845 -0.4209  0.3496 -0.0670
  141TCq2    C5 2151   2.964   3.531  14.872 -0.0119 -0.3077  0.6198
  141TCq2    C6 2152   3.012   3.620  14.774 -0.2008 -0.5706  0.3556
  141TCq2    C7 2153   3.073   3.573  14.668 -0.2510 -0.3723 -0.1741
  141TCq2    C8 2154   3.011   3.763  14.810  0.2681  0.4335  0.0992
  141TCq2    O4 2155   2.939   3.799  14.903 -0.5445 -0.5687  0.4453
  141TCq2    C9 2156   2.919   3.300  14.948  0.3040 -0.1332  0.0180
  141TCq2    O5 2157   2.883   3.341  15.062  0.6064 -0.0628  1.1958
  141TCq2    O6 2158   2.909   3.183  14.908 -0.3345  0.2326 -0.5524
  141TCq2    H2 2159   3.042   3.239  14.718  1.5377 -0.2357  0.5523
  141TCq2    H3 2160   2.905   3.571  14.954  0.2180 -0.6144  0.9318
  141TCq2    H4 2161   3.123   3.635  14.595  0.4525  0.6589  1.2036
  142MPD2     C 2162   0.279   1.794  10.074  0.1195 -0.2714 -0.2193
  142MPD2    C1 2163   0.177   1.852  10.003 -0.7031  0.6489  0.5399
  142MPD2    C2 2164   0.203   1.966   9.921 -0.4022 -1.1375 -0.3233
  142MPD2    C3 2165   0.327   2.015   9.920 -0.8923 -0.5710  0.7540
  142MPD2    C4 2166   0.427   1.952   9.984  0.6470 -0.3173  0.3767
  142MPD2    C5 2167   0.403   1.841  10.062 -0.0161 -0.6191  0.5115
  142MPD2     H 2168   0.127   2.010   9.858 -0.8421 -0.7333  0.4798
  142MPD2    H1 2169   0.532   1.975   9.970  0.9455 -2.3166 -0.6467
  142MPD2    H2 2170   0.273   1.699  10.126 -0.4363 -1.2072 -2.0056
  142MPD2    H3 2171   0.483   1.790  10.113  1.3651  0.6851 -0.3502
  142MPD2     N 2172   0.363   2.121   9.840  0.8558 -0.8612 -0.1048
  142MPD2    H5 2173   0.464   2.126   9.834  0.9152  0.0180  1.6406
  142MPD2    N1 2174   0.050   1.785  10.019  0.4720 -0.9388  0.0528
  142MPD2    H7 2175   0.045   1.709  10.086  0.7667  0.4705  1.6851
  143TCq2    C1 2176   0.284   2.207   9.768  0.5328 -0.2911 -0.9067
  143TCq2    O2 2177   0.166   2.225   9.780 -0.1532 -0.4859 -0.4788
  143TCq2    C2 2178   0.351   2.304   9.689 -0.4338 -0.7432  0.0012
  143TCq2    C3 2179   0.270   2.349   9.587 -0.1821 -0.1933 -0.6044
  143TCq2    C4 2180   0.299   2.468   9.530  0.2316 -0.2926 -0.1589
  143TCq2    C5 2181   0.405   2.545   9.569 -0.1461  0.2534 -0.7227
  143TCq2    C6 2182   0.490   2.491   9.661 -0.1383  0.2202  0.2851
  143TCq2    C7 2183   0.464   2.377   9.727  0.7405  0.0021 -0.3785
  143TCq2    C8 2184   0.589   2.582   9.721  0.2990 -0.0722 -1.0442
  143TCq2    O4 2185   0.651   2.540   9.819  0.2775 -0.3495 -0.5969
  143TCq2    C9 2186   0.219   2.516   9.427 -0.5597  1.1451  0.7123
  143TCq2    O5 2187   0.255   2.627   9.375  0.2524  0.1612 -0.3752
  143TCq2    O6 2188   0.117   2.453   9.394 -0.2137 -0.3254 -0.4600
  143TCq2    H2 2189   0.174   2.302   9.567 -0.3509  0.1609 -0.6153
  143TCq2    H3 2190   0.437   2.624   9.502 -0.6729  1.8200  0.8727
  143TCq2    H4 2191   0.526   2.342   9.809  1.4451 -2.1569 -1.8137
  144MPD2     C 2192   3.385   1.088   0.585  0.0396 -0.5829  0.1408
  144MPD2    C1 2193   3.383   0.981   0.508  0.5445  0.0954 -0.0003
  144MPD2    C2 2194   3.464   0.871   0.547 -0.4248 -0.4479 -0.3321
  144MPD2    C3 2195   3.553   0.885   0.653  0.2762  0.2827  0.1127
  144MPD2    C4 2196   3.548   0.998   0.733  0.4961  0.7722 -0.6270
  144MPD2    C5 2197   3.467   1.097   0.692  0.6891  0.4026 -0.0759
  144MPD2     H 2198   3.447   0.780   0.490 -3.0242 -0.0898 -0.1558
  144MPD2    H1 2199   3.604   1.014   0.825 -1.1298 -0.0782  0.5010
  144MPD2    H2 2200   3.312   1.168   0.583 -0.0998 -0.6764  1.4874
  144MPD2    H3 2201   3.453   1.175   0.766 -1.6482 -0.1899  0.1244
  144MPD2     N 2202   3.647   0.785   0.703 -0.2980  0.0028  0.2645
  144MPD2    H5 2203   3.696   0.820   0.785 -0.2198  1.4420 -0.3998
  144MPD2    N1 2204   3.300   0.963   0.391 -0.0027 -0.3358  0.0856
  144MPD2    H7 2205   3.291   0.878   0.336 -0.0097 -0.7724  0.7620
  145TCq2    C1 2206   3.679   0.665   0.638  0.5408 -0.0906 -0.1622
  145TCq2    O2 2207   3.627   0.618   0.539 -0.1472 -0.7357 -0.8550
  145TCq2    C2 2208   3.776   0.578   0.714  0.5782 -1.0039 -0.1564
  145TCq2    C3 2209   3.786   0.452   0.678 -0.9968  0.4220 -0.4914
  145TCq2    C4 2210   3.893   0.377   0.728  0.3172  0.4288 -0.4950
  145TCq2    C5 2211   3.975   0.431   0.825  0.2182 -0.2324 -0.1311
  145TCq2    C6 2212   3.955   0.559   0.867  0.6621  0.7459  0.3317
  145TCq2    C7 2213   3.851   0.637   0.812  0.3540 -0.4285  0.5724
  145TCq2    C8 2214   4.031   0.601   0.982  0.1660 -0.2780  0.2411
  145TCq2    O4 2215   4.121   0.531   1.029 -0.1705 -0.5786  0.2292
  145TCq2    C9 2216   3.905   0.242   0.676 -0.7088  0.2242 -0.1758
  145TCq2    O5 2217   3.816   0.201   0.602 -0.6228 -0.1953  0.0939
  145TCq2    O6 2218   4.003   0.174   0.718 -0.0709 -1.0175 -0.1686
  145TCq2    H2 2219   3.725   0.413   0.597  0.0924 -3.0343  0.3438
  145TCq2    H3 2220   4.056   0.369   0.860 -0.4012 -0.6716  0.5110
  145TCq2    H4 2221   3.845   0.744   0.831  0.0854 -0.4319  0.4952
  146TMC2    C1 2222   4.426   0.180  12.360  0.2438 -0.1008 -0.6041
  146TMC2    C2 2223   4.311   0.219  12.297  0.2052  0.0982 -0.2376
  146TMC2    C3 2224   4.252   0.132  12.208  0.6852  0.7000  0.2841
  146TMC2    C4 2225   4.496   0.063  12.328  0.7536 -0.4913 -0.2119
  146TMC2    C5 2226   4.425   4.699  12.247  0.2895 -0.5201  0.2331
  146TMC2    C6 2227   4.307   0.009  12.181 -0.4850  0.6297  0.0569
  146TMC2     C 2228   4.461   0.242  12.484  0.6429 -0.7153  0.5052
  146TMC2     O 2229   4.466   0.363  12.480 -0.4296 -0.2619 -0.4263
  146TMC2     H 2230   4.268   0.311  12.334 -0.1829 -0.4258  0.5945
  146TMC2    H1 2231   4.595   0.033  12.360  0.5419 -2.4129 -1.3653
  146TMC2    H2 2232   4.253   4.651  12.134  1.1072 -0.1985 -0.3261
  146TMC2    C7 2233   4.478   4.568  12.200 -0.5818  0.2751  0.0842
  146TMC2    C8 2234   4.114   0.159  12.182  0.2387 -0.4525 -0.8344
  146TMC2    O1 2235   4.447   4.532  12.086 -0.0561  0.2535  0.2011
  146TMC2    O2 2236   4.067   0.270  12.182  0.6775  0.5027  0.1399
  146TMC2    O5 2237   4.041   0.048  12.192 -0.8131  0.2738  0.3638
  146TMC2    H5 2238   4.094   4.692  12.212  0.3106  1.3467  1.6699
  147MPD2     C 2239   0.117   4.207  12.198  0.8218  0.0767  0.1109
  147MPD2    C1 2240   0.098   4.246  12.328 -0.3289  0.5561 -0.2550
  147MPD2    C2 2241   0.004   4.346  12.360 -0.4104  0.3655  0.3688
  147MPD2    C3 2242   4.652   4.399  12.258  0.4226  0.9118  0.3712
  147MPD2    C4 2243   4.672   4.354  12.127 -0.4330  0.6027 -0.0118
  147MPD2    C5 2244   0.034   4.250  12.100 -0.5091 -0.0498  0.3891
  147MPD2     H 2245   4.715   4.383  12.461  1.0193  1.5924  0.0981
  147MPD2    H1 2246   4.627   4.410  12.046 -1.9954 -1.0455 -0.2774
  147MPD2    H2 2247   0.191   4.137  12.162  0.9753  0.5539 -0.5034
  147MPD2    H3 2248   0.066   4.229  11.999 -1.4263  2.1423 -0.3570
  147MPD2     N 2249   4.576   4.512  12.282  0.8032  0.4442  0.0438
  147MPD2    H5 2250   4.582   4.541  12.379  1.6294 -0.2125  0.1925
  147MPD2    N1 2251   0.181   4.183  12.425 -0.2516 -0.3037 -0.7517
  147MPD2    H7 2252   0.264   4.137  12.388  1.0747  1.2173  0.3238
  148MPD2     C 2253   0.626   2.909  11.083 -0.5183 -0.2389  0.0500
  148MPD2    C1 2254   0.575   2.999  10.998  0.1897 -0.1844 -0.2133
  148MPD2    C2 2255   0.488   2.959  10.898  0.3518  0.1056  0.0723
  148MPD2    C3 2256   0.449   2.825  10.892 -0.5387 -0.2227 -0.2267
  148MPD2    C4 2257   0.502   2.732  10.975  0.8609 -0.5301  0.2926
  148MPD2    C5 2258   0.585   2.772  11.072  0.4559 -0.2497  0.3445
  148MPD2     H 2259   0.454   3.042  10.838  1.1063  1.2961  1.2882
  148MPD2    H1 2260   0.459   2.632  10.982 -0.3659  0.0331  0.8715
  148MPD2    H2 2261   0.697   2.915  11.165 -0.3139  0.5928 -0.1897
  148MPD2    H3 2262   0.599   2.706  11.156 -0.3013 -0.4148  0.3432
  148MPD2     N 2263   0.353   2.779  10.801  0.3603  0.1922 -0.5484
  148MPD2    H5 2264   0.326   2.683  10.821 -0.2314  0.0573 -2.0116
  148MPD2    N1 2265   0.611   3.135  11.015 -0.5937 -0.6800  0.7073
  148MPD2    H7 2266   0.586   3.209  10.950 -1.7830 -1.9459 -0.2697
  149TCq2    C1 2267   0.707   3.180  11.110  0.0364  0.4012  0.3857
  149TCq2    O2 2268   0.778   3.123  11.195 -0.7098  0.6434  0.0807
  149TCq2    C2 2269   0.730   3.321  11.102  0.5239  0.2527 -1.3346
  149TCq2    C3 2270   0.860   3.356  11.099  0.4376  0.5951 -0.6973
  149TCq2    C4 2271   0.885   3.481  11.037 -0.3926  0.3104  0.6012
  149TCq2    C5 2272   0.794   3.538  10.955 -0.0099 -0.2131  0.8038
  149TCq2    C6 2273   0.667   3.490  10.960  0.1597 -0.1080  0.4653
  149TCq2    C7 2274   0.634   3.387  11.040  1.1412  0.9252  0.2225
  149TCq2    C8 2275   0.616   3.460  10.821  0.5004  0.2811 -0.3373
  149TCq2    O4 2276   0.576   3.342  10.798 -0.2223  0.3668  0.3111
  149TCq2    C9 2277   1.025   3.504  10.998  0.1613  0.4117 -0.2909
  149TCq2    O5 2278   1.050   3.604  10.925  0.4420 -0.0010 -0.6425
  149TCq2    O6 2279   1.109   3.413  11.029 -0.2519  0.1898 -0.0093
  149TCq2    H2 2280   0.935   3.287  11.135 -0.0475  0.1587 -0.5268
  149TCq2    H3 2281   0.827   3.600  10.872 -0.9159  1.2062  1.4986
  149TCq2    H4 2282   0.530   3.359  11.052  0.8292  2.6227  1.4946
  150MPD2     C 2283   1.717   2.379  12.364 -0.4461  0.1197 -0.8330
  150MPD2    C1 2284   1.640   2.482  12.311  0.0458  0.3616  0.3673
  150MPD2    C2 2285   1.702   2.599  12.308  0.4431  0.6339  0.2623
  150MPD2    C3 2286   1.830   2.620  12.358  0.3779  0.6943 -0.2405
  150MPD2    C4 2287   1.900   2.523  12.416  0.1268  0.3790 -0.7889
  150MPD2    C5 2288   1.836   2.402  12.417 -0.4036  0.3753 -0.1568
  150MPD2     H 2289   1.649   2.676  12.254  1.9122  1.1592 -0.4178
  150MPD2    H1 2290   2.001   2.525  12.455 -0.6581  0.0106  1.2496
  150MPD2    H2 2291   1.673   2.281  12.352 -1.3382  0.3364  0.6696
  150MPD2    H3 2292   1.873   2.316  12.473  0.7431 -0.3972 -2.1218
  150MPD2     N 2293   1.889   2.752  12.348  0.3960 -0.4503 -0.2865
  150MPD2    H5 2294   1.826   2.822  12.309 -0.3785  0.6021  2.8884
  150MPD2    N1 2295   1.515   2.453  12.251 -0.4948  0.3942 -0.3077
  150MPD2    H7 2296   1.477   2.360  12.264  0.9878 -0.0797  0.6381
  151TCq2    C1 2297   2.009   2.799  12.406  0.0624 -0.1242  0.2236
  151TCq2    O2 2298   2.091   2.731  12.472 -0.2028 -0.6742  0.5592
  151TCq2    C2 2299   2.054   2.935  12.367 -0.2452  0.1972 -0.1357
  151TCq2    C3 2300   1.969   3.033  12.312 -0.5428  0.6594  0.8253
  151TCq2    C4 2301   2.030   3.144  12.264 -0.0684  1.3231 -0.4591
  151TCq2    C5 2302   2.172   3.161  12.270  0.2335  0.4497  0.4392
  151TCq2    C6 2303   2.248   3.066  12.335 -0.2329 -0.2277  0.1013
  151TCq2    C7 2304   2.183   2.959  12.391 -0.5453  0.5268  0.0428
  151TCq2    C8 2305   2.378   3.083  12.369 -0.0583 -0.4675 -0.1549
  151TCq2    O4 2306   2.429   3.199  12.367  0.2035  0.7027  0.0196
  151TCq2    C9 2307   1.961   3.237  12.175 -0.1619 -0.2880 -0.0936
  151TCq2    O5 2308   1.854   3.194  12.133  0.4261  0.5784  0.2829
  151TCq2    O6 2309   2.042   3.292  12.099 -0.0164 -0.0327 -0.3963
  151TCq2    H2 2310   1.863   3.017  12.295 -0.8237  0.7561  2.5168
  151TCq2    H3 2311   2.224   3.242  12.221  0.0496 -0.6941 -1.6210
  151TCq2    H4 2312   2.238   2.900  12.464 -0.9943 -0.5686 -0.5076
  152MPD2     C 2313   1.239   2.415  12.890  0.1584  0.0009 -0.4506
  152MPD2    C1 2314   1.286   2.467  12.768  0.0126 -0.1839  0.1511
  152MPD2    C2 2315   1.195   2.493  12.666 -0.5832  0.4599 -0.2878
  152MPD2    C3 2316   1.057   2.476  12.686  0.7234 -0.1122  0.5048
  152MPD2    C4 2317   1.010   2.432  12.808 -0.3225  0.1276 -0.3658
  152MPD2    C5 2318   1.100   2.403  12.902  0.5796 -0.6174  0.3349
  152MPD2     H 2319   1.227   2.530  12.570  0.8227 -2.9475 -1.1394
  152MPD2    H1 2320   0.910   2.393  12.826 -1.3288  1.3708 -3.3232
  152MPD2    H2 2321   1.289   2.407  12.986  0.0533  3.2349 -0.1422
  152MPD2    H3 2322   1.057   2.380  12.999  1.0939 -0.0039  0.7049
  152MPD2     N 2323   0.972   2.514  12.582 -0.2794  0.9271  0.0978
  152MPD2    H5 2324   1.020   2.548  12.499 -0.8653 -0.3587 -0.7735
  152MPD2    N1 2325   1.424   2.496  12.769  0.5103  0.4334  0.3714
  152MPD2    H7 2326   1.475   2.478  12.854  1.3903 -0.1188 -0.2717
  153TCq2    C1 2327   1.481   2.581  12.679 -0.0651  0.4752 -0.4188
  153TCq2    O2 2328   1.437   2.618  12.573  0.4326 -0.8989  0.1428
  153TCq2    C2 2329   1.619   2.612  12.703 -0.6145 -0.5719 -0.1261
  153TCq2    C3 2330   1.701   2.511  12.736  0.1451  0.7292  0.3488
  153TCq2    C4 2331   1.831   2.533  12.748 -0.1631  0.0529 -0.2757
  153TCq2    C5 2332   1.881   2.657  12.721  0.1534  0.3827 -0.4018
  153TCq2    C6 2333   1.797   2.760  12.691  0.3308 -0.6644 -0.1749
  153TCq2    C7 2334   1.664   2.738  12.676 -0.2348 -0.9094 -0.3310
  153TCq2    C8 2335   1.840   2.903  12.675 -1.0441  0.2354  0.6378
  153TCq2    O4 2336   1.756   2.980  12.637  0.5369 -0.5951 -0.3282
  153TCq2    C9 2337   1.925   2.418  12.769 -0.5232  0.7217 -0.1216
  153TCq2    O5 2338   1.866   2.305  12.758 -0.2362 -0.0973 -0.1844
  153TCq2    O6 2339   2.048   2.434  12.792 -0.0557 -0.4466  0.0381
  153TCq2    H2 2340   1.658   2.412  12.732  0.2573  0.7034 -0.2758
  153TCq2    H3 2341   1.989   2.663  12.733 -0.0915 -1.1592  2.5745
  153TCq2    H4 2342   1.592   2.813  12.645  1.9651  0.2192 -2.6935
  154MPD2     C 2343   3.759   3.353   0.973 -0.1098  0.3794  0.4249
  154MPD2    C1 2344   3.796   3.286   1.088 -0.3600  1.0252 -0.2119
  154MPD2    C2 2345   3.696   3.224   1.161  0.2491  0.0413 -0.1400
  154MPD2    C3 2346   3.562   3.221   1.121  0.2715  0.4832  0.2058
  154MPD2    C4 2347   3.526   3.300   1.007 -0.3803 -0.0957  0.6180
  154MPD2    C5 2348   3.625   3.360   0.939 -0.0818 -0.4749 -0.6158
  154MPD2     H 2349   3.718   3.161   1.247 -0.7894  0.6876  0.5947
  154MPD2    H1 2350   3.426   3.304   0.966 -0.9243 -1.4385  1.8004
  154MPD2    H2 2351   3.832   3.413   0.920 -0.0350 -0.0377  0.0619
  154MPD2    H3 2352   3.588   3.410   0.851 -0.7412 -1.0862 -0.6814
  154MPD2     N 2353   3.463   3.159   1.194  0.2550  0.5069  0.2170
  154MPD2    H5 2354   3.494   3.114   1.280  0.0122  0.1437  0.1114
  154MPD2    N1 2355   3.930   3.293   1.129 -0.2959  0.1712 -0.4752
  154MPD2    H7 2356   3.992   3.341   1.065 -0.5212  1.0294 -0.0560
  155TCq2    C1 2357   3.999   3.239   1.236 -0.3286 -0.5430 -0.8381
  155TCq2    O2 2358   3.947   3.199   1.338 -0.0265 -0.3009 -0.3303
  155TCq2    C2 2359   4.147   3.265   1.230 -0.0856 -0.9418  0.1680
  155TCq2    C3 2360   4.216   3.236   1.339  0.1228  0.7270 -0.1142
  155TCq2    C4 2361   4.349   3.206   1.339  0.2377 -0.2151 -0.0598
  155TCq2    C5 2362   4.410   3.200   1.218  0.3391  0.6057  0.3914
  155TCq2    C6 2363   4.337   3.230   1.102 -0.3194 -0.0662 -0.1407
  155TCq2    C7 2364   4.206   3.265   1.105  0.0605  0.2345  0.4623
  155TCq2    C8 2365   4.389   3.206   0.966  0.1784 -0.0579 -0.8056
  155TCq2    O4 2366   4.316   3.219   0.871  0.1950  0.0288 -0.3189
  155TCq2    C9 2367   4.414   3.176   1.467 -0.5415  0.1615 -0.0031
  155TCq2    O5 2368   4.340   3.195   1.567 -0.0521 -0.1240  0.1561
  155TCq2    O6 2369   4.542   3.178   1.455  0.2659  0.6022 -0.7385
  155TCq2    H2 2370   4.166   3.241   1.436  1.5269  0.5126  0.6195
  155TCq2    H3 2371   4.511   3.163   1.220 -0.0617 -0.5617 -1.4510
  155TCq2    H4 2372   4.155   3.283   1.010 -2.4685  1.2347  2.0023
  156MPD2     C 2373   2.042   4.221  12.612  0.4303 -0.6066 -0.1684
  156MPD2    C1 2374   2.023   4.338  12.542  0.8599  0.2995 -0.0487
  156MPD2    C2 2375   1.899   4.399  12.535  0.1274  0.0297 -0.2015
  156MPD2    C3 2376   1.797   4.349  12.605 -0.4937  0.1613 -0.4550
  156MPD2    C4 2377   1.810   4.231  12.678 -0.1724  0.1731  0.7768
  156MPD2    C5 2378   1.937   4.165  12.677  0.0838 -0.7327  0.4273
  156MPD2     H 2379   1.887   4.486  12.471  3.1021  0.9875  0.5159
  156MPD2    H1 2380   1.734   4.176  12.732  0.7696  0.5633  2.5198
  156MPD2    H2 2381   2.145   4.187  12.623  0.9724  0.4351 -2.0240
  156MPD2    H3 2382   1.948   4.069  12.726 -1.5112 -1.8438 -1.4046
  156MPD2     N 2383   1.664   4.394  12.568 -0.1737  0.5096  0.6413
  156MPD2    H5 2384   1.648   4.452  12.487  0.1991 -2.1568 -1.3514
  156MPD2    N1 2385   2.129   4.377  12.463 -0.2129  0.3999  0.0261
  156MPD2    H7 2386   2.204   4.315  12.436 -0.2355  1.2344 -1.9933
  157TCq2    C1 2387   2.146   4.506  12.423  0.4549 -0.5770  0.3652
  157TCq2    O2 2388   2.087   4.604  12.463 -0.2326  0.2944  0.3652
  157TCq2    C2 2389   2.262   4.525  12.334  0.4591  0.5030  0.1737
  157TCq2    C3 2390   2.319   4.412  12.271  0.3695 -0.1984 -0.0491
  157TCq2    C4 2391   2.399   4.438  12.167 -0.8365  0.9932  0.4945
  157TCq2    C5 2392   2.418   4.561  12.115  1.0515  0.1916  0.2830
  157TCq2    C6 2393   2.344   4.662  12.164 -0.3181 -0.0211 -0.0270
  157TCq2    C7 2394   2.272   4.645  12.278  0.0435  0.1010 -0.1852
  157TCq2    C8 2395   2.294   0.034  12.071  0.2131 -0.2799 -0.4740
  157TCq2    O4 2396   2.228   0.124  12.126 -0.0706  0.3803 -1.1232
  157TCq2    C9 2397   2.452   4.324  12.098 -0.0757 -0.0205  0.4577
  157TCq2    O5 2398   2.395   4.211  12.115  0.0900 -0.0751  0.3988
  157TCq2    O6 2399   2.564   4.335  12.035 -0.1393  0.5523 -0.0757
  157TCq2    H2 2400   2.312   4.309  12.304  1.4869 -0.3338 -0.2207
  157TCq2    H3 2401   2.487   4.574  12.032 -1.8474 -0.2701 -2.2350
  157TCq2    H4 2402   2.221   0.008  12.317 -1.6601 -1.6138  1.4323
  158TMC2    C1 2403   2.781   3.578  13.993 -0.3054  0.2370 -0.0840
  158TMC2    C2 2404   2.863   3.683  13.998  0.9100 -0.2305 -0.1620
  158TMC2    C3 2405   2.814   3.794  13.929 -0.4060 -0.0094 -0.1485
  158TMC2    C4 2406   2.655   3.573  13.930 -0.3606  1.0630 -0.0004
  158TMC2    C5 2407   2.606   3.691  13.871  1.4416 -0.1186  0.3019
  158TMC2    C6 2408   2.692   3.801  13.869  0.2685 -0.2457  0.3148
  158TMC2     C 2409   2.830   3.455  14.067 -0.0618 -0.2154 -0.0129
  158TMC2     O 2410   2.953   3.453  14.090  0.5418  0.1155 -0.0021
  158TMC2     H 2411   2.937   3.683  14.077  0.5361  0.8315  0.1969
  158TMC2    H1 2412   2.613   3.473  13.926 -2.1138  1.7340  2.3870
  158TMC2    H2 2413   2.667   3.890  13.813  1.6156 -0.5402 -0.7734
  158TMC2    C7 2414   2.478   3.691  13.790 -0.1753 -0.4136  0.7727
  158TMC2    C8 2415   2.882   3.908  13.955 -0.2447 -0.1532  0.1962
  158TMC2    O1 2416   2.463   3.777  13.709 -0.2423  0.1672  0.6252
  158TMC2    O2 2417   3.003   3.921  13.941  0.2931 -0.2614 -0.2543
  158TMC2    O5 2418   2.791   3.990  14.011 -0.6412 -0.2946 -0.2446
  158TMC2    H5 2419   2.726   3.927  14.047  1.0309 -2.3880 -0.9238
  159MPD2     C 2420   2.764   3.061  14.387  0.2307  0.6859  0.4632
  159MPD2    C1 2421   2.651   3.070  14.311  0.3250 -0.1734  0.2533
  159MPD2    C2 2422   2.635   3.179  14.225 -0.5754  0.1651 -0.2154
  159MPD2    C3 2423   2.739   3.272  14.209  0.0600  0.4669  0.9605
  159MPD2    C4 2424   2.845   3.269  14.286  0.1161  0.6374 -0.4435
  159MPD2    C5 2425   2.859   3.158  14.370 -0.4972  0.1469 -0.0021
  159MPD2     H 2426   2.547   3.183  14.162 -0.1194  3.3192 -0.6397
  159MPD2    H1 2427   2.920   3.348  14.286  0.6747  0.1004 -0.2050
  159MPD2    H2 2428   2.776   2.986  14.464 -0.7754  1.0615  0.9836
  159MPD2    H3 2429   2.945   3.155  14.437 -0.0808  0.7433 -0.4987
  159MPD2     N 2430   2.725   3.375  14.112  0.0710  0.2139 -0.2640
  159MPD2    H5 2431   2.629   3.390  14.084  0.2988 -0.0952 -1.1961
  159MPD2    N1 2432   2.556   2.968  14.323  0.2417  0.1391 -0.6024
  159MPD2    H7 2433   2.579   2.896  14.391  1.1837  2.0563  1.0825
  160TMC2    C1 2434   2.323   1.457   1.146  0.3426  0.7748 -0.0456
  160TMC2    C2 2435   2.325   1.322   1.167  0.0901  0.2395  0.5210
  160TMC2    C3 2436   2.359   1.239   1.058  0.1561  0.2584  0.3032
  160TMC2    C4 2437   2.369   1.517   1.035  0.3844 -0.7038  0.0732
  160TMC2    C5 2438   2.412   1.435   0.933  0.1985 -0.7319  0.3465
  160TMC2    C6 2439   2.399   1.293   0.941  0.6608  0.4461 -0.1425
  160TMC2     C 2440   2.268   1.539   1.258 -0.1474  0.6633  0.5145
  160TMC2     O 2441   2.244   1.474   1.359 -0.7731  0.1931 -0.0245
  160TMC2     H 2442   2.275   1.285   1.256  1.0738  0.3670  1.1233
  160TMC2    H1 2443   2.383   1.624   1.024  2.9757 -1.2132 -1.4425
  160TMC2    H2 2444   2.426   1.223   0.863 -1.1477 -1.1278  0.6614
  160TMC2    C7 2445   2.438   1.486   0.800 -0.5512 -0.5254 -0.8537
  160TMC2    C8 2446   2.425   1.111   1.073  0.6083  0.8905  0.1164
  160TMC2    O1 2447   2.402   1.417   0.711  0.1159  0.0533 -0.2169
  160TMC2    O2 2448   2.479   1.049   0.977 -0.5075  0.0390  0.1492
  160TMC2    O5 2449   2.454   1.104   1.205 -0.4272  0.1573  0.1394
  160TMC2    H5 2450   2.390   1.151   1.263  0.8397  0.4153  1.3146
  161MPD2     C 2451   2.140   1.727   1.443 -0.0223  0.4446  0.5506
  161MPD2    C1 2452   2.138   1.743   1.306  0.2172  0.4927  0.4144
  161MPD2    C2 2453   2.063   1.847   1.246  0.2325 -0.6848 -0.0258
  161MPD2    C3 2454   1.992   1.937   1.328  0.0992  0.7604  0.4083
  161MPD2    C4 2455   2.016   1.933   1.463 -0.9844 -0.0676  0.2545
  161MPD2    C5 2456   2.086   1.833   1.515  0.2534 -0.3691  0.4457
  161MPD2     H 2457   2.060   1.853   1.138  1.9586  0.9451  0.0179
  161MPD2    H1 2458   1.973   2.001   1.535  0.7230 -0.0456  1.2336
  161MPD2    H2 2459   2.185   1.646   1.499  2.2160  2.2791  1.4031
  161MPD2    H3 2460   2.083   1.823   1.623  0.3085  3.4962  0.8184
  161MPD2     N 2461   1.900   2.040   1.281 -0.1189 -0.1975 -0.1397
  161MPD2    H5 2462   1.857   2.097   1.354  1.2617 -0.1953  0.6789
  161MPD2    N1 2463   2.211   1.655   1.217  0.2627 -0.2352 -0.4482
  161MPD2    H7 2464   2.217   1.676   1.118 -0.3227  0.4207 -0.3400
  162TMC2    C1 2465   4.654   3.880   1.272 -0.5693  0.0246  0.4495
  162TMC2    C2 2466   4.556   3.954   1.206 -0.4130  0.3398  0.6616
  162TMC2    C3 2467   4.504   4.058   1.270  0.1064 -0.1411  0.0738
  162TMC2    C4 2468   4.694   3.914   1.398 -0.8137  0.0364  0.3404
  162TMC2    C5 2469   4.631   4.012   1.457  0.0473  0.5555  0.4620
  162TMC2    C6 2470   4.529   4.083   1.395 -0.0257 -0.9437  0.5141
  162TMC2     C 2471   0.001   3.781   1.197  0.6897 -0.0885 -0.4251
  162TMC2     O 2472   4.697   3.771   1.078  0.1742  0.9297  0.1647
  162TMC2     H 2473   4.521   3.931   1.106 -0.1185 -0.1198  0.6656
  162TMC2    H1 2474   0.047   3.862   1.453 -0.8252 -0.7199 -0.3634
  162TMC2    H2 2475   4.472   4.165   1.437  1.5588  0.3946  0.0457
  162TMC2    C7 2476   4.659   4.060   1.591  0.0480  0.3577  0.4659
  162TMC2    C8 2477   4.422   4.146   1.197  0.1516  1.5562 -0.3534
  162TMC2    O1 2478   4.648   4.180   1.618  0.2261  0.0965 -0.1056
  162TMC2    O2 2479   4.336   4.110   1.116  1.1771  0.8204 -0.9372
  162TMC2    O5 2480   4.507   4.252   1.170  0.5760 -0.1122 -0.1136
  162TMC2    H5 2481   4.586   4.260   1.228  0.5251  4.1334 -0.6435
  163MPD2     C 2482   0.322   3.394   1.160 -0.3571 -0.0383 -1.1253
  163MPD2    C1 2483   0.256   3.456   1.055  0.1613 -0.3299 -0.2077
  163MPD2    C2 2484   0.171   3.556   1.096  0.4231 -0.2861 -0.1951
  163MPD2    C3 2485   0.151   3.592   1.229  0.1623 -0.6896  0.1928
  163MPD2    C4 2486   0.220   3.525   1.320 -0.0075 -0.6246 -0.1304
  163MPD2    C5 2487   0.299   3.422   1.288  0.6176 -0.4596  0.5406
  163MPD2     H 2488   0.116   3.620   1.028  1.2650  0.1453 -0.4780
  163MPD2    H1 2489   0.217   3.550   1.425  1.7874 -0.4241 -0.1282
  163MPD2    H2 2490   0.392   3.312   1.148  1.1001  1.1309 -0.4855
  163MPD2    H3 2491   0.348   3.364   1.365 -0.2104 -0.3866  1.1251
  163MPD2     N 2492   0.088   3.710   1.278 -0.1808 -0.0845 -0.7910
  163MPD2    H5 2493   0.097   3.719   1.379  0.3919  1.0110 -0.9449
  163MPD2    N1 2494   0.283   3.419   0.923 -0.3086 -0.1988  0.3181
  163MPD2    H7 2495   0.363   3.357   0.916 -0.4411 -0.4224  0.7881
  164TCq2    C1 2496   0.808   3.807  11.360  0.0127 -0.2369  0.1342
  164TCq2    O2 2497   0.798   3.832  11.480 -0.1888  0.7886 -0.1397
  164TCq2    C2 2498   0.682   3.808  11.284  0.9716 -0.9843  0.7689
  164TCq2    C3 2499   0.691   3.810  11.145 -0.2063 -0.8054 -0.4174
  164TCq2    C4 2500   0.593   3.864  11.066  0.7765  1.6825  0.4763
  164TCq2    C5 2501   0.481   3.922  11.123  0.7908  0.5781  0.5758
  164TCq2    C6 2502   0.481   3.942  11.260  0.0296 -0.1131  0.1378
  164TCq2    C7 2503   0.578   3.884  11.344  0.7578 -0.0990 -0.0827
  164TCq2    C8 2504   0.361   3.997  11.315  0.1016 -0.1520  0.5012
  164TCq2    O4 2505   0.260   3.983  11.247 -0.3167 -0.3825  0.0883
  164TCq2    C9 2506   0.602   3.868  10.920 -0.6017 -0.4826  0.2019
  164TCq2    O5 2507   0.706   3.815  10.877 -0.2430  0.1813  0.8283
  164TCq2    O6 2508   0.527   3.947  10.861  0.3013  0.3965  0.0294
  164TCq2    H2 2509   0.765   3.753  11.090  1.0104 -0.8568  1.2918
  164TCq2    H3 2510   0.400   3.962  11.064 -0.0802 -2.0470 -0.0018
  164TCq2    H4 2511   0.576   3.880  11.453 -3.6682  1.4686 -0.1294
  165MPD2     C 2512   3.234   0.222   2.202 -0.1108  0.7884 -0.8709
  165MPD2    C1 2513   3.122   0.238   2.121 -0.0915 -0.6052  0.6256
  165MPD2    C2 2514   3.101   0.368   2.078  0.0675  0.0547 -0.2290
  165MPD2    C3 2515   3.179   0.483   2.121  0.2364 -0.0096 -0.0460
  165MPD2    C4 2516   3.286   0.455   2.199  0.2341 -0.2279  0.3440
  165MPD2    C5 2517   3.314   0.327   2.239 -0.4214 -0.5987 -0.0684
  165MPD2     H 2518   3.018   0.381   2.010 -1.9913 -2.5546  1.7689
  165MPD2    H1 2519   3.344   0.538   2.237 -0.1508  1.2608 -2.3173
  165MPD2    H2 2520   3.265   0.123   2.233  2.5442  1.6966 -0.6069
  165MPD2    H3 2521   3.394   0.313   2.311 -1.5145  0.3362  1.3302
  165MPD2     N 2522   3.153   0.612   2.089 -0.0321 -0.5709 -0.2572
  165MPD2    H5 2523   3.216   0.676   2.135  0.7581 -1.5698  0.0403
  165MPD2    N1 2524   3.032   0.132   2.090 -0.3433  0.1155  0.4079
  165MPD2    H7 2525   3.060   0.040   2.121 -1.2025  0.1891  1.3926
  166TCq2    C1 2526   3.049   0.659   2.014  0.0171  0.3775 -0.0856
  166TCq2    O2 2527   2.962   0.599   1.955  0.1674  0.0031  0.9015
  166TCq2    C2 2528   3.068   0.802   1.990  0.6024 -0.0345 -0.0114
  166TCq2    C3 2529   3.122   0.880   2.083 -0.1699  0.0196 -0.3036
  166TCq2    C4 2530   3.094   1.015   2.073  0.3001  0.2187 -0.1186
  166TCq2    C5 2531   3.021   1.072   1.969 -0.6096 -0.4728 -0.0095
  166TCq2    C6 2532   2.961   0.988   1.875  0.8903  0.1424 -0.3073
  166TCq2    C7 2533   2.991   0.857   1.889 -0.7672  0.2504  0.0952
  166TCq2    C8 2534   2.909   1.038   1.747  0.4851 -0.5810  0.0124
  166TCq2    O4 2535   2.913   0.975   1.645  0.0004  0.1199  0.5781
  166TCq2    C9 2536   3.145   1.103   2.181 -1.0426  0.7857 -0.6616
  166TCq2    O5 2537   3.176   1.043   2.287  0.1384  0.1200 -0.5596
  166TCq2    O6 2538   3.097   1.219   2.179  0.1940  0.1423  0.3557
  166TCq2    H2 2539   3.179   0.844   2.168  1.5600  1.1868 -0.9657
  166TCq2    H3 2540   2.989   1.175   1.974 -0.5502 -0.5246  1.5245
  166TCq2    H4 2541   2.931   0.787   1.833 -0.5786  0.6226 -0.5627
  167TMC2    C1 2542   4.327   3.660  12.464  0.2813 -0.6036  1.1101
  167TMC2    C2 2543   4.240   3.716  12.557  0.3774 -0.3373  0.4864
  167TMC2    C3 2544   4.276   3.700  12.687 -0.3358 -0.6100  0.2958
  167TMC2    C4 2545   4.426   3.573  12.504  0.2551  0.1372 -0.4782
  167TMC2    C5 2546   4.446   3.554  12.643 -0.8904 -0.1938  0.2193
  167TMC2    C6 2547   4.377   3.619  12.730 -0.4308  0.1975 -0.1655
  167TMC2     C 2548   4.291   3.671  12.326  0.1342 -0.4241  0.8316
  167TMC2     O 2549   4.215   3.764  12.304 -0.0734  0.2710  0.3804
  167TMC2     H 2550   4.168   3.790  12.527  0.7983  0.3464  1.1476
  167TMC2    H1 2551   4.492   3.522  12.434  2.0074  0.4847  0.9104
  167TMC2    H2 2552   4.410   3.627  12.833 -0.3930 -1.6101 -0.0443
  167TMC2    C7 2553   4.535   3.447  12.683  0.7699  0.3117 -0.0174
  167TMC2    C8 2554   4.213   3.802  12.779  0.1025 -0.4545  0.5286
  167TMC2    O1 2555   4.543   3.434  12.804 -0.3130  0.2392 -0.6962
  167TMC2    O2 2556   4.113   3.869  12.754  0.0267  0.7497 -0.4704
  167TMC2    O5 2557   4.322   3.868  12.826 -0.2818  0.0744  0.3023
  167TMC2    H5 2558   4.412   3.828  12.823  0.1657  1.2683 -2.1987
  168MPD2     C 2559   4.221   3.661  12.035 -0.3648  0.3140  0.1132
  168MPD2    C1 2560   4.312   3.575  12.099  0.2274  0.8091  0.1252
  168MPD2    C2 2561   4.356   3.465  12.024  0.2026  0.3052 -0.0225
  168MPD2    C3 2562   4.321   3.447  11.889  0.0317  0.3267 -0.0915
  168MPD2    C4 2563   4.250   3.544  11.832 -0.2351 -0.4095  0.5024
  168MPD2    C5 2564   4.194   3.650  11.905  0.0105 -0.2558 -0.2611
  168MPD2     H 2565   4.433   3.400  12.064  1.2654  1.9515  0.6193
  168MPD2    H1 2566   4.235   3.545  11.725 -0.2527  0.1891  0.5071
  168MPD2    H2 2567   4.167   3.741  12.083 -0.0414 -0.4234  1.7034
  168MPD2    H3 2568   4.143   3.733  11.858 -0.1814 -0.6484 -0.7520
  168MPD2     N 2569   4.352   3.334  11.804 -0.0234 -0.0116 -0.8668
  168MPD2    H5 2570   4.318   3.332  11.709 -0.2416  2.5076 -0.8482
  168MPD2    N1 2571   4.347   3.577  12.236 -0.3009  0.1850 -0.2606
  168MPD2    H7 2572   4.398   3.496  12.272 -1.2540 -0.4827 -0.4035
  169MPD1     C 2573   1.924   2.598   9.516  1.0984  0.9040  0.1651
  169MPD1    C1 2574   1.990   2.595   9.637 -0.4806  0.1236  0.0312
  169MPD1    C2 2575   2.117   2.631   9.644 -0.3890 -0.2919 -0.0494
  169MPD1    C3 2576   2.190   2.679   9.535  0.0109 -0.0089 -0.4795
  169MPD1    C4 2577   2.114   2.689   9.420 -0.2552 -0.2110 -0.1706
  169MPD1    C5 2578   1.988   2.651   9.411  0.4056  0.4929 -0.3946
  169MPD1     H 2579   2.168   2.619   9.739  1.4455 -1.5356 -1.1863
  169MPD1    H1 2580   2.168   2.725   9.333 -0.2860  0.1949 -0.0229
  169MPD1    H2 2581   1.821   2.567   9.504  0.7523  1.2461  2.2783
  169MPD1    H3 2582   1.947   2.645   9.311  1.7766  1.4850 -1.0205
  169MPD1     N 2583   2.315   2.720   9.561  0.0447 -0.6996 -0.1810
  169MPD1    H5 2584   2.349   2.716   9.656  0.7425  2.5346 -0.2991
  169MPD1    N1 2585   1.925   2.520   9.738  0.2681 -0.4258 -0.0370
  169MPD1    H6 2586   1.960   2.550   9.830 -0.6309  2.1390 -0.5258
  169MPD1    H7 2587   1.827   2.547   9.741  0.0399 -0.8667 -3.8147
  170MPD1     C 2588   1.449   1.480  13.343 -0.5748  0.0951 -1.0407
  170MPD1    C1 2589   1.313   1.482  13.324  0.0130 -0.9356 -0.3293
  170MPD1    C2 2590   1.233   1.366  13.332  0.0028  1.0245  0.0807
  170MPD1    C3 2591   1.293   1.251  13.361 -0.0061  0.2988 -0.4125
  170MPD1    C4 2592   1.428   1.246  13.379 -0.1240 -0.5684 -0.0550
  170MPD1    C5 2593   1.506   1.355  13.365  0.0789  1.1196 -0.1319
  170MPD1     H 2594   1.125   1.369  13.328 -0.0036 -0.9449 -1.0022
  170MPD1    H1 2595   1.478   1.151  13.395  0.3689 -0.0618  1.4420
  170MPD1    H2 2596   1.511   1.568  13.343  2.3885 -2.0079 -0.6768
  170MPD1    H3 2597   1.614   1.351  13.361  0.0429 -2.5167  2.7742
  170MPD1     N 2598   1.211   1.138  13.373 -0.3372 -0.8680  0.0019
  170MPD1    H5 2599   1.114   1.160  13.353 -0.9059 -2.2443  1.2272
  170MPD1    N1 2600   1.259   1.609  13.317 -0.2523 -0.2477 -0.0857
  170MPD1    H6 2601   1.178   1.605  13.255 -1.1456 -1.0235  1.1177
  170MPD1    H7 2602   1.323   1.680  13.282 -1.1232  1.5626  1.9550
  171MPD1     C 2603   3.639   1.767  15.368 -0.4806 -0.0022  0.3437
  171MPD1    C1 2604   3.723   1.663  15.326  0.4519 -0.6691 -0.2979
  171MPD1    C2 2605   3.826   1.618  15.410  0.5796  0.6837  0.2094
  171MPD1    C3 2606   3.835   1.670  15.538  0.3320 -0.5500  0.3037
  171MPD1    C4 2607   3.743   1.764  15.584 -0.2837 -0.0477  0.2138
  171MPD1    C5 2608   3.651   1.818  15.497  0.1762 -0.4501  0.0913
  171MPD1     H 2609   3.908   1.557  15.376 -0.1249 -0.9637  1.4598
  171MPD1    H1 2610   3.736   1.802  15.685 -0.5722  0.6354 -0.0581
  171MPD1    H2 2611   3.553   1.804  15.313 -0.2444 -0.6298 -0.4487
  171MPD1    H3 2612   3.576   1.886  15.534  0.0931 -0.7487  0.4633
  171MPD1     N 2613   3.941   1.641  15.630  0.3039  0.8504  0.3353
  171MPD1    H5 2614   3.951   1.704  15.709 -0.6138  0.7604  0.5246
  171MPD1    N1 2615   3.720   1.626  15.188 -0.5720  0.3183 -0.4712
  171MPD1    H6 2616   3.624   1.630  15.154 -0.5452  0.8487 -0.4834
  171MPD1    H7 2617   3.736   1.526  15.174  2.4067  0.8261 -0.5257
  172MPD1     C 2618   3.429   0.688   0.020  0.6985 -0.3695  0.0025
  172MPD1    C1 2619   3.427   0.807  17.651 -0.4407  1.1362 -0.0004
  172MPD1    C2 2620   3.489   0.923  17.697  0.2039  0.3535  0.0210
  172MPD1    C3 2621   3.565   0.913   0.119  0.1552 -0.5505  0.2139
  172MPD1    C4 2622   3.581   0.790   0.187  0.1895  0.7006 -0.3729
  172MPD1    C5 2623   3.515   0.681   0.132 -0.6184  0.4067  0.2705
  172MPD1     H 2624   3.470   1.014  17.642  1.1043  0.3030 -0.3803
  172MPD1    H1 2625   3.626   0.776   0.285 -2.1616 -1.1650  0.4532
  172MPD1    H2 2626   3.377   0.595   0.001  1.3442 -0.7078 -0.1153
  172MPD1    H3 2627   3.526   0.586   0.183  1.7936  0.6995  0.3014
  172MPD1     N 2628   3.610   1.029   0.196  0.0638 -0.7582 -0.1511
  172MPD1    H5 2629   3.662   1.015   0.282  2.6812  1.9175 -1.3096
  172MPD1    N1 2630   3.358   0.812  17.529  0.3042  1.0039 -0.0510
  172MPD1    H6 2631   3.302   0.897  17.528 -0.3350  0.6143  1.3746
  172MPD1    H7 2632   3.293   0.734  17.520  1.9796 -0.2275 -1.3060
  173MPD1     C 2633   0.084   1.390  13.765 -0.4288  0.3129  0.4074
  173MPD1    C1 2634   4.689   1.368  13.841 -0.4444 -0.0297  0.0200
  173MPD1    C2 2635   4.707   1.303  13.962  0.9258 -0.1564 -0.3229
  173MPD1    C3 2636   0.112   1.253  14.004 -0.7621 -0.4931 -0.0853
  173MPD1    C4 2637   0.227   1.284  13.932  0.0874  0.2231  1.0378
  173MPD1    C5 2638   0.212   1.352  13.816 -0.0477  0.9079  0.1542
  173MPD1     H 2639   4.626   1.273  14.028  1.8214  1.5808  1.5751
  173MPD1    H1 2640   0.325   1.245  13.956  0.8008  2.2486  1.4709
  173MPD1    H2 2641   0.077   1.447  13.673 -3.4056  1.2430  1.2109
  173MPD1    H3 2642   0.300   1.379  13.760 -1.1999  1.6027 -1.3221
  173MPD1     N 2643   0.116   1.184  14.129 -0.3139 -0.4766  0.0377
  173MPD1    H5 2644   0.034   1.186  14.189  0.8915 -2.5117  1.7661
  173MPD1    N1 2645   4.567   1.396  13.782  0.3634  0.7819  0.3287
  173MPD1    H6 2646   4.503   1.416  13.858  0.4953  0.1994  0.5877
  173MPD1    H7 2647   4.563   1.472  13.713  1.5812  2.5958  2.2724
  174MPD1     C 2648   0.456   0.444  14.858 -0.1279  0.3730 -0.3780
  174MPD1    C1 2649   0.538   0.520  14.778 -1.0471 -0.1001 -0.4302
  174MPD1    C2 2650   0.470   0.596  14.684  0.3822  0.7591  0.3049
  174MPD1    C3 2651   0.336   0.606  14.685 -0.1752  0.6112  0.2235
  174MPD1    C4 2652   0.260   0.544  14.778 -0.0726 -0.5899  0.5492
  174MPD1    C5 2653   0.323   0.461  14.862  0.3515 -0.9302 -0.1806
  174MPD1     H 2654   0.526   0.660  14.616  1.4357 -0.0810  0.3885
  174MPD1    H1 2655   0.152   0.549  14.784  0.1061  1.2521  2.5530
  174MPD1    H2 2656   0.509   0.388  14.934  2.1692  1.2259 -1.3259
  174MPD1    H3 2657   0.262   0.406  14.933 -0.4418  0.2396  0.0409
  174MPD1     N 2658   0.272   0.674  14.583  0.4627  0.5359  0.0274
  174MPD1    H5 2659   0.172   0.657  14.588  0.3787  1.5288  1.7009
  174MPD1    N1 2660   0.673   0.493  14.763  0.5803  0.5429 -0.5126
  174MPD1    H6 2661   0.719   0.466  14.849 -0.8357  2.0043  0.7153
  174MPD1    H7 2662   0.729   0.552  14.702  2.6948 -0.1121  0.7973
  175MPD1     C 2663   3.518   2.234  15.461  0.4586 -0.3050 -0.1088
  175MPD1    C1 2664   3.444   2.137  15.397 -0.7475  0.1676 -0.0652
  175MPD1    C2 2665   3.331   2.083  15.460 -0.2576  0.3274 -0.0143
  175MPD1    C3 2666   3.300   2.110  15.593 -0.0318 -0.5035  0.4631
  175MPD1    C4 2667   3.375   2.213  15.650  0.2256 -0.6800 -0.5155
  175MPD1    C5 2668   3.486   2.264  15.589 -0.5162 -0.0826 -0.6949
  175MPD1     H 2669   3.259   2.024  15.404  0.9140 -1.0230 -0.1068
  175MPD1    H1 2670   3.358   2.241  15.754  0.8766 -2.1331 -0.0243
  175MPD1    H2 2671   3.611   2.280  15.430 -0.4674  0.6509 -1.4514
  175MPD1    H3 2672   3.537   2.345  15.639  0.7934 -0.6876 -1.0228
  175MPD1     N 2673   3.193   2.054  15.660 -0.3151  0.8385 -1.3183
  175MPD1    H5 2674   3.169   2.080  15.755  0.1865 -0.2885 -0.8884
  175MPD1    N1 2675   3.467   2.101  15.264  0.3992  0.2609  0.1158
  175MPD1    H6 2676   3.565   2.119  15.243  0.5280 -0.3907  0.1630
  175MPD1    H7 2677   3.461   2.000  15.252  0.3276  0.0953  1.5716
  176MPD1     C 2678   1.017   0.775   0.465  0.4967 -0.2193  0.1954
  176MPD1    C1 2679   1.021   0.709   0.343  0.0742 -0.4152 -0.2045
  176MPD1    C2 2680   0.918   0.619   0.316 -0.5896  0.0614  0.6402
  176MPD1    C3 2681   0.810   0.598   0.399  0.5475 -0.0331 -0.3078
  176MPD1    C4 2682   0.821   0.664   0.524  0.2861  0.1928  0.4299
  176MPD1    C5 2683   0.919   0.753   0.552  0.4870 -0.2699 -0.1300
  176MPD1     H 2684   0.919   0.557   0.227  1.4650  0.0505  0.6817
  176MPD1    H1 2685   0.749   0.654   0.604 -0.5750 -0.0434 -0.3817
  176MPD1    H2 2686   1.088   0.855   0.485 -0.3621  0.0410  2.2635
  176MPD1    H3 2687   0.914   0.802   0.648  1.5227  3.5358 -2.0377
  176MPD1     N 2688   0.712   0.508   0.358 -0.2103  0.0239 -0.5527
  176MPD1    H5 2689   0.709   0.479   0.261 -0.7049 -0.8258 -0.2874
  176MPD1    N1 2690   1.101   0.755   0.240 -1.3523  0.1481  0.3630
  176MPD1    H6 2691   1.123   0.691   0.164  0.5063  0.3442  0.7291
  176MPD1    H7 2692   1.187   0.794   0.279  0.0454 -1.0435 -1.5755
  177MPD1     C 2693   3.599   3.715  10.491 -0.2162  0.1039  0.0995
  177MPD1    C1 2694   3.513   3.675  10.387 -0.6379  0.1906  0.1699
  177MPD1    C2 2695   3.516   3.749  10.272 -0.2885  0.2891 -0.3609
  177MPD1    C3 2696   3.590   3.862  10.268  0.6479 -0.6698 -0.0894
  177MPD1    C4 2697   3.690   3.894  10.361 -0.4034  0.8396  0.2273
  177MPD1    C5 2698   3.703   3.809  10.468 -0.2224  0.1573  0.2055
  177MPD1     H 2699   3.449   3.712  10.195  0.1878  1.3867 -1.2974
  177MPD1    H1 2700   3.769   3.967  10.353 -0.4190  1.0118  1.6088
  177MPD1    H2 2701   3.615   3.660  10.583  0.5558 -0.9374 -0.6449
  177MPD1    H3 2702   3.777   3.830  10.544  2.2443 -1.9894 -1.6293
  177MPD1     N 2703   3.570   3.944  10.150 -0.8759 -0.0187  0.2693
  177MPD1    H5 2704   3.510   3.902  10.079  1.5177 -0.5942 -1.4192
  177MPD1    N1 2705   3.438   3.565  10.397 -0.2407  0.6175 -0.0707
  177MPD1    H6 2706   3.411   3.529  10.488  2.8232  1.2302  1.0726
  177MPD1    H7 2707   3.356   3.578  10.338  1.9403 -3.0655 -3.8787
  178MPD1     C 2708   1.311   4.691   0.659  0.3024 -0.2074  0.3948
  178MPD1    C1 2709   1.199   4.616   0.655 -0.3035  0.0425  0.1908
  178MPD1    C2 2710   1.127   4.616   0.537 -0.5707 -0.3350 -0.3395
  178MPD1    C3 2711   1.164   4.691   0.434  0.5209  0.0826  0.8684
  178MPD1    C4 2712   1.264   0.057   0.448  0.0708  0.0631  0.3962
  178MPD1    C5 2713   1.342   0.052   0.558  0.1318 -0.8438  0.1489
  178MPD1     H 2714   1.037   4.557   0.530 -0.7631 -0.1078  0.1958
  178MPD1    H1 2715   1.300   0.118   0.367  1.2585  0.0939  0.9537
  178MPD1    H2 2716   1.372   4.708   0.747  0.8652 -0.4483  0.0482
  178MPD1    H3 2717   1.434   0.109   0.560  0.2741 -1.0674 -0.0067
  178MPD1     N 2718   1.110   4.674   0.308 -0.5616 -0.1449 -0.1263
  178MPD1    H5 2719   1.159   0.006   0.239  0.0536  2.3334  2.2872
  178MPD1    N1 2720   1.171   4.516   0.749  0.2518  0.1484  0.6724
  178MPD1    H6 2721   1.070   4.503   0.747  0.1546  0.8112  1.2351
  178MPD1    H7 2722   1.189   4.547   0.845  1.2199  0.8284  0.2729
  179MPD1     C 2723   0.273   1.893  15.281 -0.4320 -0.2386 -0.3331
  179MPD1    C1 2724   0.404   1.910  15.330  0.3781 -0.1156 -0.0167
  179MPD1    C2 2725   0.418   1.984  15.451  0.5628  0.3489  0.2558
  179MPD1    C3 2726   0.313   2.033  15.520 -0.0505 -0.7021 -0.4990
  179MPD1    C4 2727   0.186   2.014  15.461 -0.2451  0.0427 -0.3102
  179MPD1    C5 2728   0.166   1.936  15.348 -0.3191  0.3754 -0.3268
  179MPD1     H 2729   0.516   1.996  15.495  0.7677 -1.7946  0.3942
  179MPD1    H1 2730   0.097   2.061  15.501  0.2406 -0.3934  1.2965
  179MPD1    H2 2731   0.249   1.833  15.194  1.2052 -0.4082 -0.6641
  179MPD1    H3 2732   0.070   1.927  15.300 -0.5096 -1.5008  0.4026
  179MPD1     N 2733   0.317   2.093  15.644  0.6768  0.3991  0.5925
  179MPD1    H5 2734   0.232   2.130  15.685 -0.0617 -0.7790  0.1047
  179MPD1    N1 2735   0.509   1.872  15.251 -0.0625  0.1481  0.0767
  179MPD1    H6 2736   0.501   1.778  15.212  0.9456 -0.0852  0.4241
  179MPD1    H7 2737   0.599   1.875  15.298 -0.6861  3.3712  1.0400
  180MPD1     C 2738   4.688   4.577  15.069  0.1490 -0.8287  0.3009
  180MPD1    C1 2739   0.083   4.541  15.009 -0.1489 -0.5428 -0.2879
  180MPD1    C2 2740   0.076   4.456  14.899 -0.2468  0.6809 -0.9803
  180MPD1    C3 2741   4.685   4.390  14.861 -0.1504 -0.1923 -0.4250
  180MPD1    C4 2742   4.569   4.416  14.934 -0.1048 -0.1845 -0.6249
  180MPD1    C5 2743   4.575   4.509  15.035 -0.1997  0.1126  0.2268
  180MPD1     H 2744   0.165   4.435  14.842 -0.8119  1.3974 -2.1145
  180MPD1    H1 2745   4.476   4.362  14.919 -0.5039  0.7568 -1.5531
  180MPD1    H2 2746   4.688   4.647  15.152 -0.0657 -0.2401 -0.1916
  180MPD1    H3 2747   4.487   4.531  15.094 -0.5311 -0.3727 -0.0847
  180MPD1     N 2748   4.693   4.298  14.760  0.3122  0.6301  0.5189
  180MPD1    H5 2749   0.060   4.274  14.725 -0.0116  2.0069 -1.2503
  180MPD1    N1 2750   0.200   4.604  15.044  0.5434  0.6953  0.3640
  180MPD1    H6 2751   0.195   4.649  15.136  0.1734 -0.1587  0.7596
  180MPD1    H7 2752   0.289   4.561  15.020 -0.2014 -0.5482 -0.1423
  181MPD1     C 2753   2.931   1.849   8.551  0.4887 -0.3452 -0.4628
  181MPD1    C1 2754   2.974   1.724   8.579  0.4547 -0.2653 -0.3213
  181MPD1    C2 2755   2.957   1.684   8.712 -0.2385  0.1054 -0.0204
  181MPD1    C3 2756   2.905   1.768   8.813 -0.6203 -0.2769  0.3183
  181MPD1    C4 2757   2.878   1.897   8.773  0.4482  0.3907  0.5472
  181MPD1    C5 2758   2.886   1.937   8.644 -0.0076  0.4715 -0.0984
  181MPD1     H 2759   2.986   1.583   8.738 -0.1286  0.1174 -0.0979
  181MPD1    H1 2760   2.826   1.968   8.837 -1.7695 -0.0812 -0.7012
  181MPD1    H2 2761   2.944   1.893   8.453  1.5849  1.1154  0.3421
  181MPD1    H3 2762   2.866   2.038   8.608  1.3485  1.2780  1.4283
  181MPD1     N 2763   2.871   1.733   8.946 -1.0851 -0.0329  0.4486
  181MPD1    H5 2764   2.848   1.812   9.005 -2.6442 -0.1585 -0.0146
  181MPD1    N1 2765   3.001   1.633   8.475  0.2509  0.1947  0.2900
  181MPD1    H6 2766   3.075   1.566   8.496 -0.2700  0.2776  2.3512
  181MPD1    H7 2767   3.029   1.684   8.392 -2.1507 -1.3363 -1.4552
  182MPD1     C 2768   3.507   4.100   1.351 -0.2326  0.2932  0.0951
  182MPD1    C1 2769   3.484   4.188   1.246 -0.5429 -0.5076  0.6499
  182MPD1    C2 2770   3.386   4.284   1.257 -0.0158  1.1542 -0.4660
  182MPD1    C3 2771   3.312   4.294   1.375 -1.0462 -0.1841 -0.9203
  182MPD1    C4 2772   3.336   4.211   1.479  0.0551  0.4065 -0.0572
  182MPD1    C5 2773   3.424   4.108   1.461 -0.1966  0.0282  0.2818
  182MPD1     H 2774   3.367   4.353   1.176 -0.5815 -0.3450 -1.6276
  182MPD1    H1 2775   3.289   4.219   1.577 -0.6855  3.2196 -0.6344
  182MPD1    H2 2776   3.596   4.038   1.352 -0.4124  0.0253 -0.5697
  182MPD1    H3 2777   3.431   4.034   1.540  2.4806 -0.8878 -0.7889
  182MPD1     N 2778   3.204   4.389   1.398  0.6696 -0.5857  0.1461
  182MPD1    H5 2779   3.171   4.398   1.494  3.1715 -0.4102  1.0014
  182MPD1    N1 2780   3.571   4.191   1.135 -0.5433  0.6262  0.2743
  182MPD1    H6 2781   3.543   4.219   1.041 -0.6826  0.0320  0.1414
  182MPD1    H7 2782   3.636   4.113   1.132 -3.1653 -1.5202 -0.4956
  183MPD1     C 2783   3.665   0.775   9.170  0.2256  0.4573 -0.1303
  183MPD1    C1 2784   3.744   0.728   9.270  0.5334 -0.2833 -0.2667
  183MPD1    C2 2785   3.761   0.797   9.386  0.5927 -0.1643 -0.0608
  183MPD1    C3 2786   3.667   0.901   9.410  0.5485 -0.3704  0.0083
  183MPD1    C4 2787   3.585   0.953   9.305 -0.6196  0.3092 -0.4505
  183MPD1    C5 2788   3.579   0.881   9.196  0.0554  0.1686 -0.9564
  183MPD1     H 2789   3.835   0.759   9.455  0.9258 -2.0582 -1.4707
  183MPD1    H1 2790   3.522   1.041   9.312  1.8182  2.0734 -0.8265
  183MPD1    H2 2791   3.647   0.718   9.080  1.6645 -0.2946  0.0505
  183MPD1    H3 2792   3.519   0.923   9.116  0.3287  0.7766 -0.8459
  183MPD1     N 2793   3.664   0.957   9.544 -0.0953 -0.1276  0.2820
  183MPD1    H5 2794   3.727   0.918   9.614  1.7151 -1.4067 -2.0751
  183MPD1    N1 2795   3.831   0.618   9.241 -0.0183 -0.6436 -0.3000
  183MPD1    H6 2796   3.867   0.571   9.324 -0.8715  1.0266  1.0051
  183MPD1    H7 2797   3.782   0.549   9.185 -2.1552  1.1432 -0.6230
  184MPD1     C 2798   2.221   3.445   9.993  0.2055  0.1869 -0.7484
  184MPD1    C1 2799   2.264   3.543  10.084 -0.4800  0.2006 -0.3037
  184MPD1    C2 2800   2.343   3.644  10.032  0.2227 -0.3169  0.5597
  184MPD1    C3 2801   2.398   3.638   9.903  0.3401  0.0533 -0.1908
  184MPD1    C4 2802   2.361   3.535   9.816  0.6794 -0.4138 -0.5361
  184MPD1    C5 2803   2.269   3.437   9.858  0.3493  0.5053  0.2298
  184MPD1     H 2804   2.370   3.725  10.099  0.8184  0.4548 -0.6061
  184MPD1    H1 2805   2.389   3.524   9.712  1.4180 -1.3540 -0.2400
  184MPD1    H2 2806   2.148   3.368  10.017  2.6175 -1.7153  0.4780
  184MPD1    H3 2807   2.228   3.355   9.800 -2.8573  0.9667  1.8534
  184MPD1     N 2808   2.492   3.727   9.849 -1.3905 -0.2935  0.4580
  184MPD1    H5 2809   2.519   3.712   9.752  0.5420 -1.6746  1.2154
  184MPD1    N1 2810   2.204   3.565  10.210 -0.7577  0.1731  1.5448
  184MPD1    H6 2811   2.173   3.482  10.259 -0.3193 -0.5304  0.6318
  184MPD1    H7 2812   2.261   3.628  10.267  1.5733 -1.6425  1.1974
  185MPD1     C 2813   2.906   4.051   8.994 -0.3451  0.0186  0.0801
  185MPD1    C1 2814   2.796   3.985   9.029  0.7969 -0.5112  1.0966
  185MPD1    C2 2815   2.773   3.961   9.163  0.4945  0.2631  0.3508
  185MPD1    C3 2816   2.853   4.015   9.258  0.1071  0.2213  0.2019
  185MPD1    C4 2817   2.967   4.087   9.221 -0.0280 -0.9036 -0.7153
  185MPD1    C5 2818   2.992   4.097   9.087  0.6660 -0.5605 -0.2053
  185MPD1     H 2819   2.685   3.905   9.195  0.0153  0.0627 -1.3443
  185MPD1    H1 2820   3.049   4.127   9.279 -0.0389 -1.3159 -0.4150
  185MPD1    H2 2821   2.934   4.071   8.891 -1.8212  0.3709 -0.2560
  185MPD1    H3 2822   3.083   4.146   9.053  0.1541  0.3425 -0.2772
  185MPD1     N 2823   2.828   4.001   9.401 -0.1910 -0.0566 -0.0094
  185MPD1    H5 2824   2.891   4.046   9.466  0.8056 -1.8036  0.2347
  185MPD1    N1 2825   2.710   3.932   8.934 -0.2136 -0.0676  0.2640
  185MPD1    H6 2826   2.677   3.840   8.963  0.7488 -0.6899 -0.6250
  185MPD1    H7 2827   2.735   3.936   8.836  1.9834 -1.1660  0.7752
  186MPD1     C 2828   1.121   2.729  15.915 -0.0698 -0.2683 -0.3745
  186MPD1    C1 2829   1.060   2.701  16.033  0.0963  0.4550  0.0351
  186MPD1    C2 2830   1.021   2.800  16.126 -0.4813 -0.3329 -0.9517
  186MPD1    C3 2831   1.048   2.931  16.087  0.3306  0.7361 -0.1769
  186MPD1    C4 2832   1.114   2.956  15.969  0.0549  0.3105  0.4014
  186MPD1    C5 2833   1.157   2.858  15.890 -0.2417 -0.6518 -0.1617
  186MPD1     H 2834   0.964   2.771  16.213 -1.4966  0.4924 -1.3515
  186MPD1    H1 2835   1.132   3.057  15.935 -0.3284 -0.3160 -1.6342
  186MPD1    H2 2836   1.145   2.648  15.847 -1.1590  0.6655 -1.8618
  186MPD1    H3 2837   1.206   2.887  15.798  0.5590 -1.2070  0.0905
  186MPD1     N 2838   1.019   3.046  16.166 -0.3663  0.2026 -0.0294
  186MPD1    H5 2839   1.054   3.133  16.128 -1.4581  0.3224 -0.7366
  186MPD1    N1 2840   1.029   2.566  16.058 -0.7918 -0.2293 -0.3301
  186MPD1    H6 2841   1.001   2.546  16.154 -0.2789  2.3595  0.3643
  186MPD1    H7 2842   1.114   2.512  16.042 -1.4928 -0.7940 -2.1832
  187MPD1     C 2843   4.589   0.274   0.599 -0.6110 -0.4166  0.0415
  187MPD1    C1 2844   4.696   0.355   0.592  0.2691 -0.0029  0.7908
  187MPD1    C2 2845   0.016   0.407   0.471  0.2249 -0.4952  0.0616
  187MPD1    C3 2846   4.668   0.367   0.363 -0.1770 -0.7320 -0.6377
  187MPD1    C4 2847   4.558   0.290   0.371  0.3994  0.4719  0.4821
  187MPD1    C5 2848   4.521   0.241   0.490 -0.3585  0.1607  0.6996
  187MPD1     H 2849   0.090   0.484   0.457  0.2363 -0.2723  1.3885
  187MPD1    H1 2850   4.507   0.271   0.277  0.7952 -0.1739  0.3989
  187MPD1    H2 2851   4.552   0.240   0.695 -1.3561 -1.3451 -0.5848
  187MPD1    H3 2852   4.427   0.186   0.492  0.3551 -1.1044 -0.3067
  187MPD1     N 2853   4.704   0.401   0.230 -0.1282 -0.2835 -0.0665
  187MPD1    H5 2854   4.651   0.359   0.154 -1.0847 -1.1545  1.0892
  187MPD1    N1 2855   0.028   0.401   0.714  0.8442  0.0222  0.1544
  187MPD1    H6 2856   0.014   0.338   0.793  1.3521 -0.5204 -0.1842
  187MPD1    H7 2857   0.128   0.420   0.703  0.9010 -0.4811 -0.1938
  188MPD1     C 2858   0.284   0.950   9.681  0.1343  0.3993 -0.1716
  188MPD1    C1 2859   0.314   0.897   9.805  0.3050  0.2339  0.1045
  188MPD1    C2 2860   0.311   0.760   9.816 -0.0295 -0.5482  0.1092
  188MPD1    C3 2861   0.273   0.675   9.713 -0.3883  0.5195 -0.2429
  188MPD1    C4 2862   0.244   0.731   9.589 -0.1256  0.3664 -0.1096
  188MPD1    C5 2863   0.245   0.868   9.573  0.2340 -0.1061 -0.8182
  188MPD1     H 2864   0.331   0.714   9.912  2.2759  0.0984 -0.0581
  188MPD1    H1 2865   0.209   0.666   9.510  1.3945 -1.5831  0.8100
  188MPD1    H2 2866   0.297   1.055   9.655  0.0319  0.5975  0.5874
  188MPD1    H3 2867   0.225   0.905   9.473 -0.2948 -0.5030 -0.8555
  188MPD1     N 2868   0.257   0.534   9.730 -0.5314  0.1152 -0.1030
  188MPD1    H5 2869   0.217   0.487   9.649 -3.1702  3.5361 -0.7619
  188MPD1    N1 2870   0.378   0.967   9.911 -0.2782  0.0408 -0.3855
  188MPD1    H6 2871   0.358   0.935  10.006  0.3350  0.3360 -0.1584
  188MPD1    H7 2872   0.353   1.065   9.904  1.6374  0.5426 -0.1114
  189MPD1     C 2873   2.011   0.388   1.011 -0.0204  0.1107  0.1799
  189MPD1    C1 2874   1.878   0.357   1.032 -0.5660  0.5018  0.2488
  189MPD1    C2 2875   1.780   0.394   0.937  0.0938 -0.0532  0.2056
  189MPD1    C3 2876   1.816   0.476   0.837 -0.8950 -0.4322 -0.1579
  189MPD1    C4 2877   1.947   0.520   0.828  0.6112 -0.1161 -0.6314
  189MPD1    C5 2878   2.041   0.471   0.910  0.6607 -0.4635 -0.0370
  189MPD1     H 2879   1.680   0.357   0.953 -0.2212  1.2648  1.2745
  189MPD1    H1 2880   1.988   0.598   0.765  2.4532 -0.2880  0.3404
  189MPD1    H2 2881   2.091   0.363   1.079 -0.4199 -3.6811 -0.7883
  189MPD1    H3 2882   2.144   0.503   0.898  1.1369 -2.6042 -1.7119
  189MPD1     N 2883   1.715   0.520   0.752 -0.3161  0.0174 -0.5443
  189MPD1    H5 2884   1.623   0.486   0.777  0.0019  0.1171  0.7355
  189MPD1    N1 2885   1.838   0.268   1.136 -0.1694  0.1107 -0.1619
  189MPD1    H6 2886   1.890   0.291   1.220  0.2849 -0.0874 -0.3839
  189MPD1    H7 2887   1.742   0.284   1.164  0.5168  0.3238  2.0403
  190MPD1     C 2888   0.220   0.256  15.251  0.2265  0.6142  0.4063
  190MPD1    C1 2889   0.356   0.250  15.288  0.1742 -0.5214  0.3088
  190MPD1    C2 2890   0.403   0.148  15.364  0.7148  0.4557 -0.0927
  190MPD1    C3 2891   0.314   0.068  15.437 -0.0959 -0.4535  0.5064
  190MPD1    C4 2892   0.182   0.098  15.415  0.1872 -0.0496  0.2104
  190MPD1    C5 2893   0.135   0.179  15.314  0.6281 -1.5045 -0.1053
  190MPD1     H 2894   0.507   0.125  15.384  0.8369 -0.8126 -2.2404
  190MPD1    H1 2895   0.102   0.041  15.462  2.0705 -1.9211  1.1320
  190MPD1    H2 2896   0.180   0.330  15.182  0.7811 -1.1975 -1.8655
  190MPD1    H3 2897   0.033   0.193  15.278  0.9603  0.4822 -0.2699
  190MPD1     N 2898   0.368   4.696  15.531 -0.9403  0.0088 -0.3720
  190MPD1    H5 2899   0.468   4.678  15.524 -0.9326  0.5447 -1.7708
  190MPD1    N1 2900   0.449   0.322  15.214  0.2802 -0.6966 -0.0245
  190MPD1    H6 2901   0.538   0.326  15.264  0.0934  2.1758  0.1041
  190MPD1    H7 2902   0.428   0.420  15.192 -0.1176 -0.4155  1.6544
  191MPD1     C 2903   4.165   0.782  13.204  0.1835  0.2146 -0.3163
  191MPD1    C1 2904   4.066   0.809  13.120 -0.3732  0.5731 -0.7604
  191MPD1    C2 2905   4.037   0.944  13.095  0.1336  0.0570 -0.1072
  191MPD1    C3 2906   4.113   1.048  13.146 -0.4244 -0.3842  0.1388
  191MPD1    C4 2907   4.223   1.008  13.220 -0.1445 -0.1088 -0.1991
  191MPD1    C5 2908   4.247   0.876  13.250 -0.8032 -0.7330 -0.3768
  191MPD1     H 2909   3.941   0.961  13.048 -0.5983 -1.7858  0.7247
  191MPD1    H1 2910   4.290   1.084  13.258  0.5930 -0.3568 -0.9980
  191MPD1    H2 2911   4.186   0.682  13.242 -1.3301 -1.1313 -2.9558
  191MPD1    H3 2912   4.326   0.837  13.314 -0.3613  1.6599  0.5138
  191MPD1     N 2913   4.084   1.181  13.107  0.2304  0.6384 -0.9845
  191MPD1    H5 2914   4.003   1.208  13.053 -0.8497  0.0243  0.3296
  191MPD1    N1 2915   3.975   0.707  13.089  0.3197 -0.0303 -0.3488
  191MPD1    H6 2916   3.921   0.717  13.003 -0.3973  2.9052  0.4237
  191MPD1    H7 2917   4.032   0.624  13.075  0.3696 -0.1398  0.4905
  192MPD1     C 2918   3.309   1.408  12.936  0.5905 -0.1934  0.8792
  192MPD1    C1 2919   3.357   1.534  12.957 -0.0636 -0.9675  0.1812
  192MPD1    C2 2920   3.494   1.555  12.982 -0.3020 -0.0392 -0.7358
  192MPD1    C3 2921   3.581   1.454  12.979 -0.3739 -0.3585  0.8483
  192MPD1    C4 2922   3.537   1.329  12.950  0.2605  0.0889  0.3990
  192MPD1    C5 2923   3.406   1.310  12.925 -0.2647  0.7763 -0.0490
  192MPD1     H 2924   3.531   1.653  13.008 -1.3502 -0.2639  1.5625
  192MPD1    H1 2925   3.601   1.242  12.961  0.5662  0.3118  0.3802
  192MPD1    H2 2926   3.207   1.383  12.911  0.9182 -0.9012  0.2509
  192MPD1    H3 2927   3.374   1.213  12.891  1.6974  0.1916 -0.2469
  192MPD1     N 2928   3.720   1.467  13.001 -0.2050  0.0881  0.2754
  192MPD1    H5 2929   3.776   1.390  12.966  0.2620  0.6225 -0.1549
  192MPD1    N1 2930   3.270   1.640  12.945  0.4748 -0.6949  0.1218
  192MPD1    H6 2931   3.176   1.615  12.973  0.5409 -2.0174 -0.8785
  192MPD1    H7 2932   3.307   1.724  12.989  2.4684 -0.4544 -2.0064
  193MPD1     C 2933   4.047   1.280  16.289  0.1340 -0.7589  0.0585
  193MPD1    C1 2934   4.001   1.364  16.387  0.4909  0.1291 -0.3053
  193MPD1    C2 2935   4.086   1.380  16.492 -0.2417  0.1104  0.0359
  193MPD1    C3 2936   4.222   1.343  16.496 -0.3055 -0.1214 -0.1089
  193MPD1    C4 2937   4.257   1.261  16.392  0.1188 -0.3541  0.3316
  193MPD1    C5 2938   4.176   1.238  16.286  0.4141  0.0630  0.0929
  193MPD1     H 2939   4.047   1.437  16.576  0.4695 -0.9814  1.1084
  193MPD1    H1 2940   4.361   1.229  16.388 -0.2549 -1.8234  2.8391
  193MPD1    H2 2941   3.986   1.244  16.207  0.0762  0.6759 -0.5142
  193MPD1    H3 2942   4.214   1.178  16.204  1.7415 -1.5407  1.8689
  193MPD1     N 2943   4.312   1.370  16.600 -0.1130  0.8002  0.1556
  193MPD1    H5 2944   4.407   1.335  16.587 -0.7026 -0.1152 -1.6756
  193MPD1    N1 2945   3.865   1.392  16.402 -0.2432  0.5948 -0.5557
  193MPD1    H6 2946   3.837   1.465  16.468 -0.0026  0.0651  0.1279
  193MPD1    H7 2947   3.822   1.415  16.313 -2.3658  1.3978  0.6927
  194MPD1     C 2948   1.793   3.957  16.791 -0.4208  0.2498  0.2805
  194MPD1    C1 2949   1.862   3.970  16.906  0.0012 -0.0751 -0.0432
  194MPD1    C2 2950   1.967   3.884  16.931  0.8388 -0.1718 -0.5931
  194MPD1    C3 2951   2.006   3.787  16.834 -0.2037  0.0992  0.2450
  194MPD1    C4 2952   1.934   3.787  16.716 -0.7286  0.1204 -0.2177
  194MPD1    C5 2953   1.837   3.877  16.695  0.2914 -0.6896  0.0228
  194MPD1     H 2954   2.015   3.895  17.028  0.6202  1.6339 -0.6841
  194MPD1    H1 2955   1.952   3.715  16.636 -0.4520  0.9098 -0.8663
  194MPD1    H2 2956   1.700   4.008  16.769  0.8756  3.1752  1.4829
  194MPD1    H3 2957   1.775   3.871  16.606  0.2499 -0.6141  0.0473
  194MPD1     N 2958   2.104   3.688  16.861 -0.2663 -0.5098 -0.3236
  194MPD1    H5 2959   2.103   3.616  16.789  0.8393 -1.7172  0.8721
  194MPD1    N1 2960   1.816   4.056  17.011  0.2591  0.3987  1.2132
  194MPD1    H6 2961   1.786   4.146  16.973 -0.9323 -1.2402 -1.6791
  194MPD1    H7 2962   1.891   4.081  17.075  0.8949  0.9007  0.2668
  195MPD1     C 2963   3.898   0.549   0.145 -0.1895 -0.0905  0.0337
  195MPD1    C1 2964   4.008   0.502   0.082  0.3369 -0.2533  0.2417
  195MPD1    C2 2965   4.056   0.379   0.116 -0.0030  0.5512  0.0804
  195MPD1    C3 2966   4.009   0.307   0.230  0.2797  0.5123  0.1022
  195MPD1    C4 2967   3.915   0.366   0.306 -0.8477  0.4654 -0.6923
  195MPD1    C5 2968   3.860   0.487   0.265  0.0073 -0.0976 -0.1312
  195MPD1     H 2969   4.110   0.330   0.036 -1.1344 -2.3695  1.0950
  195MPD1    H1 2970   3.871   0.330   0.398 -0.2316  0.5796 -0.3522
  195MPD1    H2 2971   3.851   0.645   0.122 -1.7029 -0.5995  1.0334
  195MPD1    H3 2972   3.773   0.525   0.319  0.2243  1.0263 -0.5745
  195MPD1     N 2973   4.040   0.165   0.238 -0.3729  0.4681 -0.2680
  195MPD1    H5 2974   3.977   0.105   0.289  0.5420 -0.9060 -0.7576
  195MPD1    N1 2975   4.031   0.542  17.647  0.0644  0.4330 -0.4672
  195MPD1    H6 2976   4.016   0.641  17.635  1.9885  0.4059 -3.0628
  195MPD1    H7 2977   4.126   0.515  17.619 -0.5966 -2.0570 -0.3420
  196MPD1     C 2978   4.178   4.487   1.062  0.1267  0.0635  0.5356
  196MPD1    C1 2979   4.117   4.380   1.132  0.5474 -0.1081  0.3219
  196MPD1    C2 2980   4.154   4.355   1.264  0.2121  0.2229  0.0702
  196MPD1    C3 2981   4.232   4.441   1.335 -0.0227 -0.2886  0.9916
  196MPD1    C4 2982   4.281   4.550   1.270 -0.2742 -0.1466  0.0566
  196MPD1    C5 2983   4.260   4.569   1.135 -1.2561 -0.1666  0.0844
  196MPD1     H 2984   4.105   4.274   1.317  0.9819  0.9081  1.8053
  196MPD1    H1 2985   4.333   4.627   1.326 -1.0925  0.3612  0.1308
  196MPD1    H2 2986   4.150   4.519   0.963  0.1877 -1.0289  0.1713
  196MPD1    H3 2987   4.307   4.659   1.098  0.6670 -1.3801 -0.4100
  196MPD1     N 2988   4.266   4.430   1.469  0.0174 -0.2665  0.1072
  196MPD1    H5 2989   4.328   4.503   1.503  3.0894 -2.9049  0.1790
  196MPD1    N1 2990   4.009   4.308   1.074  0.5350 -0.5911  0.3951
  196MPD1    H6 2991   4.009   4.299   0.973 -0.9271 -1.0213  0.4360
  196MPD1    H7 2992   4.012   4.213   1.110  0.0060 -0.0780  1.8155
  197MPD1     C 2993   3.159   1.709  16.946  0.1475 -0.0569 -0.5273
  197MPD1    C1 2994   3.232   1.811  16.985  0.8595 -0.4492  1.0144
  197MPD1    C2 2995   3.200   1.934  16.939  0.2222  0.0770 -0.9964
  197MPD1    C3 2996   3.075   1.962  16.876  0.1730  0.2585  0.4768
  197MPD1    C4 2997   3.001   1.851  16.845  0.1383  0.4768  0.4211
  197MPD1    C5 2998   3.046   1.727  16.876 -1.1539  0.1869  0.1200
  197MPD1     H 2999   3.271   2.014  16.958 -0.9756  1.0358 -0.4967
  197MPD1    H1 3000   2.913   1.852  16.781 -0.2565 -0.2609  0.9546
  197MPD1    H2 3001   3.182   1.606  16.968 -1.0862  0.0402  1.1638
  197MPD1    H3 3002   2.990   1.640  16.843  0.6431 -0.8770 -0.1476
  197MPD1     N 3003   3.029   2.086  16.821  0.0172  0.0009  0.0476
  197MPD1    H5 3004   2.937   2.085  16.778  0.0878  0.4459 -0.1165
  197MPD1    N1 3005   3.353   1.781  17.047 -0.3554  0.0258  0.0904
  197MPD1    H6 3006   3.393   1.847  17.114 -0.8428  1.3823 -0.9393
  197MPD1    H7 3007   3.354   1.692  17.096 -0.5612 -1.2788 -2.2652
  198MPD1     C 3008   0.669   4.701  15.839 -0.2360  0.0911  0.0709
  198MPD1    C1 3009   0.668   0.057  15.725  0.4493 -0.0602 -0.0816
  198MPD1    C2 3010   0.568   0.154  15.716  0.0276  0.3775 -0.2601
  198MPD1    C3 3011   0.474   0.176  15.813 -0.3043  0.8259 -0.1841
  198MPD1    C4 3012   0.490   0.105  15.935  0.2087  0.4038 -0.6903
  198MPD1    C5 3013   0.583   0.008  15.935 -0.5475 -0.7031  0.0421
  198MPD1     H 3014   0.559   0.214  15.626  1.2108  0.2459 -0.4709
  198MPD1    H1 3015   0.432   0.115  16.026  2.2781  0.1749  0.6504
  198MPD1    H2 3016   0.730   4.612  15.847  0.0965  0.3278  0.1603
  198MPD1    H3 3017   0.582   4.673  16.026  1.2520 -0.4046  0.2428
  198MPD1     N 3018   0.366   0.268  15.784 -0.0310  0.1791  0.4063
  198MPD1    H5 3019   0.375   0.323  15.700  1.8829 -0.6396  0.0727
  198MPD1    N1 3020   0.753   0.042  15.616  0.2688  0.4410 -0.0062
  198MPD1    H6 3021   0.843   0.019  15.658 -1.1766 -0.2554  2.6931
  198MPD1    H7 3022   0.759   0.128  15.563 -1.8271  0.5699 -0.0245
  199MPD1     C 3023   2.902   1.284  10.639 -0.6259  0.3221 -0.0689
  199MPD1    C1 3024   2.875   1.411  10.677 -0.0061 -0.3161 -0.1364
  199MPD1    C2 3025   2.872   1.518  10.581  0.1885 -0.3497  0.1044
  199MPD1    C3 3026   2.901   1.487  10.450  0.1740 -0.6262  0.7208
  199MPD1    C4 3027   2.937   1.358  10.418  0.6295 -0.7196  0.3441
  199MPD1    C5 3028   2.937   1.258  10.512  0.1342  0.2158  0.1890
  199MPD1     H 3029   2.850   1.618  10.614  0.0152 -0.3835  0.0934
  199MPD1    H1 3030   2.965   1.333  10.317  1.3786 -0.4794  0.4886
  199MPD1    H2 3031   2.900   1.195  10.701  1.4035 -0.0197 -0.5148
  199MPD1    H3 3032   2.960   1.158  10.479 -0.1698  0.0150  0.5857
  199MPD1     N 3033   2.902   1.580  10.347 -0.1153 -0.1576 -0.0951
  199MPD1    H5 3034   2.911   1.546  10.252  0.3624 -2.1883  0.6904
  199MPD1    N1 3035   2.857   1.441  10.812 -0.3355 -0.6125  0.0921
  199MPD1    H6 3036   2.775   1.501  10.813 -0.1980 -0.4371  1.9318
  199MPD1    H7 3037   2.822   1.359  10.862 -2.1810 -0.6414 -1.2710
  200MPD1     C 3038   0.655   1.362  14.839  0.3645  0.1298  0.1297
  200MPD1    C1 3039   0.729   1.373  14.948  0.1499  0.0686  0.3542
  200MPD1    C2 3040   0.865   1.395  14.933 -0.0146 -0.1595 -0.3410
  200MPD1    C3 3041   0.927   1.397  14.811 -0.0749 -0.4435 -0.0564
  200MPD1    C4 3042   0.842   1.380  14.705 -0.2793  0.6124 -0.0700
  200MPD1    C5 3043   0.707   1.355  14.714  0.6342  0.2842  0.1024
  200MPD1     H 3044   0.930   1.419  15.016  0.3287  0.7136 -0.8625
  200MPD1    H1 3045   0.882   1.368  14.605  1.9950 -0.9951  1.0431
  200MPD1    H2 3046   0.548   1.348  14.848  0.7732 -2.1090  1.4833
  200MPD1    H3 3047   0.650   1.345  14.622 -0.5468 -0.1771  0.8881
  200MPD1     N 3048   1.066   1.428  14.794  0.5051 -0.2384 -0.1763
  200MPD1    H5 3049   1.120   1.429  14.879 -0.3829  2.7521  0.3697
  200MPD1    N1 3050   0.671   1.393  15.073 -0.1174  0.2409  0.3655
  200MPD1    H6 3051   0.595   1.325  15.077  0.4181 -0.5258 -2.4992
  200MPD1    H7 3052   0.742   1.369  15.142 -1.1239 -0.8329  1.0367
  201MPD1     C 3053   3.404   0.435  14.427  0.1578 -0.4340 -0.8106
  201MPD1    C1 3054   3.532   0.462  14.374 -0.2537  0.1646  0.0176
  201MPD1    C2 3055   3.555   0.431  14.239  0.3759 -0.5015 -0.3310
  201MPD1    C3 3056   3.448   0.409  14.151 -0.1848 -0.5886  1.1495
  201MPD1    C4 3057   3.317   0.402  14.204  0.6632  0.3771  0.0963
  201MPD1    C5 3058   3.303   0.410  14.341 -0.4333 -0.1774 -0.0583
  201MPD1     H 3059   3.657   0.428  14.204 -0.0239 -0.0064 -1.5184
  201MPD1    H1 3060   3.226   0.385  14.148  1.0724 -0.5235 -0.2870
  201MPD1    H2 3061   3.379   0.443  14.533 -0.3707  0.0576 -0.9721
  201MPD1    H3 3062   3.205   0.392  14.385 -1.4061  1.7239 -1.4248
  201MPD1     N 3063   3.488   0.373  14.018 -0.1815  0.2638 -0.2688
  201MPD1    H5 3064   3.586   0.357  13.994 -0.1601  0.7896 -0.5463
  201MPD1    N1 3065   3.631   0.485  14.464 -0.1517  0.6461  0.2704
  201MPD1    H6 3066   3.604   0.547  14.539  1.0312  0.7642  0.5942
  201MPD1    H7 3067   3.707   0.533  14.416 -0.8292  3.1997  1.7328
  202MPD1     C 3068   3.939   4.602   9.380  0.2939  0.3125 -0.6957
  202MPD1    C1 3069   3.920   0.017   9.367 -0.2188  0.2196  0.1128
  202MPD1    C2 3070   4.004   0.103   9.438  0.4249 -0.1702  0.2690
  202MPD1    C3 3071   4.072   0.047   9.549 -0.4098  0.5703 -0.9456
  202MPD1    C4 3072   4.071   4.633   9.577 -0.3794  0.2812  0.0054
  202MPD1    C5 3073   4.013   4.552   9.490 -0.3587 -0.0058 -0.0426
  202MPD1     H 3074   3.989   0.209   9.421  0.5743 -0.4402 -1.5912
  202MPD1    H1 3075   4.113   4.587   9.666 -1.3043 -0.6071 -0.0081
  202MPD1    H2 3076   3.887   4.530   9.318  1.0851  0.7460 -1.8638
  202MPD1    H3 3077   4.024   4.446   9.508 -0.9285  0.0165  0.4320
  202MPD1     N 3078   4.150   0.124   9.638  0.0466  0.9586 -0.4127
  202MPD1    H5 3079   4.193   0.075   9.716  0.7575 -1.5872 -2.3804
  202MPD1    N1 3080   3.849   0.067   9.245  0.3763 -0.5619  0.4226
  202MPD1    H6 3081   3.776   0.002   9.218 -1.2588  1.3369  0.3235
  202MPD1    H7 3082   3.815   0.159   9.272 -0.2835 -0.6986  0.0491
  203MPD1     C 3083   2.993   1.273  13.201  0.0035  0.3754 -0.4018
  203MPD1    C1 3084   2.938   1.202  13.303 -0.6648 -0.3667 -0.6078
  203MPD1    C2 3085   2.873   1.083  13.275 -0.0906  0.3705 -0.5763
  203MPD1    C3 3086   2.855   1.039  13.145 -0.6615  0.3183 -0.4554
  203MPD1    C4 3087   2.921   1.103  13.045 -0.4103  0.3805 -1.0403
  203MPD1    C5 3088   2.994   1.212  13.074 -0.3425 -0.6539 -0.6723
  203MPD1     H 3089   2.815   1.029  13.350  0.2931 -0.0881 -0.6092
  203MPD1    H1 3090   2.911   1.068  12.943  2.1417 -0.7264 -0.9145
  203MPD1    H2 3091   3.050   1.365  13.207  0.6212 -0.0753  0.7411
  203MPD1    H3 3092   3.044   1.269  12.996  1.9600  0.9317  1.9322
  203MPD1     N 3093   2.773   0.927  13.128  0.0941  0.5036  0.2151
  203MPD1    H5 3094   2.741   0.887  13.216 -0.7903 -0.9106 -0.7411
  203MPD1    N1 3095   2.976   1.238  13.433 -0.6007  0.6036  0.0660
  203MPD1    H6 3096   2.976   1.337  13.458 -1.1145  1.1497 -2.0428
  203MPD1    H7 3097   2.921   1.186  13.500 -0.3085 -2.8455 -2.3294
  204MPD1     C 3098   1.459   2.347  16.927 -0.3020 -0.3794 -0.6385
  204MPD1    C1 3099   1.465   2.238  17.013 -0.1610 -0.2249  0.3120
  204MPD1    C2 3100   1.592   2.195  17.063 -0.0819 -0.5546  0.3665
  204MPD1    C3 3101   1.700   2.278  17.048  0.5592 -0.2872  0.2557
  204MPD1    C4 3102   1.686   2.396  16.975  0.1051 -0.3897 -0.1866
  204MPD1    C5 3103   1.569   2.424  16.903  0.2763 -0.2549  0.3481
  204MPD1     H 3104   1.599   2.104  17.120 -0.8752 -0.0710  1.2405
  204MPD1    H1 3105   1.771   2.457  16.948  0.0393 -0.3563 -0.3229
  204MPD1    H2 3106   1.362   2.372  16.886 -0.0861  0.6074 -0.5239
  204MPD1    H3 3107   1.549   2.517  16.851  1.0906  0.4194  1.2393
  204MPD1     N 3108   1.823   2.214  17.090  0.7213 -0.0793 -0.0570
  204MPD1    H5 3109   1.823   2.119  17.124  1.4848  0.6054  1.8664
  204MPD1    N1 3110   1.355   2.153  17.024 -0.1657 -0.1871  0.0241
  204MPD1    H6 3111   1.367   2.101  17.111  4.7240  1.8401  0.5649
  204MPD1    H7 3112   1.270   2.208  17.033 -0.3422 -0.4873  0.1983
  205MPD1     C 3113   2.414   0.581  17.146 -0.3581 -0.0376 -0.6457
  205MPD1    C1 3114   2.420   0.715  17.105 -0.0472 -0.1393 -0.1864
  205MPD1    C2 3115   2.442   0.817  17.197  0.2659  1.2988  0.6114
  205MPD1    C3 3116   2.438   0.787  17.334  0.1315  0.3317  0.4803
  205MPD1    C4 3117   2.444   0.655  17.371 -0.2807  0.3101 -0.5709
  205MPD1    C5 3118   2.426   0.554  17.278 -0.1992 -0.1600 -0.2539
  205MPD1     H 3119   2.442   0.921  17.167 -1.2667  0.8870 -0.8364
  205MPD1    H1 3120   2.443   0.629  17.477  0.5078 -1.0330 -0.9013
  205MPD1    H2 3121   2.409   0.497  17.078 -1.9248 -0.7186  0.3155
  205MPD1    H3 3122   2.414   0.452  17.312 -0.3475 -0.1589 -0.3021
  205MPD1     N 3123   2.440   0.887  17.435 -0.6589  0.5703  0.1007
  205MPD1    H5 3124   2.440   0.852  17.530  0.6720 -0.9184 -0.4469
  205MPD1    N1 3125   2.421   0.740  16.967  0.0084  0.6319 -0.1018
  205MPD1    H6 3126   2.401   0.836  16.939  0.6969  0.6631 -0.4872
  205MPD1    H7 3127   2.363   0.671  16.920  0.7974 -0.4187  0.4705
  206MPD1     C 3128   2.332   4.262  16.936 -0.5931  0.0218  0.7027
  206MPD1    C1 3129   2.390   4.150  16.879  0.1709 -0.5201  0.1905
  206MPD1    C2 3130   2.322   4.091  16.779  0.3598  0.2383 -0.1544
  206MPD1    C3 3131   2.198   4.130  16.738 -0.5408 -0.2071 -0.1063
  206MPD1    C4 3132   2.144   4.230  16.803  1.3055  0.1569 -0.1567
  206MPD1    C5 3133   2.205   4.290  16.902  0.5143  0.2834  1.0466
  206MPD1     H 3134   2.383   4.018  16.726  2.8679  1.5881  0.8737
  206MPD1    H1 3135   2.047   4.272  16.782  0.3373 -1.9274  0.1984
  206MPD1    H2 3136   2.383   4.334  16.998  1.6710 -0.4824 -0.5828
  206MPD1    H3 3137   2.165   4.381  16.946  2.6540  2.7564 -2.0981
  206MPD1     N 3138   2.136   4.082  16.617  0.0799 -0.1420  0.5796
  206MPD1    H5 3139   2.042   4.117  16.604  0.6415  0.8385 -0.8267
  206MPD1    N1 3140   2.526   4.117  16.895  0.2400 -0.7470  0.1934
  206MPD1    H6 3141   2.561   4.156  16.983  0.2197  1.3791 -0.7502
  206MPD1    H7 3142   2.544   4.017  16.887  0.3341 -0.6608 -0.6149
  207MPD1     C 3143   3.681   1.708   9.974  0.2378 -0.2879  0.2740
  207MPD1    C1 3144   3.760   1.758   9.869 -0.2114 -0.1260  0.2987
  207MPD1    C2 3145   3.898   1.749   9.883 -0.1391  0.1934 -0.3220
  207MPD1    C3 3146   3.954   1.671   9.982  0.6634  0.7337  0.1190
  207MPD1    C4 3147   3.869   1.609  10.066 -0.0105  0.3704  0.1506
  207MPD1    C5 3148   3.737   1.626  10.065  0.3862 -0.4528  0.9336
  207MPD1     H 3149   3.966   1.798   9.814 -0.7329  3.0167  1.1091
  207MPD1    H1 3150   3.905   1.537  10.139 -2.7315 -1.7171 -0.5437
  207MPD1    H2 3151   3.574   1.720   9.962 -0.0634 -3.2959 -0.1694
  207MPD1    H3 3152   3.676   1.574  10.138 -0.5194  1.5472  1.6149
  207MPD1     N 3153   4.092   1.671  10.019 -0.2310  0.1532  0.1043
  207MPD1    H5 3154   4.123   1.620  10.102  0.5116 -0.4504 -0.5473
  207MPD1    N1 3155   3.709   1.855   9.784 -0.7709 -0.1884  0.7474
  207MPD1    H6 3156   3.609   1.845   9.772 -0.3364 -3.2340 -0.3512
  207MPD1    H7 3157   3.754   1.853   9.692  0.5107  2.0465  1.3393
  208MPD1     C 3158   3.206   0.140   0.490 -0.3124 -0.4381  0.0612
  208MPD1    C1 3159   3.137   0.066   0.582  0.0912 -0.3612 -0.4125
  208MPD1    C2 3160   2.995   0.076   0.582 -0.3485 -0.5172 -0.0061
  208MPD1    C3 3161   2.929   0.139   0.478  0.2781 -0.1179 -0.7668
  208MPD1    C4 3162   2.994   0.211   0.383  0.0397  0.2402 -0.1458
  208MPD1    C5 3163   3.133   0.211   0.391  0.2068 -0.3838 -0.0628
  208MPD1     H 3164   2.940   0.023   0.659 -1.2180  0.8862  0.3328
  208MPD1    H1 3165   2.949   0.251   0.293  0.9539  2.5130  0.4192
  208MPD1    H2 3166   3.315   0.148   0.488 -0.3591  0.4631  1.8875
  208MPD1    H3 3167   3.182   0.260   0.308  1.0819  0.2430  0.8211
  208MPD1     N 3168   2.789   0.140   0.494  0.4643 -0.1373 -0.3435
  208MPD1    H5 3169   2.757   0.097   0.581  3.7510 -1.6510  0.1076
  208MPD1    N1 3170   3.205   0.010   0.687  0.2762  0.0186 -0.0993
  208MPD1    H6 3171   3.147   4.664   0.733 -0.3340 -0.5347 -1.7052
  208MPD1    H7 3172   3.289   4.688   0.654 -1.1259 -1.0457 -2.1990
  209MPD1     C 3173   0.455   1.318  11.429 -0.3217  0.3535 -0.0452
  209MPD1    C1 3174   0.347   1.385  11.376 -0.1135 -0.2913 -0.3420
  209MPD1    C2 3175   0.335   1.384  11.239  0.0200  0.3188 -0.5794
  209MPD1    C3 3176   0.401   1.298  11.160  0.6127  0.4016  0.5643
  209MPD1    C4 3177   0.501   1.225  11.207  0.6931  0.0501  0.4210
  209MPD1    C5 3178   0.532   1.239  11.343  0.0660  0.0152 -0.1397
  209MPD1     H 3179   0.257   1.442  11.190  1.1725 -0.3899 -3.2350
  209MPD1    H1 3180   0.553   1.144  11.159  0.1866  0.5390 -0.9563
  209MPD1    H2 3181   0.484   1.339  11.532 -0.3527 -2.0273  0.4331
  209MPD1    H3 3182   0.614   1.179  11.381  0.5171  1.4034  1.1014
  209MPD1     N 3183   0.370   1.302  11.021 -0.1879  0.4086  0.8118
  209MPD1    H5 3184   0.308   1.379  10.998  0.1866  0.3181 -0.4548
  209MPD1    N1 3185   0.279   1.479  11.455  0.3753 -0.2231  0.5031
  209MPD1    H6 3186   0.185   1.481  11.415  0.9805  0.3205 -0.8744
  209MPD1    H7 3187   0.271   1.449  11.552  1.1751  1.2876  1.0341
  210MPD1     C 3188   0.829   1.651  10.147  0.0803 -0.0269 -0.3517
  210MPD1    C1 3189   0.848   1.526  10.197  0.1415 -0.2294 -0.1887
  210MPD1    C2 3190   0.759   1.484  10.297 -1.2318 -0.2238  0.0535
  210MPD1    C3 3191   0.663   1.570  10.349 -0.3248  0.3580  0.9817
  210MPD1    C4 3192   0.652   1.695  10.293  0.2829  0.3415  1.1899
  210MPD1    C5 3193   0.739   1.738  10.200  1.0790  0.7510 -0.8088
  210MPD1     H 3194   0.767   1.381  10.327  0.7223 -0.4742 -1.2864
  210MPD1    H1 3195   0.571   1.760  10.325 -1.2217 -0.1612 -1.6682
  210MPD1    H2 3196   0.892   1.685  10.066  1.4330  2.4987  1.7922
  210MPD1    H3 3197   0.725   1.837  10.160  0.1698  1.0804  0.3170
  210MPD1     N 3198   0.573   1.527  10.449  0.0220 -0.2813 -0.0239
  210MPD1    H5 3199   0.492   1.582  10.473  0.2550  0.3752 -0.7408
  210MPD1    N1 3200   0.933   1.431  10.134  0.1237 -0.1709 -0.8205
  210MPD1    H6 3201   0.961   1.348  10.186 -1.2825  0.4426  0.8977
  210MPD1    H7 3202   1.018   1.474  10.095 -0.9819  0.5953 -2.3989
  211MPD1     C 3203   2.637   0.118  15.957 -1.0736  0.5613 -0.2648
  211MPD1    C1 3204   2.508   0.057  15.956 -0.2844 -0.0719 -0.4049
  211MPD1    C2 3205   2.403   0.142  15.989  0.2419  0.4459  0.2738
  211MPD1    C3 3206   2.427   0.262  16.055  0.2071 -0.4755  0.0385
  211MPD1    C4 3207   2.557   0.300  16.082  0.3103 -0.1325  0.5050
  211MPD1    C5 3208   2.664   0.234  16.020  0.1029 -0.8303  0.0646
  211MPD1     H 3209   2.302   0.112  15.968  1.0957 -1.7653 -0.5954
  211MPD1    H1 3210   2.594   0.395  16.121 -0.7653  0.7339 -0.5993
  211MPD1    H2 3211   2.723   0.064  15.920 -0.5809 -0.1002  1.8783
  211MPD1    H3 3212   2.766   0.265  16.038 -0.5927  0.1589  2.3305
  211MPD1     N 3213   2.324   0.350  16.090  0.2531  1.1418 -0.1822
  211MPD1    H5 3214   2.230   0.313  16.080  0.8968  0.0812 -2.3498
  211MPD1    N1 3215   2.493   4.653  15.894  0.1670  0.2379  0.4858
  211MPD1    H6 3216   2.403   4.607  15.910  0.3172  0.5030  2.0873
  211MPD1    H7 3217   2.570   4.589  15.910  0.5543  0.6027  0.0902
  212MPD1     C 3218   1.639   4.176  16.363  0.3618  1.2069  0.4465
  212MPD1    C1 3219   1.570   4.212  16.478 -0.1459 -0.0038 -0.0667
  212MPD1    C2 3220   1.508   4.112  16.549  0.4664  0.6637  0.2245
  212MPD1    C3 3221   1.532   3.978  16.523  1.0606 -0.0431  0.8850
  212MPD1    C4 3222   1.610   3.950  16.415  0.1217  0.0454  0.7849
  212MPD1    C5 3223   1.652   4.046  16.331 -0.5460 -0.5886 -0.6563
  212MPD1     H 3224   1.442   4.149  16.626  0.6295 -0.8133  1.0816
  212MPD1    H1 3225   1.621   3.846  16.385  2.6021 -0.0101  1.9540
  212MPD1    H2 3226   1.668   4.242  16.282  0.8734  1.1422  0.5806
  212MPD1    H3 3227   1.696   4.019  16.236  1.0845  1.0593 -0.3820
  212MPD1     N 3228   1.483   3.874  16.601  0.0855  0.2495 -0.3351
  212MPD1    H5 3229   1.474   3.786  16.551 -1.6617  0.8298 -1.0369
  212MPD1    N1 3230   1.528   4.343  16.495 -0.1082  0.1543  0.8250
  212MPD1    H6 3231   1.518   4.384  16.588 -1.3199  3.0357 -0.5556
  212MPD1    H7 3232   1.572   4.413  16.437 -2.8265  1.7923  0.7188
  213MPD1     C 3233   3.907   0.347  16.257  0.0064  0.4121 -0.3120
  213MPD1    C1 3234   3.801   0.271  16.217  0.7383  0.0982 -0.1412
  213MPD1    C2 3235   3.828   0.197  16.100 -0.3722 -0.9635 -0.1783
  213MPD1    C3 3236   3.928   0.240  16.014  0.0788 -0.3921  0.1082
  213MPD1    C4 3237   4.016   0.342  16.039 -0.0104  1.1737 -0.0922
  213MPD1    C5 3238   4.009   0.386  16.173 -0.2135 -0.0090  0.2120
  213MPD1     H 3239   3.766   0.109  16.085 -0.3094 -0.7352 -1.7578
  213MPD1    H1 3240   4.100   0.367  15.976  0.8659 -2.1565 -0.2330
  213MPD1    H2 3241   3.898   0.399  16.351  2.3543  0.3405 -0.0420
  213MPD1    H3 3242   4.076   0.463  16.211 -0.7796  1.3852 -1.5774
  213MPD1     N 3243   3.926   0.173  15.889 -0.1769  0.3349 -0.1904
  213MPD1    H5 3244   3.849   0.109  15.873 -0.2989  0.5688 -0.5434
  213MPD1    N1 3245   3.725   0.202  16.311 -0.5214 -0.2747  0.2316
  213MPD1    H6 3246   3.639   0.170  16.266 -0.3851 -0.4770  0.1166
  213MPD1    H7 3247   3.707   0.258  16.394  1.9392  1.2149 -0.2375
  214MPD1     C 3248   3.282   0.122  15.113 -0.0737 -1.0391  0.0415
  214MPD1    C1 3249   3.324   0.214  15.203  0.6560  0.3440  0.0074
  214MPD1    C2 3250   3.425   0.182  15.285 -0.1169  0.0936 -0.0687
  214MPD1    C3 3251   3.502   0.069  15.271 -0.3176  0.2858  0.0764
  214MPD1    C4 3252   3.469   4.706  15.175  0.4581 -0.0417  0.1445
  214MPD1    C5 3253   3.360   0.004  15.091 -0.0100  1.0283 -0.4552
  214MPD1     H 3254   3.450   0.254  15.361 -0.5640 -0.2094  0.3670
  214MPD1    H1 3255   3.534   4.619  15.171  2.1591  1.1887  0.9396
  214MPD1    H2 3256   3.195   0.146  15.053  1.7589 -0.0012 -2.2059
  214MPD1    H3 3257   3.324   4.656  15.018  0.2643  0.1206  0.3078
  214MPD1     N 3258   3.614   0.034  15.347  0.0358 -0.0536 -0.3147
  214MPD1    H5 3259   3.676   4.686  15.310 -1.1489 -1.8016  1.0817
  214MPD1    N1 3260   3.254   0.334  15.225  0.1726  0.0128  0.0042
  214MPD1    H6 3261   3.220   0.376  15.139  0.6790 -0.1464 -0.2681
  214MPD1    H7 3262   3.309   0.403  15.276 -2.0315  1.2683  0.7291
  215MPD1     C 3263   0.396   0.289  10.846  0.1279 -0.3511 -0.0371
  215MPD1    C1 3264   0.486   0.343  10.941  0.0387  0.0284 -0.1242
  215MPD1    C2 3265   0.451   0.466  10.994  0.3043 -0.1110  0.8190
  215MPD1    C3 3266   0.335   0.525  10.958 -0.0644 -0.9296 -0.5661
  215MPD1    C4 3267   0.248   0.462  10.870 -0.0642  0.0947 -0.2592
  215MPD1    C5 3268   0.270   0.338  10.824  0.6814 -0.0586 -0.1746
  215MPD1     H 3269   0.512   0.525  11.061  2.3614  0.0411 -1.1868
  215MPD1    H1 3270   0.153   0.510  10.851 -0.3732 -1.2824 -2.2219
  215MPD1    H2 3271   0.409   0.191  10.802 -0.2424  0.0330 -0.9875
  215MPD1    H3 3272   0.204   0.299  10.748  0.1617 -0.3483  0.4256
  215MPD1     N 3273   0.308   0.646  11.021  0.3622 -0.4832  1.5855
  215MPD1    H5 3274   0.382   0.683  11.080  0.6183  2.2714 -0.5067
  215MPD1    N1 3275   0.580   0.254  10.990 -0.1740  0.0717 -0.0984
  215MPD1    H6 3276   0.586   0.168  10.937 -1.2895  0.7164 -1.2611
  215MPD1    H7 3277   0.674   0.289  11.009 -0.2202  0.2386 -0.1757
  216MPD1     C 3278   1.570   2.768  16.655  0.5553 -0.4277 -0.3269
  216MPD1    C1 3279   1.508   2.813  16.769 -0.2419 -0.1825 -0.3498
  216MPD1    C2 3280   1.574   2.794  16.889  0.2303 -0.1232 -0.2566
  216MPD1    C3 3281   1.711   2.753  16.885 -0.1881 -0.5649  0.4007
  216MPD1    C4 3282   1.781   2.719  16.769 -0.1483  0.0375  0.0021
  216MPD1    C5 3283   1.701   2.717  16.651  0.0670  0.2373 -0.4199
  216MPD1     H 3284   1.530   2.801  16.987 -0.1642 -1.8043 -0.3189
  216MPD1    H1 3285   1.886   2.694  16.764 -0.3030 -0.5344 -0.3573
  216MPD1    H2 3286   1.527   2.777  16.556  0.9010 -0.7245 -0.5040
  216MPD1    H3 3287   1.747   2.695  16.555 -1.3940 -2.2397 -0.5465
  216MPD1     N 3288   1.767   2.739  17.012 -0.3164  0.2565 -0.4585
  216MPD1    H5 3289   1.714   2.757  17.096  0.9008 -2.3167  0.8846
  216MPD1    N1 3290   1.369   2.843  16.773  0.3566 -0.7876 -0.3537
  216MPD1    H6 3291   1.347   2.910  16.846 -1.3833  0.9876 -2.5140
  216MPD1    H7 3292   1.335   2.864  16.680 -2.0921 -2.5985  0.1360
  217MPD1     C 3293   3.656   4.328   8.992 -0.7277  0.1710 -0.2474
  217MPD1    C1 3294   3.569   4.436   8.976  0.0087 -0.4032  0.1852
  217MPD1    C2 3295   3.550   4.523   9.077 -0.0459 -0.4283  0.3073
  217MPD1    C3 3296   3.592   4.492   9.210  0.2834 -0.1215  0.8572
  217MPD1    C4 3297   3.655   4.371   9.227 -0.4340  0.8450  0.9721
  217MPD1    C5 3298   3.683   4.292   9.118 -0.6699  0.6263 -0.4190
  217MPD1     H 3299   3.510   4.622   9.055 -0.9584 -0.7997  0.2950
  217MPD1    H1 3300   3.697   4.325   9.316 -1.3483 -0.1687  0.8719
  217MPD1    H2 3301   3.686   4.259   8.914  2.7424  1.9827 -0.5059
  217MPD1    H3 3302   3.726   4.194   9.132  0.7356  1.1742 -0.9748
  217MPD1     N 3303   3.567   4.577   9.323  0.4675  0.5716  0.1410
  217MPD1    H5 3304   3.592   4.532   9.410  0.0137  0.7061  0.3397
  217MPD1    N1 3305   3.541   4.467   8.846  0.2662  0.5963 -0.4278
  217MPD1    H6 3306   3.459   4.523   8.825 -0.4317 -0.0821  0.5315
  217MPD1    H7 3307   3.537   4.388   8.783  2.4392  1.2172 -1.3704
  218MPD1     C 3308   3.890   1.418  12.729 -0.2493 -0.5644 -0.6912
  218MPD1    C1 3309   3.935   1.294  12.773  0.0190  0.1368 -0.1192
  218MPD1    C2 3310   4.071   1.274  12.776  0.1517 -0.0189 -0.0360
  218MPD1    C3 3311   4.155   1.378  12.729  0.0168  0.2917  0.0728
  218MPD1    C4 3312   4.106   1.502  12.682 -0.6518 -0.4414 -0.1961
  218MPD1    C5 3313   3.973   1.514  12.677 -0.1925 -0.5113 -0.3165
  218MPD1     H 3314   4.118   1.187  12.820  0.6465  0.0443 -0.4349
  218MPD1    H1 3315   4.170   1.585  12.655  0.0588 -0.7468  0.5539
  218MPD1    H2 3316   3.783   1.433  12.733 -0.1736 -0.2859  0.4361
  218MPD1    H3 3317   3.930   1.608  12.643  0.2124  0.1000  0.8667
  218MPD1     N 3318   4.295   1.354  12.728 -0.7478  0.1815 -0.0289
  218MPD1    H5 3319   4.322   1.263  12.765 -1.8918 -0.6070 -1.1345
  218MPD1    N1 3320   3.849   1.213  12.851 -0.0142 -0.2135  0.0351
  218MPD1    H6 3321   3.885   1.119  12.865  0.5995 -0.1573 -1.1357
  218MPD1    H7 3322   3.754   1.206  12.815 -0.0477  0.2021  0.0393
  219MPD1     C 3323   0.625   1.593  12.464  0.1123  0.6520 -0.6051
  219MPD1    C1 3324   0.520   1.591  12.377 -0.4141  0.4279  0.0627
  219MPD1    C2 3325   0.395   1.548  12.426  0.1562  0.0253  0.3315
  219MPD1    C3 3326   0.386   1.490  12.550  0.1086 -0.8216  0.3610
  219MPD1    C4 3327   0.494   1.487  12.632 -0.6713 -0.2821 -0.1505
  219MPD1    C5 3328   0.613   1.548  12.591  0.4742 -0.0506 -0.1420
  219MPD1     H 3329   0.309   1.569  12.363  0.2024 -0.7655  0.0059
  219MPD1    H1 3330   0.488   1.449  12.733  0.8976 -0.9164 -0.3046
  219MPD1    H2 3331   0.722   1.636  12.442 -0.4565  0.7500 -2.9211
  219MPD1    H3 3332   0.702   1.551  12.652  0.6360 -1.4145 -0.3004
  219MPD1     N 3333   0.265   1.448  12.611  0.0586 -0.7119 -0.0213
  219MPD1    H5 3334   0.264   1.409  12.705  1.0739  0.8472  0.6385
  219MPD1    N1 3335   0.540   1.636  12.243 -0.0456 -0.1438  0.4298
  219MPD1    H6 3336   0.618   1.584  12.202  0.9929 -1.0428  3.5970
  219MPD1    H7 3337   0.459   1.614  12.186 -1.7592 -0.4302  3.0125
  220MPD1     C 3338   4.227   1.307   9.886  0.1192 -0.7867 -0.3129
  220MPD1    C1 3339   4.095   1.340   9.908 -1.1852  0.0908 -0.7143
  220MPD1    C2 3340   4.038   1.307  10.028 -0.0945 -0.2140 -0.5298
  220MPD1    C3 3341   4.110   1.237  10.128 -0.3049 -0.3545 -0.2162
  220MPD1    C4 3342   4.241   1.200  10.101 -0.9092  0.0997  0.4514
  220MPD1    C5 3343   4.302   1.241   9.982 -0.6396  0.0207 -0.7213
  220MPD1     H 3344   3.936   1.339  10.049  0.3942  2.1858 -1.8028
  220MPD1    H1 3345   4.298   1.131  10.162  2.0835  0.4984 -1.8950
  220MPD1    H2 3346   4.273   1.332   9.791  0.2701 -0.0277 -0.0418
  220MPD1    H3 3347   4.406   1.218   9.962 -0.5218 -0.0173 -0.0495
  220MPD1     N 3348   4.051   1.208  10.254 -0.0607  0.3014 -0.2551
  220MPD1    H5 3349   3.952   1.229  10.265 -0.1169 -0.4711  0.7387
  220MPD1    N1 3350   4.023   1.391   9.800 -0.4520 -0.5173 -0.6976
  220MPD1    H6 3351   4.085   1.452   9.747  2.1066 -0.4626  2.3253
  220MPD1    H7 3352   3.946   1.450   9.829 -1.8242 -1.7713 -1.7963
  221MPD1     C 3353   2.158   0.628  16.617 -0.5820  0.0433  0.4916
  221MPD1    C1 3354   2.100   0.502  16.629  0.3798 -0.3935 -0.1809
  221MPD1    C2 3355   2.175   0.387  16.587  0.4612  0.2747 -0.0562
  221MPD1    C3 3356   2.307   0.402  16.536 -0.0170  0.6579  0.3128
  221MPD1    C4 3357   2.350   0.529  16.524  0.2711  0.3042  0.0781
  221MPD1    C5 3358   2.280   0.641  16.559 -0.2170  0.2733  0.3008
  221MPD1     H 3359   2.130   0.288  16.595  0.6695  0.3713  2.2166
  221MPD1    H1 3360   2.445   0.543  16.473 -0.6253  0.7498 -1.4555
  221MPD1    H2 3361   2.099   0.716  16.639  1.6158  1.1248  1.9985
  221MPD1    H3 3362   2.330   0.737  16.552 -1.5639  1.3206  4.8604
  221MPD1     N 3363   2.390   0.296  16.485  0.0379 -0.2818  0.0784
  221MPD1    H5 3364   2.487   0.316  16.465  0.5233 -2.6396  0.1546
  221MPD1    N1 3365   1.966   0.485  16.671 -0.4670  0.2059  0.6175
  221MPD1    H6 3366   1.942   0.386  16.676 -2.3964  0.6883  0.6691
  221MPD1    H7 3367   1.954   0.524  16.764 -1.3998 -0.4272  0.7631
  222MPD1     C 3368   1.118   3.429  17.369  0.4808  0.7138  0.3106
  222MPD1    C1 3369   1.025   3.441  17.459  0.2754 -0.3581 -0.2295
  222MPD1    C2 3370   1.021   3.552  17.538  0.4561 -0.0533  0.4802
  222MPD1    C3 3371   1.094   3.665  17.514 -0.0377  1.1906  0.4665
  222MPD1    C4 3372   1.187   3.655  17.411  0.0573  0.2251 -0.6758
  222MPD1    C5 3373   1.193   3.540  17.339  0.0521  0.2115  0.1498
  222MPD1     H 3374   0.958   3.548  17.626  0.5847  1.3250  0.6423
  222MPD1    H1 3375   1.252   3.737  17.384 -0.8201  1.1080 -0.0815
  222MPD1    H2 3376   1.132   3.336  17.314  0.6570  0.7581  0.2789
  222MPD1    H3 3377   1.253   3.529  17.249  0.3415 -0.0483  0.3764
  222MPD1     N 3378   1.070   3.789  17.584 -0.0498 -0.4318 -0.0718
  222MPD1    H5 3379   1.118   3.875  17.558 -0.5856  0.3983  1.6522
  222MPD1    N1 3380   0.939   3.336  17.495 -0.0720 -0.0821 -0.1813
  222MPD1    H6 3381   0.915   3.278  17.416 -0.2603 -2.2650  1.4656
  222MPD1    H7 3382   0.855   3.370  17.543 -0.9031 -1.4226 -0.6847
  223MPD1     C 3383   0.396   4.497   0.395 -0.0095 -0.7627 -0.0554
  223MPD1    C1 3384   0.523   4.519   0.438 -0.2870 -0.0584 -0.2813
  223MPD1    C2 3385   0.624   4.451   0.376 -1.1283  0.2221  0.4897
  223MPD1    C3 3386   0.612   4.342   0.293  0.5132 -1.1845  0.1339
  223MPD1    C4 3387   0.480   4.306   0.256 -0.4176  0.1482  0.0718
  223MPD1    C5 3388   0.381   4.391   0.300  0.4740  0.3671 -0.2663
  223MPD1     H 3389   0.726   4.467   0.409 -1.3014 -0.1854  1.2202
  223MPD1    H1 3390   0.445   4.224   0.194  0.3014 -0.8233  0.9347
  223MPD1    H2 3391   0.308   4.551   0.429  0.7069  0.9172 -0.8446
  223MPD1    H3 3392   0.279   4.375   0.266  0.2789  1.5742 -0.2291
  223MPD1     N 3393   0.727   4.263   0.270  0.4635  0.0006  0.4927
  223MPD1    H5 3394   0.818   4.288   0.306  0.5446  0.3953  0.0196
  223MPD1    N1 3395   0.544   4.638   0.515  0.0936  0.2716 -0.6729
  223MPD1    H6 3396   0.630   4.647   0.568  0.5227 -0.4650 -1.2294
  223MPD1    H7 3397   0.467   4.663   0.577  1.4649  2.1607  0.2452
  224MPD1     C 3398   3.502   0.366   8.896  0.7491 -0.3753 -0.4169
  224MPD1    C1 3399   3.503   0.293   9.012 -0.1730  0.4397  0.0036
  224MPD1    C2 3400   3.477   0.362   9.133  0.4780 -0.3275  0.5635
  224MPD1    C3 3401   3.440   0.498   9.134 -0.1541 -0.9102  0.4853
  224MPD1    C4 3402   3.434   0.561   9.013 -0.0682 -0.0326 -0.5820
  224MPD1    C5 3403   3.481   0.499   8.902 -0.2189 -0.2097  0.9976
  224MPD1     H 3404   3.494   0.307   9.225 -1.3300  0.5973  1.4467
  224MPD1    H1 3405   3.404   0.665   9.012 -1.1901 -0.3917 -2.4503
  224MPD1    H2 3406   3.525   0.328   8.797  1.2823 -0.4386 -0.2696
  224MPD1    H3 3407   3.491   0.543   8.803 -1.2339 -0.3594  0.8287
  224MPD1     N 3408   3.418   0.569   9.247 -0.2169 -0.3297  0.1317
  224MPD1    H5 3409   3.389   0.665   9.227 -0.8472 -0.9665 -1.9111
  224MPD1    N1 3410   3.542   0.165   9.014  0.1891  0.2321 -0.2044
  224MPD1    H6 3411   3.522   0.122   8.924  2.2505  0.5620 -0.8278
  224MPD1    H7 3412   3.501   0.113   9.091 -1.7411  0.5245 -1.0491
  225MPD1     C 3413   4.204   2.251  12.944 -0.1811  0.3585  0.9919
  225MPD1    C1 3414   4.208   2.356  12.862 -0.4284 -0.3235  0.2510
  225MPD1    C2 3415   4.141   2.347  12.742  0.0362  0.1242 -0.1665
  225MPD1    C3 3416   4.059   2.237  12.716  0.5635 -0.1712  1.2037
  225MPD1    C4 3417   4.043   2.139  12.812 -0.1647 -0.3365 -0.4929
  225MPD1    C5 3418   4.124   2.147  12.919  0.0201  0.4600  0.0803
  225MPD1     H 3419   4.147   2.427  12.669  1.5962 -0.7018 -0.9388
  225MPD1    H1 3420   3.982   2.051  12.797 -1.2381  0.2189  0.6765
  225MPD1    H2 3421   4.250   2.260  13.042  2.3348  0.9594 -0.2518
  225MPD1    H3 3422   4.125   2.072  12.998 -2.1041  0.4844  0.1199
  225MPD1     N 3423   3.989   2.224  12.589  0.2062  0.5268  0.1338
  225MPD1    H5 3424   3.925   2.145  12.588  0.4911  0.3252 -2.1066
  225MPD1    N1 3425   4.304   2.458  12.885 -0.6458 -0.6544  0.3930
  225MPD1    H6 3426   4.273   2.544  12.840 -0.4036 -0.1723  1.1580
  225MPD1    H7 3427   4.327   2.472  12.983  3.5365 -0.5525 -0.5816
  226MPD1     C 3428   3.620   2.125   9.137 -0.3742  0.1857 -0.3136
  226MPD1    C1 3429   3.589   2.249   9.185 -1.0601 -0.2619 -0.1919
  226MPD1    C2 3430   3.522   2.243   9.302 -0.5909 -0.7071  0.7889
  226MPD1    C3 3431   3.469   2.130   9.363 -0.7425 -0.2166  0.4432
  226MPD1    C4 3432   3.485   2.002   9.306  0.3509 -0.4431 -0.5212
  226MPD1    C5 3433   3.558   2.007   9.190  0.3647  0.7312 -0.3786
  226MPD1     H 3434   3.508   2.337   9.355  2.8571 -0.1623  0.7450
  226MPD1    H1 3435   3.446   1.908   9.345  2.3643 -1.2955 -0.5822
  226MPD1    H2 3436   3.679   2.106   9.047 -0.5948  0.5885 -0.5461
  226MPD1    H3 3437   3.563   1.925   9.120  1.5690  1.2996 -0.9774
  226MPD1     N 3438   3.398   2.156   9.481  0.6722  0.3040 -0.1305
  226MPD1    H5 3439   3.400   2.248   9.524  1.0008  0.3190 -0.1765
  226MPD1    N1 3440   3.654   2.365   9.140 -0.2571 -0.9155  0.1855
  226MPD1    H6 3441   3.689   2.359   9.044 -1.0616  0.1219 -0.1836
  226MPD1    H7 3442   3.593   2.447   9.148 -0.6997 -0.9225 -2.8910
  227MPD1     C 3443   3.224   2.933   9.687  1.0775  0.1251  0.5374
  227MPD1    C1 3444   3.322   2.857   9.627  0.0509  0.6278 -0.4258
  227MPD1    C2 3445   3.319   2.725   9.651 -0.5995  0.2658  0.1609
  227MPD1    C3 3446   3.227   2.664   9.741 -0.5722 -0.7846 -0.8527
  227MPD1    C4 3447   3.144   2.745   9.808  0.4840  0.4975  0.4281
  227MPD1    C5 3448   3.140   2.882   9.780 -0.5972  0.3216  0.9530
  227MPD1     H 3449   3.388   2.667   9.591 -0.3758 -0.0661  0.7411
  227MPD1    H1 3450   3.071   2.707   9.878 -1.2788  1.8094 -0.6952
  227MPD1    H2 3451   3.218   3.041   9.672  0.9660 -0.3769 -3.2121
  227MPD1    H3 3452   3.067   2.944   9.831 -0.5003 -0.6000  2.2227
  227MPD1     N 3453   3.235   2.524   9.747 -0.2054  0.1437  0.1486
  227MPD1    H5 3454   3.300   2.469   9.691 -0.4735  0.3271 -0.3401
  227MPD1    N1 3455   3.399   2.911   9.520  0.0054  0.3012  0.6465
  227MPD1    H6 3456   3.483   2.859   9.497  0.1196  1.3160 -1.2430
  227MPD1    H7 3457   3.425   3.009   9.530  2.5373 -0.5125  1.8029
  228MPD1     C 3458   1.018   4.284  12.330 -0.3751  0.4504  0.3550
  228MPD1    C1 3459   0.893   4.306  12.274 -0.2031  0.0105 -0.3662
  228MPD1    C2 3460   0.776   4.270  12.336  0.3012 -0.3112  0.3648
  228MPD1    C3 3461   0.781   4.228  12.468 -0.0128  0.1471 -0.4090
  228MPD1    C4 3462   0.898   4.213  12.534  0.0707  0.2085  0.1562
  228MPD1    C5 3463   1.012   4.235  12.456  0.2617  0.2475  0.3443
  228MPD1     H 3464   0.686   4.297  12.281 -0.0795 -1.1531  0.5788
  228MPD1    H1 3465   0.916   4.173  12.633 -0.2105  2.0626  0.9623
  228MPD1    H2 3466   1.108   4.309  12.275 -2.2675  2.6607 -1.7039
  228MPD1    H3 3467   1.105   4.212  12.506  0.5951  0.4208 -0.1941
  228MPD1     N 3468   0.657   4.197  12.529  0.0389  0.6722  0.1852
  228MPD1    H5 3469   0.572   4.218  12.478 -0.6337  0.4476  1.2044
  228MPD1    N1 3470   0.898   4.349  12.138  0.2301  0.1352 -0.3102
  228MPD1    H6 3471   0.817   4.403  12.111 -0.5425 -0.8495  0.0459
  228MPD1    H7 3472   0.978   4.410  12.119 -1.5255  1.8627 -2.1110
  229MPD1     C 3473   0.171   3.348  14.263 -0.2636  0.1987 -0.2949
  229MPD1    C1 3474   0.159   3.444  14.359 -0.1739  0.2654  0.1290
  229MPD1    C2 3475   0.226   3.430  14.477 -0.1763 -0.7403  0.0798
  229MPD1    C3 3476   0.333   3.346  14.489  0.0038  0.1333  0.3286
  229MPD1    C4 3477   0.352   3.258  14.388 -0.0744 -0.6001 -0.0374
  229MPD1    C5 3478   0.274   3.262  14.272  0.2425 -0.3161 -0.1432
  229MPD1     H 3479   0.216   3.498  14.561  0.2894 -0.5023 -0.0555
  229MPD1    H1 3480   0.426   3.180  14.398  0.1126 -0.2333  1.4757
  229MPD1    H2 3481   0.122   3.353  14.166 -1.2270 -0.7925  0.1379
  229MPD1    H3 3482   0.289   3.187  14.195 -0.2632 -0.4036 -0.1542
  229MPD1     N 3483   0.429   3.346  14.593  0.2925 -0.0276  0.4474
  229MPD1    H5 3484   0.510   3.286  14.582  0.9067  0.9158 -0.1724
  229MPD1    N1 3485   0.056   3.535  14.345  0.7797  0.1182 -0.1211
  229MPD1    H6 3486   0.088   3.624  14.382  0.9932 -0.9739  2.2892
  229MPD1    H7 3487   0.036   3.551  14.246  1.8934 -1.9784 -0.6905
  230MPD1     C 3488   0.921   3.563  15.557 -1.0087 -0.0069  0.4102
  230MPD1    C1 3489   0.970   3.442  15.509  0.3242  0.3046  0.1383
  230MPD1    C2 3490   0.911   3.385  15.400 -0.2560  0.3655 -0.3845
  230MPD1    C3 3491   0.807   3.442  15.336 -0.2631 -0.3909  0.2407
  230MPD1    C4 3492   0.758   3.564  15.384 -0.7519 -0.2259 -0.0771
  230MPD1    C5 3493   0.822   3.630  15.493 -0.4760  0.0840  0.1256
  230MPD1     H 3494   0.943   3.285  15.370 -3.1509 -0.6959  0.0040
  230MPD1    H1 3495   0.666   3.603  15.343 -0.2053  0.1419 -0.9454
  230MPD1    H2 3496   0.948   3.614  15.649  1.3540 -1.6568  0.6225
  230MPD1    H3 3497   0.790   3.729  15.526  3.7600  1.3200  0.5901
  230MPD1     N 3498   0.757   3.381  15.212 -0.6290 -0.0710  0.0492
  230MPD1    H5 3499   0.771   3.283  15.189  3.6789  0.7978 -1.0118
  230MPD1    N1 3500   1.075   3.374  15.580  0.1816 -0.3819  0.6252
  230MPD1    H6 3501   1.153   3.437  15.601  0.4344 -0.4416 -0.1437
  230MPD1    H7 3502   1.116   3.296  15.529 -0.5102 -0.5383  0.3183
  231MPD1     C 3503   3.450   0.611  15.313  0.5336 -0.4394 -0.4427
  231MPD1    C1 3504   3.494   0.676  15.196  0.4417 -0.1118  0.2882
  231MPD1    C2 3505   3.622   0.636  15.153 -0.0292  0.4171 -0.0879
  231MPD1    C3 3506   3.708   0.554  15.226 -0.0633  0.0696  0.3587
  231MPD1    C4 3507   3.662   0.497  15.336  0.2291  0.1649  0.2043
  231MPD1    C5 3508   3.538   0.525  15.379 -0.5567 -0.7620  0.8736
  231MPD1     H 3509   3.650   0.668  15.054 -0.2856 -0.5783 -0.4826
  231MPD1    H1 3510   3.728   0.432  15.392 -0.5992 -0.9136 -0.0912
  231MPD1    H2 3511   3.359   0.648  15.359 -0.6099 -1.9488 -1.4848
  231MPD1    H3 3512   3.513   0.485  15.476  0.4795  1.5450  2.0828
  231MPD1     N 3513   3.841   0.542  15.183  0.1093 -0.1805 -0.5807
  231MPD1    H5 3514   3.888   0.615  15.130  0.5251 -1.0384 -1.3949
  231MPD1    N1 3515   3.402   0.746  15.113 -0.4886 -0.2601 -0.4132
  231MPD1    H6 3516   3.332   0.804  15.159 -0.5614  0.6000 -1.5943
  231MPD1    H7 3517   3.436   0.813  15.044  1.9423 -0.6500  0.4132
  232MPD1     C 3518   1.212   2.185   0.259 -0.1203 -0.1920 -0.7707
  232MPD1    C1 3519   1.149   2.177   0.378 -0.6139  0.1164  0.3969
  232MPD1    C2 3520   1.013   2.156   0.379 -0.3250 -0.4405 -0.1452
  232MPD1    C3 3521   0.933   2.161   0.265 -0.6193  0.2182  0.2450
  232MPD1    C4 3522   0.995   2.177   0.142  0.8851  0.6519 -0.4448
  232MPD1    C5 3523   1.137   2.188   0.141  0.4120 -0.1752  0.0691
  232MPD1     H 3524   0.964   2.122   0.469  0.3460 -1.0962 -0.0363
  232MPD1    H1 3525   0.941   2.181   0.048 -1.3938  2.4862  0.9207
  232MPD1    H2 3526   1.318   2.208   0.252 -0.2823  0.3416 -1.5384
  232MPD1    H3 3527   1.198   2.221   0.057  0.5013  0.5370  0.4063
  232MPD1     N 3528   0.793   2.148   0.288 -0.0304 -0.5005 -0.2562
  232MPD1    H5 3529   0.764   2.151   0.385  0.7044 -1.1892 -0.0156
  232MPD1    N1 3530   1.224   2.195   0.495  0.0882 -0.7052  0.0788
  232MPD1    H6 3531   1.187   2.139   0.571 -2.9652  0.8121 -0.3027
  232MPD1    H7 3532   1.322   2.175   0.476  0.5075  0.1013  1.4043
  233MPD1     C 3533   4.039   0.801   2.397  0.1609 -0.0928  0.4594
  233MPD1    C1 3534   3.905   0.822   2.373  0.6841  0.0301  0.8062
  233MPD1    C2 3535   3.829   0.716   2.325 -0.1246  0.0400 -0.2480
  233MPD1    C3 3536   3.901   0.598   2.292 -1.2470  0.2967  0.0284
  233MPD1    C4 3537   4.034   0.582   2.316  0.3508  0.2796 -0.1077
  233MPD1    C5 3538   4.107   0.687   2.366  0.0064 -1.2049 -0.6890
  233MPD1     H 3539   3.721   0.718   2.315 -0.1725 -1.1406  0.0435
  233MPD1    H1 3540   4.093   0.491   2.304 -0.5237 -0.2924 -0.0668
  233MPD1    H2 3541   4.089   0.890   2.431 -0.3792  0.4881 -0.2660
  233MPD1    H3 3542   4.214   0.670   2.379  0.4313  0.2234 -2.4106
  233MPD1     N 3543   3.830   0.484   2.237 -0.2365  0.0328 -0.1006
  233MPD1    H5 3544   3.884   0.401   2.217 -0.0898 -0.5055  2.5375
  233MPD1    N1 3545   3.851   0.944   2.412  0.4945 -0.2348 -0.1666
  233MPD1    H6 3546   3.751   0.953   2.394  0.2132 -0.0090  1.4876
  233MPD1    H7 3547   3.906   1.026   2.388  0.6358 -0.6098 -1.1353
  234MPD1     C 3548   4.694   0.648  10.642  0.0726 -0.3844 -0.1493
  234MPD1    C1 3549   4.604   0.732  10.581 -0.5104  0.4632 -0.5679
  234MPD1    C2 3550   4.482   0.681  10.545 -0.2967 -0.2046  0.1088
  234MPD1    C3 3551   4.460   0.544  10.541  0.0252 -0.1191 -0.2864
  234MPD1    C4 3552   4.544   0.464  10.614  0.1263 -0.1627  0.3016
  234MPD1    C5 3553   4.666   0.518  10.657 -0.3477  0.6202  0.5507
  234MPD1     H 3554   4.407   0.747  10.501  1.1906  1.7727  0.5425
  234MPD1    H1 3555   4.526   0.358  10.618 -0.4145 -0.1689 -2.3570
  234MPD1    H2 3556   0.066   0.691  10.666 -0.4992  0.2152  1.0553
  234MPD1    H3 3557   4.718   0.459  10.733 -3.4249  0.2059  2.3407
  234MPD1     N 3558   4.350   0.487  10.477 -0.2102 -0.1805  0.4555
  234MPD1    H5 3559   4.285   0.557  10.442 -0.1497 -0.5318 -0.3516
  234MPD1    N1 3560   4.621   0.869  10.563  0.4884 -0.1532 -0.0513
  234MPD1    H6 3561   4.563   0.901  10.486  0.4164 -0.2982 -0.0582
  234MPD1    H7 3562   4.718   0.896  10.552  0.8709 -1.7554 -0.5754
  235MPD1     C 3563   4.558   1.749  10.489  0.0155  0.1198  0.2256
  235MPD1    C1 3564   4.527   1.818  10.378  0.1326  0.1034 -1.1935
  235MPD1    C2 3565   4.622   1.893  10.323 -0.8847 -0.0269 -0.0477
  235MPD1    C3 3566   0.015   1.915  10.390  0.2887  0.2995  0.2543
  235MPD1    C4 3567   0.032   1.863  10.512  0.1404 -0.0037  0.4232
  235MPD1    C5 3568   4.670   1.770  10.559  0.1821  0.7144 -0.8157
  235MPD1     H 3569   4.601   1.939  10.228 -1.9541  2.3599  1.3306
  235MPD1    H1 3570   0.116   1.882  10.576  2.3976 -1.6996 -2.0446
  235MPD1    H2 3571   4.483   1.680  10.527 -1.8683  1.8924 -0.2837
  235MPD1    H3 3572   4.677   1.723  10.657  0.7692  2.3502 -0.0716
  235MPD1     N 3573   0.112   2.000  10.329  0.3444 -1.0169  0.0625
  235MPD1    H5 3574   0.075   2.044  10.246  0.3132 -1.4783 -0.1725
  235MPD1    N1 3575   4.400   1.786  10.315  0.4756 -0.2483  0.2562
  235MPD1    H6 3576   4.336   1.760  10.390  0.1627 -1.5864 -0.4761
  235MPD1    H7 3577   4.358   1.861  10.261 -1.1647 -1.6775 -0.4618
  236MPD1     C 3578   4.517   3.368  10.235 -0.3557 -0.5840  1.0184
  236MPD1    C1 3579   4.443   3.252  10.233 -0.1393 -0.8221  0.5260
  236MPD1    C2 3580   4.499   3.138  10.294  0.1772 -0.9277 -0.8560
  236MPD1    C3 3581   4.620   3.148  10.359 -0.3462 -0.4834  0.5144
  236MPD1    C4 3582   4.686   3.269  10.357  0.1305 -0.0369 -0.0596
  236MPD1    C5 3583   4.644   3.375  10.290  0.6184 -0.1639  0.4824
  236MPD1     H 3584   4.438   3.049  10.303 -0.1628 -0.7144 -1.0324
  236MPD1    H1 3585   0.057   3.277  10.408 -0.9243  0.7810  1.7698
  236MPD1    H2 3586   4.491   3.464  10.191  3.4840  0.0944  0.1770
  236MPD1    H3 3587   4.703   3.465  10.284  0.8925 -0.1010  4.2220
  236MPD1     N 3588   4.668   3.049  10.447 -0.5777 -0.1824  0.3440
  236MPD1    H5 3589   0.022   3.076  10.506 -0.7145  0.0293  0.4264
  236MPD1    N1 3590   4.311   3.261  10.186 -0.2729 -0.5758  0.1229
  236MPD1    H6 3591   4.300   3.328  10.110  0.1260 -0.7547 -0.0959
  236MPD1    H7 3592   4.281   3.166  10.165 -0.4074 -0.0715 -2.0057
  237MPD1     C 3593   3.737   2.028  16.034 -0.8044 -0.1165 -0.1885
  237MPD1    C1 3594   3.644   2.031  15.937  0.0695 -0.0733 -0.1391
  237MPD1    C2 3595   3.585   1.912  15.892  0.5326  0.5818 -0.0610
  237MPD1    C3 3596   3.620   1.790  15.948  0.0506 -0.3102  0.1526
  237MPD1    C4 3597   3.718   1.793  16.042 -0.4055 -0.4527  0.0272
  237MPD1    C5 3598   3.775   1.908  16.093 -0.4848  0.1797 -0.1041
  237MPD1     H 3599   3.521   1.915  15.805 -0.3735  0.7962  0.6078
  237MPD1    H1 3600   3.753   1.703  16.091 -0.4891 -0.2987  0.3755
  237MPD1    H2 3601   3.797   2.114  16.061 -0.3064 -0.0450 -1.5016
  237MPD1    H3 3602   3.852   1.903  16.169  0.6713  0.8752 -1.2455
  237MPD1     N 3603   3.574   1.664  15.901  1.2731  0.6614 -0.8725
  237MPD1    H5 3604   3.621   1.592  15.956 -2.4395 -0.2234  1.1726
  237MPD1    N1 3605   3.633   2.152  15.868  0.9775  0.0253  0.1957
  237MPD1    H6 3606   3.541   2.140  15.826  2.4991 -4.9314 -1.7532
  237MPD1    H7 3607   3.628   2.231  15.933 -0.6805 -0.3512  0.5353
  238MPD1     C 3608   1.439   4.699  14.802  0.0414  0.2939  0.4248
  238MPD1    C1 3609   1.409   4.571  14.842  0.6613  0.2238 -0.3941
  238MPD1    C2 3610   1.279   4.530  14.819  0.3836  0.2485 -0.4666
  238MPD1    C3 3611   1.184   4.615  14.766 -0.3377 -0.2098  0.1763
  238MPD1    C4 3612   1.214   0.020  14.727  0.0637  0.5825  0.2992
  238MPD1    C5 3613   1.342   0.063  14.760  0.5737  0.0064 -0.4033
  238MPD1     H 3614   1.265   4.422  14.814 -1.0472  0.5012 -1.7758
  238MPD1    H1 3615   1.138   0.086  14.687 -1.3809 -1.3187 -0.0903
  238MPD1    H2 3616   1.543   0.007  14.801 -0.0788  0.6866  0.6506
  238MPD1    H3 3617   1.376   0.166  14.750 -1.1013  0.5464 -0.6222
  238MPD1     N 3618   1.052   4.562  14.728 -0.2745 -0.3002 -0.0429
  238MPD1    H5 3619   0.982   4.630  14.702  0.7959 -0.5049 -3.3701
  238MPD1    N1 3620   1.517   4.478  14.860  0.7995  0.0681  0.5056
  238MPD1    H6 3621   1.592   4.533  14.902  1.1500 -0.8997  1.1450
  238MPD1    H7 3622   1.492   4.405  14.926  0.8626 -0.1866  0.2463
  239MPD1     C 3623   1.127   0.367  14.696 -0.2816  0.3055 -0.1133
  239MPD1    C1 3624   1.101   0.480  14.766 -0.5798 -0.0593 -0.2101
  239MPD1    C2 3625   1.007   0.566  14.712  0.1319 -0.3261 -0.0849
  239MPD1    C3 3626   0.972   0.547  14.575  0.6423 -0.0029 -0.2500
  239MPD1    C4 3627   1.018   0.441  14.501 -0.1406 -0.3668  0.3054
  239MPD1    C5 3628   1.091   0.351  14.564  0.0181 -0.4527 -0.1597
  239MPD1     H 3629   0.974   0.654  14.765 -1.9276 -0.7137 -0.7550
  239MPD1    H1 3630   0.995   0.436  14.395 -1.8821 -1.2566  0.7257
  239MPD1    H2 3631   1.187   0.290  14.743 -1.9892 -1.3689 -0.7206
  239MPD1    H3 3632   1.111   0.253  14.522 -0.4534 -1.1640  1.2754
  239MPD1     N 3633   0.900   0.637  14.506 -0.3556  0.0607 -0.1240
  239MPD1    H5 3634   0.916   0.635  14.406 -1.3179 -1.8311 -0.2348
  239MPD1    N1 3635   1.154   0.496  14.900 -0.2365 -0.3474 -0.9136
  239MPD1    H6 3636   1.164   0.597  14.909 -1.1131 -0.4663  1.3643
  239MPD1    H7 3637   1.245   0.452  14.903 -0.2269 -0.1027  2.2211
  240MPD1     C 3638   0.742   0.696  14.023  0.0148 -0.2913 -0.2275
  240MPD1    C1 3639   0.634   0.713  14.105 -0.2959 -0.7776  0.0493
  240MPD1    C2 3640   0.616   0.635  14.218 -0.0697 -0.0773  0.2346
  240MPD1    C3 3641   0.701   0.526  14.236 -0.1955  0.7826  0.0136
  240MPD1    C4 3642   0.818   0.516  14.157 -0.1275 -0.2569 -0.6240
  240MPD1    C5 3643   0.835   0.598  14.048  0.0135 -0.5367 -0.6412
  240MPD1     H 3644   0.521   0.643  14.269  0.5090  2.3542  0.9335
  240MPD1    H1 3645   0.894   0.441  14.178  0.4121 -0.4068 -3.0569
  240MPD1    H2 3646   0.777   0.767  13.948 -3.6849  0.7522 -0.9807
  240MPD1    H3 3647   0.929   0.596  13.994 -0.3917  2.6869 -1.4769
  240MPD1     N 3648   0.668   0.442  14.348 -0.5669 -0.2819 -0.3181
  240MPD1    H5 3649   0.583   0.459  14.401 -1.5693 -0.2014 -1.9721
  240MPD1    N1 3650   0.555   0.828  14.085  0.6664 -0.3245  0.1313
  240MPD1    H6 3651   0.551   0.860  13.988  1.7717 -0.5607  0.0069
  240MPD1    H7 3652   0.459   0.815  14.116  0.3448 -1.9293 -1.5662
  241MPD1     C 3653   0.851   4.599  15.248  0.0131  0.0375  0.4496
  241MPD1    C1 3654   0.936   4.631  15.150 -0.0329  0.1920  0.4585
  241MPD1    C2 3655   0.894   4.670  15.023  0.4605  0.6551 -0.4970
  241MPD1    C3 3656   0.754   4.680  15.006  0.0050 -0.1751 -0.1801
  241MPD1    C4 3657   0.663   4.635  15.100  0.4868 -0.9474  0.0803
  241MPD1    C5 3658   0.714   4.599  15.222  0.1173 -0.1611 -0.1089
  241MPD1     H 3659   0.964   4.702  14.946  0.3773  2.0790  0.0186
  241MPD1    H1 3660   0.554   4.639  15.103  0.5420  1.1726 -0.6715
  241MPD1    H2 3661   0.877   4.568  15.348 -0.2901 -0.5005  0.3622
  241MPD1    H3 3662   0.641   4.577  15.299 -0.8267  0.2819 -0.8974
  241MPD1     N 3663   0.694   0.015  14.893 -0.2534  0.0964  0.6058
  241MPD1    H5 3664   0.599   0.050  14.899 -0.4138 -0.3378  0.5769
  241MPD1    N1 3665   1.071   4.622  15.184 -0.8235  0.5524  0.9306
  241MPD1    H6 3666   1.084   4.669  15.273 -0.4675 -0.1682  1.2589
  241MPD1    H7 3667   1.126   4.668  15.111 -0.9177  1.2192  1.2802
  242MPD1     C 3668   4.679   4.320  15.972 -0.1027  0.3539  0.7409
  242MPD1    C1 3669   4.607   4.199  15.961  0.1917  0.3124 -1.2637
  242MPD1    C2 3670   4.626   4.131  15.847  0.0855 -0.8077 -0.1579
  242MPD1    C3 3671   4.687   4.195  15.739  0.5212  0.1756  0.0568
  242MPD1    C4 3672   0.009   4.323  15.747 -0.1107 -0.5391 -0.7305
  242MPD1    C5 3673   0.006   4.386  15.868 -0.6983  0.3329 -0.4461
  242MPD1     H 3674   4.593   4.028  15.849 -1.4869 -0.3399 -2.3013
  242MPD1    H1 3675   0.032   4.380  15.658 -0.6105  0.0727 -0.4665
  242MPD1    H2 3676   4.679   4.376  16.065  0.5077  3.2627 -1.0192
  242MPD1    H3 3677   0.036   4.489  15.878 -2.4178  0.7800  0.0742
  242MPD1     N 3678   4.701   4.128  15.610 -0.3118  0.2573  0.2233
  242MPD1    H5 3679   0.032   4.182  15.545  0.5315 -1.9593 -0.8838
  242MPD1    N1 3680   4.567   4.122  16.073  0.1072  0.5525 -0.2409
  242MPD1    H6 3681   4.545   4.183  16.152 -2.3089  0.4034 -0.7885
  242MPD1    H7 3682   4.481   4.076  16.042  0.1797 -0.5796  1.2279
  243MPD1     C 3683   1.269   1.818   0.175 -0.1464 -0.7845  1.0054
  243MPD1    C1 3684   1.377   1.748   0.231 -0.3343  0.3119  0.5918
  243MPD1    C2 3685   1.469   1.700   0.133  0.1784  0.0201  0.3142
  243MPD1    C3 3686   1.475   1.757   0.007 -0.4466 -0.2613 -0.6467
  243MPD1    C4 3687   1.387   1.857  17.664  0.4239 -0.3332  0.4526
  243MPD1    C5 3688   1.284   1.877   0.049 -0.3266  0.6597  0.4977
  243MPD1     H 3689   1.551   1.634   0.159  0.7860 -0.2344 -2.3067
  243MPD1    H1 3690   1.387   1.903  17.566  0.3236  0.1245  0.6670
  243MPD1    H2 3691   1.189   1.849   0.242 -0.3160  0.3617  0.2820
  243MPD1    H3 3692   1.206   1.941   0.011  0.0103  0.5042 -0.4600
  243MPD1     N 3693   1.575   1.711  17.618  0.3250 -0.8227 -0.3220
  243MPD1    H5 3694   1.620   1.629  17.658 -1.4612 -0.5885  2.1366
  243MPD1    N1 3695   1.378   1.707   0.366  0.0440  0.5423  0.5611
  243MPD1    H6 3696   1.474   1.678   0.381  0.2089 -0.0687 -1.6204
  243MPD1    H7 3697   1.361   1.792   0.419 -2.2839  0.4200  0.0367
  244MPD1     C 3698   2.089   0.890  17.409  0.0153  0.0138 -0.3466
  244MPD1    C1 3699   2.105   0.957  17.289  0.0125  0.2563  1.0391
  244MPD1    C2 3700   2.063   1.089  17.282  0.2992  0.6686  0.1274
  244MPD1    C3 3701   1.997   1.151  17.384  0.4216 -0.3852 -0.2576
  244MPD1    C4 3702   1.966   1.075  17.495 -0.5974 -0.1443  1.1497
  244MPD1    C5 3703   2.011   0.947  17.507 -0.1271  0.2007 -0.6022
  244MPD1     H 3704   2.070   1.137  17.185 -1.1593 -0.2832 -0.4559
  244MPD1    H1 3705   1.904   1.114  17.575 -1.7907  2.1234 -0.9002
  244MPD1    H2 3706   2.104   0.782  17.411 -1.6042 -0.2487 -1.9981
  244MPD1    H3 3707   1.983   0.886  17.593  0.6553  1.2259  0.3819
  244MPD1     N 3708   1.949   1.285  17.357  0.0876  0.3474  0.4762
  244MPD1    H5 3709   1.962   1.315  17.261 -0.1057  0.6958  0.5567
  244MPD1    N1 3710   2.130   0.875  17.172  0.5782  0.1144  0.9408
  244MPD1    H6 3711   2.179   0.920  17.095 -2.4856 -0.5265 -1.3854
  244MPD1    H7 3712   2.192   0.799  17.199 -0.5683 -0.7760  1.0572
  245MPD1     C 3713   4.126   3.348  12.539 -0.3604 -0.2493 -0.5748
  245MPD1    C1 3714   4.179   3.278  12.649 -0.5351 -0.5419  0.0690
  245MPD1    C2 3715   4.130   3.317  12.777 -0.0117  0.0176  0.1117
  245MPD1    C3 3716   4.046   3.427  12.787 -0.7231 -1.0497 -0.6550
  245MPD1    C4 3717   4.014   3.504  12.669  0.1475  0.9707 -0.0942
  245MPD1    C5 3718   4.057   3.459  12.549  0.9287  0.4772 -0.1543
  245MPD1     H 3719   4.146   3.262  12.870  0.1057  0.1460  0.1658
  245MPD1    H1 3720   3.947   3.589  12.667 -0.9906  0.0050 -2.1742
  245MPD1    H2 3721   4.155   3.330  12.437  4.1930  0.9554  0.5421
  245MPD1    H3 3722   4.033   3.510  12.456 -0.9745 -1.1044 -0.5366
  245MPD1     N 3723   4.007   3.467  12.918  0.0255  0.0558  0.0632
  245MPD1    H5 3724   4.033   3.401  12.992  0.0775 -0.2851 -0.2589
  245MPD1    N1 3725   4.265   3.171  12.635 -0.2596 -0.2154  0.1339
  245MPD1    H6 3726   4.304   3.177  12.541 -2.2340  1.3975 -0.5842
  245MPD1    H7 3727   4.334   3.171  12.709  0.3764 -1.1461 -0.4528
  246MPD1     C 3728   4.412   0.597   9.328  0.4962  0.2239  0.7955
  246MPD1    C1 3729   4.340   0.476   9.344  0.0560 -0.3334 -0.3097
  246MPD1    C2 3730   4.409   0.366   9.302  0.6676  0.0869  0.7283
  246MPD1    C3 3731   4.546   0.360   9.290  0.4420  0.1977  0.3346
  246MPD1    C4 3732   4.617   0.476   9.310  0.0332  0.0528 -0.9722
  246MPD1    C5 3733   4.546   0.592   9.304 -0.5952 -0.7667  0.5223
  246MPD1     H 3734   4.361   0.270   9.293  1.9047 -0.2962 -1.6880
  246MPD1    H1 3735   4.724   0.479   9.294  0.5511  0.4481  2.6240
  246MPD1    H2 3736   4.373   0.696   9.349  0.7717  0.3873  0.5360
  246MPD1    H3 3737   4.606   0.679   9.328 -1.9715  0.8343 -1.8763
  246MPD1     N 3738   4.606   0.235   9.255  0.0093 -0.1043 -0.1392
  246MPD1    H5 3739   4.535   0.165   9.237  0.5265 -0.9014  0.9218
  246MPD1    N1 3740   4.203   0.490   9.361  0.1010 -0.1965 -0.1318
  246MPD1    H6 3741   4.179   0.567   9.424  1.4110  1.3928 -1.5660
  246MPD1    H7 3742   4.163   0.404   9.397  0.1846 -0.6108 -1.0344
  247MPD1     C 3743   3.071   3.915  16.393  0.2358 -0.4248 -0.4904
  247MPD1    C1 3744   3.130   3.829  16.474  0.1589  0.1490 -0.0014
  247MPD1    C2 3745   3.138   3.696  16.441  0.6642 -0.4294  0.4329
  247MPD1    C3 3746   3.081   3.652  16.321 -0.0235  0.1810 -0.4695
  247MPD1    C4 3747   3.007   3.743  16.252 -0.3919  0.5874  0.3878
  247MPD1    C5 3748   3.014   3.873  16.281  0.6929 -1.0446  0.6222
  247MPD1     H 3749   3.183   3.623  16.507 -1.5607 -0.3266  2.0307
  247MPD1    H1 3750   2.951   3.715  16.163  0.8711  0.1221 -0.2491
  247MPD1    H2 3751   3.082   4.020  16.418  2.9433 -0.1749 -2.7587
  247MPD1    H3 3752   2.967   3.945  16.215  0.1815  0.0224  2.1444
  247MPD1     N 3753   3.080   3.515  16.285  0.1950 -0.4010  0.0355
  247MPD1    H5 3754   3.038   3.500  16.193 -2.2039 -0.8318  1.1922
  247MPD1    N1 3755   3.169   3.862  16.604 -1.0222  0.5931 -0.0978
  247MPD1    H6 3756   3.207   3.956  16.612 -0.3855  0.2603  0.7573
  247MPD1    H7 3757   3.237   3.797  16.644 -2.1520  0.0386  0.9277
  248MPD1     C 3758   0.060   3.086   0.657  0.1147  0.2482  0.5464
  248MPD1    C1 3759   0.094   3.076   0.788  0.4164  0.5730 -0.0199
  248MPD1    C2 3760   4.722   3.097   0.881  0.4349 -0.0337  0.4700
  248MPD1    C3 3761   4.596   3.146   0.857  0.2174 -0.2521  0.4873
  248MPD1    C4 3762   4.565   3.161   0.722 -0.6826 -0.2787 -0.6375
  248MPD1    C5 3763   4.658   3.131   0.627  0.2596  0.2368 -0.7997
  248MPD1     H 3764   0.022   3.078   0.985 -0.0851  1.4851  0.8630
  248MPD1    H1 3765   4.474   3.210   0.691  0.4980  0.4364 -2.9352
  248MPD1    H2 3766   0.117   3.039   0.577 -0.1496  0.5941  0.1537
  248MPD1    H3 3767   4.627   3.140   0.523  0.8995  1.6274 -0.8624
  248MPD1     N 3768   4.519   3.177   0.967  0.4286  0.1171 -0.0887
  248MPD1    H5 3769   4.562   3.171   1.059  1.4288  0.5576 -0.5300
  248MPD1    N1 3770   0.217   3.022   0.821 -0.0749 -0.3713 -0.5628
  248MPD1    H6 3771   0.285   3.024   0.746  2.2356 -0.3840  1.5174
  248MPD1    H7 3772   0.254   3.041   0.914 -2.7574 -0.2961  0.4985
  249MPD1     C 3773   0.472   2.130   9.263  0.7805 -0.0783 -0.7166
  249MPD1    C1 3774   0.468   2.263   9.248 -0.0015 -0.9370 -0.2915
  249MPD1    C2 3775   0.568   2.338   9.313 -0.9470 -0.4246 -0.5068
  249MPD1    C3 3776   0.658   2.286   9.406  0.3770 -0.5362  0.2038
  249MPD1    C4 3777   0.657   2.146   9.424  0.3656 -0.4863 -1.1209
  249MPD1    C5 3778   0.556   2.079   9.360  0.8466 -0.2574  1.1118
  249MPD1     H 3779   0.560   2.446   9.306  2.0902 -0.2305 -0.8419
  249MPD1    H1 3780   0.733   2.091   9.478 -1.5460 -1.4654  0.5747
  249MPD1    H2 3781   0.402   2.066   9.212 -0.5062 -0.7821  1.9050
  249MPD1    H3 3782   0.565   1.972   9.372  4.4575  0.0800  1.2149
  249MPD1     N 3783   0.754   2.367   9.467  0.4673 -0.3275  0.2080
  249MPD1    H5 3784   0.754   2.465   9.440  1.3546 -0.7566 -1.3804
  249MPD1    N1 3785   0.404   2.325   9.142  0.1216 -0.2795 -0.4525
  249MPD1    H6 3786   0.313   2.280   9.148  0.2384 -0.1486  2.3107
  249MPD1    H7 3787   0.389   2.424   9.161  0.2600 -0.6920  1.8306
  250MPD2     C 3788   1.775   0.894  13.329 -0.3245  0.1766 -0.1604
  250MPD2    C1 3789   1.694   0.980  13.261 -0.8801  0.2100  0.2060
  250MPD2    C2 3790   1.567   0.932  13.220 -0.4514 -0.4378  0.1162
  250MPD2    C3 3791   1.517   0.803  13.255 -0.2729 -0.3846 -0.4988
  250MPD2    C4 3792   1.598   0.738  13.345  0.2399  0.8248  0.3220
  250MPD2    C5 3793   1.724   0.783  13.388  0.0075  0.2447  0.4576
  250MPD2     H 3794   1.503   0.997  13.161  1.3493  0.5421 -0.7576
  250MPD2    H1 3795   1.560   0.649  13.395  1.0007  1.6404  2.3272
  250MPD2    H2 3796   1.870   0.934  13.361 -0.1050 -0.5498  0.0944
  250MPD2    H3 3797   1.778   0.724  13.460 -1.0653 -1.3266 -0.0338
  250MPD2     N 3798   1.383   0.756  13.220 -0.2982  0.8684  0.1336
  250MPD2    H5 3799   1.351   0.670  13.262 -3.3171  1.6083 -0.6379
  250MPD2    N1 3800   1.759   1.093  13.201  0.2327 -0.1355  0.2219
  250MPD2    H7 3801   1.853   1.115  13.233 -0.3618  2.0234  0.5081
  251TMC3    C1 3802   1.778   1.314  13.109 -0.5982 -0.2638 -0.0948
  251TMC3    C2 3803   1.714   1.433  13.114 -0.0499 -0.2615 -0.0527
  251TMC3    C3 3804   1.795   1.538  13.091  0.3306  1.0017  0.9665
  251TMC3    C4 3805   1.913   1.297  13.083 -0.4011  0.2107  0.5963
  251TMC3    C5 3806   1.981   1.412  13.047  0.4640 -0.4611 -0.1955
  251TMC3    C6 3807   1.926   1.532  13.072 -0.1036 -0.1886 -0.2768
  251TMC3     C 3808   1.696   1.193  13.127 -0.2153  0.2157 -0.6591
  251TMC3     O 3809   1.581   1.211  13.098  0.7531  0.1211 -0.1028
  251TMC3     H 3810   1.609   1.444  13.137 -0.1513  0.7960 -1.0776
  251TMC3    H1 3811   1.948   1.196  13.067 -0.5422  0.5412 -1.8373
  251TMC3    H2 3812   1.973   1.627  13.050  0.1194 -0.4428 -0.8757
  251TMC3    C7 3813   2.103   1.387  12.978 -0.0539 -0.6129  0.6608
  251TMC3    C8 3814   1.744   1.675  13.124  0.3323  0.1822  0.2773
  251TMC3    O1 3815   2.143   1.270  12.954  0.1128  0.0566 -0.1997
  251TMC3    O2 3816   1.830   1.755  13.154 -0.4672 -0.1997  0.2556
  252TMC3    C1 3817   2.544   2.782   9.519 -0.4208 -0.8130 -0.5202
  252TMC3    C2 3818   2.621   2.883   9.461 -0.2854  1.4565  0.0451
  252TMC3    C3 3819   2.738   2.911   9.533  0.0074  0.2547  0.2025
  252TMC3    C4 3820   2.589   2.700   9.626  0.3158 -0.6056  0.2775
  252TMC3    C5 3821   2.708   2.727   9.680 -0.6381 -0.4251  0.0388
  252TMC3    C6 3822   2.779   2.836   9.644 -0.1263 -0.9551 -1.2925
  252TMC3     C 3823   2.410   2.760   9.469  1.0976 -0.0841  0.1290
  252TMC3     O 3824   2.395   2.790   9.352 -0.0895 -0.2180 -0.6753
  252TMC3     H 3825   2.592   2.934   9.370  0.9850  1.0191 -0.5993
  252TMC3    H1 3826   2.526   2.616   9.652 -1.4176  1.4124  2.5825
  252TMC3    H2 3827   2.874   2.861   9.691 -0.4685  0.0151 -1.1136
  252TMC3    C7 3828   2.710   2.694   9.824 -0.0463 -0.3503 -0.1489
  252TMC3    C8 3829   2.810   3.034   9.499 -0.8034 -0.7303 -0.9666
  252TMC3    O1 3830   2.741   2.781   9.900 -0.3511  0.1343  0.3716
  252TMC3    O2 3831   2.790   3.083   9.391  0.2858 -0.1092 -0.5788
  253MPD2     C 3832   3.075   1.405  15.387  0.6606  0.5407  0.5161
  253MPD2    C1 3833   2.974   1.315  15.363 -0.0158  0.1419 -0.0147
  253MPD2    C2 3834   2.902   1.277  15.473 -0.4231  0.5037 -0.1123
  253MPD2    C3 3835   2.927   1.333  15.598 -0.2725  0.1586  0.4177
  253MPD2    C4 3836   3.017   1.434  15.612 -0.1164 -0.2124  0.5986
  253MPD2    C5 3837   3.102   1.463  15.511  0.0821 -0.0659  0.1959
  253MPD2     H 3838   2.822   1.205  15.457  1.3255 -1.6072  0.6392
  253MPD2    H1 3839   3.045   1.479  15.706  0.2725 -1.1404  0.9243
  253MPD2    H2 3840   3.141   1.442  15.309 -1.7052  2.3150 -0.6201
  253MPD2    H3 3841   3.177   1.541  15.516 -0.8459  0.7664  0.8879
  253MPD2     N 3842   2.846   1.306  15.713  0.1766  0.2499  0.3719
  253MPD2    H5 3843   2.875   1.356  15.796 -0.0334  1.5543 -0.3444
  253MPD2    N1 3844   2.946   1.257  15.237 -0.3989 -0.1281 -0.1716
  253MPD2    H7 3845   2.868   1.193  15.244  0.2712 -0.9601 -0.2578
  254TMC3    C1 3846   2.697   1.200  15.855  0.5027  0.8206 -0.4775
  254TMC3    C2 3847   2.572   1.151  15.855  0.0588  0.5011 -0.8345
  254TMC3    C3 3848   2.533   1.090  15.971 -0.2299 -0.7411  0.3719
  254TMC3    C4 3849   2.782   1.187  15.956  0.0561  0.8526  0.6895
  254TMC3    C5 3850   2.733   1.129  16.071  0.2873 -0.0969  0.1262
  254TMC3    C6 3851   2.606   1.082  16.081 -0.6477 -0.2028  0.2641
  254TMC3     C 3852   2.750   1.212  15.718 -0.7257  0.2698 -0.6799
  254TMC3     O 3853   2.710   1.130  15.634  0.0354 -0.7758 -0.3890
  254TMC3     H 3854   2.505   1.154  15.770  0.3758  0.1273 -1.1010
  254TMC3    H1 3855   2.888   1.188  15.930  0.3115  0.8039  1.7163
  254TMC3    H2 3856   2.563   1.049  16.175  0.6625  0.7039  1.1678
  254TMC3    C7 3857   2.821   1.130  16.192 -0.0774  0.1296  0.4541
  254TMC3    C8 3858   2.386   1.056  15.992  0.7340 -0.6850  0.0871
  254TMC3    O1 3859   2.781   1.065  16.287  0.2105  0.0136  0.3441
  254TMC3    O2 3860   2.365   0.942  16.033  0.1026 -0.4587 -0.3160
  255MPD2     C 3861   1.577   4.516  10.272 -0.4861 -0.1706  0.1415
  255MPD2    C1 3862   1.673   4.536  10.179 -0.3174 -0.3031 -0.5267
  255MPD2    C2 3863   1.750   4.427  10.143  1.2461  0.7367  0.1426
  255MPD2    C3 3864   1.725   4.296  10.195 -0.5153 -0.1190 -0.5829
  255MPD2    C4 3865   1.616   4.277  10.282 -0.6752 -0.3796  0.7094
  255MPD2    C5 3866   1.545   4.391  10.323 -0.5863  0.3759 -0.5910
  255MPD2     H 3867   1.832   4.441  10.074  1.9317 -0.2850  0.7543
  255MPD2    H1 3868   1.606   4.185  10.340 -2.1897 -0.6129  0.0580
  255MPD2    H2 3869   1.516   4.602  10.298 -0.4909  0.3890 -1.7558
  255MPD2    H3 3870   1.455   4.387  10.383  0.3508  0.2824  0.7961
  255MPD2     N 3871   1.813   4.191  10.153  0.0084  0.1311 -0.2841
  255MPD2    H5 3872   1.881   4.220  10.083  1.8575 -0.2108  1.3498
  255MPD2    N1 3873   1.697   4.669  10.136  0.2640 -0.1355 -0.0503
  255MPD2    H7 3874   1.643   0.017  10.184  0.5840  0.9756 -1.3881
  256TMC3    C1 3875   1.788   4.635   9.917 -0.4367  0.8447  0.3146
  256TMC3    C2 3876   1.890   4.656   9.834 -0.0786 -0.1550 -0.3406
  256TMC3    C3 3877   1.868   4.635   9.702  0.4260  0.3551  0.1402
  256TMC3    C4 3878   1.666   4.580   9.878  0.0845 -0.0038  0.4248
  256TMC3    C5 3879   1.652   4.554   9.747  0.6001  0.7338 -1.2310
  256TMC3    C6 3880   1.759   4.567   9.656  0.3313  0.3589 -0.1203
  256TMC3     C 3881   1.786   4.710  10.042  0.8910  0.0186 -0.5395
  256TMC3     O 3882   1.848   0.093  10.041  0.1843 -0.1547  0.1331
  256TMC3     H 3883   1.972   4.716   9.871  0.1977  0.5197 -2.0276
  256TMC3    H1 3884   1.581   4.587   9.944 -0.1248 -0.2206  0.1760
  256TMC3    H2 3885   1.754   4.541   9.551 -0.2616  2.5150 -0.6412
  256TMC3    C7 3886   1.572   4.442   9.714  0.0592  0.2375  1.1552
  256TMC3    C8 3887   1.965   4.680   9.605 -0.0754  0.2245  0.1297
  256TMC3    O1 3888   1.572   4.416   9.594 -0.0485  0.7832  0.5282
  256TMC3    O2 3889   1.968   4.617   9.500  0.3006  0.3415 -0.2876
  257MPD2     C 3890   0.406   1.303  13.449 -0.1616 -0.2967  0.2831
  257MPD2    C1 3891   0.483   1.312  13.339 -0.3344  0.8383 -0.4702
  257MPD2    C2 3892   0.580   1.217  13.321 -0.5917 -0.3138  0.3184
  257MPD2    C3 3893   0.612   1.121  13.414 -0.2473 -0.4096  0.5517
  257MPD2    C4 3894   0.545   1.124  13.528 -0.0427  0.0600 -0.0671
  257MPD2    C5 3895   0.445   1.212  13.547 -0.4177 -0.1766 -0.9485
  257MPD2     H 3896   0.635   1.221  13.228  0.8792 -4.0499  1.0296
  257MPD2    H1 3897   0.566   1.056  13.610 -0.2300 -1.5771 -1.3529
  257MPD2    H2 3898   0.319   1.367  13.461  0.0832 -0.1539  1.2869
  257MPD2    H3 3899   0.389   1.216  13.640 -0.1559 -0.7251 -0.7699
  257MPD2     N 3900   0.720   1.031  13.394 -0.6657  0.1088 -0.2617
  257MPD2    H5 3901   0.769   1.043  13.306  1.4432 -0.5278  0.8209
  257MPD2    N1 3902   0.447   1.405  13.235 -0.2642 -0.2582 -0.2846
  257MPD2    H7 3903   0.365   1.463  13.251  0.5811  0.9395 -0.2957
  258TMC3    C1 3904   0.890   0.879  13.446 -0.0205  0.0311 -0.7181
  258TMC3    C2 3905   0.991   0.952  13.396 -0.2397 -0.1911 -0.2252
  258TMC3    C3 3906   1.118   0.909  13.405 -0.4964 -0.5252  0.7152
  258TMC3    C4 3907   0.915   0.767  13.517  0.2083  0.1411  0.8484
  258TMC3    C5 3908   1.045   0.725  13.527 -0.7068 -0.2238  0.1248
  258TMC3    C6 3909   1.147   0.798  13.477  0.1263 -0.3111 -0.2087
  258TMC3     C 3910   0.763   0.932  13.478  0.2103  0.1660 -0.3352
  258TMC3     O 3911   0.720   0.904  13.589 -0.5947  0.0730  0.1984
  258TMC3     H 3912   0.972   1.048  13.349  2.2253 -0.2259 -1.2908
  258TMC3    H1 3913   0.846   0.727  13.591  1.9232 -2.8031  0.8522
  258TMC3    H2 3914   1.248   0.769  13.502 -0.1618  1.2060  2.6923
  258TMC3    C7 3915   1.082   0.656  13.645  0.4265  0.4095 -0.5418
  258TMC3    C8 3916   1.238   1.005  13.400  0.4508  0.6157  0.0595
  258TMC3    O1 3917   1.179   0.703  13.702 -0.5072  0.0058  0.3325
  258TMC3    O2 3918   1.347   0.962  13.437  0.1923 -0.4656 -0.1667
  259MPD2     C 3919   4.102   2.925   1.135  0.5346  0.1314  0.0865
  259MPD2    C1 3920   4.228   2.886   1.167  0.2350 -0.0799 -0.0983
  259MPD2    C2 3921   4.315   2.852   1.065 -0.0142  0.0300  0.1347
  259MPD2    C3 3922   4.279   2.867   0.932 -0.0142  0.2048  0.3209
  259MPD2    C4 3923   4.162   2.933   0.903 -0.0216  0.8665 -0.1708
  259MPD2    C5 3924   4.075   2.965   1.007 -0.3024 -0.5962 -0.2331
  259MPD2     H 3925   4.413   2.813   1.087 -0.2065 -0.4577  0.1248
  259MPD2    H1 3926   4.125   2.953   0.803  1.2447 -1.6575 -1.1406
  259MPD2    H2 3927   4.024   2.938   1.209  1.0651  1.0505  0.4778
  259MPD2    H3 3928   3.975   2.994   0.975 -1.2825 -1.1344  2.3542
  259MPD2     N 3929   4.372   2.823   0.839 -0.2828  0.0693  0.3271
  259MPD2    H5 3930   4.464   2.796   0.874  0.0396  1.2141  0.3581
  259MPD2    N1 3931   4.263   2.863   1.304 -0.0780  0.2048  0.2636
  259MPD2    H7 3932   4.189   2.875   1.372 -0.7960 -1.8823 -0.1579
  260TMC3    C1 3933   4.482   2.786   0.636 -0.1252  0.0037  0.3516
  260TMC3    C2 3934   4.484   2.810   0.508  0.1464 -0.2803 -0.5762
  260TMC3    C3 3935   4.606   2.797   0.449 -0.1177  0.5782 -0.0383
  260TMC3    C4 3936   4.592   2.730   0.708  0.1419  0.2321  0.2352
  260TMC3    C5 3937   4.706   2.717   0.641 -0.0271 -0.3990  0.5400
  260TMC3    C6 3938   4.723   2.756   0.508  0.4892 -1.1266  0.2572
  260TMC3     C 3939   4.357   2.821   0.703  0.7173 -0.2016  0.1469
  260TMC3     O 3940   4.279   2.881   0.633  0.3343  0.4081  0.5143
  260TMC3     H 3941   4.397   2.826   0.445  0.0325  0.1477 -0.3118
  260TMC3    H1 3942   4.591   2.702   0.813  1.8561  0.9466  0.4473
  260TMC3    H2 3943   0.093   2.743   0.456  0.1318  1.0698 -0.9367
  260TMC3    C7 3944   0.029   2.582   0.644 -0.2117  0.4332 -0.5348
  260TMC3    C8 3945   4.604   2.763   0.307 -0.3653 -0.9091 -0.1321
  260TMC3    O1 3946   0.046   2.532   0.531 -0.0431 -0.0251 -0.9015
  260TMC3    O2 3947   4.521   2.807   0.228  0.1339 -0.3655 -0.1293
  261MPD2     C 3948   1.046   0.886  12.505 -0.3412 -0.7093  0.0547
  261MPD2    C1 3949   1.113   0.938  12.616  0.2912  0.3121 -0.1706
  261MPD2    C2 3950   1.210   1.034  12.585  0.2854  0.0365 -0.1450
  261MPD2    C3 3951   1.242   1.063  12.457 -0.2726  0.2591  0.3065
  261MPD2    C4 3952   1.191   0.996  12.356 -0.3654  0.6109  0.5013
  261MPD2    C5 3953   1.093   0.911  12.382  0.0868 -0.9677 -0.2348
  261MPD2     H 3954   1.268   1.088  12.660 -0.6647  1.0120 -0.1157
  261MPD2    H1 3955   1.208   1.029  12.254  2.5844 -1.5259  0.2754
  261MPD2    H2 3956   0.965   0.815  12.512  0.2027 -1.3070  0.2742
  261MPD2    H3 3957   1.032   0.870  12.302  2.2633 -0.9575 -1.8802
  261MPD2     N 3958   1.335   1.162  12.419 -0.3354 -0.3084  0.2049
  261MPD2    H5 3959   1.363   1.173  12.322 -0.9886 -2.6527 -0.2550
  261MPD2    N1 3960   1.093   0.892  12.750 -0.0992 -0.1273 -0.0688
  261MPD2    H7 3961   1.172   0.917  12.808  0.4401  1.1637 -1.3763
  262TMC3    C1 3962   1.447   1.357  12.427 -0.2319  0.0299 -0.5955
  262TMC3    C2 3963   1.424   1.480  12.480 -0.2266 -0.2070  0.1208
  262TMC3    C3 3964   1.468   1.578  12.399 -0.8115  0.1901 -0.0091
  262TMC3    C4 3965   1.508   1.321  12.311 -0.1573  0.3258  0.6449
  262TMC3    C5 3966   1.558   1.431  12.240 -0.3642 -0.7217 -0.0681
  262TMC3    C6 3967   1.543   1.561  12.283  0.0241 -0.4088 -0.4170
  262TMC3     C 3968   1.374   1.257  12.498 -0.4096  0.0861  0.4475
  262TMC3     O 3969   1.357   1.277  12.617 -0.1102  0.3669 -0.6338
  262TMC3     H 3970   1.377   1.499  12.576  0.6938  1.1338  0.3194
  262TMC3    H1 3971   1.529   1.224  12.267 -2.2100  0.8817 -1.5813
  262TMC3    H2 3972   1.561   1.649  12.223  1.9463 -0.7896 -0.3942
  262TMC3    C7 3973   1.605   1.400  12.108  0.2046 -0.1530  0.0757
  262TMC3    C8 3974   1.396   1.706  12.410 -0.1523 -0.1787  0.7955
  262TMC3    O1 3975   1.605   1.285  12.078  0.5398  0.1794  0.3583
  262TMC3    O2 3976   1.455   1.796  12.351 -0.3272 -0.2305 -0.6748
  263MPD2     C 3977   2.140   0.810  11.926  0.0809 -0.1566 -0.4245
  263MPD2    C1 3978   2.194   0.722  11.842  0.6242 -0.4301 -0.0330
  263MPD2    C2 3979   2.199   0.759  11.705  1.0843 -0.2071 -0.3673
  263MPD2    C3 3980   2.157   0.881  11.655 -0.2136  0.0681  0.3607
  263MPD2    C4 3981   2.110   0.974  11.750 -0.2401  1.0689 -0.0636
  263MPD2    C5 3982   2.110   0.940  11.882 -0.5113  0.4910  0.0378
  263MPD2     H 3983   2.238   0.679  11.642 -0.6634 -1.0200 -0.4156
  263MPD2    H1 3984   2.073   1.074  11.731 -2.5010 -0.1182 -1.8735
  263MPD2    H2 3985   2.140   0.802  12.034 -1.1428  0.0196 -0.4118
  263MPD2    H3 3986   2.076   1.016  11.951  1.6262  0.3547  1.2727
  263MPD2     N 3987   2.171   0.907  11.516 -0.4120  0.0285  0.5472
  263MPD2    H5 3988   2.222   0.836  11.464  0.8293  0.4935  1.1277
  263MPD2    N1 3989   2.245   0.606  11.904  0.0197 -0.1451 -0.2908
  263MPD2    H7 3990   2.208   0.584  11.996  0.9104 -1.6744 -0.2901
  264TMC3    C1 3991   2.164   1.023  11.310 -0.9085 -0.5269  0.0532
  264TMC3    C2 3992   2.166   1.147  11.250  0.5733 -0.4309 -0.0944
  264TMC3    C3 3993   2.241   1.152  11.134 -0.3051 -0.2650 -0.1617
  264TMC3    C4 3994   2.228   0.914  11.265  0.4293 -0.2216  0.1608
  264TMC3    C5 3995   2.307   0.920  11.152  0.2048 -0.3726  0.5065
  264TMC3    C6 3996   2.314   1.041  11.086 -0.2857  0.2634  0.9485
  264TMC3     C 3997   2.131   1.021  11.450 -0.0367  0.2166 -0.9382
  264TMC3     O 3998   2.066   1.115  11.492 -0.3777  0.0727  0.6948
  264TMC3     H 3999   2.118   1.229  11.303 -0.1746 -0.5089 -0.6483
  264TMC3    H1 4000   2.208   0.813  11.299  0.2163 -0.3905 -0.4832
  264TMC3    H2 4001   2.382   1.052  11.003 -1.3266 -1.2920 -0.1112
  264TMC3    C7 4002   2.369   0.808  11.094  0.9576 -0.7946  0.6376
  264TMC3    C8 4003   2.301   1.274  11.093 -0.6313  0.2426 -0.2747
  264TMC3    O1 4004   2.364   0.709  11.163 -0.4496  0.0684 -0.5873
  264TMC3    O2 4005   2.412   1.266  11.044 -0.1915  0.2337 -0.1082
  265MPD2     C 4006   4.706   1.354  15.725 -0.8992 -0.4613  0.4528
  265MPD2    C1 4007   4.593   1.292  15.680  0.4648  0.1587  0.6457
  265MPD2    C2 4008   4.600   1.197  15.579  0.4308 -0.1663 -0.2941
  265MPD2    C3 4009   4.720   1.146  15.535 -0.0975 -0.5796 -0.0449
  265MPD2    C4 4010   0.104   1.194  15.602  0.8885  0.2504  0.2727
  265MPD2    C5 4011   0.095   1.295  15.692 -0.1807 -0.5985  0.5568
  265MPD2     H 4012   4.512   1.152  15.533  0.9297 -1.8047  0.3520
  265MPD2    H1 4013   0.201   1.147  15.589  1.2677  1.8865 -2.8303
  265MPD2    H2 4014   4.706   1.448  15.778 -1.2896 -0.4631  0.4614
  265MPD2    H3 4015   0.191   1.334  15.726 -0.1530  0.9608 -1.3915
  265MPD2     N 4016   0.027   1.047  15.448 -0.7161  0.3183 -0.4224
  265MPD2    H5 4017   0.124   1.032  15.424 -1.0229 -2.3334  0.0370
  265MPD2    N1 4018   4.469   1.341  15.718  0.9561  0.3533 -0.7147
  265MPD2    H7 4019   4.387   1.315  15.664  1.2614 -0.0892 -0.9675
  266TMC3    C1 4020   4.323   1.492  15.831  0.4416  0.3307  0.5124
  266TMC3    C2 4021   4.279   1.527  15.953 -0.0564 -0.0289  0.2559
  266TMC3    C3 4022   4.145   1.564  15.960  0.3802  0.2426 -0.4232
  266TMC3    C4 4023   4.246   1.511  15.716  0.1254  0.5508  0.7068
  266TMC3    C5 4024   4.114   1.532  15.735 -0.9169  0.7440 -0.5454
  266TMC3    C6 4025   4.064   1.569  15.856  0.4325 -0.4128 -0.2876
  266TMC3     C 4026   4.449   1.412  15.829 -0.0098 -0.1054 -0.1870
  266TMC3     O 4027   4.518   1.411  15.930  0.5320  0.1975 -0.4235
  266TMC3     H 4028   4.351   1.527  16.034  2.0528  2.4057 -1.6552
  266TMC3    H1 4029   4.291   1.493  15.619  1.2240  2.8418  0.7818
  266TMC3    H2 4030   3.957   1.568  15.872  0.0555 -2.1790 -3.0188
  266TMC3    C7 4031   4.030   1.541  15.617 -0.0057  0.1310 -0.2893
  266TMC3    C8 4032   4.076   1.592  16.090  0.1340  0.2880  0.3749
  266TMC3    O1 4033   4.051   1.461  15.525  0.1292 -0.0235 -0.1785
  266TMC3    O2 4034   3.953   1.574  16.097 -0.2711  0.6967 -0.6134
  267MPD2     C 4035   2.605   2.216  17.387 -1.2660 -0.0802 -0.2630
  267MPD2    C1 4036   2.599   2.353  17.364  0.3225 -0.3524  0.3622
  267MPD2    C2 4037   2.475   2.412  17.361  0.7637  0.4222 -0.2129
  267MPD2    C3 4038   2.357   2.347  17.368 -0.1088  0.5510  0.0916
  267MPD2    C4 4039   2.370   2.211  17.389 -0.4037 -0.6046 -0.9580
  267MPD2    C5 4040   2.491   2.145  17.407  0.9838 -0.4858 -0.6555
  267MPD2     H 4041   2.465   2.520  17.363  0.0307  0.3799 -1.4889
  267MPD2    H1 4042   2.277   2.159  17.403 -0.4230  0.0197  1.1963
  267MPD2    H2 4043   2.707   2.183  17.401 -0.6553  1.7593 -0.3872
  267MPD2    H3 4044   2.495   2.043  17.445  3.0604 -0.2782 -0.3019
  267MPD2     N 4045   2.233   2.418  17.358 -0.2157 -0.2748 -0.9788
  267MPD2    H5 4046   2.149   2.365  17.374  0.5345 -1.0461  0.4387
  267MPD2    N1 4047   2.711   2.427  17.389 -0.4657 -0.4583  0.1824
  267MPD2    H7 4048   2.797   2.380  17.415 -1.7204 -2.0482  1.4340
  268TMC3    C1 4049   2.857   2.611  17.395  0.5222  0.2160 -0.0221
  268TMC3    C2 4050   2.879   2.744  17.362  0.3892 -0.7687  0.2028
  268TMC3    C3 4051   2.974   2.812  17.430  0.5556 -0.0721 -0.0547
  268TMC3    C4 4052   2.941   2.552  17.482  0.3232 -0.2949 -0.6378
  268TMC3    C5 4053   3.028   2.634  17.555  0.0658 -0.2579 -0.0844
  268TMC3    C6 4054   3.036   2.765  17.540 -0.3724 -0.6402  0.0784
  268TMC3     C 4055   2.722   2.561  17.374  0.2970  0.2646 -0.2308
  268TMC3     O 4056   2.650   2.637  17.319  0.3904 -0.3926 -0.2156
  268TMC3     H 4057   2.828   2.797  17.282  0.4555 -0.1692  0.5656
  268TMC3    H1 4058   2.933   2.450  17.517 -0.6782 -0.0991 -0.2835
  268TMC3    H2 4059   3.098   2.828  17.603 -0.4711 -0.1488 -0.3189
  268TMC3    C7 4060   3.058   2.585  17.686 -0.5210  0.2185  0.5926
  268TMC3    C8 4061   2.981   2.960  17.420 -0.5526 -0.2560 -0.2573
  268TMC3    O1 4062   3.091   2.470   0.011  0.3799  0.6051 -0.0906
  268TMC3    O2 4063   3.073   3.016  17.479  0.2670 -0.3486  0.0632
  269MPD2     C 4064   2.091   1.654  16.142  0.1695 -0.3410  0.3780
  269MPD2    C1 4065   1.995   1.664  16.042 -0.4674  0.6060  0.0326
  269MPD2    C2 4066   1.985   1.787  15.968  0.4822 -0.1073  0.5303
  269MPD2    C3 4067   2.067   1.892  15.995 -0.2082 -0.5622 -1.2974
  269MPD2    C4 4068   2.157   1.883  16.105  0.2239  0.3111 -0.1067
  269MPD2    C5 4069   2.159   1.766  16.180  0.3967  0.4892  0.2753
  269MPD2     H 4070   1.918   1.798  15.883  0.8546  2.9258  0.6100
  269MPD2    H1 4071   2.215   1.963  16.149  0.8493 -0.0605 -0.2686
  269MPD2    H2 4072   2.123   1.563  16.192 -1.9316  0.6918  3.6414
  269MPD2    H3 4073   2.228   1.758  16.264  0.6042 -2.7629 -0.2061
  269MPD2     N 4074   2.044   2.008  15.922 -0.2419  0.2849  0.6271
  269MPD2    H5 4075   1.977   2.006  15.846 -1.5167 -0.8926  1.7770
  269MPD2    N1 4076   1.927   1.546  15.998  0.0548  0.7327 -0.3898
  269MPD2    H7 4077   1.936   1.466  16.059 -2.5964  0.9289  0.2783
  270TMC3    C1 4078   1.788   1.396  15.865  0.4148 -0.3133  0.4189
  270TMC3    C2 4079   1.660   1.377  15.823  0.3633 -0.1648  0.1760
  270TMC3    C3 4080   1.606   1.252  15.817 -0.2377 -0.2987  0.0264
  270TMC3    C4 4081   1.867   1.293  15.906  0.1062 -0.2158 -0.0313
  270TMC3    C5 4082   1.816   1.168  15.897 -0.1096  0.2105 -0.6412
  270TMC3    C6 4083   1.690   1.149  15.851  0.5000 -0.4967  0.0564
  270TMC3     C 4084   1.837   1.536  15.885 -0.0626 -0.6063  0.3172
  270TMC3     O 4085   1.773   1.619  15.821  0.1045  0.4743 -0.4830
  270TMC3     H 4086   1.600   1.458  15.784  0.8308  1.3285  2.5898
  270TMC3    H1 4087   1.974   1.308  15.920 -0.0989 -1.4918  3.0009
  270TMC3    H2 4088   1.643   1.052  15.842  2.4998 -1.7583  3.1001
  270TMC3    C7 4089   1.918   1.064  15.894 -0.4766  0.7604  0.2534
  270TMC3    C8 4090   1.536   1.221  15.694  0.1713  0.0465  0.4823
  270TMC3    O1 4091   2.021   1.092  15.834 -0.3006 -0.0911 -0.0989
  270TMC3    O2 4092   1.432   1.279  15.665 -0.0554  0.1643 -0.3848
  271MPD2     C 4093   1.430   1.205  13.841  0.7899  0.1620 -0.1168
  271MPD2    C1 4094   1.409   1.266  13.962 -0.3580  0.2720 -0.3236
  271MPD2    C2 4095   1.315   1.363  13.966 -0.1706  0.5783 -0.2602
  271MPD2    C3 4096   1.233   1.406  13.862 -0.4672  0.7484 -0.1073
  271MPD2    C4 4097   1.252   1.341  13.740 -0.1211  0.6167 -0.0135
  271MPD2    C5 4098   1.351   1.241  13.731 -0.3428  0.4475 -0.3828
  271MPD2     H 4099   1.278   1.388  14.065  1.0057  1.5549 -0.0695
  271MPD2    H1 4100   1.194   1.367  13.653 -0.7406 -3.5651 -0.8464
  271MPD2    H2 4101   1.500   1.122  13.832 -0.3408 -0.6169 -1.6709
  271MPD2    H3 4102   1.362   1.190  13.637  4.0201  1.0072 -0.1808
  271MPD2     N 4103   1.127   1.499  13.872  0.3791  0.5447  0.1536
  271MPD2    H5 4104   1.070   1.517  13.791 -0.2330 -1.3368  0.1535
  271MPD2    N1 4105   1.481   1.232  14.083  0.0076 -0.1133 -0.3948
  271MPD2    H7 4106   1.466   1.288  14.166  1.4337 -0.3132 -0.0006
  272TMC3    C1 4107   1.643   1.143  14.229 -0.1227 -1.0761 -0.3178
  272TMC3    C2 4108   1.766   1.083  14.234  0.9014  0.3817  0.0261
  272TMC3    C3 4109   1.804   1.021  14.352 -0.1191 -0.6858  0.0561
  272TMC3    C4 4110   1.541   1.131  14.317  0.6058 -0.1001  1.0796
  272TMC3    C5 4111   1.588   1.076  14.429  0.1400 -0.0252 -0.3531
  272TMC3    C6 4112   1.710   1.024  14.452 -0.2585  0.5198 -0.3982
  272TMC3     C 4113   1.599   1.160  14.091  0.5934  0.2380  0.7540
  272TMC3     O 4114   1.671   1.112  14.008 -0.5740 -0.0006 -0.1954
  272TMC3     H 4115   1.839   1.102  14.156  2.2351 -0.4468  1.0820
  272TMC3    H1 4116   1.445   1.181  14.315  1.3200  1.1947 -1.3433
  272TMC3    H2 4117   1.737   0.993  14.552 -1.3767  1.5398  0.2132
  272TMC3    C7 4118   1.493   1.091  14.551 -0.1796  0.7833 -0.1226
  272TMC3    C8 4119   1.943   1.023  14.380 -0.2507  0.6714 -0.2619
  272TMC3    O1 4120   1.378   1.105  14.516 -0.1775  0.5096 -0.3161
  272TMC3    O2 4121   2.008   1.079  14.293 -0.2726 -0.3287 -0.0757
  273MPD2     C 4122   3.298   4.211  12.206 -0.0821  0.5780 -0.1526
  273MPD2    C1 4123   3.347   4.314  12.132  0.4697  0.6163 -0.2124
  273MPD2    C2 4124   3.327   4.310  11.996 -0.0594 -0.0008  0.0446
  273MPD2    C3 4125   3.251   4.220  11.928 -0.0925 -0.2751 -0.3625
  273MPD2    C4 4126   3.204   4.113  12.004 -0.0370  0.6005  0.2211
  273MPD2    C5 4127   3.236   4.109  12.140 -0.0763  0.8175  0.0556
  273MPD2     H 4128   3.355   4.400  11.941  0.2561  1.7951  3.1219
  273MPD2    H1 4129   3.146   4.037  11.953  2.3730 -0.6750 -0.6043
  273MPD2    H2 4130   3.306   4.200  12.314  2.4742  1.6786 -0.2260
  273MPD2    H3 4131   3.199   4.030  12.205 -2.2524 -0.0590 -2.2669
  273MPD2     N 4132   3.208   4.237  11.794 -0.0403 -0.1923  0.4444
  273MPD2    H5 4133   3.249   4.312  11.739  0.3513 -0.1594  0.7775
  273MPD2    N1 4134   3.408   4.429  12.194  0.1458  0.8468  1.0383
  273MPD2    H7 4135   3.388   4.440  12.293  0.9806  1.8991  1.0873
  274TMC3    C1 4136   3.062   4.263  11.620  0.0435  0.3697 -1.0943
  274TMC3    C2 4137   2.999   4.214  11.512 -1.1784 -0.2868 -0.0589
  274TMC3    C3 4138   2.973   4.310  11.417 -0.5110  0.0926  0.0907
  274TMC3    C4 4139   3.078   4.403  11.650 -0.1721 -0.1495 -0.2894
  274TMC3    C5 4140   3.038   4.489  11.551 -0.1313  0.9018  0.3722
  274TMC3    C6 4141   2.985   4.445  11.439  0.5853  0.7043  0.1537
  274TMC3     C 4142   3.106   4.172  11.720  0.0058 -0.7120  0.3846
  274TMC3     O 4143   3.038   4.077  11.749  0.2286  0.9670 -0.4408
  274TMC3     H 4144   2.990   4.107  11.499 -1.6185 -0.1717 -0.6808
  274TMC3    H1 4145   3.071   4.438  11.753 -1.4380 -0.3668 -0.2940
  274TMC3    H2 4146   2.975   4.515  11.356 -2.2688 -1.9578 -1.7770
  274TMC3    C7 4147   2.998   4.623  11.601  0.0958 -0.1162 -0.0979
  274TMC3    C8 4148   2.926   4.262  11.286 -0.6239  0.5577 -0.4129
  274TMC3    O1 4149   2.893   4.670  11.557 -0.1915 -0.1049 -0.2418
  274TMC3    O2 4150   2.837   4.177  11.281  0.2720 -0.6647 -0.6893
  275MPD2     C 4151   2.838   2.248  14.321 -0.3601 -0.5290  0.4242
  275MPD2    C1 4152   2.782   2.269  14.446 -0.1993  0.0784 -0.2276
  275MPD2    C2 4153   2.655   2.219  14.467 -0.4232 -0.3057  0.1100
  275MPD2    C3 4154   2.579   2.147  14.376  0.3131 -0.6335  0.6662
  275MPD2    C4 4155   2.633   2.129  14.252 -0.8331 -0.4445 -0.0146
  275MPD2    C5 4156   2.765   2.177  14.229  0.2376  0.0168 -0.0343
  275MPD2     H 4157   2.617   2.225  14.569 -1.6322 -0.9437 -0.2945
  275MPD2    H1 4158   2.582   2.079  14.171 -1.3593 -1.1569  0.7599
  275MPD2    H2 4159   2.931   2.295  14.294 -0.7930  0.4818  0.6733
  275MPD2    H3 4160   2.803   2.171  14.128 -1.9232  1.1224 -0.9270
  275MPD2     N 4161   2.444   2.101  14.398 -0.2318  0.6669  0.1105
  275MPD2    H5 4162   2.397   2.062  14.316  1.1282  1.6755 -1.1493
  275MPD2    N1 4163   2.852   2.346  14.544 -0.0447 -0.0299  0.1696
  275MPD2    H7 4164   2.819   2.350  14.640  0.3052 -1.7518  0.3498
  276TMC3    C1 4165   3.034   2.386  14.671  0.7500  0.4767 -0.2131
  276TMC3    C2 4166   2.993   2.282  14.757 -0.5600 -0.1590 -0.8561
  276TMC3    C3 4167   3.009   2.310  14.889  0.2028  0.2743 -0.4949
  276TMC3    C4 4168   3.088   2.505  14.706 -0.0623 -0.0367 -0.2497
  276TMC3    C5 4169   3.108   2.521  14.841  0.5925  0.8756 -0.3729
  276TMC3    C6 4170   3.068   2.430  14.929  0.4623 -0.4249  0.1252
  276TMC3     C 4171   2.982   2.383  14.535  0.4502 -0.1620 -0.2082
  276TMC3     O 4172   3.048   2.420  14.436  0.3395 -0.5405 -0.4795
  276TMC3     H 4173   2.942   2.194  14.720  0.0733 -0.7104 -0.4107
  276TMC3    H1 4174   3.099   2.584  14.632 -0.1979 -0.4780 -0.7476
  276TMC3    H2 4175   3.070   2.451  15.035 -0.7179  1.1044 -0.1614
  276TMC3    C7 4176   3.170   2.639  14.895 -0.5076 -0.3828 -0.2803
  276TMC3    C8 4177   3.019   2.203  14.982  0.1790  0.1064 -0.0011
  276TMC3    O1 4178   3.160   2.669  15.015  0.3996 -0.4962  0.3829
  276TMC3    O2 4179   3.086   2.235  15.079  0.2316 -0.5780  0.0838
  277MPD2     C 4180   0.120   1.247  13.308 -0.1744  0.1374 -0.5794
  277MPD2    C1 4181   0.028   1.321  13.386  0.9820  0.3045  0.3481
  277MPD2    C2 4182   4.674   1.260  13.478 -0.6936  0.7269  0.4831
  277MPD2    C3 4183   4.672   1.128  13.500 -0.4288 -0.9773  0.1939
  277MPD2    C4 4184   0.019   1.049  13.406  0.3971  0.1442 -0.3233
  277MPD2    C5 4185   0.111   1.109  13.317 -0.7629  0.3670 -0.1639
  277MPD2     H 4186   4.616   1.324  13.543 -1.7327  0.1082  0.1658
  277MPD2    H1 4187   0.010   0.942  13.397  0.2796  0.1918 -0.7438
  277MPD2    H2 4188   0.181   1.286  13.227 -1.0402  0.1841 -1.2114
  277MPD2    H3 4189   0.179   1.044  13.264 -1.1387  0.2634 -0.5152
  277MPD2     N 4190   4.614   1.076  13.618 -0.3641 -0.1231  0.2491
  277MPD2    H5 4191   4.575   1.138  13.688  1.2808 -0.9159  1.8587
  277MPD2    N1 4192   0.012   1.464  13.366  0.2329 -0.4498 -0.0080
  277MPD2    H7 4193   4.666   1.504  13.427 -1.2455  0.6663 -2.4554
  278TMC3    C1 4194   4.566   0.918  13.795  0.1048  0.2706  0.1475
  278TMC3    C2 4195   4.542   0.793  13.824 -0.0830 -0.7443  0.1714
  278TMC3    C3 4196   4.435   0.755  13.911  0.2511  0.5397 -1.0787
  278TMC3    C4 4197   4.481   1.018  13.845  0.2815  0.0150 -0.0152
  278TMC3    C5 4198   4.369   0.977  13.917 -0.2912 -0.5005 -0.4685
  278TMC3    C6 4199   4.347   0.852  13.960 -0.6630  0.3443  0.1903
  278TMC3     C 4200   4.632   0.946  13.660 -0.0883 -0.1383  0.2896
  278TMC3     O 4201   4.672   0.850  13.592 -0.3842  0.3610  0.4916
  278TMC3     H 4202   4.622   0.722  13.806 -0.1043 -1.3442  2.4772
  278TMC3    H1 4203   4.481   1.122  13.814 -2.0763  0.1480  0.4449
  278TMC3    H2 4204   4.276   0.829  14.039  0.7161  1.5612  1.7925
  278TMC3    C7 4205   4.303   1.088  13.980  0.3287  0.6411  0.5411
  278TMC3    C8 4206   4.399   0.616  13.913  0.3142 -0.4000  0.5301
  278TMC3    O1 4207   4.354   1.198  13.984 -0.1956 -0.1832 -0.1241
  278TMC3    O2 4208   4.487   0.534  13.888 -0.7047  0.7395  0.0402
  279MPD2     C 4209   3.924   0.911   0.532  0.1535 -0.7969 -0.0450
  279MPD2    C1 4210   3.889   1.038   0.504 -0.0263 -0.1289 -0.2663
  279MPD2    C2 4211   3.909   1.081   0.373  0.6765  0.4029 -0.3128
  279MPD2    C3 4212   3.953   1.005   0.270 -0.4422 -1.1346 -0.2981
  279MPD2    C4 4213   3.984   0.873   0.297  0.4753  0.5030 -0.0586
  279MPD2    C5 4214   3.959   0.832   0.428 -0.1206  0.2455 -0.3500
  279MPD2     H 4215   3.888   1.185   0.351  2.8295  0.8083 -0.5298
  279MPD2    H1 4216   4.016   0.798   0.225 -0.9586  0.0497 -0.2260
  279MPD2    H2 4217   3.902   0.857   0.624 -1.4158 -0.4471 -0.2176
  279MPD2    H3 4218   3.976   0.730   0.459  2.2408  0.3616 -1.2503
  279MPD2     N 4219   3.962   1.049   0.136  0.0547 -0.7173  0.2213
  279MPD2    H5 4220   3.995   0.980   0.070 -0.1484 -0.7170  0.1170
  279MPD2    N1 4221   3.832   1.117   0.610 -0.2040 -0.4059 -0.4924
  279MPD2    H7 4222   3.839   1.076   0.703  0.7354  0.0951 -0.3432
  280TMC3    C1 4223   3.709   1.290   0.490  0.2941  0.5424 -0.6747
  280TMC3    C2 4224   3.633   1.207   0.416  0.2762 -0.7490  0.6082
  280TMC3    C3 4225   3.599   1.248   0.294  0.1591  0.3740  0.1380
  280TMC3    C4 4226   3.723   1.429   0.466 -0.2506 -0.4611  0.9272
  280TMC3    C5 4227   3.663   1.471   0.353  0.2473  0.3634  0.2752
  280TMC3    C6 4228   3.612   1.384   0.258 -0.3812  0.3577 -0.4717
  280TMC3     C 4229   3.775   1.244   0.616 -0.2684 -0.1416 -0.0517
  280TMC3     O 4230   3.765   1.315   0.714 -0.2600 -0.5635  0.3414
  280TMC3     H 4231   3.642   1.103   0.445  1.0270 -0.6379  0.7622
  280TMC3    H1 4232   3.762   1.498   0.541 -2.5211  0.5807  1.1516
  280TMC3    H2 4233   3.584   1.413   0.158 -1.9888 -0.8753 -0.3886
  280TMC3    C7 4234   3.637   1.619   0.338 -0.4184  0.5058 -0.5675
  280TMC3    C8 4235   3.572   1.161   0.179 -0.4090 -0.2233  0.7354
  280TMC3    O1 4236   3.705   1.694   0.406 -0.1040 -0.3010  0.8679
  280TMC3    O2 4237   3.509   1.209   0.085 -0.2733 -0.5500 -0.0377
  281TMC3    C1 4238   2.543   1.178  12.839  0.5510  0.2410  0.5781
  281TMC3    C2 4239   2.509   1.198  12.711 -0.2428 -0.0619  0.0209
  281TMC3    C3 4240   2.408   1.124  12.668 -0.2452  0.7081  0.0138
  281TMC3    C4 4241   2.466   1.104  12.923  0.3943 -0.1432 -0.5693
  281TMC3    C5 4242   2.362   1.031  12.872  0.0977 -0.2918 -0.7562
  281TMC3    C6 4243   2.335   1.034  12.741 -0.0261 -0.7181 -0.1282
  281TMC3     C 4244   2.610   1.295  12.891  0.3240  0.0224  0.2407
  281TMC3     O 4245   2.728   1.316  12.867 -0.4854 -0.5060 -0.0479
  281TMC3     H 4246   2.563   1.267  12.647 -0.0898  1.5850  1.8973
  281TMC3    H1 4247   2.498   1.091  13.026  1.2671 -0.7546 -0.9159
  281TMC3    H2 4248   2.243   0.992  12.703 -0.6586 -0.2881  0.9121
  281TMC3    C7 4249   2.281   0.931  12.952 -0.1265  0.6874  0.2377
  281TMC3    C8 4250   2.356   1.157  12.535  0.5516  0.6598 -0.3365
  281TMC3    O1 4251   2.206   0.851  12.893  0.6584 -0.1442  0.2527
  281TMC3    O2 4252   2.358   1.071  12.453  0.2499  0.5361 -0.1322
  282MPD2     C 4253   4.576   3.058  15.005  0.1158 -0.7234  0.0683
  282MPD2    C1 4254   4.447   3.111  15.015  0.1446 -0.1377 -0.4260
  282MPD2    C2 4255   4.365   3.106  14.901 -0.5306  0.0162 -0.3062
  282MPD2    C3 4256   4.403   3.045  14.785  0.2735  0.0369  0.2919
  282MPD2    C4 4257   4.517   2.974  14.778 -0.7211 -0.2823 -0.4845
  282MPD2    C5 4258   4.603   2.985  14.888  0.0266 -0.1933  0.4102
  282MPD2     H 4259   4.268   3.154  14.910  0.3378  1.5003  1.1625
  282MPD2    H1 4260   4.543   2.911  14.694  3.1354  0.0271  0.4842
  282MPD2    H2 4261   4.648   3.063  15.086 -0.7501 -0.6338  0.8323
  282MPD2    H3 4262   4.696   2.928  14.886  0.4277  0.4359  1.1830
  282MPD2     N 4263   4.312   3.053  14.681  0.0085  0.0080  0.2478
  282MPD2    H5 4264   4.237   3.121  14.691 -0.2644 -0.6844  3.0478
  282MPD2    N1 4265   4.396   3.191  15.124  0.3514 -0.2688 -0.3344
  282MPD2    H7 4266   4.307   3.239  15.114  0.6488  0.7739  1.9691
  283TMC3    C1 4267   4.377   3.253  15.352 -0.3066  0.2187  0.1897
  283TMC3    C2 4268   4.425   3.357  15.427 -0.6158 -0.1733  0.2563
  283TMC3    C3 4269   4.332   3.415  15.513  0.5519 -0.4148 -0.3037
  283TMC3    C4 4270   4.247   3.211  15.356 -0.6052  0.4371 -0.0062
  283TMC3    C5 4271   4.167   3.264  15.448 -0.2403 -0.3410  0.1422
  283TMC3    C6 4272   4.201   3.372  15.527 -0.0501  0.2542  0.0825
  283TMC3     C 4273   4.459   3.215  15.241 -0.8959  0.3538 -0.5485
  283TMC3     O 4274   4.578   3.190  15.269 -0.0925 -0.5396  0.0452
  283TMC3     H 4275   4.528   3.383  15.405 -1.2553  2.3129  0.1894
  283TMC3    H1 4276   4.214   3.135  15.287  1.1612  0.0666 -0.4171
  283TMC3    H2 4277   4.129   3.417  15.594 -0.1132  0.8869 -0.4042
  283TMC3    C7 4278   4.029   3.211  15.469  0.2575 -0.3010  0.5409
  283TMC3    C8 4279   4.364   3.550  15.543 -0.1808  0.6250  0.2752
  283TMC3    O1 4280   3.952   3.271  15.541 -0.2322 -0.1459 -0.9240
  283TMC3    O2 4281   4.452   3.607  15.485 -0.1295  0.4245  0.0851
  284MPD2     C 4282   2.161   2.027  11.950 -0.6723 -0.3257  0.0878
  284MPD2    C1 4283   2.242   2.030  11.839 -0.0478 -0.3660  0.8266
  284MPD2    C2 4284   2.243   1.909  11.759  0.4963 -0.1391 -0.1225
  284MPD2    C3 4285   2.178   1.792  11.797 -0.8392 -0.5374  0.5223
  284MPD2    C4 4286   2.103   1.793  11.913  0.4667 -0.0231  1.2758
  284MPD2    C5 4287   2.086   1.915  11.978 -0.2084 -0.1821  1.2633
  284MPD2     H 4288   2.305   1.901  11.671  1.2007 -0.0715  0.3684
  284MPD2    H1 4289   2.045   1.705  11.937 -0.9623  0.0524 -1.9021
  284MPD2    H2 4290   2.154   2.113  12.016  0.3628  0.8509 -1.3158
  284MPD2    H3 4291   2.022   1.917  12.065  0.2067  0.6417  1.5614
  284MPD2     N 4292   2.181   1.665  11.730 -0.2180  0.1076  0.2818
  284MPD2    H5 4293   2.142   1.590  11.786  0.2210  0.9069  1.6653
  284MPD2    N1 4294   2.327   2.145  11.807  0.4013  0.1801  0.2658
  284MPD2    H7 4295   2.348   2.210  11.882  0.5298 -0.3416  0.6817
  285TMC3    C1 4296   2.474   2.276  11.693  0.5208 -1.0200 -0.6619
  285TMC3    C2 4297   2.565   2.266  11.789  0.1392 -0.0232 -0.2185
  285TMC3    C3 4298   2.669   2.363  11.779  0.7742  0.9713  0.4061
  285TMC3    C4 4299   2.471   2.381  11.605  0.9582 -0.4371 -0.1671
  285TMC3    C5 4300   2.562   2.485  11.613 -0.7849  0.3400  0.1223
  285TMC3    C6 4301   2.664   2.472  11.700  0.0806  0.6480 -0.3220
  285TMC3     C 4302   2.374   2.176  11.683 -0.2783 -0.0726  0.5166
  285TMC3     O 4303   2.340   2.134  11.574  0.4114  0.2040 -0.7478
  285TMC3     H 4304   2.568   2.179  11.854 -1.6131  1.5911  1.9895
  285TMC3    H1 4305   2.388   2.399  11.537  0.4562 -2.3611 -0.0496
  285TMC3    H2 4306   2.745   2.544  11.697  2.6466 -2.2041  0.1400
  285TMC3    C7 4307   2.593   2.563  11.490  0.4294 -0.9310  0.3857
  285TMC3    C8 4308   2.787   2.279  11.744  0.0097  0.3983 -0.4938
  285TMC3    O1 4309   2.677   2.651  11.511 -0.2444  0.1501  0.0149
  285TMC3    O2 4310   2.770   2.159  11.735  0.2153 -0.3917 -0.1174
  286MPD2     C 4311   2.846   0.737   0.900 -0.7193 -0.1344  0.4440
  286MPD2    C1 4312   2.890   0.810   1.010  0.5552 -0.2804  0.2572
  286MPD2    C2 4313   2.964   0.749   1.107  0.4970  0.4487 -0.3064
  286MPD2    C3 4314   3.007   0.617   1.088 -0.1107  0.1028  0.1931
  286MPD2    C4 4315   2.981   0.563   0.964 -0.2896  0.0631  0.2393
  286MPD2    C5 4316   2.903   0.617   0.870 -0.1149 -0.2494  0.3059
  286MPD2     H 4317   2.983   0.806   1.196  0.4021 -0.6177  0.3986
  286MPD2    H1 4318   3.022   0.465   0.946 -0.4423 -0.2274  1.4450
  286MPD2    H2 4319   2.763   0.775   0.842 -0.1070 -1.9636 -1.6263
  286MPD2    H3 4320   2.883   0.571   0.774 -0.5026 -0.4213  0.4693
  286MPD2     N 4321   3.087   0.542   1.171 -0.0109  0.3431  0.0959
  286MPD2    H5 4322   3.113   0.454   1.129 -3.1283 -0.0524 -0.9829
  286MPD2    N1 4323   2.849   0.945   1.026  0.1458  0.2553  0.0995
  286MPD2    H7 4324   2.865   0.993   1.114  2.9717  0.7579 -0.6742
  287TMC3    C1 4325   3.246   0.475   1.332  0.0710  0.0368  0.1059
  287TMC3    C2 4326   3.236   0.348   1.291  0.3346  0.0725 -0.6417
  287TMC3    C3 4327   3.336   0.260   1.306  0.0132  0.4353  0.3853
  287TMC3    C4 4328   3.371   0.515   1.382 -0.5745  1.0868 -0.0439
  287TMC3    C5 4329   3.474   0.428   1.401  0.2754 -0.8971 -0.7256
  287TMC3    C6 4330   3.459   0.295   1.367  0.2072  0.1389  0.3059
  287TMC3     C 4331   3.143   0.581   1.290  0.6402 -0.1388  0.4459
  287TMC3     O 4332   3.143   0.696   1.334 -0.0243 -0.0742  0.0903
  287TMC3     H 4333   3.144   0.303   1.256  0.0263 -1.2411  1.8260
  287TMC3    H1 4334   3.374   0.621   1.401  2.2896  1.3921 -2.1723
  287TMC3    H2 4335   3.531   0.217   1.390 -0.9697 -0.2484  2.6924
  287TMC3    C7 4336   3.569   0.475   1.492 -0.2335 -0.7078 -0.1630
  287TMC3    C8 4337   3.328   0.126   1.232  0.9101 -0.1014  0.2521
  287TMC3    O1 4338   3.567   0.597   1.507  0.2786  0.0650 -0.7189
  287TMC3    O2 4339   3.218   0.091   1.188  0.5032  0.0305 -0.0641
  288TMC3    C1 4340   0.220   0.859  14.441 -0.0751 -0.2900 -0.4625
  288TMC3    C2 4341   0.137   0.910  14.528  0.2426  0.3523  0.1073
  288TMC3    C3 4342   0.080   1.032  14.497  0.2328  0.1179  0.7054
  288TMC3    C4 4343   0.249   0.922  14.326  0.2748  0.1184  0.1705
  288TMC3    C5 4344   0.194   1.045  14.303 -0.7580  0.0196 -0.1856
  288TMC3    C6 4345   0.110   1.110  14.393  0.5940  0.3110  0.4794
  288TMC3     C 4346   0.321   0.766  14.495 -0.2568  0.2734 -0.4275
  288TMC3     O 4347   0.433   0.801  14.466 -0.2253 -0.4150  0.3295
  288TMC3     H 4348   0.122   0.857  14.621  1.3624 -1.0362 -0.5252
  288TMC3    H1 4349   0.319   0.881  14.255  0.5531 -0.5397  0.8247
  288TMC3    H2 4350   0.070   1.208  14.375  1.1654  0.1508 -1.6497
  288TMC3    C7 4351   0.218   1.109  14.175  0.2612  1.1352 -0.1494
  288TMC3    C8 4352   4.718   1.086  14.598  0.0388  0.1638 -0.4913
  288TMC3    O1 4353   0.318   1.082  14.113  0.0534 -0.5104  0.6299
  288TMC3    O2 4354   4.702   1.208  14.614 -0.1928  0.0900 -0.0626
  289MPD2     C 4355   0.204   4.553  14.562  0.4086 -0.3915  0.1048
  289MPD2    C1 4356   0.195   4.685  14.566 -0.3662 -0.0304 -0.1152
  289MPD2    C2 4357   0.077   0.018  14.514  0.2273  0.2442  0.3984
  289MPD2    C3 4358   4.699   4.665  14.471  0.3239  0.2475  0.5986
  289MPD2    C4 4359   4.715   4.526  14.466 -0.3147 -0.3382 -0.0765
  289MPD2    C5 4360   0.106   4.473  14.517 -0.3516  0.3464  0.1608
  289MPD2     H 4361   0.074   0.126  14.519 -0.7012  0.1536  1.8727
  289MPD2    H1 4362   4.644   4.467  14.408 -2.0470  0.8892  0.7969
  289MPD2    H2 4363   0.288   4.496  14.601  0.6636 -0.4675 -0.5677
  289MPD2    H3 4364   0.131   4.368  14.512  0.3410  0.6138 -1.7178
  289MPD2     N 4365   4.576   0.001  14.437  0.8360  0.2484 -0.2518
  289MPD2    H5 4366   4.520   4.659  14.385 -0.0074  0.6376  0.1611
  289MPD2    N1 4367   0.309   0.032  14.606 -0.2120  0.0861  0.4020
  289MPD2    H7 4368   0.389   4.700  14.635 -0.4977 -1.3323 -1.5073
  290TMC3    C1 4369   4.408   0.153  14.396  0.2086  0.1292 -0.0362
  290TMC3    C2 4370   4.396   0.281  14.361 -0.9757 -0.1160 -0.4444
  290TMC3    C3 4371   4.317   0.308  14.255 -0.6330  0.6226  0.0388
  290TMC3    C4 4372   4.340   0.047  14.340 -0.2513 -0.1050 -0.3205
  290TMC3    C5 4373   4.257   0.071  14.236  0.6240 -0.1460 -0.2914
  290TMC3    C6 4374   4.253   0.203  14.186 -0.5433 -0.7768 -0.0446
  290TMC3     C 4375   4.535   0.132  14.453 -0.0946 -0.4516 -0.7042
  290TMC3     O 4376   4.574   0.216  14.530  0.0916  0.1190 -0.2164
  290TMC3     H 4377   4.454   0.359  14.410 -0.1928 -0.6837 -0.4677
  290TMC3    H1 4378   4.347   4.675  14.390  0.0658  1.0216  1.7589
  290TMC3    H2 4379   4.182   0.222  14.107 -0.3782  0.0889  0.0116
  290TMC3    C7 4380   4.137   4.709  14.214 -0.0417 -0.2428  0.2658
  290TMC3    C8 4381   4.276   0.448  14.249 -0.0970 -0.8111  0.6827
  290TMC3    O1 4382   4.052   0.028  14.139 -0.0468  0.2350  0.4213
  290TMC3    O2 4383   4.371   0.526  14.255  0.5161 -0.7991  0.5421
  291MPD2     C 4384   3.542   4.217   0.575 -0.5659  0.3102  0.8660
  291MPD2    C1 4385   3.551   4.236   0.438  0.0264 -0.2180 -0.4692
  291MPD2    C2 4386   3.660   4.300   0.383  0.6805  0.6233 -0.2886
  291MPD2    C3 4387   3.762   4.345   0.461  0.2789 -0.2520  0.1520
  291MPD2    C4 4388   3.759   4.320   0.598 -0.3432  0.5887  0.1115
  291MPD2    C5 4389   3.644   4.263   0.652 -0.2793  0.2853  0.3277
  291MPD2     H 4390   3.673   4.304   0.276 -0.4719 -1.9311 -0.5403
  291MPD2    H1 4391   3.841   4.341   0.666 -0.6804 -1.7208  1.2309
  291MPD2    H2 4392   3.462   4.165   0.625 -0.3993 -1.1162 -0.3520
  291MPD2    H3 4393   3.635   4.241   0.758  2.6966  1.0633  0.7469
  291MPD2     N 4394   3.876   4.414   0.415  0.1394 -0.6369 -0.1641
  291MPD2    H5 4395   3.956   4.424   0.477  0.7692  2.7196 -1.4743
  291MPD2    N1 4396   3.445   4.185   0.359 -0.0021 -0.3507 -0.0329
  291MPD2    H7 4397   3.458   4.182   0.258  0.4656  2.2147 -0.0610
  292TMC3    C1 4398   3.208   4.161   0.295  0.6750 -0.1043  0.5044
  292TMC3    C2 4399   3.075   4.171   0.327  0.2874 -0.3205 -0.3070
  292TMC3    C3 4400   2.983   4.114   0.249 -0.1699  0.5490 -1.1231
  292TMC3    C4 4401   3.251   4.107   0.172  0.1262  0.0680 -0.3309
  292TMC3    C5 4402   3.151   4.058   0.096  0.5779  0.1903 -0.3923
  292TMC3    C6 4403   3.016   4.060   0.130  0.3670 -0.0661 -0.5010
  292TMC3     C 4404   3.310   4.172   0.405  0.1381 -0.0993 -0.3612
  292TMC3     O 4405   3.260   4.202   0.516  0.2599 -0.1112  0.1676
  292TMC3     H 4406   3.035   4.223   0.414 -0.1190  0.4169 -0.9290
  292TMC3    H1 4407   3.355   4.091   0.146 -0.5463 -1.0545 -2.3472
  292TMC3    H2 4408   2.941   4.015   0.066  2.4862 -1.4040 -2.0520
  292TMC3    C7 4409   3.196   3.929   0.046 -0.7242 -0.5895 -0.4259
  292TMC3    C8 4410   2.841   4.095   0.295  0.2352  0.2653  0.1773
  292TMC3    O1 4411   3.286   3.866   0.106 -0.6384  0.1896 -0.2380
  292TMC3    O2 4412   2.747   4.124   0.221 -0.5181  0.6163 -0.4268
  293MPD2     C 4413   1.010   1.349  12.667 -1.0455  0.0028  0.5714
  293MPD2    C1 4414   0.887   1.313  12.714  0.3684 -0.0694  1.1351
  293MPD2    C2 4415   0.848   1.355  12.842 -0.5354  0.3392 -0.1188
  293MPD2    C3 4416   0.931   1.445  12.912  0.5477 -0.3006 -0.1224
  293MPD2    C4 4417   1.063   1.468  12.864  0.5948  0.0170 -0.2414
  293MPD2    C5 4418   1.095   1.412  12.747  0.1661  0.3954 -0.4549
  293MPD2     H 4419   0.754   1.331  12.890 -1.7245  2.7334 -1.2297
  293MPD2    H1 4420   1.131   1.527  12.925  1.1292 -0.8197 -0.0365
  293MPD2    H2 4421   1.053   1.314  12.574 -0.9556 -2.1944  1.4535
  293MPD2    H3 4422   1.200   1.415  12.723 -0.0151  3.5618 -0.9371
  293MPD2     N 4423   0.893   1.478  13.044 -0.1742 -0.2505  0.5034
  293MPD2    H5 4424   0.807   1.434  13.076 -1.6034  3.1825  1.3060
  293MPD2    N1 4425   0.803   1.243  12.629 -0.5174 -0.3268 -0.3061
  293MPD2    H7 4426   0.855   1.229  12.543  0.2766  0.1574  0.0954
  294TMC3    C1 4427   0.604   1.146  12.528  0.7307  0.4290 -0.3026
  294TMC3    C2 4428   0.470   1.123  12.550  0.3434 -0.2549  0.0150
  294TMC3    C3 4429   0.412   1.030  12.470 -0.0425  0.9070  0.0165
  294TMC3    C4 4430   0.682   1.089  12.435 -0.0818  0.1541 -0.0205
  294TMC3    C5 4431   0.621   0.987  12.367  0.2824 -0.1780 -0.2072
  294TMC3    C6 4432   0.489   0.955  12.389 -0.3315 -0.6110  0.0375
  294TMC3     C 4433   0.673   1.206  12.643  1.1202  0.0557  0.1395
  294TMC3     O 4434   0.601   1.226  12.743 -0.5787  0.3694  0.1046
  294TMC3     H 4435   0.421   1.175  12.632  0.3429  0.2743 -0.3188
  294TMC3    H1 4436   0.789   1.102  12.425 -0.1531 -1.6444 -3.2530
  294TMC3    H2 4437   0.449   0.875  12.328 -0.0189  1.2503 -2.6083
  294TMC3    C7 4438   0.703   0.876  12.334 -0.2732  0.0655 -0.0191
  294TMC3    C8 4439   0.285   0.975  12.510 -0.0787 -0.4310  0.2305
  294TMC3    O1 4440   0.731   0.808  12.429  0.1071  0.0936  0.2440
  294TMC3    O2 4441   0.210   1.041  12.575  0.5317  0.1742  0.0714
  295MPD2     C 4442   2.101   4.653   0.665  1.0827  0.1034 -0.0482
  295MPD2    C1 4443   2.004   0.022   0.688  0.2440 -0.2010 -0.3696
  295MPD2    C2 4444   1.973   0.053   0.822  0.1339  0.2747  0.2505
  295MPD2    C3 4445   2.018   4.703   0.930 -0.2629 -0.0603  0.2214
  295MPD2    C4 4446   2.112   4.599   0.899 -0.4600  0.2010 -0.3529
  295MPD2    C5 4447   2.146   4.575   0.764  0.3723 -0.1943  0.2672
  295MPD2     H 4448   1.897   0.128   0.840 -2.1749 -1.2838 -3.1424
  295MPD2    H1 4449   2.167   4.535   0.966 -2.7199  0.4357  1.7204
  295MPD2    H2 4450   2.139   4.640   0.565 -0.4343  0.5763 -0.6767
  295MPD2    H3 4451   2.234   4.514   0.747  0.7294  0.2838  0.4164
  295MPD2     N 4452   1.982   0.005   1.058 -0.0315  0.6846 -0.2035
  295MPD2    H5 4453   1.919   0.082   1.073  0.1950  0.8083  0.1098
  295MPD2    N1 4454   1.920   0.084   0.588  0.2563 -0.3938 -0.3284
  295MPD2    H7 4455   1.842   0.139   0.621  0.1621 -0.4553 -0.4487
  296TMC3    C1 4456   1.945   4.706   1.285  0.7811 -0.1742 -0.4742
  296TMC3    C2 4457   1.996   4.674   1.409  0.2631  0.2163  0.3157
  296TMC3    C3 4458   1.907   4.681   1.516  0.6341  0.1163 -0.1435
  296TMC3    C4 4459   1.811   4.709   1.267  0.2564 -0.5563  0.3124
  296TMC3    C5 4460   1.728   4.707   1.372 -0.4682 -0.2710 -0.0168
  296TMC3    C6 4461   1.775   4.694   1.499 -0.0804 -0.2010 -0.4455
  296TMC3     C 4462   2.028   4.665   1.170 -0.2440 -0.3296  0.7869
  296TMC3     O 4463   2.102   4.567   1.185  0.2162 -0.7424 -0.0749
  296TMC3     H 4464   2.103   4.676   1.428  0.3878  4.1076 -0.6434
  296TMC3    H1 4465   1.769   4.698   1.168 -0.7512  3.1172  0.3309
  296TMC3    H2 4466   1.706   4.684   1.582 -1.0254 -0.7844 -1.3050
  296TMC3    C7 4467   1.590   4.710   1.347 -0.8306  0.6064 -0.2570
  296TMC3    C8 4468   1.939   4.590   1.627 -0.3585 -0.3550  0.5576
  296TMC3    O1 4469   1.563   0.003   1.230  0.3594  0.0550  0.1353
  296TMC3    O2 4470   1.853   4.530   1.688 -0.2439  0.0355 -0.2161
  297MPD2     C 4471   3.352   1.625  16.173 -0.2309 -0.2068 -0.4840
  297MPD2    C1 4472   3.334   1.758  16.134 -0.1169  0.7101 -0.1815
  297MPD2    C2 4473   3.406   1.857  16.194  0.4360  0.0529 -0.2874
  297MPD2    C3 4474   3.496   1.833  16.295 -0.0353 -0.0593 -0.4947
  297MPD2    C4 4475   3.508   1.705  16.338 -0.3001  0.2012  0.2912
  297MPD2    C5 4476   3.435   1.606  16.274  0.2362 -0.3231  0.3988
  297MPD2     H 4477   3.391   1.963  16.179 -0.1886  0.0374  0.2065
  297MPD2    H1 4478   3.574   1.678  16.420  0.3625 -0.5220 -0.4934
  297MPD2    H2 4479   3.296   1.548  16.121  0.8983  0.9371 -3.4123
  297MPD2    H3 4480   3.461   1.504  16.297 -0.3950 -0.9273 -1.5792
  297MPD2     N 4481   3.565   1.946  16.345  0.4706  0.6348 -0.1587
  297MPD2    H5 4482   3.547   2.033  16.296 -2.3248 -0.4235 -0.9643
  297MPD2    N1 4483   3.237   1.799  16.044  0.8386  0.0531 -0.4707
  297MPD2    H7 4484   3.229   1.899  16.031 -1.5084  0.0725  1.2534
  298TMC3    C1 4485   3.043   1.786  15.912  0.0433 -0.1527 -0.6315
  298TMC3    C2 4486   3.079   1.802  15.777  0.8440 -0.2936 -0.1201
  298TMC3    C3 4487   3.026   1.908  15.715  0.0862 -0.8011  0.1869
  298TMC3    C4 4488   2.962   1.870  15.981 -0.3415 -0.2232 -0.5714
  298TMC3    C5 4489   2.916   1.980  15.916  0.7260  0.0315  0.3505
  298TMC3    C6 4490   2.943   2.004  15.779  0.0703 -0.6954  0.3464
  298TMC3     C 4491   3.145   1.714  15.985 -0.1009 -0.5260 -0.0761
  298TMC3     O 4492   3.137   1.593  15.984 -0.6968 -0.1686 -0.1544
  298TMC3     H 4493   3.159   1.752  15.725  0.7096 -1.0932  0.4513
  298TMC3    H1 4494   2.921   1.842  16.077  0.0123  0.1947 -0.2981
  298TMC3    H2 4495   2.916   2.091  15.721  0.0200 -0.6388  0.4544
  298TMC3    C7 4496   2.827   2.072  15.988 -0.4204  0.1250 -0.0333
  298TMC3    C8 4497   3.109   1.955  15.610  0.4993 -0.0149 -0.8530
  298TMC3    O1 4498   2.808   2.053  16.106 -0.3266  0.1160  0.4135
  298TMC3    O2 4499   3.121   1.882  15.507  0.5943 -0.0675 -0.7173
  299MPD2     C 4500   4.363   2.155  10.089  0.1135 -0.4126  0.7321
  299MPD2    C1 4501   4.331   2.107  10.213 -0.2194 -0.2193  0.2456
  299MPD2    C2 4502   4.206   2.050  10.231  0.5359  0.9792 -0.2687
  299MPD2    C3 4503   4.116   2.052  10.121 -0.3467  0.4951 -0.2229
  299MPD2    C4 4504   4.152   2.097   9.998 -0.1549 -0.5288  0.0353
  299MPD2    C5 4505   4.275   2.163   9.987 -0.7699 -1.1447  0.2282
  299MPD2     H 4506   4.166   2.023  10.329  0.1739 -0.7396 -0.9003
  299MPD2    H1 4507   4.088   2.099   9.911 -1.9479  1.4462  1.4103
  299MPD2    H2 4508   4.460   2.201  10.073 -1.0705  1.0727 -2.1648
  299MPD2    H3 4509   4.305   2.204   9.892  0.3636 -0.5845  0.8265
  299MPD2     N 4510   3.988   1.996  10.131 -0.4837 -0.3481 -0.2619
  299MPD2    H5 4511   3.923   2.010  10.055  0.7014  1.6840 -0.8857
  299MPD2    N1 4512   4.421   2.133  10.318 -0.1138 -0.2139  0.1315
  299MPD2    H7 4513   4.511   2.169  10.287  1.0537 -2.0494  1.3880
  300TMC3    C1 4514   3.782   1.913  10.235 -0.7491 -0.0098  0.4680
  300TMC3    C2 4515   3.699   2.019  10.210  0.0593  0.0019 -0.3710
  300TMC3    C3 4516   3.574   2.016  10.265 -0.0836  0.1988  0.0613
  300TMC3    C4 4517   3.732   1.815  10.312 -0.0940 -0.7208  0.2439
  300TMC3    C5 4518   3.609   1.818  10.368  0.6100 -0.1040  0.2345
  300TMC3    C6 4519   3.521   1.926  10.351  0.3136 -0.1714  0.1782
  300TMC3     C 4520   3.929   1.925  10.236 -0.2414 -0.5915 -0.1531
  300TMC3     O 4521   3.980   1.878  10.332 -0.4727 -0.1696 -0.2948
  300TMC3     H 4522   3.729   2.101  10.145  0.6993  0.3434  0.3703
  300TMC3    H1 4523   3.787   1.724  10.333 -1.3615 -1.1759  1.5692
  300TMC3    H2 4524   3.414   1.929  10.367  0.2914  1.4839 -0.2923
  300TMC3    C7 4525   3.572   1.709  10.458 -0.1028 -0.4969 -0.2889
  300TMC3    C8 4526   3.518   2.150  10.278 -0.4637 -0.5375  0.3040
  300TMC3    O1 4527   3.627   1.599  10.443  0.5352  0.3167 -0.2063
  300TMC3    O2 4528   3.520   2.226  10.182 -0.3226 -0.6325  0.2348
  301MPD2     C 4529   1.617   2.795   1.527  0.1725  0.3112  0.2339
  301MPD2    C1 4530   1.551   2.793   1.404 -1.3042  0.6559 -0.1772
  301MPD2    C2 4531   1.566   2.679   1.325  0.5516 -0.1370 -0.2980
  301MPD2    C3 4532   1.663   2.584   1.351 -0.3919 -0.7013 -0.2389
  301MPD2    C4 4533   1.737   2.595   1.462 -0.0904  0.1756  0.0168
  301MPD2    C5 4534   1.699   2.689   1.553  0.6966 -1.2750 -0.2758
  301MPD2     H 4535   1.487   2.660   1.253 -0.5237 -0.9753  1.0927
  301MPD2    H1 4536   1.805   2.513   1.477  0.9211  0.9835 -0.1642
  301MPD2    H2 4537   1.595   2.867   1.605  0.1130  1.1760 -0.5653
  301MPD2    H3 4538   1.749   2.688   1.649 -0.3658 -0.8524  0.2893
  301MPD2     N 4539   1.699   2.482   1.267 -0.7986  0.3732 -0.0383
  301MPD2    H5 4540   1.771   2.417   1.296 -0.9693  0.0478 -0.3340
  301MPD2    N1 4541   1.452   2.881   1.360  0.2528  0.1198 -0.2177
  301MPD2    H7 4542   1.415   2.863   1.268  1.0414  1.0800 -0.7217
  302TMC3    C1 4543   1.687   2.344   1.081 -0.4248  0.2979  0.1325
  302TMC3    C2 4544   1.773   2.255   1.145 -0.3789  0.6403 -0.2473
  302TMC3    C3 4545   1.775   2.128   1.097 -0.2718 -0.1133  0.2737
  302TMC3    C4 4546   1.596   2.303   0.986 -0.0209  0.0563  0.6911
  302TMC3    C5 4547   1.604   2.179   0.934 -0.1084  0.6105 -0.0888
  302TMC3    C6 4548   1.694   2.088   0.990 -0.6501  0.8263  0.4523
  302TMC3     C 4549   1.645   2.473   1.145  0.0545  0.2167 -0.3648
  302TMC3     O 4550   1.553   2.528   1.092  0.1702  0.4261  0.0664
  302TMC3     H 4551   1.851   2.283   1.213  1.7438 -1.7010 -1.7255
  302TMC3    H1 4552   1.525   2.365   0.933  0.2688  1.3278  1.7708
  302TMC3    H2 4553   1.686   1.984   0.962  0.9621  0.4670  1.3553
  302TMC3    C7 4554   1.502   2.118   0.851  0.0676 -0.6042 -0.9935
  302TMC3    C8 4555   1.874   2.037   1.144 -0.0609 -0.0572  0.6917
  302TMC3    O1 4556   1.541   2.029   0.780  0.0739 -0.3129 -0.1980
  302TMC3    O2 4557   1.895   1.956   1.058  0.1342 -0.0527  0.2717
  303MPD2     C 4558   3.081   2.609   9.399 -0.4031 -0.3920 -0.3521
  303MPD2    C1 4559   3.190   2.582   9.322 -0.4573  0.2006  0.1084
  303MPD2    C2 4560   3.206   2.455   9.273 -0.4865 -0.0953 -0.5702
  303MPD2    C3 4561   3.120   2.355   9.312  0.2117  0.0489  0.0749
  303MPD2    C4 4562   3.019   2.375   9.392 -0.0782  0.3554 -0.0571
  303MPD2    C5 4563   2.996   2.509   9.436 -0.0843 -0.4759  0.2353
  303MPD2     H 4564   3.291   2.434   9.210 -1.1543 -2.0838 -0.8336
  303MPD2    H1 4565   2.958   2.289   9.416 -2.1726  1.4568 -1.3926
  303MPD2    H2 4566   3.067   2.713   9.428  3.3458 -0.3446  1.2790
  303MPD2    H3 4567   2.908   2.526   9.498  0.8277 -0.5429  1.5404
  303MPD2     N 4568   3.136   2.222   9.253 -0.5016  0.1067  0.8078
  303MPD2    H5 4569   3.081   2.152   9.303 -4.1823  1.6075 -1.1386
  303MPD2    N1 4570   3.277   2.687   9.284  0.4699 -0.2947  0.4461
  303MPD2    H7 4571   3.240   2.771   9.326  0.7541 -0.2657  0.6434
  304TMC3    C1 4572   3.451   2.807   9.178  0.2822 -0.0872  0.2002
  304TMC3    C2 4573   3.576   2.792   9.133 -0.4572 -0.1201 -0.3717
  304TMC3    C3 4574   3.620   2.873   9.035 -0.0015 -0.0330 -0.3325
  304TMC3    C4 4575   3.365   2.885   9.115  0.8464  0.2880  0.3480
  304TMC3    C5 4576   3.399   2.960   9.005  0.4397  0.1791  0.7925
  304TMC3    C6 4577   3.535   2.969   8.982  0.0052 -0.1469  0.4056
  304TMC3     C 4578   3.396   2.672   9.213  0.0491 -0.7218 -0.0087
  304TMC3     O 4579   3.464   2.579   9.171 -0.6354  0.2154 -0.1001
  304TMC3     H 4580   3.637   2.712   9.174 -0.0830  0.5716  0.4117
  304TMC3    H1 4581   3.260   2.874   9.136  0.1474  1.2417 -2.6516
  304TMC3    H2 4582   3.556   3.030   8.894 -0.1324 -1.0163 -0.2349
  304TMC3    C7 4583   3.303   2.939   8.897 -1.1068 -0.3577  0.0641
  304TMC3    C8 4584   3.681   2.811   8.918  0.1634 -0.3022  0.3463
  304TMC3    O1 4585   3.187   2.934   8.931 -0.4153  0.9706  0.0966
  304TMC3    O2 4586   3.653   2.847   8.805  0.0119 -0.4467 -0.0588
  305MPD2     C 4587   4.415   3.559  14.027 -0.3232 -0.4880  1.1874
  305MPD2    C1 4588   4.425   3.426  14.056 -0.0306 -0.5656 -0.2159
  305MPD2    C2 4589   4.423   3.337  13.946  0.2658  0.0203 -1.0333
  305MPD2    C3 4590   4.431   3.381  13.818  0.3317 -0.5867  0.0145
  305MPD2    C4 4591   4.428   3.515  13.800 -0.8655 -0.0961 -0.0249
  305MPD2    C5 4592   4.427   3.608  13.900  0.8428 -0.4533  0.1453
  305MPD2     H 4593   4.423   3.229  13.958 -1.6711  0.1603  0.2537
  305MPD2    H1 4594   4.431   3.547  13.696 -1.0343  1.3104  0.3974
  305MPD2    H2 4595   4.422   3.630  14.109  1.4322 -0.1200  0.7400
  305MPD2    H3 4596   4.415   3.715  13.891 -1.5216 -0.6584  1.0346
  305MPD2     N 4597   4.445   3.294  13.707 -0.1798 -0.1932 -0.7681
  305MPD2    H5 4598   4.460   3.341  13.618  0.3076 -0.2332 -0.7082
  305MPD2    N1 4599   4.433   3.387  14.191 -0.1266  0.0343  0.2275
  305MPD2    H7 4600   4.445   3.457  14.265  2.9669 -1.0480  0.7484
  306TMC3    C1 4601   4.500   3.262  14.371  0.1378  0.3416  0.4315
  306TMC3    C2 4602   4.612   3.194  14.408 -0.5927 -0.3149  0.5016
  306TMC3    C3 4603   4.660   3.209  14.533 -0.2960 -0.3794  0.2225
  306TMC3    C4 4604   4.420   3.330  14.460  0.1702 -0.4927  0.4217
  306TMC3    C5 4605   4.464   3.336  14.589  0.1429 -0.2032 -0.0214
  306TMC3    C6 4606   4.580   3.267  14.628 -0.2347 -0.3232 -0.5427
  306TMC3     C 4607   4.467   3.258  14.230  0.0653  0.2436 -0.7620
  306TMC3     O 4608   4.497   3.160  14.160 -0.5662  0.1084  0.0436
  306TMC3     H 4609   4.665   3.153  14.323 -1.1542  0.6568 -0.3200
  306TMC3    H1 4610   4.331   3.378  14.421  0.2821 -0.3292  0.3654
  306TMC3    H2 4611   4.604   3.265  14.734  0.3340  1.1441 -0.6504
  306TMC3    C7 4612   4.380   3.390  14.697  0.2071  0.1349 -0.7450
  306TMC3    C8 4613   0.036   3.112  14.561 -0.1251  0.1212 -0.1434
  306TMC3    O1 4614   4.260   3.365  14.697  0.2263  0.0248  0.3654
  306TMC3    O2 4615   0.065   3.027  14.472  0.5111 -0.3734 -0.6485
  307MPD2     C 4616   2.607   0.481   0.790 -0.2656  0.3754 -0.0557
  307MPD2    C1 4617   2.544   0.595   0.747  0.0761 -0.2240  0.2735
  307MPD2    C2 4618   2.442   0.646   0.824 -0.7033  0.3038  0.2045
  307MPD2    C3 4619   2.413   0.596   0.946  0.2166  0.2043 -0.0771
  307MPD2    C4 4620   2.485   0.485   0.993  0.0998  0.4832 -0.2689
  307MPD2    C5 4621   2.578   0.425   0.911 -0.0009  0.8375 -0.1016
  307MPD2     H 4622   2.389   0.733   0.789  0.9432 -0.4833 -4.1820
  307MPD2    H1 4623   2.473   0.438   1.089  3.8865 -0.4603 -0.2551
  307MPD2    H2 4624   2.687   0.436   0.732 -0.9531 -0.1346 -0.6089
  307MPD2    H3 4625   2.631   0.337   0.945 -0.4357  0.5847 -0.0729
  307MPD2     N 4626   2.310   0.670   1.021  0.0612 -0.1627 -0.2134
  307MPD2    H5 4627   2.278   0.753   0.973 -0.7095  0.8148  2.0457
  307MPD2    N1 4628   2.577   0.659   0.617  0.5767  0.2665 -0.2020
  307MPD2    H7 4629   2.533   0.749   0.603  0.5466  0.3950  0.6779
  308TMC3    C1 4630   1.931   0.732   1.254 -0.4208 -0.2213  0.2885
  308TMC3    C2 4631   1.946   0.869   1.239  0.3409  0.8289  0.5927
  308TMC3    C3 4632   2.066   0.927   1.203 -0.4314  0.4366  1.1899
  308TMC3    C4 4633   2.041   0.652   1.230 -0.6930 -0.1814  0.6817
  308TMC3    C5 4634   2.152   0.718   1.182  0.2405 -0.5940  0.4284
  308TMC3    C6 4635   2.168   0.852   1.155 -0.4353 -0.8619  0.3254
  308TMC3     C 4636   1.810   0.676   1.208  0.0419  0.3463  0.3576
  308TMC3     O 4637   1.754   0.580   1.259  0.4322  0.1699  0.3163
  308TMC3     H 4638   1.856   0.929   1.242 -0.4741 -0.3209 -0.8636
  308TMC3    H1 4639   2.026   0.546   1.242  0.2136 -0.4335 -0.3488
  308TMC3    H2 4640   2.264   0.889   1.121 -0.7445 -0.1459  0.2255
  308TMC3    C7 4641   2.256   0.630   1.141  0.4102  0.3216 -0.5581
  308TMC3    C8 4642   2.057   1.058   1.142  0.2253  0.6296  0.1912
  308TMC3    O1 4643   2.254   0.515   1.196  0.2697 -0.0904 -0.0293
  308TMC3    O2 4644   2.106   1.068   1.034  0.2267  0.5401  0.3891
  309MPD2     C 4645   1.566   1.329  17.246 -0.0873  0.3520  0.4173
  309MPD2    C1 4646   1.520   1.433  17.162 -0.9756 -0.4581 -0.0307
  309MPD2    C2 4647   1.426   1.513  17.221 -0.3888 -0.7232 -0.3243
  309MPD2    C3 4648   1.393   1.517  17.354  0.0618  0.3100  0.2972
  309MPD2    C4 4649   1.444   1.414  17.431  0.3364 -0.1939  0.6162
  309MPD2    C5 4650   1.532   1.322  17.377 -0.6929  0.4636 -0.0132
  309MPD2     H 4651   1.387   1.592  17.158  0.0466  1.3107  1.9357
  309MPD2    H1 4652   1.419   1.415  17.536 -1.3364 -0.9431  0.2368
  309MPD2    H2 4653   1.636   1.252  17.215  0.5048  1.3493 -0.7076
  309MPD2    H3 4654   1.577   1.243  17.437 -1.5734  1.1574  1.5802
  309MPD2     N 4655   1.297   1.596  17.418 -0.0052  0.0243  0.1007
  309MPD2    H5 4656   1.272   1.578  17.515 -0.7489 -0.8716 -0.2527
  309MPD2    N1 4657   1.563   1.473  17.028  0.1978 -0.9501  0.5833
  309MPD2    H7 4658   1.531   1.562  16.990  1.4788 -1.1715 -0.9895
  310TMC3    C1 4659   1.682   1.435  16.822 -0.9005  0.1949  0.2082
  310TMC3    C2 4660   1.674   1.565  16.776 -0.3987 -0.4512 -0.1186
  310TMC3    C3 4661   1.729   1.597  16.655 -0.5641 -0.8564 -0.5484
  310TMC3    C4 4662   1.745   1.338  16.745 -0.3792 -0.4363  0.0853
  310TMC3    C5 4663   1.814   1.379  16.636  0.2356 -0.2801  0.8187
  310TMC3    C6 4664   1.792   1.504  16.581 -1.0662  0.1364 -0.4991
  310TMC3     C 4665   1.654   1.399  16.958 -0.3738 -0.4838 -0.0403
  310TMC3     O 4666   1.711   1.294  16.993  0.4328 -0.3726 -0.0199
  310TMC3     H 4667   1.619   1.642  16.831 -2.3561 -2.1497  0.3149
  310TMC3    H1 4668   1.754   1.236  16.781  1.0067 -0.4395 -0.2649
  310TMC3    H2 4669   1.816   1.523  16.477  1.0946  0.0646 -0.0086
  310TMC3    C7 4670   1.896   1.273  16.571  0.5848 -0.1440 -0.2443
  310TMC3    C8 4671   1.678   1.711  16.584  1.4242  0.6472 -0.1546
  310TMC3    O1 4672   1.880   1.157  16.608 -0.5973  0.7521  0.5575
  310TMC3    O2 4673   1.575   1.757  16.628  0.1466  0.2124 -0.0736
  311MPD2     C 4674   3.391   2.737  12.725  0.2184 -0.8275 -0.2601
  311MPD2    C1 4675   3.389   2.874  12.714  0.2645  0.7575  0.2981
  311MPD2    C2 4676   3.267   2.932  12.718  0.2246 -0.2606 -0.0841
  311MPD2    C3 4677   3.152   2.855  12.744 -0.0625  0.9667  0.3681
  311MPD2    C4 4678   3.158   2.716  12.753 -0.5389 -0.6130 -0.3543
  311MPD2    C5 4679   3.279   2.659  12.755  0.4710 -0.3349  0.1277
  311MPD2     H 4680   3.253   3.039  12.707 -0.9647 -0.3104  0.9360
  311MPD2    H1 4681   3.070   2.652  12.751 -0.8177 -0.2377  0.0915
  311MPD2    H2 4682   3.483   2.679  12.729  0.0554 -0.9605  1.7077
  311MPD2    H3 4683   3.286   2.551  12.750 -1.3995 -0.2855 -3.4897
  311MPD2     N 4684   3.034   2.932  12.759  0.3339  0.3057 -1.0088
  311MPD2    H5 4685   3.037   3.032  12.745 -1.2240  0.4320 -0.3799
  311MPD2    N1 4686   3.506   2.960  12.696  0.5030 -0.0204  0.7459
  311MPD2    H7 4687   3.494   3.059  12.715  2.5614  0.4431 -0.3847
  312TMC3    C1 4688   2.809   2.976  12.804  0.1398  0.0101 -0.8863
  312TMC3    C2 4689   2.681   2.951  12.768 -0.3616  0.1653  0.6272
  312TMC3    C3 4690   2.587   3.043  12.811 -0.0369 -0.0780 -0.7141
  312TMC3    C4 4691   2.855   3.083  12.877 -0.2271  0.3573 -0.0464
  312TMC3    C5 4692   2.757   3.171  12.915  0.1201 -0.0684 -0.0197
  312TMC3    C6 4693   2.621   3.157  12.884  0.2789 -0.6127  0.4572
  312TMC3     C 4694   2.908   2.878  12.772 -0.1565 -0.1184  0.3069
  312TMC3     O 4695   2.873   2.763  12.768 -0.3684 -0.0191  0.3272
  312TMC3     H 4696   2.652   2.859  12.719  1.0071  0.6428 -1.0971
  312TMC3    H1 4697   2.956   3.105  12.910  0.0225 -2.1827  0.8938
  312TMC3    H2 4698   2.549   3.226  12.925  1.7155  1.2848 -0.1947
  312TMC3    C7 4699   2.774   3.229  13.045  0.0427 -0.2776 -0.1459
  312TMC3    C8 4700   2.452   3.020  12.782 -0.7877  0.9711 -0.1715
  312TMC3    O1 4701   2.686   3.306  13.080  0.1712 -0.4258 -0.4707
  312TMC3    O2 4702   2.418   2.903  12.749 -0.6192 -0.1687 -0.0194
  313MPD2     C 4703   2.671   2.124  10.879  0.5662  0.3930 -0.0921
  313MPD2    C1 4704   2.765   2.092  10.787 -0.4582 -0.1369  0.5774
  313MPD2    C2 4705   2.742   1.993  10.694  0.4977 -0.3496 -0.9717
  313MPD2    C3 4706   2.624   1.926  10.703 -0.7275 -0.2433 -0.1409
  313MPD2    C4 4707   2.523   1.962  10.793  0.9538  0.1050  0.0919
  313MPD2    C5 4708   2.551   2.061  10.884  0.6296  0.4713 -0.6600
  313MPD2     H 4709   2.816   1.960  10.622 -0.2527  0.3112 -2.0357
  313MPD2    H1 4710   2.439   1.895  10.811  1.2288 -0.6777 -1.5371
  313MPD2    H2 4711   2.680   2.204  10.952 -1.8423  0.7340 -0.1858
  313MPD2    H3 4712   2.475   2.074  10.960 -0.9124 -1.4054 -1.8729
  313MPD2     N 4713   2.610   1.837  10.596 -0.4380 -0.0630  0.2147
  313MPD2    H5 4714   2.684   1.813  10.530  0.5557  4.6931 -0.4404
  313MPD2    N1 4715   2.896   2.158  10.780  0.5713  0.1534 -0.1930
  313MPD2    H7 4716   2.945   2.154  10.691  1.0381  0.1383  0.0637
  314TMC3    C1 4717   3.023   2.362  10.813  0.2942 -0.1598  0.6316
  314TMC3    C2 4718   3.079   2.442  10.903  0.0662 -0.2431  0.2350
  314TMC3    C3 4719   3.113   2.570  10.863  0.2172  0.6659  0.4691
  314TMC3    C4 4720   3.004   2.400  10.683 -0.3588  0.0477  0.3228
  314TMC3    C5 4721   3.033   2.528  10.648  0.7746  0.2172  0.7269
  314TMC3    C6 4722   3.096   2.609  10.731 -0.3392 -0.1328  0.1707
  314TMC3     C 4723   2.936   2.258  10.869  0.2137 -0.2901  0.1034
  314TMC3     O 4724   2.904   2.257  10.985 -0.4381 -0.1164  0.4232
  314TMC3     H 4725   3.081   2.402  11.004  0.1799  0.9126  0.6874
  314TMC3    H1 4726   2.962   2.335  10.607 -1.5591  1.4246 -0.1915
  314TMC3    H2 4727   3.118   2.711  10.703 -0.4364 -1.0165 -3.0717
  314TMC3    C7 4728   3.006   2.576  10.513 -0.1367  0.0929 -0.1195
  314TMC3    C8 4729   3.190   2.656  10.942  0.0723  0.2152  0.9278
  314TMC3    O1 4730   2.949   2.495  10.446 -0.5099 -0.2482  0.0009
  314TMC3    O2 4731   3.235   2.759  10.893  0.5401 -0.2760 -0.1355
  315MPD2     C 4732   2.752   1.304  17.492 -0.4669  0.2014  0.5841
  315MPD2    C1 4733   2.861   1.337  17.573  1.0485  0.1874 -0.2643
  315MPD2    C2 4734   2.933   1.450  17.546  0.1620  0.3721 -0.2355
  315MPD2    C3 4735   2.894   1.539  17.449  0.2439 -0.2025  0.3111
  315MPD2    C4 4736   2.780   1.513  17.378  0.1570  0.5656 -0.4694
  315MPD2    C5 4737   2.710   1.397  17.399  1.2291 -1.0859 -0.0108
  315MPD2     H 4738   3.019   1.471  17.609  0.1929 -0.3503 -0.0345
  315MPD2    H1 4739   2.737   1.572  17.298 -0.7255 -0.0297 -0.4354
  315MPD2    H2 4740   2.691   1.215  17.500 -1.7017  1.0011 -0.0320
  315MPD2    H3 4741   2.619   1.367  17.348 -0.2254  0.7972  1.4899
  315MPD2     N 4742   2.976   1.647  17.414  0.2993 -0.3625 -0.1679
  315MPD2    H5 4743   3.063   1.661  17.462  0.0228 -2.3744  0.8887
  315MPD2    N1 4744   2.905   1.251  17.675  0.4902  0.7780 -0.7782
  315MPD2    H7 4745   2.995   1.279   0.016 -0.5063  0.7055  1.6177
  316TMC3    C1 4746   3.046   1.833  17.286 -0.6342  0.5960  0.4366
  316TMC3    C2 4747   3.152   1.850  17.371 -0.2765 -0.1390 -0.3810
  316TMC3    C3 4748   3.200   1.975  17.393 -0.0864 -0.6289  0.3710
  316TMC3    C4 4749   2.986   1.934  17.225  0.1816  0.7227 -0.3901
  316TMC3    C5 4750   3.050   2.054  17.243  0.1614 -0.2831 -0.6790
  316TMC3    C6 4751   3.163   2.077  17.313 -0.1562  0.1892  0.3876
  316TMC3     C 4752   2.954   1.721  17.301  0.7062 -0.5481 -0.3015
  316TMC3     O 4753   2.890   1.704  17.201  0.0117 -0.1835  0.1119
  316TMC3     H 4754   3.196   1.765  17.422  0.5120 -0.1319 -1.0508
  316TMC3    H1 4755   2.910   1.920  17.149 -0.5554  0.5091  0.3717
  316TMC3    H2 4756   3.205   2.175  17.297 -0.6449  0.0933 -1.4839
  316TMC3    C7 4757   2.974   2.184  17.236 -0.9427  0.4912 -0.2888
  316TMC3    C8 4758   3.306   2.004  17.486 -0.1261 -0.4333  0.7271
  316TMC3    O1 4759   2.997   2.265  17.325 -0.0489 -0.1602  0.8322
  316TMC3    O2 4760   3.339   2.118  17.504  0.5935  0.3159 -0.1960
  317MPD2     C 4761   4.460   0.322  12.767  1.0902  0.1338 -0.6078
  317MPD2    C1 4762   4.509   0.197  12.715 -0.0981 -0.4942 -0.0320
  317MPD2    C2 4763   4.561   0.107  12.804  0.1767 -0.0257 -0.3305
  317MPD2    C3 4764   4.565   0.134  12.940 -0.4089  0.4065 -0.5689
  317MPD2    C4 4765   4.516   0.258  12.989  0.0261  0.3622  0.3923
  317MPD2    C5 4766   4.460   0.350  12.899 -0.3695 -0.2173 -0.0033
  317MPD2     H 4767   4.588   0.010  12.764  0.1609 -0.7612  1.4397
  317MPD2    H1 4768   4.522   0.276  13.096  0.2227 -0.6949  0.5504
  317MPD2    H2 4769   4.411   0.389  12.698  1.4828 -0.7088 -1.7160
  317MPD2    H3 4770   4.411   0.438  12.939 -0.7242 -0.2749 -0.3073
  317MPD2     N 4771   4.627   0.030  13.020  0.0705  0.4978 -0.1408
  317MPD2    H5 4772   4.636   4.658  12.988  0.1023  0.3093  0.4322
  317MPD2    N1 4773   4.511   0.154  12.579  0.0710  0.7135 -0.2036
  317MPD2    H7 4774   4.542   0.059  12.561  0.9986  1.1605 -1.0283
  318TMC3    C1 4775   4.713   4.660  13.222  0.2287 -0.4801  0.2607
  318TMC3    C2 4776   4.664   4.530  13.204  0.5157  0.4575 -0.0557
  318TMC3    C3 4777   4.704   4.426  13.281  0.6505  0.1948 -0.4154
  318TMC3    C4 4778   0.076   4.676  13.326  0.0686  1.1658 -0.8231
  318TMC3    C5 4779   0.129   4.563  13.394 -0.6151 -0.5285 -0.4482
  318TMC3    C6 4780   0.093   4.435  13.353 -0.3902 -0.1645 -0.2194
  318TMC3     C 4781   4.671   0.052  13.150 -0.9859 -0.2663 -0.5837
  318TMC3     O 4782   4.717   0.157  13.196  0.4485  0.0002  0.7752
  318TMC3     H 4783   4.585   4.522  13.131  0.6148  0.6753 -0.1850
  318TMC3    H1 4784   0.120   0.048  13.351 -0.1347  1.0345  0.0475
  318TMC3    H2 4785   0.146   4.348  13.390 -0.8843 -0.2674  0.2412
  318TMC3    C7 4786   0.213   4.587  13.511 -0.1017  0.3417  0.0756
  318TMC3    C8 4787   4.641   4.294  13.258  0.3651  0.1565  0.4132
  318TMC3    O1 4788   0.204   4.698  13.559 -0.0656  0.6983  0.5996
  318TMC3    O2 4789   4.709   4.198  13.290 -0.3259  0.3689  0.2480
  319MPD2     C 4790   0.737   0.871  16.120  0.1111 -0.7570  0.3074
  319MPD2    C1 4791   0.725   0.991  16.190  0.4917 -0.0079 -0.1842
  319MPD2    C2 4792   0.647   1.096  16.138 -0.0682  0.0119  0.1774
  319MPD2    C3 4793   0.569   1.067  16.019  0.4832 -0.1813  0.8068
  319MPD2    C4 4794   0.579   0.943  15.960  0.0810 -0.6030  0.1936
  319MPD2    C5 4795   0.674   0.856  16.002  0.2432  0.6780  0.0187
  319MPD2     H 4796   0.633   1.189  16.193 -1.6089  0.1646 -0.4879
  319MPD2    H1 4797   0.521   0.910  15.875 -1.1042 -0.6242  1.0015
  319MPD2    H2 4798   0.810   0.795  16.143 -1.8176 -2.8597 -0.4934
  319MPD2    H3 4799   0.678   0.758  15.955 -0.0132  0.9900 -0.6631
  319MPD2     N 4800   0.464   1.152  15.979 -0.1513 -0.5078 -0.6734
  319MPD2    H5 4801   0.393   1.119  15.914 -1.7022 -1.5709  1.5623
  319MPD2    N1 4802   0.778   1.012  16.315 -0.1340  1.2367 -0.1656
  319MPD2    H7 4803   0.759   1.103  16.356 -3.8625 -0.2146  1.2827
  320TMC3    C1 4804   0.300   1.288  16.005  0.4939 -0.0062  0.4663
  320TMC3    C2 4805   0.258   1.420  15.993 -0.1541  0.5085 -0.6092
  320TMC3    C3 4806   0.133   1.448  16.038 -0.4815  0.4060 -0.2680
  320TMC3    C4 4807   0.220   1.197  16.069 -0.5339 -0.0941 -0.4562
  320TMC3    C5 4808   0.093   1.230  16.103 -0.0645  0.3920 -0.2372
  320TMC3    C6 4809   0.047   1.362  16.089 -0.2111 -0.0546  0.7533
  320TMC3     C 4810   0.436   1.272  16.023  0.0968 -0.1626  0.4973
  320TMC3     O 4811   0.502   1.350  16.080 -0.3704  0.1977  0.2038
  320TMC3     H 4812   0.330   1.494  15.960 -0.4534  0.6112 -1.0303
  320TMC3    H1 4813   0.259   1.097  16.085  0.2351  0.1039 -1.1078
  320TMC3    H2 4814   4.680   1.396  16.139  0.8717  1.5412  1.6477
  320TMC3    C7 4815   0.007   1.124  16.135 -0.2630  0.3318  0.2705
  320TMC3    C8 4816   0.083   1.578  15.998 -0.6574  0.6475 -0.5028
  320TMC3    O1 4817   0.067   1.020  16.161 -0.1896 -0.5441 -0.4003
  320TMC3    O2 4818   0.146   1.644  15.916  0.1962 -0.1311  0.5105
  321TMC3    C1 4819   0.885   0.972  16.525  0.1995  0.0547 -0.6799
  321TMC3    C2 4820   0.876   0.872  16.614  0.5458 -0.3621 -0.4632
  321TMC3    C3 4821   0.829   0.900  16.742  0.5051 -0.3366  1.2460
  321TMC3    C4 4822   0.875   1.105  16.556  0.7354 -0.1377 -0.0814
  321TMC3    C5 4823   0.819   1.130  16.676  0.4593 -0.0868 -0.1268
  321TMC3    C6 4824   0.796   1.029  16.765 -0.1027 -0.0732 -0.3434
  321TMC3     C 4825   0.861   0.930  16.384  0.4207  0.0019  0.4018
  321TMC3     O 4826   0.908   0.821  16.356  0.7160  0.1965 -0.1187
  321TMC3     H 4827   0.882   0.773  16.571  0.3732  0.0691 -1.4836
  321TMC3    H1 4828   0.924   1.185  16.501  1.6959 -1.1388 -0.6675
  321TMC3    H2 4829   0.778   1.049  16.870  2.2890 -2.1920  0.4655
  321TMC3    C7 4830   0.873   1.249  16.735  0.7003 -0.7002  0.5694
  321TMC3    C8 4831   0.901   0.846  16.846 -0.4547 -0.2415 -0.0986
  321TMC3    O1 4832   0.809   1.350  16.717 -0.0355 -0.3784 -0.0843
  321TMC3    O2 4833   1.006   0.905  16.860 -0.2971 -0.4309  0.3096
  322MPD2     C 4834   4.354   2.676  13.810  0.2212 -0.2101 -0.3162
  322MPD2    C1 4835   4.369   2.598  13.923  0.6948 -0.1528  0.1373
  322MPD2    C2 4836   4.380   2.457  13.911  0.6457  0.2911 -0.0027
  322MPD2    C3 4837   4.368   2.397  13.786 -0.6816 -0.3710 -0.1327
  322MPD2    C4 4838   4.349   2.472  13.669  0.1919 -0.7536 -0.0665
  322MPD2    C5 4839   4.351   2.609  13.688  0.3841 -0.2491 -0.0779
  322MPD2     H 4840   4.396   2.393  13.997 -0.5905 -1.9851 -1.4597
  322MPD2    H1 4841   4.334   2.427  13.571 -0.7274 -2.4630  0.8625
  322MPD2    H2 4842   4.338   2.783  13.811 -0.1781 -0.2668 -1.2728
  322MPD2    H3 4843   4.343   2.679  13.606 -1.7340 -0.2594  0.1156
  322MPD2     N 4844   4.381   2.253  13.780 -0.2418  0.6925 -0.0160
  322MPD2    H5 4845   4.413   2.198  13.860  2.0717 -0.4742 -1.7273
  322MPD2    N1 4846   4.382   2.664  14.048  0.9044  0.2657 -0.1367
  322MPD2    H7 4847   4.374   2.765  14.051 -0.5931  0.1308  0.1846
  323TMC3    C1 4848   4.469   2.686  14.268  0.9764 -0.5347  0.1966
  323TMC3    C2 4849   4.549   2.785  14.216  0.8268  0.3704  0.1817
  323TMC3    C3 4850   4.659   2.820  14.293  1.1839  0.6386 -0.4686
  323TMC3    C4 4851   4.501   2.618  14.378 -0.7736  0.0738  0.1253
  323TMC3    C5 4852   4.614   2.652  14.449 -0.3783 -0.1768  0.1720
  323TMC3    C6 4853   4.699   2.746  14.402  0.2437 -0.0510  0.1428
  323TMC3     C 4854   4.406   2.605  14.168  0.4082  0.2918  0.2261
  323TMC3     O 4855   4.386   2.488  14.191  0.0550  0.5006  0.2057
  323TMC3     H 4856   4.540   2.827  14.116  0.2504  1.3292  0.6381
  323TMC3    H1 4857   4.434   2.537  14.404 -0.2002 -0.0563  1.1752
  323TMC3    H2 4858   0.068   2.773  14.451 -0.3719 -0.4560  1.5207
  323TMC3    C7 4859   4.663   2.571  14.552 -0.4507  0.0073  0.3888
  323TMC3    C8 4860   0.037   2.880  14.212 -0.4417 -0.9398 -0.3964
  323TMC3    O1 4861   0.058   2.574  14.561  0.0578 -0.2884  0.0922
  323TMC3    O2 4862   0.144   2.830  14.227  0.2440  0.2215  0.4102
  324MPD2     C 4863   1.261   2.887  14.368 -0.2422 -0.4036  0.0623
  324MPD2    C1 4864   1.269   3.007  14.307  0.1523 -0.5294  0.0137
  324MPD2    C2 4865   1.158   3.063  14.253  0.0437 -0.7250 -0.0331
  324MPD2    C3 4866   1.034   3.011  14.286  0.2526  0.0499 -0.3571
  324MPD2    C4 4867   1.028   2.898  14.360 -0.1126  0.3202  0.5651
  324MPD2    C5 4868   1.143   2.832  14.395  0.8361 -0.2842  0.4110
  324MPD2     H 4869   1.179   3.154  14.198 -0.8350  0.2473  1.2391
  324MPD2    H1 4870   0.930   2.855  14.381  1.2442 -2.3350  1.4187
  324MPD2    H2 4871   1.350   2.827  14.387 -0.3226 -0.5617 -0.0589
  324MPD2    H3 4872   1.138   2.741  14.453  1.6264 -1.1017 -0.7973
  324MPD2     N 4873   0.912   3.084  14.263 -0.1383 -0.4455 -0.0892
  324MPD2    H5 4874   0.829   3.045  14.307  1.4053 -3.1173  0.4712
  324MPD2    N1 4875   1.394   3.076  14.294  0.6469 -0.6199 -0.0026
  324MPD2    H7 4876   1.400   3.159  14.236 -1.9342 -1.0039 -0.8144
  325TMC3    C1 4877   0.769   3.252  14.176 -0.5929 -0.3734  0.2938
  325TMC3    C2 4878   0.710   3.288  14.058 -0.4443 -0.6914  0.2958
  325TMC3    C3 4879   0.608   3.376  14.058 -0.0290 -0.3192 -0.1039
  325TMC3    C4 4880   0.743   3.317  14.290  0.5858 -0.1790 -0.5538
  325TMC3    C5 4881   0.652   3.415  14.287  0.3451  0.1513  0.0844
  325TMC3    C6 4882   0.573   3.443  14.176 -0.5974 -0.2382  0.0887
  325TMC3     C 4883   0.896   3.190  14.175  1.1208  0.6302 -0.2984
  325TMC3     O 4884   0.974   3.208  14.082 -0.3705 -0.3869  0.2158
  325TMC3     H 4885   0.744   3.239  13.967 -1.5873 -1.4241  0.2675
  325TMC3    H1 4886   0.807   3.301  14.376 -0.8256  0.1283  0.5325
  325TMC3    H2 4887   0.483   3.504  14.182  0.1784  0.9656 -0.4940
  325TMC3    C7 4888   0.647   3.510  14.399 -0.0302  0.3172  0.5613
  325TMC3    C8 4889   0.542   3.405  13.932 -0.4127 -0.0461  0.0963
  325TMC3    O1 4890   0.723   3.492  14.491 -0.5374  0.4330 -0.3029
  325TMC3    O2 4891   0.560   3.315  13.845  0.4237 -0.4712  0.7956
  326MPD2     C 4892   2.410   4.348  11.372  0.7424 -0.1138 -0.0063
  326MPD2    C1 4893   2.445   4.386  11.244 -0.6631 -0.0144 -0.5365
  326MPD2    C2 4894   2.549   4.477  11.231 -0.2517 -0.2762  0.3082
  326MPD2    C3 4895   2.621   4.527  11.333 -0.2348 -0.3543 -0.1184
  326MPD2    C4 4896   2.601   4.477  11.461 -0.1152 -0.1971 -0.0505
  326MPD2    C5 4897   2.491   4.398  11.478  0.0210  0.6333  0.0401
  326MPD2     H 4898   2.561   4.507  11.127  0.8289 -2.0470 -0.0856
  326MPD2    H1 4899   2.659   4.500  11.550 -0.8188  1.5413 -0.0466
  326MPD2    H2 4900   2.327   4.283  11.394  0.5765 -0.2268 -0.9728
  326MPD2    H3 4901   2.476   4.349  11.573  0.1541  0.2387 -0.1425
  326MPD2     N 4902   2.714   4.632  11.318 -0.3304 -0.4467  0.4821
  326MPD2    H5 4903   2.763   4.662  11.402  0.7107 -1.7595  0.3466
  326MPD2    N1 4904   2.377   4.329  11.131 -0.1796 -0.2742  0.4872
  326MPD2    H7 4905   2.415   4.356  11.041 -0.5305  0.4982  0.5681
  327TMC3    C1 4906   2.242   4.209  10.999  0.4257 -0.5614  0.0494
  327TMC3    C2 4907   2.158   4.304  10.947  0.0326 -0.1301  0.4179
  327TMC3    C3 4908   2.166   4.342  10.814  0.0806  0.4721 -0.1059
  327TMC3    C4 4909   2.358   4.185  10.930  0.3560  0.1992 -0.7130
  327TMC3    C5 4910   2.379   4.246  10.807 -0.2595  0.5455  0.6823
  327TMC3    C6 4911   2.281   4.318  10.744 -0.1723  0.3305 -0.2654
  327TMC3     C 4912   2.266   4.251  11.134  0.2802 -0.3140 -0.1860
  327TMC3     O 4913   2.187   4.226  11.224  0.3012 -0.4050 -0.3124
  327TMC3     H 4914   2.083   4.330  11.021 -0.5713  0.4669 -0.3891
  327TMC3    H1 4915   2.426   4.111  10.971  0.2970  0.3135 -0.4030
  327TMC3    H2 4916   2.307   4.371  10.653  0.1493  0.3447 -0.1624
  327TMC3    C7 4917   2.513   4.275  10.775  0.0110  0.7257  0.3814
  327TMC3    C8 4918   2.127   4.479  10.799  0.7071 -1.0235 -0.3843
  327TMC3    O1 4919   2.525   4.320  10.663  0.7981 -0.4500  0.3642
  327TMC3    O2 4920   2.215   4.559  10.769  0.0208  0.4645 -0.0450
  328MPD2     C 4921   0.612   0.478  17.505  0.0804 -0.3105 -0.0096
  328MPD2    C1 4922   0.505   0.394  17.533  0.0713 -0.0528  0.1272
  328MPD2    C2 4923   0.409   0.358  17.435  0.1098  0.3712  0.2273
  328MPD2    C3 4924   0.436   0.394  17.303 -0.1613 -0.2627  0.1685
  328MPD2    C4 4925   0.551   0.465  17.275 -0.3760  0.8661  0.6883
  328MPD2    C5 4926   0.632   0.513  17.375 -0.3974  0.2939 -0.2183
  328MPD2     H 4927   0.319   0.304  17.463  0.7912  1.1200  3.8647
  328MPD2    H1 4928   0.567   0.495  17.172  0.3122 -0.5196  0.3921
  328MPD2    H2 4929   0.677   0.519  17.583 -0.6895  2.6187 -0.9153
  328MPD2    H3 4930   0.721   0.568  17.347 -0.6266  1.2457  0.9617
  328MPD2     N 4931   0.348   0.389  17.191 -0.2043  0.2244  0.3384
  328MPD2    H5 4932   0.386   0.433  17.107 -0.9664  0.6226  0.2031
  328MPD2    N1 4933   0.490   0.368  17.667  0.2121  0.4521  0.6195
  328MPD2    H7 4934   0.571   0.403   0.020  0.2806  0.2345  0.6634
  329TMC3    C1 4935   0.400   0.310   0.174 -0.2408 -0.4231 -0.1322
  329TMC3    C2 4936   0.313   0.240   0.251  0.3936  0.2328 -0.7298
  329TMC3    C3 4937   0.339   0.220   0.380  0.1553  0.3389  0.0107
  329TMC3    C4 4938   0.495   0.395   0.232  0.1509 -0.5615  0.0579
  329TMC3    C5 4939   0.510   0.376   0.367  0.0379  0.0395 -0.1038
  329TMC3    C6 4940   0.439   0.288   0.440  0.1180  0.1133 -0.5291
  329TMC3     C 4941   0.384   0.308   0.032 -1.1991  0.0565  0.4903
  329TMC3     O 4942   0.277   0.266  17.686 -0.3077  0.6486  0.4561
  329TMC3     H 4943   0.228   0.201   0.196 -1.7529  1.0072  2.0608
  329TMC3    H1 4944   0.561   0.460   0.175 -0.8634 -0.4474 -0.9914
  329TMC3    H2 4945   0.466   0.275   0.545  1.4224  4.2748 -0.3544
  329TMC3    C7 4946   0.614   0.458   0.437  0.2707  0.4387  0.0995
  329TMC3    C8 4947   0.265   0.133   0.472 -0.3544 -0.1954 -0.5322
  329TMC3    O1 4948   0.586   0.493   0.552  0.1362  0.3758 -0.1408
  329TMC3    O2 4949   0.305   0.120   0.588 -0.0130 -0.2139 -0.5536
  330TMC3    C1 4950   3.536   4.334   9.912 -0.8169 -0.4310  0.1279
  330TMC3    C2 4951   3.435   4.266   9.840 -0.1977  0.2710 -0.4602
  330TMC3    C3 4952   3.417   4.132   9.840  0.0130 -0.3667  0.2789
  330TMC3    C4 4953   3.605   4.257   9.999 -0.9693  0.0757 -0.3569
  330TMC3    C5 4954   3.589   4.120   9.999  0.0440 -0.3880 -0.1160
  330TMC3    C6 4955   3.494   4.060   9.920 -0.6490  0.0840 -0.2952
  330TMC3     C 4956   3.515   4.474   9.945 -0.1190  0.5204 -0.4345
  330TMC3     O 4957   3.556   4.498  10.058 -0.2739  0.1031  0.3307
  330TMC3     H 4958   3.370   4.315   9.769 -0.0720  0.2803 -0.5676
  330TMC3    H1 4959   3.697   4.291  10.044 -1.1461 -0.2504  0.2511
  330TMC3    H2 4960   3.480   3.953   9.910 -0.1809  0.1597 -1.7622
  330TMC3    C7 4961   3.635   4.065  10.125  0.5155 -0.6628  0.1849
  330TMC3    C8 4962   3.357   4.072   9.727 -0.0424 -0.2446  0.3511
  330TMC3    O1 4963   3.709   4.127  10.202  0.3385 -1.2110 -0.1071
  330TMC3    O2 4964   3.370   4.126   9.618  0.3718  0.1377 -0.9428
  331MPD2     C 4965   0.327   3.238  12.532  0.5296  0.5543  0.3616
  331MPD2    C1 4966   0.428   3.223  12.438 -0.3098  0.1536 -0.1686
  331MPD2    C2 4967   0.483   3.093  12.415 -0.5049  0.1362 -0.4157
  331MPD2    C3 4968   0.443   2.983  12.485  0.0860 -0.2735  0.0204
  331MPD2    C4 4969   0.365   3.008  12.592  0.2526  0.2234 -0.5624
  331MPD2    C5 4970   0.304   3.130  12.617  0.5118  0.3736 -0.0540
  331MPD2     H 4971   0.550   3.077  12.331 -1.7136  2.7545 -1.8792
  331MPD2    H1 4972   0.338   2.920  12.650  1.9057  0.1298  0.0932
  331MPD2    H2 4973   0.287   3.335  12.559 -0.1862  0.7021 -1.2311
  331MPD2    H3 4974   0.242   3.141  12.705  0.2374 -0.3630 -0.1478
  331MPD2     N 4975   0.490   2.852  12.468  0.2270  0.2226  0.2348
  331MPD2    H5 4976   0.472   2.794  12.549  1.6715 -0.0133  0.3827
  331MPD2    N1 4977   0.477   3.332  12.356  0.1779  0.8704  0.0752
  331MPD2    H7 4978   0.566   3.321  12.307 -0.1908 -0.6698 -0.2538
  332TMC3    C1 4979   0.613   2.680  12.347 -0.2907 -0.3649  0.1999
  332TMC3    C2 4980   0.676   2.661  12.227 -0.3238  0.3430  0.2063
  332TMC3    C3 4981   0.792   2.597  12.226 -0.4695 -0.1209 -0.5395
  332TMC3    C4 4982   0.662   2.630  12.463  0.0417  0.0932 -0.1938
  332TMC3    C5 4983   0.780   2.562  12.456 -0.0023 -0.1177 -0.1701
  332TMC3    C6 4984   0.849   2.539  12.336  0.2292  0.4394  0.0419
  332TMC3     C 4985   0.544   2.806  12.348  0.0093  0.7490  0.0120
  332TMC3     O 4986   0.528   2.857  12.236 -0.0346  0.1782 -0.1140
  332TMC3     H 4987   0.642   2.708  12.136  1.7336  1.2419 -0.0950
  332TMC3    H1 4988   0.610   2.649  12.556 -1.4252  0.5460 -1.1119
  332TMC3    H2 4989   0.950   2.501  12.340 -0.5315 -1.3609  1.6743
  332TMC3    C7 4990   0.833   2.514  12.580  0.0958 -0.2490  0.1047
  332TMC3    C8 4991   0.884   2.635  12.125  0.6194  0.7533 -0.6406
  332TMC3    O1 4992   0.749   2.503  12.668 -0.2288 -0.2579 -0.6121
  332TMC3    O2 4993   0.997   2.659  12.159  0.1663 -0.0833  0.5872
  333MPD2     C 4994   1.256   3.055  11.057 -0.1361  0.5155 -0.0255
  333MPD2    C1 4995   1.307   2.933  11.032  0.1685  0.5858 -0.1336
  333MPD2    C2 4996   1.229   2.821  11.063  0.5681  0.0608 -0.1519
  333MPD2    C3 4997   1.109   2.837  11.139  0.5819  1.2964 -0.4953
  333MPD2    C4 4998   1.072   2.966  11.183 -0.2059 -0.6815 -0.5371
  333MPD2    C5 4999   1.140   3.074  11.129 -0.3708 -0.5148  0.5235
  333MPD2     H 5000   1.265   2.722  11.036 -0.1323 -0.3088  0.2562
  333MPD2    H1 5001   0.988   2.994  11.244  0.1708 -0.3501 -0.1751
  333MPD2    H2 5002   1.301   3.142  11.013 -0.0537  0.1364 -0.6914
  333MPD2    H3 5003   1.127   3.181  11.142  2.6079 -0.3320  1.8501
  333MPD2     N 5004   1.041   2.720  11.180 -0.0860  0.5377 -0.1033
  333MPD2    H5 5005   1.072   2.629  11.147 -1.3874 -0.8094  2.4329
  333MPD2    N1 5006   1.426   2.928  10.959 -0.1711  0.3121 -0.1294
  333MPD2    H7 5007   1.477   3.015  10.952  0.0327  0.2112  0.0826
  334TMC3    C1 5008   1.600   2.864  10.822 -0.4074 -0.6688 -0.5434
  334TMC3    C2 5009   1.679   2.761  10.766 -0.4135  0.1330  0.6453
  334TMC3    C3 5010   1.779   2.795  10.685  1.2129 -0.0078 -0.8064
  334TMC3    C4 5011   1.616   2.996  10.771  0.6847  0.4253  0.5217
  334TMC3    C5 5012   1.705   3.020  10.667 -0.2959  0.3562  0.7779
  334TMC3    C6 5013   1.793   2.922  10.628  0.4982 -0.6386 -0.1221
  334TMC3     C 5014   1.476   2.825  10.884 -0.1731 -0.4586  0.1446
  334TMC3     O 5015   1.436   2.712  10.859 -0.4356  0.0384  0.0489
  334TMC3     H 5016   1.659   2.660  10.800  0.0632 -0.2656 -0.2634
  334TMC3    H1 5017   1.566   3.081  10.816 -1.9676 -0.1347 -1.3464
  334TMC3    H2 5018   1.860   2.952  10.549  0.9646 -2.3679 -0.3912
  334TMC3    C7 5019   1.764   3.155  10.661 -0.0473 -0.2941  0.1850
  334TMC3    C8 5020   1.908   2.731  10.716 -0.8062  0.2500 -0.1730
  334TMC3    O1 5021   1.884   3.170  10.678  0.1076  0.6813  0.1960
  334TMC3    O2 5022   1.917   2.618  10.760  0.0183 -0.0544 -0.2992
  335TMC3    C1 5023   1.024   4.567   0.118  0.6186  0.0554  0.1920
  335TMC3    C2 5024   0.924   4.494   0.063  0.2634  0.3130 -0.2949
  335TMC3    C3 5025   0.910   4.489  17.628  0.6766 -0.6962 -1.0457
  335TMC3    C4 5026   1.130   4.618   0.049 -0.5267 -0.3038  0.6194
  335TMC3    C5 5027   1.124   4.594  17.610 -0.4581  0.3018 -0.5268
  335TMC3    C6 5028   1.012   4.543  17.545 -0.4542  0.2885  0.1716
  335TMC3     C 5029   1.021   4.583   0.262  0.5916  0.0560  0.2321
  335TMC3     O 5030   0.960   4.502   0.329 -0.2572  0.2726 -0.1631
  335TMC3     H 5031   0.841   4.462   0.125  0.7877  0.7148  0.6216
  335TMC3    H1 5032   1.221   4.646   0.099 -0.1393  0.5711 -0.5718
  335TMC3    H2 5033   1.010   4.537  17.437  2.0036 -0.3186  0.1510
  335TMC3    C7 5034   1.222   4.649  17.523  0.1621 -0.2570  0.0870
  335TMC3    C8 5035   0.811   4.407  17.566  0.0257  0.5565  0.7416
  335TMC3    O1 5036   1.209   4.630  17.401  0.5365  0.4151 -0.1407
  335TMC3    O2 5037   0.749   4.330  17.635 -0.4463 -0.1534 -0.1711
  336MPD2     C 5038   0.481   2.234  16.454  0.2305 -0.6532 -0.2938
  336MPD2    C1 5039   0.548   2.179  16.343 -0.0223  0.5698  0.8920
  336MPD2    C2 5040   0.637   2.074  16.355 -0.4732 -0.8100 -0.3992
  336MPD2    C3 5041   0.665   2.019  16.474  0.1132 -0.4380  0.3894
  336MPD2    C4 5042   0.609   2.075  16.589  0.1426 -0.9379  0.3077
  336MPD2    C5 5043   0.527   2.188  16.575 -0.0021 -0.9306 -0.7456
  336MPD2     H 5044   0.677   2.026  16.266  0.1303  0.2986 -0.7200
  336MPD2    H1 5045   0.636   2.048  16.690 -1.4178  0.8682  1.1811
  336MPD2    H2 5046   0.427   2.328  16.448  3.9306  1.5099  0.5583
  336MPD2    H3 5047   0.495   2.242  16.663 -3.2081 -0.7770 -1.9933
  336MPD2     N 5048   0.753   1.908  16.479  0.5514  0.0581 -0.3977
  336MPD2    H5 5049   0.788   1.879  16.389  1.0204 -0.5577 -0.0174
  336MPD2    N1 5050   0.525   2.219  16.211  0.4465  1.1700  0.8469
  336MPD2    H7 5051   0.591   2.187  16.141 -0.0817  1.1766  0.3438
  337TMC3    C1 5052   0.430   2.322  16.023  0.1642 -0.6507 -0.2841
  337TMC3    C2 5053   0.355   2.424  15.976 -0.1403  0.0645 -0.7189
  337TMC3    C3 5054   0.302   2.433  15.853 -1.3220 -0.1487  0.6577
  337TMC3    C4 5055   0.459   2.219  15.933 -0.5767 -0.2356 -0.2921
  337TMC3    C5 5056   0.402   2.219  15.810 -0.5597 -0.4139  0.3922
  337TMC3    C6 5057   0.328   2.327  15.761  0.0579 -0.0947  0.2609
  337TMC3     C 5058   0.443   2.322  16.170  0.1913 -0.1299  0.1451
  337TMC3     O 5059   0.380   2.405  16.233 -0.2355 -0.0754  0.1868
  337TMC3     H 5060   0.337   2.503  16.047 -2.2110 -1.4079  0.3896
  337TMC3    H1 5061   0.519   2.136  15.970 -3.5814 -1.3539  2.1164
  337TMC3    H2 5062   0.279   2.326  15.664 -2.3213 -0.4366  1.4785
  337TMC3    C7 5063   0.426   2.116  15.721  1.2204 -0.5130 -0.2022
  337TMC3    C8 5064   0.170   2.502  15.856 -0.5124  0.1571  0.8203
  337TMC3    O1 5065   0.534   2.059  15.714 -0.3840  0.2432 -0.1826
  337TMC3    O2 5066   0.136   2.552  15.961 -1.1050 -0.0344  0.0540
  338MPD2     C 5067   1.555   1.658   0.993 -0.1560  0.0012 -0.4691
  338MPD2    C1 5068   1.434   1.649   0.932  0.1323 -0.2301  0.7481
  338MPD2    C2 5069   1.340   1.745   0.974  0.0323  0.2641 -0.0028
  338MPD2    C3 5070   1.363   1.838   1.075  0.1544 -0.2777  0.7032
  338MPD2    C4 5071   1.485   1.834   1.135 -0.3845  0.0759  0.5364
  338MPD2    C5 5072   1.584   1.750   1.088  0.6897 -0.3856  0.6006
  338MPD2     H 5073   1.243   1.751   0.927 -1.4625  0.3651  3.0789
  338MPD2    H1 5074   1.512   1.894   1.221  1.9901 -0.4615  0.1670
  338MPD2    H2 5075   1.640   1.597   0.965 -0.7773 -0.5902 -1.0549
  338MPD2    H3 5076   1.677   1.747   1.144  1.5685  2.5699 -0.7235
  338MPD2     N 5077   1.250   1.917   1.121  0.5711  0.2447 -0.3118
  338MPD2    H5 5078   1.160   1.908   1.075  0.6940 -1.0188 -0.2961
  338MPD2    N1 5079   1.406   1.542   0.839  0.7710  0.4091 -0.2819
  338MPD2    H7 5080   1.313   1.539   0.799  1.0530 -0.9065 -0.8664
  339TMC3    C1 5081   1.130   2.079   1.230 -0.1836  0.1879  0.5536
  339TMC3    C2 5082   1.101   2.091   1.367  0.1660 -0.1667 -0.5358
  339TMC3    C3 5083   0.971   2.088   1.406  0.5297 -0.2733 -0.3691
  339TMC3    C4 5084   1.032   2.053   1.139  0.1962  0.0196  0.1720
  339TMC3    C5 5085   0.898   2.044   1.186  0.5477 -0.3361  0.8062
  339TMC3    C6 5086   0.870   2.061   1.319 -0.2960 -0.7703 -1.0008
  339TMC3     C 5087   1.257   2.019   1.208  0.5848 -0.2734  0.1747
  339TMC3     O 5088   1.354   2.047   1.283  0.2405 -0.3274  0.3899
  339TMC3     H 5089   1.179   2.098   1.442  0.9124  1.3924 -1.4603
  339TMC3    H1 5090   1.053   2.049   1.033  1.0923 -1.8276  0.4230
  339TMC3    H2 5091   0.773   2.077   1.365  0.2128 -1.2019  0.2345
  339TMC3    C7 5092   0.810   2.013   1.081 -0.3439  0.0156 -0.4185
  339TMC3    C8 5093   0.945   2.094   1.545 -0.4628  0.4927  0.3213
  339TMC3    O1 5094   0.861   1.970   0.980 -0.4518 -0.6603  0.3107
  339TMC3    O2 5095   1.022   2.147   1.621  0.0379 -0.1183 -0.1764
  340MPD2     C 5096   1.250   4.072   9.843 -0.5306  0.2087  0.9839
  340MPD2    C1 5097   1.320   4.083   9.722 -0.1953  0.3511 -0.5448
  340MPD2    C2 5098   1.409   4.183   9.711 -0.2316 -0.3447 -0.0208
  340MPD2    C3 5099   1.439   4.264   9.824  0.2068 -0.7334 -0.2078
  340MPD2    C4 5100   1.385   4.232   9.947  0.0765  0.1145 -0.6050
  340MPD2    C5 5101   1.285   4.138   9.957 -0.1553  0.5466  0.6396
  340MPD2     H 5102   1.449   4.197   9.611  1.9208  2.7436  1.2925
  340MPD2    H1 5103   1.409   4.295  10.031  1.3066  0.3723 -1.1567
  340MPD2    H2 5104   1.161   4.011   9.852  0.3958 -1.5278 -1.7602
  340MPD2    H3 5105   1.224   4.124  10.046 -0.6941  1.3573  0.4073
  340MPD2     N 5106   1.516   4.382   9.826  0.3814  0.0488  0.8141
  340MPD2    H5 5107   1.535   4.418   9.919  2.1576  0.3676  0.3299
  340MPD2    N1 5108   1.284   4.010   9.610 -0.0128  0.0944 -0.9033
  340MPD2    H7 5109   1.201   3.955   9.632 -0.2508  0.5612 -0.6439
  341TMC3    C1 5110   1.291   3.923   9.379 -0.4984 -0.1463 -0.3271
  341TMC3    C2 5111   1.164   3.875   9.395 -0.4222 -0.0860  0.3821
  341TMC3    C3 5112   1.123   3.782   9.304  0.0538 -0.4642 -0.7340
  341TMC3    C4 5113   1.371   3.892   9.274 -0.1157  0.1973 -0.2822
  341TMC3    C5 5114   1.326   3.787   9.193 -0.5778 -0.2653 -0.1975
  341TMC3    C6 5115   1.206   3.730   9.213 -0.0722  0.2445  0.3695
  341TMC3     C 5116   1.342   4.015   9.482  0.3978 -0.4465  0.0134
  341TMC3     O 5117   1.440   4.073   9.435 -0.0331 -0.4419  0.0701
  341TMC3     H 5118   1.098   3.894   9.479  0.8882 -0.3223  1.4760
  341TMC3    H1 5119   1.465   3.943   9.261  0.4312 -0.2491  1.9049
  341TMC3    H2 5120   1.184   3.645   9.150  0.9081 -0.2200  0.6533
  341TMC3    C7 5121   1.431   3.701   9.149 -0.1673 -0.6753  0.6753
  341TMC3    C8 5122   0.999   3.706   9.335  0.2722 -0.1222  0.5734
  341TMC3    O1 5123   1.537   3.726   9.210  0.1743 -0.3303  0.3077
  341TMC3    O2 5124   0.943   3.724   9.443  0.0587 -0.0926  0.0919
  342MPD2     C 5125   3.347   2.507  17.209  0.3328  0.0119 -0.1817
  342MPD2    C1 5126   3.435   2.501  17.315 -0.1750 -0.8032 -0.8932
  342MPD2    C2 5127   3.455   2.614  17.394 -0.4070  0.6439  0.3696
  342MPD2    C3 5128   3.395   2.734  17.361  0.2462  0.5258 -0.0927
  342MPD2    C4 5129   3.301   2.733  17.259  0.0555 -0.5492 -0.0239
  342MPD2    C5 5130   3.275   2.625  17.179 -0.4800  0.3808  0.3005
  342MPD2     H 5131   3.516   2.606  17.483 -0.3104 -0.0279  0.2382
  342MPD2    H1 5132   3.239   2.820  17.240  0.5729 -0.2897 -0.4993
  342MPD2    H2 5133   3.332   2.417  17.152 -0.5569 -0.4803  0.8274
  342MPD2    H3 5134   3.190   2.634  17.111 -1.2099  0.1991  1.1916
  342MPD2     N 5135   3.415   2.856  17.423 -0.6307  0.1786  0.6997
  342MPD2    H5 5136   3.360   2.932  17.386 -0.9500 -0.3357  0.1209
  342MPD2    N1 5137   3.519   2.392  17.319  0.0416 -0.0571 -0.2555
  342MPD2    H7 5138   3.512   2.334  17.236 -2.7815 -0.0974  0.0278
  343TMC3    C1 5139   3.684   2.249  17.376 -0.1088  0.1670  0.0477
  343TMC3    C2 5140   3.821   2.241  17.398 -0.1684 -0.3289 -0.0903
  343TMC3    C3 5141   3.888   2.123  17.374  0.9875  0.2993  0.5291
  343TMC3    C4 5142   3.618   2.137  17.332  0.1599  0.1972  0.4272
  343TMC3    C5 5143   3.687   2.022  17.317  0.0723 -0.7768  0.0864
  343TMC3    C6 5144   3.816   2.006  17.341  0.1463 -0.1135  0.0952
  343TMC3     C 5145   3.618   2.373  17.404 -0.4227  0.3201  0.0540
  343TMC3     O 5146   3.654   2.439  17.497 -0.0441  0.6364  0.2147
  343TMC3     H 5147   3.883   2.327  17.421 -0.9045  0.2708 -0.3134
  343TMC3    H1 5148   3.510   2.144  17.320  0.2109  2.5899  1.3582
  343TMC3    H2 5149   3.874   1.916  17.321 -0.5883 -0.4520 -0.5102
  343TMC3    C7 5150   3.595   1.909  17.336 -0.1823 -0.4990 -0.4966
  343TMC3    C8 5151   4.028   2.119  17.393 -0.3184 -0.3522 -0.2960
  343TMC3    O1 5152   3.490   1.899  17.273  0.0011 -0.6903  0.5986
  343TMC3    O2 5153   4.081   2.198  17.471 -0.2441 -0.0900 -0.1234
  344MPD2     C 5154   0.361   2.414  10.483 -0.0412  1.3484 -0.0778
  344MPD2    C1 5155   0.234   2.461  10.458 -0.0279 -0.6415 -0.3116
  344MPD2    C2 5156   0.211   2.575  10.387  0.6015  0.6452  0.7350
  344MPD2    C3 5157   0.317   2.660  10.349  1.1011  0.4190  0.6015
  344MPD2    C4 5158   0.442   2.621  10.398  0.2576 -0.1513  0.4404
  344MPD2    C5 5159   0.467   2.502  10.462 -0.1357 -0.2599  0.4098
  344MPD2     H 5160   0.107   2.595  10.364  0.6263  0.4053  0.4206
  344MPD2    H1 5161   0.524   2.680  10.359 -1.0629  1.1741 -0.3570
  344MPD2    H2 5162   0.375   2.310  10.510 -0.4162  1.2273 -0.3615
  344MPD2    H3 5163   0.569   2.472  10.486 -0.3876  0.1358  1.9965
  344MPD2     N 5164   0.308   2.782  10.274  0.0763 -0.0550  0.2257
  344MPD2    H5 5165   0.397   2.829  10.273  1.4913 -2.7222  1.4484
  344MPD2    N1 5166   0.126   2.384  10.499 -0.2752  0.5956 -1.0477
  344MPD2    H7 5167   0.038   2.422  10.466 -1.3475 -1.4161 -0.4833
  345TMC3    C1 5168   0.214   2.982  10.209 -0.0243  0.0355 -0.0035
  345TMC3    C2 5169   0.294   3.048  10.296 -0.2163 -0.1106 -0.1867
  345TMC3    C3 5170   0.326   3.179  10.271  0.1383  0.2751 -0.3177
  345TMC3    C4 5171   0.161   3.040  10.096  0.1877 -0.1927  0.4984
  345TMC3    C5 5172   0.191   3.174  10.082  0.2119  0.0179 -0.5347
  345TMC3    C6 5173   0.279   3.241  10.160  0.2529  0.0175  0.2941
  345TMC3     C 5174   0.196   2.838  10.220  0.2624  0.1538  0.0052
  345TMC3     O 5175   0.084   2.793  10.200  0.4094 -0.4010 -0.1418
  345TMC3     H 5176   0.327   2.997  10.386 -1.6563 -3.0836 -1.3476
  345TMC3    H1 5177   0.100   2.981  10.029 -2.4089  1.1998  1.6281
  345TMC3    H2 5178   0.285   3.348  10.142  1.3906  0.0748  1.0128
  345TMC3    C7 5179   0.116   3.257   9.984 -0.2090  0.2510 -0.4416
  345TMC3    C8 5180   0.404   3.247  10.373 -0.5527 -0.7776 -0.3919
  345TMC3    O1 5181   0.176   3.356   9.929  0.3589 -0.3123 -0.2889
  345TMC3    O2 5182   0.396   3.204  10.489  0.2242  0.5931 -0.4695
  346MPD2     C 5183   4.239   4.037  13.825  0.0223 -0.1400  0.0566
  346MPD2    C1 5184   4.369   3.998  13.823 -0.7702 -0.5458 -0.6225
  346MPD2    C2 5185   4.435   3.991  13.945 -0.9182  0.0452  0.0623
  346MPD2    C3 5186   4.374   4.012  14.064  0.1475  0.5807 -0.1559
  346MPD2    C4 5187   4.244   4.039  14.066  0.0798 -0.1726 -0.2798
  346MPD2    C5 5188   4.178   4.057  13.947 -0.4015  0.1324  0.8863
  346MPD2     H 5189   4.539   3.960  13.942 -0.3140  2.1960 -1.5258
  346MPD2    H1 5190   4.187   4.038  14.158  0.1340  1.2106 -0.2286
  346MPD2    H2 5191   4.176   4.048  13.738  0.5215 -1.6439 -0.4836
  346MPD2    H3 5192   4.076   4.092  13.940  0.0739  1.7451  2.2469
  346MPD2     N 5193   4.455   4.011  14.182 -0.4237  0.0266 -0.5962
  346MPD2    H5 5194   4.551   3.984  14.167  0.0772  0.5682  1.6150
  346MPD2    N1 5195   4.445   3.981  13.702 -0.1691  0.1357  0.3295
  346MPD2    H7 5196   4.543   3.957  13.714 -0.1872 -0.3686 -0.5054
  347TMC3    C1 5197   4.508   4.045  14.412 -0.2550  0.1024 -0.0803
  347TMC3    C2 5198   4.619   3.965  14.393  0.2820 -0.3321 -0.4182
  347TMC3    C3 5199   4.722   3.985  14.481  0.3796  0.2909  0.6206
  347TMC3    C4 5200   4.495   4.134  14.508  0.2126 -0.0593  0.1707
  347TMC3    C5 5201   4.606   4.150  14.589 -0.2373  0.3848  0.2066
  347TMC3    C6 5202   4.718   4.076  14.584  0.1479  0.1269 -0.3728
  347TMC3     C 5203   4.406   4.057  14.306  0.5769  0.1417 -0.2154
  347TMC3     O 5204   4.298   4.094  14.342  0.6646  0.1066 -0.4502
  347TMC3     H 5205   4.624   3.896  14.309  2.5878  0.7301 -1.1498
  347TMC3    H1 5206   4.405   4.192  14.524 -0.0732 -0.5880  0.4900
  347TMC3    H2 5207   0.060   4.093  14.669  0.1549 -2.4219  0.1323
  347TMC3    C7 5208   4.580   4.235  14.704  0.7475  0.3970  0.2757
  347TMC3    C8 5209   0.116   3.912  14.453  0.2795 -0.2381  0.1854
  347TMC3    O1 5210   4.465   4.269  14.715 -0.1020  0.7845  0.6025
  347TMC3    O2 5211   0.099   3.816  14.381  0.6289  0.6088 -0.0066
  348MPD2     C 5212   3.832   3.555  12.109 -0.3778  0.3370  0.0401
  348MPD2    C1 5213   3.727   3.536  12.020  0.7204  0.0445  0.7493
  348MPD2    C2 5214   3.713   3.643  11.938 -0.1400 -0.4744 -0.1309
  348MPD2    C3 5215   3.776   3.767  11.946  0.5983  0.1979  0.3804
  348MPD2    C4 5216   3.880   3.776  12.040 -0.3325  0.6454 -0.1467
  348MPD2    C5 5217   3.900   3.673  12.121 -0.4950 -0.5138  0.0504
  348MPD2     H 5218   3.637   3.640  11.860 -1.8332  1.7310  1.4263
  348MPD2    H1 5219   3.954   3.854  12.052  0.1022  0.1499  0.4358
  348MPD2    H2 5220   3.860   3.470  12.172 -1.8271 -0.6381 -0.6444
  348MPD2    H3 5221   3.980   3.679  12.194  1.3311  0.4354 -2.0261
  348MPD2     N 5222   3.739   3.869  11.847  0.3497  0.5077  0.2301
  348MPD2    H5 5223   3.662   3.839  11.788  0.1467 -0.6522  1.0925
  348MPD2    N1 5224   3.645   3.421  12.016 -0.3045 -0.1516 -0.0639
  348MPD2    H7 5225   3.584   3.428  11.935 -2.8490  1.0858  1.9317
  349TMC3    C1 5226   3.540   3.219  12.091  0.0601  0.6596  0.3814
  349TMC3    C2 5227   3.582   3.103  12.147 -0.1037 -0.1549  0.3328
  349TMC3    C3 5228   3.517   2.989  12.117  0.3564 -0.4854 -1.0539
  349TMC3    C4 5229   3.457   3.224  11.982  0.2253 -0.0563  0.0167
  349TMC3    C5 5230   3.399   3.106  11.944 -0.2563 -0.0533 -0.3565
  349TMC3    C6 5231   3.429   2.988  12.007  0.0703  0.1243 -0.8327
  349TMC3     C 5232   3.628   3.324  12.117 -0.2261  0.1895  0.7743
  349TMC3     O 5233   3.676   3.341  12.226  0.0470  0.2990 -0.5180
  349TMC3     H 5234   3.662   3.104  12.221  0.1396  1.5583  0.0433
  349TMC3    H1 5235   3.431   3.321  11.942  2.8837 -0.4166 -2.5429
  349TMC3    H2 5236   3.389   2.899  11.960  0.2461  1.0546 -2.7522
  349TMC3    C7 5237   3.322   3.105  11.824  0.0275 -0.3198  0.8364
  349TMC3    C8 5238   3.548   2.875  12.196 -1.0772  0.1322 -0.4581
  349TMC3    O1 5239   3.338   3.007  11.752  0.0078 -0.0925 -0.0507
  349TMC3    O2 5240   3.640   2.893  12.272  0.1833 -0.3479  0.4792
  350MPD2     C 5241   2.606   1.957   9.628 -0.3606 -0.4091 -0.3859
  350MPD2    C1 5242   2.629   1.818   9.652  0.0500  0.5913  0.3475
  350MPD2    C2 5243   2.608   1.761   9.774 -0.5566 -0.1427 -0.4334
  350MPD2    C3 5244   2.574   1.836   9.880 -0.3036  0.4364  0.1377
  350MPD2    C4 5245   2.559   1.970   9.863  0.1936 -0.4257  0.4327
  350MPD2    C5 5246   2.571   2.021   9.741  0.1883  0.4970  0.6582
  350MPD2     H 5247   2.631   1.656   9.791  3.3338  0.8570  0.6541
  350MPD2    H1 5248   2.542   2.044   9.941  0.6954  0.7376 -0.5781
  350MPD2    H2 5249   2.614   2.006   9.531 -2.2038 -0.1291 -0.4094
  350MPD2    H3 5250   2.543   2.126   9.734  2.0855  0.9005 -0.9143
  350MPD2     N 5251   2.546   1.768   9.999  0.4605 -0.1892  0.3811
  350MPD2    H5 5252   2.562   1.667  10.002 -2.5498 -0.6880 -0.7232
  350MPD2    N1 5253   2.688   1.741   9.550 -0.3914 -0.1394 -0.2252
  350MPD2    H7 5254   2.702   1.643   9.572 -3.1970 -0.6291 -0.6248
  351TMC3    C1 5255   2.787   1.663   9.343 -0.5281 -0.0442 -0.1744
  351TMC3    C2 5256   2.819   1.545   9.399  0.0513 -0.2336 -0.1238
  351TMC3    C3 5257   2.872   1.438   9.324 -0.1937 -0.2490 -0.1742
  351TMC3    C4 5258   2.816   1.690   9.212 -0.3826 -0.6910  0.1392
  351TMC3    C5 5259   2.871   1.589   9.141 -0.0803  0.0858 -0.2113
  351TMC3    C6 5260   2.892   1.463   9.191 -0.4454 -0.2530 -0.0985
  351TMC3     C 5261   2.727   1.775   9.423  0.5680  0.5449  0.7567
  351TMC3     O 5262   2.709   1.879   9.366  0.1166  0.1536 -0.4798
  351TMC3     H 5263   2.813   1.535   9.507 -0.3636  0.5033 -0.0724
  351TMC3    H1 5264   2.790   1.785   9.167  1.6112 -0.3556 -0.3042
  351TMC3    H2 5265   2.941   1.389   9.129 -2.0247 -1.1956 -0.1993
  351TMC3    C7 5266   2.889   1.606   8.996  0.1362 -0.5494 -1.5036
  351TMC3    C8 5267   2.914   1.314   9.382  0.4198  0.3370  0.2000
  351TMC3    O1 5268   2.939   1.509   8.943  0.3409 -0.5134 -0.0881
  351TMC3    O2 5269   2.980   1.235   9.310  0.2983  0.5284 -0.2340
  352MPD2     C 5270   0.894   3.793   1.465 -0.0651  0.1574  0.5730
  352MPD2    C1 5271   0.827   3.702   1.383 -0.1524  0.0797 -0.0310
  352MPD2    C2 5272   0.882   3.574   1.371  0.9595 -0.5943 -0.6141
  352MPD2    C3 5273   0.990   3.528   1.454 -0.1230 -0.3237  0.3814
  352MPD2    C4 5274   1.060   3.623   1.526 -0.0468 -0.3862  0.9668
  352MPD2    C5 5275   1.013   3.753   1.529 -0.3631  0.0716  0.2787
  352MPD2     H 5276   0.824   3.499   1.317 -0.4683 -0.8082  1.2083
  352MPD2    H1 5277   1.152   3.595   1.577 -0.0553 -1.2538  0.4958
  352MPD2    H2 5278   0.841   3.886   1.487  0.2266  0.1777  1.1861
  352MPD2    H3 5279   1.056   3.821   1.602  2.7427 -2.1931  0.5969
  352MPD2     N 5280   1.044   3.399   1.444 -0.4421 -0.3030 -0.6154
  352MPD2    H5 5281   1.114   3.371   1.512 -1.8028 -1.0644  0.4674
  352MPD2    N1 5282   0.705   3.733   1.327  0.1156 -0.2768  0.2651
  352MPD2    H7 5283   0.665   3.824   1.348  2.1899  0.7419 -0.1860
  353TMC3    C1 5284   1.068   3.164   1.394  0.4110 -0.7660 -0.1364
  353TMC3    C2 5285   1.207   3.147   1.406 -1.0112 -0.0052 -0.6392
  353TMC3    C3 5286   1.262   3.028   1.363 -0.1075 -0.1055 -0.4908
  353TMC3    C4 5287   0.985   3.062   1.357 -0.2676 -0.4386  0.3956
  353TMC3    C5 5288   1.050   2.952   1.299  0.9886 -0.5316  0.2032
  353TMC3    C6 5289   1.182   2.928   1.312 -0.2561 -0.0215  0.0692
  353TMC3     C 5290   1.008   3.291   1.363 -0.4261  0.1258  0.5694
  353TMC3     O 5291   0.923   3.293   1.276  0.2517  0.5839  0.2225
  353TMC3     H 5292   1.274   3.228   1.431  0.5705 -1.5977  0.1646
  353TMC3    H1 5293   0.879   3.081   1.345  0.1577 -0.4956 -3.5229
  353TMC3    H2 5294   1.218   2.828   1.290  2.6965  0.8566  0.9409
  353TMC3    C7 5295   0.971   2.845   1.250  0.7816  0.5593  0.6022
  353TMC3    C8 5296   1.387   2.985   1.427 -0.3401 -0.3589  0.5659
  353TMC3    O1 5297   1.022   2.775   1.164 -0.4242 -0.2281 -0.1709
  353TMC3    O2 5298   1.425   3.034   1.538  0.4249  0.1171 -0.1439
  354TMC3    C1 5299   2.098   0.070  13.835  0.4012 -0.0774 -0.2569
  354TMC3    C2 5300   2.118   0.203  13.818  0.9589 -0.2094 -0.5729
  354TMC3    C3 5301   2.075   0.260  13.704 -0.3080 -0.4137 -0.1074
  354TMC3    C4 5302   2.043   4.719  13.732  0.1775  0.4720  0.0237
  354TMC3    C5 5303   2.002   0.056  13.619 -0.0705  0.6381  0.3561
  354TMC3    C6 5304   2.011   0.194  13.609 -0.3678 -0.1186 -0.2211
  354TMC3     C 5305   2.183   4.723  13.924  0.4326  0.4356  0.1487
  354TMC3     O 5306   2.273   0.060  13.978 -0.0469 -0.1102  0.0307
  354TMC3     H 5307   2.156   0.257  13.904 -0.0625  0.0538 -0.2846
  354TMC3    H1 5308   2.061   4.613  13.737  3.1295  0.9475 -0.5049
  354TMC3    H2 5309   1.968   0.250  13.527 -1.9496 -0.7934  0.1636
  354TMC3    C7 5310   2.023   4.713  13.490  0.4884  0.2412 -0.0781
  354TMC3    C8 5311   2.169   0.349  13.643 -0.1412  0.6588  0.2494
  354TMC3    O1 5312   2.029   4.591  13.497 -0.3260  0.3415  0.1466
  354TMC3    O2 5313   2.174   0.333  13.522  0.2341  0.4701 -0.6499
  355MPD2     C 5314   3.170   0.555  11.718 -0.2288 -0.7123 -0.2320
  355MPD2    C1 5315   3.128   0.610  11.831 -1.1780 -0.6849 -0.2311
  355MPD2    C2 5316   3.206   0.711  11.883  0.7668 -0.6917  0.3525
  355MPD2    C3 5317   3.298   0.781  11.803  0.6325  0.3276 -0.1045
  355MPD2    C4 5318   3.331   0.727  11.681 -0.0429  0.0479 -0.4357
  355MPD2    C5 5319   3.277   0.610  11.646  0.2844 -0.2530 -0.8414
  355MPD2     H 5320   3.176   0.745  11.982 -0.9830  0.4672 -0.5718
  355MPD2    H1 5321   3.409   0.767  11.618  1.0294  0.4802  1.1609
  355MPD2    H2 5322   3.117   0.469  11.678  1.3456 -1.2495 -1.1845
  355MPD2    H3 5323   3.294   0.570  11.546 -0.4557 -2.2527 -0.1659
  355MPD2     N 5324   3.357   0.902  11.844 -0.1442  0.0234 -0.5630
  355MPD2    H5 5325   3.413   0.947  11.773  1.1552  0.0534  0.4704
  355MPD2    N1 5326   3.009   0.558  11.886  0.1120  0.0054 -0.7089
  355MPD2    H7 5327   2.981   0.464  11.857 -0.5102  0.0865 -0.3655
  356TMC3    C1 5328   3.388   1.099  11.969 -0.8074  0.3694  0.1494
  356TMC3    C2 5329   3.380   1.170  11.852 -0.4321 -0.0141  0.3023
  356TMC3    C3 5330   3.405   1.308  11.860  0.1409 -0.5101 -0.1450
  356TMC3    C4 5331   3.416   1.165  12.085 -0.7009  0.0564 -0.2594
  356TMC3    C5 5332   3.433   1.302  12.093  0.2124 -0.0399  0.6435
  356TMC3    C6 5333   3.434   1.381  11.974  0.2007 -0.1172 -0.4018
  356TMC3     C 5334   3.349   0.961  11.969  0.4046 -0.6097 -0.2982
  356TMC3     O 5335   3.308   0.918  12.078 -0.2606 -0.1742  0.2109
  356TMC3     H 5336   3.348   1.120  11.761  0.0557  2.2036 -1.1014
  356TMC3    H1 5337   3.415   1.116  12.181 -1.4635  0.1172 -0.2360
  356TMC3    H2 5338   3.437   1.489  11.980 -1.4166 -0.1551  1.2590
  356TMC3    C7 5339   3.474   1.355  12.220  0.3407 -0.1729 -0.2782
  356TMC3    C8 5340   3.412   1.386  11.733 -0.2233 -0.8443 -0.3373
  356TMC3    O1 5341   3.455   1.280  12.316 -0.6499  0.3361  0.5264
  356TMC3    O2 5342   3.366   1.324  11.635  0.2464 -0.1140 -0.1921
  357MPD2     C 5343   3.017   0.452   1.626  0.1691  0.1120 -0.6743
  357MPD2    C1 5344   3.072   0.324   1.635  0.2977  0.2275 -0.4677
  357MPD2    C2 5345   3.192   0.311   1.702  0.2627 -0.3694  0.3116
  357MPD2    C3 5346   3.261   0.417   1.751  0.1806 -0.2695  0.3922
  357MPD2    C4 5347   3.203   0.546   1.737 -0.6951  0.2611  0.5547
  357MPD2    C5 5348   3.081   0.561   1.673  0.0423 -0.5939  0.0706
  357MPD2     H 5349   3.244   0.216   1.690  2.2471  0.4803  2.1809
  357MPD2    H1 5350   3.249   0.636   1.774 -1.3929  0.8775 -0.0733
  357MPD2    H2 5351   2.920   0.460   1.579  0.3225  1.8247 -0.6929
  357MPD2    H3 5352   3.039   0.659   1.654  1.5237 -0.6845 -3.7608
  357MPD2     N 5353   3.386   0.408   1.817  0.4761  0.5829 -0.3328
  357MPD2    H5 5354   3.405   0.485   1.881 -1.3251  0.8281 -0.0804
  357MPD2    N1 5355   3.002   0.215   1.577  0.7937 -0.2089 -0.2512
  357MPD2    H7 5356   2.934   0.235   1.505  1.1302 -1.0134 -0.7974
  358TMC3    C1 5357   2.971   4.707   1.523  0.9411  0.6996  0.8124
  358TMC3    C2 5358   2.861   0.019   1.448  0.5398  0.3942 -0.8669
  358TMC3    C3 5359   2.847   4.687   1.318 -0.2173 -0.8074 -0.0358
  358TMC3    C4 5360   3.063   4.613   1.475 -0.3148  0.4743 -0.1243
  358TMC3    C5 5361   3.036   4.553   1.354 -0.5484  0.1583 -0.7342
  358TMC3    C6 5362   2.940   4.603   1.266 -0.4109  0.2265 -0.4586
  358TMC3     C 5363   3.031   0.082   1.608  0.2008 -0.2705  0.2993
  358TMC3     O 5364   3.103   0.037   1.696 -0.4577 -0.0694  0.2030
  358TMC3     H 5365   2.790   0.086   1.496 -1.7583 -0.5615 -2.8958
  358TMC3    H1 5366   3.151   4.598   1.536 -0.4156 -2.3977 -0.7211
  358TMC3    H2 5367   2.921   4.544   1.177  0.6144  2.5367 -2.2047
  358TMC3    C7 5368   3.129   4.453   1.298  0.0875  0.2970  0.3391
  358TMC3    C8 5369   2.727   4.707   1.234  0.1874  0.8238  0.3922
  358TMC3    O1 5370   3.141   4.440   1.176 -0.0944 -0.0867  0.0463
  358TMC3    O2 5371   2.732   4.638   1.132 -0.4290  0.4679 -0.4733
  359MPD2     C 5372   3.065   0.165  12.623 -0.1026  0.5815  0.2394
  359MPD2    C1 5373   3.075   0.072  12.522 -0.1414  0.2654  1.1902
  359MPD2    C2 5374   2.974   4.704  12.509 -0.2152  0.5781  0.4732
  359MPD2    C3 5375   2.860   4.696  12.588 -0.2631 -0.2055 -0.0388
  359MPD2    C4 5376   2.858   0.072  12.686  0.4547  0.2890  0.2533
  359MPD2    C5 5377   2.956   0.169  12.697  0.2227  0.0762  0.4018
  359MPD2     H 5378   2.979   4.625  12.435  0.3708  0.2027  0.9086
  359MPD2    H1 5379   2.776   0.084  12.756 -1.1813  1.3967 -1.8621
  359MPD2    H2 5380   3.148   0.234  12.636  1.2206 -1.3356  1.9627
  359MPD2    H3 5381   2.952   0.239  12.780  0.6606  0.4454  0.1142
  359MPD2     N 5382   2.759   4.600  12.584 -0.3030  0.2425  0.6595
  359MPD2    H5 5383   2.680   4.602  12.647 -0.1431  0.8323  0.8408
  359MPD2    N1 5384   3.190   0.053  12.437  0.1271 -0.4288 -0.2433
  359MPD2    H7 5385   3.180   4.699  12.373  3.5490  0.4286 -1.7931
  360TMC3    C1 5386   3.393   0.090  12.327  0.1847 -0.1945 -0.0327
  360TMC3    C2 5387   3.461   0.183  12.263  0.5290  0.1334 -0.7205
  360TMC3    C3 5388   3.537   0.154  12.146 -0.8948 -0.3759 -0.2592
  360TMC3    C4 5389   3.393   4.681  12.279 -0.2685  0.1721 -0.1605
  360TMC3    C5 5390   3.480   4.654  12.176 -0.0254 -0.4396  0.4149
  360TMC3    C6 5391   3.554   0.025  12.114 -0.7131 -0.3616 -0.1325
  360TMC3     C 5392   3.309   0.127  12.441 -0.3620  0.0363 -0.4468
  360TMC3     O 5393   3.339   0.217  12.519 -0.3000 -0.0727 -0.1522
  360TMC3     H 5394   3.455   0.284  12.301 -0.3139 -0.6905  1.3347
  360TMC3    H1 5395   3.318   4.612  12.317  2.3784 -2.3431  0.4750
  360TMC3    H2 5396   3.612   0.001  12.025  0.2354  1.1339  0.0939
  360TMC3    C7 5397   3.474   4.521  12.121 -0.4937 -0.0941 -0.2904
  360TMC3    C8 5398   3.620   0.254  12.087  0.8676  0.2059 -0.7085
  360TMC3    O1 5399   3.547   4.498  12.026  0.0573 -1.0213 -0.2807
  360TMC3    O2 5400   3.575   0.365  12.073 -0.4244 -0.3529 -1.0412
  361MPD2     C 5401   4.350   2.886  17.065 -0.1780  0.0236 -0.3952
  361MPD2    C1 5402   4.383   2.931  17.188  0.7478 -0.2387 -0.6653
  361MPD2    C2 5403   4.512   2.912  17.233  0.1283 -0.1043 -0.5832
  361MPD2    C3 5404   4.600   2.832  17.161 -0.2863 -0.3594  0.2241
  361MPD2    C4 5405   4.558   2.802  17.031 -0.3714 -0.4408 -0.0800
  361MPD2    C5 5406   4.435   2.838  16.980 -0.7844  0.8281 -0.1832
  361MPD2     H 5407   4.545   2.969  17.319  4.4384 -0.4391 -2.0078
  361MPD2    H1 5408   4.630   2.759  16.962 -0.0568  0.4527 -0.3106
  361MPD2    H2 5409   4.258   2.923  17.021  0.0236 -0.0513 -0.8827
  361MPD2    H3 5410   4.416   2.836  16.874  1.9084  1.0424 -0.6641
  361MPD2     N 5411   0.001   2.779  17.202  0.0036  0.6250  0.4258
  361MPD2    H5 5412   0.062   2.737  17.133 -0.0847  1.0584  0.0835
  361MPD2    N1 5413   4.292   3.018  17.255  0.2758  0.2238  0.5731
  361MPD2    H7 5414   4.334   3.072  17.331  0.5933 -1.7842  1.8088
  362TMC3    C1 5415   4.103   3.149  17.307 -0.2040 -0.2326 -0.3850
  362TMC3    C2 5416   3.965   3.143  17.311 -0.0857 -0.6414 -0.5718
  362TMC3    C3 5417   3.916   3.263  17.350 -0.0716 -0.1037  0.2744
  362TMC3    C4 5418   4.184   3.249  17.355 -1.1454 -0.2619  0.2315
  362TMC3    C5 5419   4.124   3.354  17.423 -0.4601 -0.3430  0.7996
  362TMC3    C6 5420   3.986   3.357  17.414  0.1093 -0.0493 -0.3171
  362TMC3     C 5421   4.160   3.041  17.223 -0.0005  0.4726  0.4938
  362TMC3     O 5422   4.084   2.980  17.149  0.5452 -0.7290  0.1003
  362TMC3     H 5423   3.903   3.061  17.277 -1.7199  0.0404  0.7420
  362TMC3    H1 5424   4.291   3.245  17.342 -0.8894  0.8881  2.0197
  362TMC3    H2 5425   3.936   3.445  17.453 -0.2204 -0.7617  0.8612
  362TMC3    C7 5426   4.192   3.475  17.448  0.2515  0.3044 -1.4284
  362TMC3    C8 5427   3.785   3.288  17.297 -0.0901  0.9645  0.5538
  362TMC3    O1 5428   4.114   3.569  17.454 -0.1570  0.1903  0.6721
  362TMC3    O2 5429   3.739   3.201  17.223 -0.1713 -0.2989  0.5426
  363TMC3    C1 5430   3.592   1.094   9.727 -0.3945  0.1184 -0.5355
  363TMC3    C2 5431   3.705   1.075   9.805 -0.1742 -0.1189  0.1572
  363TMC3    C3 5432   3.710   1.136   9.923  0.6255  0.5693 -0.6456
  363TMC3    C4 5433   3.483   1.163   9.776  0.6236 -0.4509  0.1382
  363TMC3    C5 5434   3.488   1.221   9.900  0.2984 -0.3575  0.1371
  363TMC3    C6 5435   3.603   1.207   9.978 -1.0017  0.2794 -0.2411
  363TMC3     C 5436   3.590   1.065   9.583 -0.2747  0.8237 -0.7031
  363TMC3     O 5437   3.501   1.123   9.521  0.0418  0.3122 -0.0714
  363TMC3     H 5438   3.797   1.040   9.759  1.2915  1.1984  2.1201
  363TMC3    H1 5439   3.410   1.195   9.703  2.5049  3.5003 -0.0134
  363TMC3    H2 5440   3.614   1.258  10.073 -1.8899  2.2210 -1.1772
  363TMC3    C7 5441   3.409   1.348   9.906  0.2591 -0.1719  0.6967
  363TMC3    C8 5442   3.799   1.085  10.027  0.7097  0.2215 -0.0676
  363TMC3    O1 5443   3.403   1.410   9.801 -0.3610  0.4635 -0.0671
  363TMC3    O2 5444   3.780   1.121  10.138 -0.0755  0.1188  0.6498
  364MPD2     C 5445   1.854   0.167  10.938 -0.0271 -0.6687 -0.6409
  364MPD2    C1 5446   1.949   0.151  10.844  0.3875  0.0865 -0.9886
  364MPD2    C2 5447   1.992   0.026  10.807  0.0442 -0.1450 -0.2319
  364MPD2    C3 5448   1.952   4.636  10.875 -0.5305 -0.2989 -0.3169
  364MPD2    C4 5449   1.856   4.656  10.974  0.7401 -0.3492 -0.1870
  364MPD2    C5 5450   1.800   0.049  10.994 -0.0056  0.3687 -0.5807
  364MPD2     H 5451   2.066   0.004  10.732  0.3970  0.9117 -0.2014
  364MPD2    H1 5452   1.815   4.569  11.023  1.1647 -0.5804 -0.2439
  364MPD2    H2 5453   1.801   0.259  10.958 -3.0606 -2.9115  1.5106
  364MPD2    H3 5454   1.711   0.049  11.055  0.2379  1.2487 -0.2131
  364MPD2     N 5455   2.011   4.507  10.868 -0.1974  0.0928 -0.6819
  364MPD2    H5 5456   1.978   4.435  10.932 -1.1604  0.2315 -1.0269
  364MPD2    N1 5457   2.008   0.274  10.792 -0.4352  0.0213  0.1203
  364MPD2    H7 5458   1.967   0.361  10.825  4.1920  3.6505 -3.8190
  365TMC3    C1 5459   2.124   0.433  10.658  0.5252  0.2629  1.0465
  365TMC3    C2 5460   2.231   0.450  10.562 -0.1529 -0.5861  0.2878
  365TMC3    C3 5461   2.289   0.569  10.556 -0.9891  0.2835 -0.1980
  365TMC3    C4 5462   2.077   0.527  10.738  0.8049  0.4085 -0.3104
  365TMC3    C5 5463   2.137   0.650  10.719  0.1965  0.2400  0.0296
  365TMC3    C6 5464   2.238   0.674  10.625  0.0774 -0.5474  0.0764
  365TMC3     C 5465   2.094   0.291  10.689  0.2377  0.0307 -0.5021
  365TMC3     O 5466   2.143   0.205  10.620 -0.4403 -0.1767  0.2814
  365TMC3     H 5467   2.246   0.375  10.486  1.0148  0.6602 -0.7181
  365TMC3    H1 5468   1.984   0.520  10.793  0.8057 -1.3762 -0.5299
  365TMC3    H2 5469   2.283   0.772  10.624  1.0751 -1.0379 -2.0776
  365TMC3    C7 5470   2.096   0.767  10.796  0.0275 -0.3404 -0.2717
  365TMC3    C8 5471   2.402   0.594  10.467 -1.0398  1.0020 -0.9827
  365TMC3    O1 5472   2.088   0.873  10.736  0.3466  0.0312 -0.1995
  365TMC3    O2 5473   2.420   0.705  10.417  0.2742  0.2047  0.2107
  366MPD2     C 5474   0.460   1.175  15.183  0.2778 -0.0755 -0.2683
  366MPD2    C1 5475   0.488   1.232  15.311 -0.4342 -0.0446 -0.3399
  366MPD2    C2 5476   0.615   1.206  15.365  0.0236 -0.2154  0.2360
  366MPD2    C3 5477   0.708   1.133  15.292 -0.2533  0.4156 -0.6670
  366MPD2    C4 5478   0.675   1.072  15.175  0.4851 -0.8941 -0.0437
  366MPD2    C5 5479   0.549   1.083  15.124 -0.4470  0.5666  0.2639
  366MPD2     H 5480   0.636   1.241  15.466 -0.0581  1.6251 -0.3922
  366MPD2    H1 5481   0.740   1.000  15.129  2.2039  0.4914  0.2226
  366MPD2    H2 5482   0.365   1.199  15.136  0.1254  0.5803  0.3750
  366MPD2    H3 5483   0.520   1.029  15.035 -1.4057 -0.2555  1.0821
  366MPD2     N 5484   0.841   1.141  15.344 -0.5685 -0.3506 -0.1317
  366MPD2    H5 5485   0.854   1.184  15.435  0.9685  0.8481 -0.9287
  366MPD2    N1 5486   0.413   1.326  15.385  0.2616  0.0355 -0.0665
  366MPD2    H7 5487   0.447   1.358  15.475  0.6215 -0.2398 -0.1067
  367TMC3    C1 5488   0.259   1.483  15.445 -0.3564  1.4239 -0.2202
  367TMC3    C2 5489   0.361   1.559  15.497 -0.8922 -0.4413 -0.6741
  367TMC3    C3 5490   0.334   1.661  15.590  0.1340 -0.0227 -0.1081
  367TMC3    C4 5491   0.131   1.513  15.471 -0.4340 -0.1684 -0.4095
  367TMC3    C5 5492   0.103   1.631  15.544 -0.3644 -0.0369 -0.0127
  367TMC3    C6 5493   0.202   1.694  15.619 -0.7339  0.3502  0.1685
  367TMC3     C 5494   0.285   1.372  15.352 -0.0921  0.3303 -0.1697
  367TMC3     O 5495   0.208   1.358  15.262 -0.0246 -0.3996  0.4271
  367TMC3     H 5496   0.462   1.548  15.458 -0.4674 -0.4046  0.4077
  367TMC3    H1 5497   0.061   1.455  15.411 -0.5380 -1.2392  0.7406
  367TMC3    H2 5498   0.183   1.772  15.692 -1.4172  1.3720 -1.1010
  367TMC3    C7 5499   4.702   1.696  15.518  0.4241 -0.0031  0.5500
  367TMC3    C8 5500   0.444   1.692  15.680  0.2995  0.1167 -0.3181
  367TMC3    O1 5501   4.695   1.811  15.563  0.7235  0.0240  0.4462
  367TMC3    O2 5502   0.558   1.678  15.640 -0.2086  0.1389 -0.1173
  368MPD2     C 5503   1.661   3.377  12.989 -0.3908 -0.0210 -0.5520
  368MPD2    C1 5504   1.704   3.505  13.028 -0.3457 -0.4051 -0.2138
  368MPD2    C2 5505   1.837   3.538  13.041 -0.3096  0.0176  1.2937
  368MPD2    C3 5506   1.933   3.436  13.033 -0.3537  0.4866 -0.3187
  368MPD2    C4 5507   1.892   3.308  12.981 -0.4856 -0.6754 -0.2195
  368MPD2    C5 5508   1.759   3.275  12.964  0.6032  0.1430  0.3165
  368MPD2     H 5509   1.875   3.639  13.056 -2.1734  1.1362 -1.4217
  368MPD2    H1 5510   1.970   3.234  12.971 -0.8120 -1.0196 -0.1968
  368MPD2    H2 5511   1.555   3.359  12.975 -0.7764  0.9659  1.0589
  368MPD2    H3 5512   1.731   3.172  12.946  0.2524  0.0401  1.4809
  368MPD2     N 5513   2.070   3.450  13.057  0.7740  0.7609 -0.0894
  368MPD2    H5 5514   2.123   3.364  13.049  0.1705  0.4641 -0.9076
  368MPD2    N1 5515   1.603   3.606  13.035 -0.5371 -0.4223  0.3844
  368MPD2    H7 5516   1.507   3.578  13.019 -1.2024  0.2143  3.2910
  369TMC3    C1 5517   1.503   3.817  13.000  0.7268  0.2682 -0.6435
  369TMC3    C2 5518   1.525   3.909  12.903  0.0038  0.0896  0.3647
  369TMC3    C3 5519   1.424   3.958  12.826  0.5501  1.0596  1.2527
  369TMC3    C4 5520   1.381   3.757  13.013  0.1994  1.0619  0.2897
  369TMC3    C5 5521   1.281   3.810  12.937  0.2241  0.4882 -0.3538
  369TMC3    C6 5522   1.296   3.917  12.849  0.4918  0.2746  0.3490
  369TMC3     C 5523   1.620   3.740  13.043 -0.1774 -0.5675  0.3228
  369TMC3     O 5524   1.720   3.808  13.074  0.2084  0.2133 -0.0204
  369TMC3     H 5525   1.630   3.936  12.897 -0.3294  1.3713  0.4377
  369TMC3    H1 5526   1.358   3.691  13.096  0.4697  2.3577  1.4093
  369TMC3    H2 5527   1.227   3.956  12.775 -1.8279  0.1857  2.4825
  369TMC3    C7 5528   1.146   3.763  12.967 -0.4543  0.6263 -0.0628
  369TMC3    C8 5529   1.453   4.016  12.692 -0.3743 -0.0146  0.3481
  369TMC3    O1 5530   1.135   3.675  13.051  0.5034  1.0360 -0.5727
  369TMC3    O2 5531   1.366   4.081  12.645  0.4421 -0.4627  0.4899
  370TMC3    C1 5532   0.815   4.230  16.346  0.4306 -0.2460  0.1868
  370TMC3    C2 5533   0.786   4.141  16.447 -0.2017  0.5113 -0.2762
  370TMC3    C3 5534   0.792   4.005  16.420  0.1433 -0.3297  0.4111
  370TMC3    C4 5535   0.849   4.186  16.222  0.0914  0.2804 -0.9165
  370TMC3    C5 5536   0.851   4.052  16.202 -0.2664  0.3693  0.5792
  370TMC3    C6 5537   0.825   3.956  16.294  0.0792  0.3413  0.3860
  370TMC3     C 5538   0.795   4.372  16.380  0.3358 -0.1394 -0.6152
  370TMC3     O 5539   0.759   4.387  16.493 -0.1370 -0.4204  0.2121
  370TMC3     H 5540   0.760   4.169  16.548  1.4880  0.4355  0.1612
  370TMC3    H1 5541   0.892   4.254  16.149  0.8122  0.6130 -0.1828
  370TMC3    H2 5542   0.812   3.854  16.260 -0.0237  1.1235 -1.9020
  370TMC3    C7 5543   0.885   4.022  16.067 -1.2258 -0.3382  0.2762
  370TMC3    C8 5544   0.757   3.896  16.515  0.8194  0.4094 -0.2115
  370TMC3    O1 5545   0.852   4.101  15.979 -0.6064  0.2875  0.1418
  370TMC3    O2 5546   0.736   3.782  16.476 -0.0204  0.4355 -0.1683
  371TMC3    C1 5547   2.091   2.227  15.838 -0.3861  0.2712 -0.1385
  371TMC3    C2 5548   1.964   2.267  15.862  0.3297  0.3461  0.0415
  371TMC3    C3 5549   1.935   2.396  15.829 -0.2878  0.0480 -0.5496
  371TMC3    C4 5550   2.191   2.316  15.796  0.0355 -0.2036 -0.5448
  371TMC3    C5 5551   2.155   2.442  15.768  0.1712 -0.3422  0.1069
  371TMC3    C6 5552   2.027   2.491  15.784  0.3154 -0.3912 -0.3019
  371TMC3     C 5553   2.130   2.115  15.923  0.2507  0.5502 -0.4553
  371TMC3     O 5554   2.218   2.143  16.004  0.0186 -0.2032  0.9004
  371TMC3     H 5555   1.892   2.191  15.890  0.0455  0.5603 -0.1127
  371TMC3    H1 5556   2.297   2.293  15.799  0.2283  0.8834  0.8784
  371TMC3    H2 5557   1.998   2.590  15.750  1.6224 -0.3437 -1.2999
  371TMC3    C7 5558   2.230   2.515  15.665 -0.6328  0.2383 -0.0204
  371TMC3    C8 5559   1.797   2.435  15.807 -0.1321  0.4785  0.3435
  371TMC3    O1 5560   2.205   2.632  15.649  0.5816 -0.6932 -0.4479
  371TMC3    O2 5561   1.713   2.349  15.789  0.7176 -0.2010  0.3673
  372MPD2     C 5562   2.204   3.662  13.684  1.2572  0.2972  0.0291
  372MPD2    C1 5563   2.270   3.563  13.758 -0.4508 -0.1899  0.1903
  372MPD2    C2 5564   2.208   3.448  13.786  0.7129 -0.3655  0.3574
  372MPD2    C3 5565   2.085   3.415  13.735  0.3820  0.1918 -0.1675
  372MPD2    C4 5566   2.018   3.518  13.677  0.0440 -0.1574  0.1096
  372MPD2    C5 5567   2.075   3.642  13.654 -0.5386 -0.1966 -0.2022
  372MPD2     H 5568   2.260   3.370  13.840 -1.7859 -2.6887 -0.5490
  372MPD2    H1 5569   1.914   3.512  13.646  0.8245 -2.4211 -2.0932
  372MPD2    H2 5570   2.253   3.755  13.660 -1.0593  1.0883 -1.5604
  372MPD2    H3 5571   2.018   3.724  13.612  0.3023  0.0335 -0.8928
  372MPD2     N 5572   2.016   3.295  13.752  0.3374  0.5926 -0.1091
  372MPD2    H5 5573   1.920   3.305  13.722  0.7148  1.0469 -1.1762
  372MPD2    N1 5574   2.397   3.580  13.818 -0.4384 -0.0226  0.2818
  372MPD2    H7 5575   2.432   3.515  13.888  1.8161  0.8267 -0.0522
  373TMC3    C1 5576   1.970   3.063  13.788  0.7404  0.7882 -0.1761
  373TMC3    C2 5577   1.844   3.082  13.839  0.0785 -0.4884  0.0027
  373TMC3    C3 5578   1.773   2.968  13.853  0.3740  0.4819  0.6459
  373TMC3    C4 5579   2.030   2.937  13.763 -0.0857 -0.1103  0.4397
  373TMC3    C5 5580   1.950   2.832  13.791  0.0159  0.0903  0.3236
  373TMC3    C6 5581   1.823   2.843  13.831 -0.1787  0.2371  0.2662
  373TMC3     C 5582   2.065   3.172  13.797  0.4877  0.1108 -0.0923
  373TMC3     O 5583   2.179   3.148  13.826 -0.1415  0.4773 -0.6871
  373TMC3     H 5584   1.809   3.183  13.859  0.1939 -0.8556  2.1145
  373TMC3    H1 5585   2.129   2.935  13.720 -1.4022  0.0636 -2.6015
  373TMC3    H2 5586   1.763   2.754  13.846 -1.4997  0.7868 -1.6155
  373TMC3    C7 5587   1.997   2.700  13.739 -0.3076 -0.4642 -0.1430
  373TMC3    C8 5588   1.632   2.993  13.867 -0.2194  0.5375  0.0389
  373TMC3    O1 5589   1.906   2.623  13.704  0.2283  0.9667 -0.0754
  373TMC3    O2 5590   1.586   3.087  13.807 -0.4710 -0.0235 -0.0776
  374TMC3    C1 5591   2.647   3.891   9.824  0.2015  0.4328 -1.0126
  374TMC3    C2 5592   2.727   3.986   9.878  0.2415 -0.2364 -0.2472
  374TMC3    C3 5593   2.800   4.068   9.798 -0.3162 -0.4803 -0.0832
  374TMC3    C4 5594   2.655   3.871   9.690 -0.4345  0.0552  0.6855
  374TMC3    C5 5595   2.738   3.942   9.607 -0.5690 -0.4844 -0.2107
  374TMC3    C6 5596   2.808   4.047   9.661  0.4676 -0.7994 -0.0452
  374TMC3     C 5597   2.543   3.843   9.909  0.0324  0.4940  0.0225
  374TMC3     O 5598   2.533   3.876  10.026 -0.1237  0.3080 -0.6355
  374TMC3     H 5599   2.707   4.016   9.980 -0.1516  1.0352 -0.6973
  374TMC3    H1 5600   2.599   3.797   9.634  4.1947 -2.1928 -1.0165
  374TMC3    H2 5601   2.838   4.133   9.601  1.2851  0.1600  1.7484
  374TMC3    C7 5602   2.728   3.932   9.463 -0.0465 -1.6156 -0.3252
  374TMC3    C8 5603   2.890   4.168   9.849 -0.4552 -1.0023 -0.9078
  374TMC3    O1 5604   2.629   3.877   9.416  0.3584 -0.2100 -0.3471
  374TMC3    O2 5605   2.944   4.238   9.768  0.3785 -0.9603  0.1178
  375MPD2     C 5606   2.202   0.067  16.775  0.2187  0.3640 -0.0978
  375MPD2    C1 5607   2.123   4.707  16.696  0.4690 -0.4671 -0.0769
  375MPD2    C2 5608   2.189   4.603  16.629  0.0074  0.8267 -1.1232
  375MPD2    C3 5609   2.326   4.581  16.647  0.5104  0.2136 -1.1624
  375MPD2    C4 5610   2.395   4.659  16.734 -0.3428 -0.2060  1.1214
  375MPD2    C5 5611   2.333   0.043  16.791 -0.0278 -0.2362 -0.0920
  375MPD2     H 5612   2.118   4.548  16.569  1.6278  1.0294 -3.2240
  375MPD2    H1 5613   2.496   4.625  16.754 -0.6198 -0.4000  2.2263
  375MPD2    H2 5614   2.171   0.159  16.824 -2.0819 -0.8975  0.8084
  375MPD2    H3 5615   2.395   0.112  16.847 -1.4154  0.7054  0.2823
  375MPD2     N 5616   2.385   4.468  16.590 -0.0555  0.0495  0.8445
  375MPD2    H5 5617   2.478   4.449  16.628  0.7595 -0.8010 -1.5816
  375MPD2    N1 5618   1.985   4.720  16.686  0.1822 -0.4728  0.2172
  375MPD2    H7 5619   1.941   4.651  16.625 -0.9718  0.4887 -0.0403
  376TMC3    C1 5620   2.404   4.259  16.482 -0.0864 -0.3063 -0.1930
  376TMC3    C2 5621   2.521   4.251  16.563  0.6090  0.0547 -0.3104
  376TMC3    C3 5622   2.610   4.164  16.509 -0.8261  0.7696 -0.0832
  376TMC3    C4 5623   2.391   4.197  16.360  0.5770 -0.5442 -0.2531
  376TMC3    C5 5624   2.484   4.113  16.321 -0.3227 -0.3928 -0.1454
  376TMC3    C6 5625   2.605   4.099  16.383 -0.2884  0.1035 -0.1023
  376TMC3     C 5626   2.327   4.379  16.503  0.0929  0.3016 -0.0775
  376TMC3     O 5627   2.215   4.386  16.465  0.0161  0.0737  0.1711
  376TMC3     H 5628   2.522   4.276  16.668  2.3511  1.5271 -0.6813
  376TMC3    H1 5629   2.307   4.227  16.298  0.1597  2.4295  1.7427
  376TMC3    H2 5630   2.693   4.041  16.355  0.3641  1.6063 -1.1302
  376TMC3    C7 5631   2.467   4.064  16.189 -0.2303  0.4499  0.2213
  376TMC3    C8 5632   2.748   4.179  16.554  0.1120  0.5631 -0.0795
  376TMC3    O1 5633   2.366   4.098  16.132 -0.2339 -0.0678  0.4929
  376TMC3    O2 5634   2.832   4.182  16.468  0.2145  0.1957  0.2187
  377MPD2     C 5635   0.550   4.013  12.177  0.3202 -0.3728  0.2067
  377MPD2    C1 5636   0.612   3.952  12.282  0.1603  0.8356  0.0752
  377MPD2    C2 5637   0.538   3.871  12.368  0.3107  0.0112 -0.6140
  377MPD2    C3 5638   0.399   3.855  12.350  0.0040 -0.7704 -0.2961
  377MPD2    C4 5639   0.344   3.914  12.238  0.6331  0.4806  0.4050
  377MPD2    C5 5640   0.415   3.998  12.158 -0.2759 -0.2793  0.5252
  377MPD2     H 5641   0.590   3.823  12.450  1.9249  0.0178 -1.6516
  377MPD2    H1 5642   0.239   3.894  12.221  1.0702 -0.3596 -1.2546
  377MPD2    H2 5643   0.604   4.082  12.112 -1.2337 -0.8752 -1.5902
  377MPD2    H3 5644   0.359   4.031  12.071  0.0973 -2.1301 -0.4121
  377MPD2     N 5645   0.314   3.780  12.427  0.6731 -0.0126  0.0539
  377MPD2    H5 5646   0.215   3.789  12.409  0.4800  0.2553  1.1967
  377MPD2    N1 5647   0.755   3.962  12.292 -0.3313 -1.0190  0.4720
  377MPD2    H7 5648   0.807   4.022  12.228  2.1704  1.6850  5.0190
  378TMC3    C1 5649   1.137   3.956  12.207 -0.2087 -0.3451 -0.0900
  378TMC3    C2 5650   1.006   3.976  12.242  0.3059  0.3546 -0.4490
  378TMC3    C3 5651   0.975   3.928  12.365  0.7798  0.0201  0.2056
  378TMC3    C4 5652   1.230   3.906  12.298  0.7385  0.2285  0.2604
  378TMC3    C5 5653   1.185   3.865  12.418 -0.0819 -0.1425  0.0602
  378TMC3    C6 5654   1.056   3.869  12.457  0.8710 -0.4940  0.2468
  378TMC3     C 5655   1.165   3.971  12.064 -0.0051  0.4843  0.4009
  378TMC3     O 5656   1.087   4.041  11.999 -0.2431 -0.4192  0.0689
  378TMC3     H 5657   0.939   4.020  12.169  0.7636  1.8905  0.0549
  378TMC3    H1 5658   1.335   3.890  12.277  0.5278  0.5638 -1.0889
  378TMC3    H2 5659   1.033   3.834  12.557  1.3077  2.3902  1.3504
  378TMC3    C7 5660   1.267   3.779  12.506 -0.3599 -0.4852  0.0552
  378TMC3    C8 5661   0.836   3.899  12.385  0.8730  0.3165  0.6543
  378TMC3    O1 5662   1.217   3.731  12.607  0.1238 -0.6989  0.5898
  378TMC3    O2 5663   0.816   3.809  12.462 -0.2973  0.1525  0.3770
  379MPD2     C 5664   1.722   2.068  16.213  0.6718  0.3843  0.3595
  379MPD2    C1 5665   1.612   1.992  16.261 -0.2314 -0.4261 -0.6687
  379MPD2    C2 5666   1.621   1.900  16.363  0.4424 -0.0805  0.1528
  379MPD2    C3 5667   1.749   1.866  16.412  0.2887 -0.1966  0.0422
  379MPD2    C4 5668   1.859   1.932  16.361  1.0813 -0.4099 -0.4533
  379MPD2    C5 5669   1.843   2.032  16.264 -0.1916  1.2483 -0.7023
  379MPD2     H 5670   1.534   1.844  16.395  0.2078  0.8969  1.2143
  379MPD2    H1 5671   1.964   1.914  16.379  0.8986 -0.8963  0.1439
  379MPD2    H2 5672   1.724   2.140  16.132  0.2897  1.2259  1.1160
  379MPD2    H3 5673   1.936   2.076  16.230  0.0892  1.2990  0.1461
  379MPD2     N 5674   1.771   1.767  16.506  0.5777  0.2156 -0.2066
  379MPD2    H5 5675   1.864   1.726  16.516  0.1854 -0.0714  2.1837
  379MPD2    N1 5676   1.490   2.016  16.197 -0.2209  0.4449 -0.4464
  379MPD2    H7 5677   1.497   2.074  16.113 -1.2040 -0.3947 -1.1050
  380TMC3    C1 5678   1.256   1.991  16.131  0.2402 -0.4199  0.0084
  380TMC3    C2 5679   1.305   1.975  15.998  0.2833  0.3549 -0.3827
  380TMC3    C3 5680   1.205   1.972  15.903 -0.4390  0.2471  0.2504
  380TMC3    C4 5681   1.132   1.962  16.166 -0.1410 -0.0049 -0.0515
  380TMC3    C5 5682   1.046   1.931  16.067 -0.0777  0.1041 -0.5558
  380TMC3    C6 5683   1.075   1.942  15.931 -0.2902  0.1160  0.0234
  380TMC3     C 5684   1.361   1.981  16.234  0.5160  0.5187  0.0741
  380TMC3     O 5685   1.319   1.938  16.341 -0.1156  0.0720  0.1676
  380TMC3     H 5686   1.408   1.990  15.967  0.1093 -0.5504 -1.3825
  380TMC3    H1 5687   1.111   1.953  16.272 -0.7417  0.7706 -0.1085
  380TMC3    H2 5688   1.004   1.939  15.849 -0.2253  0.6504 -0.0502
  380TMC3    C7 5689   0.909   1.901  16.113  0.1143 -0.3830 -0.2686
  380TMC3    C8 5690   1.246   2.015  15.770  0.2056  0.6840 -0.9708
  380TMC3    O1 5691   0.877   1.904  16.230 -0.3470 -0.5287  0.0620
  380TMC3    O2 5692   1.345   2.084  15.770  0.3361  0.0353  0.2403
  381TMC3    C1 5693   0.907   3.180  16.338  0.7294 -0.6446  0.2084
  381TMC3    C2 5694   1.002   3.274  16.352 -0.6707 -0.0491 -0.0592
  381TMC3    C3 5695   0.967   3.398  16.401 -0.0181 -0.0925  0.2289
  381TMC3    C4 5696   0.780   3.212  16.365  0.3311 -0.5466  0.5110
  381TMC3    C5 5697   0.744   3.338  16.412  0.9579 -0.5462 -0.1762
  381TMC3    C6 5698   0.840   3.434  16.443  0.0848 -0.1631 -0.3490
  381TMC3     C 5699   0.932   3.047  16.277  0.6632  0.1671 -0.3047
  381TMC3     O 5700   0.864   2.956  16.327 -0.1618 -0.7869 -0.0528
  381TMC3     H 5701   1.105   3.250  16.328 -1.0414 -1.4708 -0.2088
  381TMC3    H1 5702   0.695   3.147  16.351  1.5808 -2.2188  0.6760
  381TMC3    H2 5703   0.810   3.536  16.465  2.0601  0.7845 -2.0722
  381TMC3    C7 5704   0.609   3.349  16.458  0.1064 -0.0370 -0.0778
  381TMC3    C8 5705   1.074   3.496  16.399 -0.4314  0.4085 -0.3205
  381TMC3    O1 5706   0.512   3.300  16.398  0.0087 -0.3853  0.0254
  381TMC3    O2 5707   1.172   3.485  16.326  0.1917  0.0601 -0.1992
  382MPD2     C 5708   0.582   0.944  17.154  0.5493 -0.0640  0.5911
  382MPD2    C1 5709   0.599   0.932  17.292  0.4976 -0.0811 -0.3608
  382MPD2    C2 5710   0.515   0.852  17.367  0.0276 -0.1822  0.4859
  382MPD2    C3 5711   0.417   0.781  17.311 -0.2658 -0.6220 -0.6012
  382MPD2    C4 5712   0.401   0.789  17.166 -0.2544  0.1751  0.3588
  382MPD2    C5 5713   0.480   0.871  17.091 -0.0750  0.5113  0.0541
  382MPD2     H 5714   0.523   0.846  17.475  0.0195 -0.3615  0.4755
  382MPD2    H1 5715   0.330   0.728  17.112  0.1672  0.1850 -0.2145
  382MPD2    H2 5716   0.648   0.994  17.085 -1.4255  1.4090 -0.2268
  382MPD2    H3 5717   0.472   0.872  16.983 -0.7255 -1.3326  0.0822
  382MPD2     N 5718   0.321   0.706  17.382  0.7548  0.2059 -1.4208
  382MPD2    H5 5719   0.249   0.669  17.321 -0.2190  1.2460 -0.8908
  382MPD2    N1 5720   0.705   0.992  17.363  0.6461  0.3546 -0.0225
  382MPD2    H7 5721   0.696   0.976  17.462 -0.2018  2.9790  0.3318
  383TMC3    C1 5722   0.207   0.596  17.557  0.6522  0.5186  0.3535
  383TMC3    C2 5723   0.135   0.526  17.473 -0.3979  1.0204 -0.0733
  383TMC3    C3 5724   0.027   0.452  17.528 -0.4026 -0.2207 -0.3862
  383TMC3    C4 5725   0.176   0.595  17.693  0.2549  0.3608 -0.3414
  383TMC3    C5 5726   0.074   0.520   0.043 -0.1004  0.2475 -0.4992
  383TMC3    C6 5727   4.718   0.446  17.655  0.3359 -0.1143  0.5922
  383TMC3     C 5728   0.307   0.692  17.512 -1.0011 -0.3961  0.4179
  383TMC3     O 5729   0.353   0.763  17.603  0.3292  0.2495  0.3353
  383TMC3     H 5730   0.137   0.528  17.364  1.3952 -1.4486 -0.1112
  383TMC3    H1 5731   0.245   0.632   0.071 -3.6080  2.6154  2.0652
  383TMC3    H2 5732   4.628   0.396  17.691 -0.0264  0.7779  0.9235
  383TMC3    C7 5733   0.078   0.490   0.186 -0.1355  0.2568 -0.0209
  383TMC3    C8 5734   4.656   0.389  17.434  0.0382  0.1879 -0.5742
  383TMC3    O1 5735   0.166   0.539   0.256 -0.5724 -0.2167 -0.1375
  383TMC3    O2 5736   4.682   0.407  17.317 -0.3019 -0.4703  0.0945
  384MPD2     C 5737   1.617   2.048  12.221 -0.4304  0.2191 -0.2970
  384MPD2    C1 5738   1.635   2.015  12.356  0.3125 -0.8165 -0.8993
  384MPD2    C2 5739   1.728   1.913  12.380 -0.0092 -0.3598 -0.1741
  384MPD2    C3 5740   1.790   1.843  12.277  0.2722 -0.0823 -0.3005
  384MPD2    C4 5741   1.768   1.872  12.139  0.1786  0.1786 -0.2430
  384MPD2    C5 5742   1.686   1.983  12.118 -0.2712  0.1383 -0.0260
  384MPD2     H 5743   1.749   1.889  12.484 -0.2553 -0.4603 -0.1463
  384MPD2    H1 5744   1.812   1.825  12.051 -0.7302 -2.0245  0.4647
  384MPD2    H2 5745   1.581   2.147  12.195 -0.9614  0.2672  0.6437
  384MPD2    H3 5746   1.668   2.018  12.017 -1.8283  0.9684  0.5406
  384MPD2     N 5747   1.875   1.739  12.325 -0.1121  0.1724  0.0218
  384MPD2    H5 5748   1.894   1.724  12.423 -3.1004  0.2757  0.6220
  384MPD2    N1 5749   1.568   2.078  12.465  0.6980 -0.1311 -0.2595
  384MPD2    H7 5750   1.591   2.037  12.555 -0.0806  2.6560  1.1794
  385TMC3    C1 5751   2.000   1.544  12.315 -0.2930  0.3224 -0.2991
  385TMC3    C2 5752   1.945   1.416  12.293 -0.0730  0.0803 -0.2260
  385TMC3    C3 5753   1.952   1.334  12.396  0.6744 -0.0731  0.3773
  385TMC3    C4 5754   2.029   1.588  12.447  0.1554  0.0448 -0.1342
  385TMC3    C5 5755   2.001   1.503  12.552  0.8833 -0.1527 -0.5529
  385TMC3    C6 5756   1.973   1.373  12.533 -0.7054 -0.1083  0.5563
  385TMC3     C 5757   1.925   1.641  12.239  0.3308  0.1741 -0.2071
  385TMC3     O 5758   1.906   1.607  12.127  0.2616 -0.2391 -0.3364
  385TMC3     H 5759   1.918   1.383  12.193 -0.5285  0.9679 -0.3904
  385TMC3    H1 5760   2.075   1.685  12.459 -2.1346  1.0377  0.7603
  385TMC3    H2 5761   1.958   1.304  12.615  1.5462  0.7873  1.6947
  385TMC3    C7 5762   1.911   1.582  12.640  0.8151  0.5259 -0.0186
  385TMC3    C8 5763   1.875   1.207  12.393  0.5561  0.6010 -0.0627
  385TMC3    O1 5764   1.905   1.701  12.614  0.0116  0.3391 -0.3707
  385TMC3    O2 5765   1.854   1.156  12.499 -0.5443  0.2767 -0.6676
  386TMC3    C1 5766   2.393   4.031  11.629  0.0023  0.2310 -0.0959
  386TMC3    C2 5767   2.408   3.954  11.516 -0.0365  1.3990 -0.5200
  386TMC3    C3 5768   2.309   3.959  11.417 -0.6197 -0.0489 -0.1664
  386TMC3    C4 5769   2.288   4.119  11.632 -0.0929 -0.0346 -0.0373
  386TMC3    C5 5770   2.189   4.116  11.537 -0.0066 -0.5380 -0.3371
  386TMC3    C6 5771   2.198   4.037  11.427  0.1765 -0.2101 -0.2674
  386TMC3     C 5772   2.440   3.987  11.758  0.8111 -0.5773 -1.1728
  386TMC3     O 5773   2.426   4.063  11.853 -0.6395 -0.6680 -0.1782
  386TMC3     H 5774   2.502   3.903  11.502 -1.5691 -1.0330 -1.9160
  386TMC3    H1 5775   2.263   4.166  11.726 -0.3201  0.4552 -0.3433
  386TMC3    H2 5776   2.128   4.019  11.347  0.7697 -0.1776 -0.7998
  386TMC3    C7 5777   2.061   4.186  11.562  0.2199 -0.9223 -0.1330
  386TMC3    C8 5778   2.338   3.924  11.277  0.5791  0.5865  0.3639
  386TMC3    O1 5779   2.025   4.219  11.676 -0.1668  0.2870 -0.5029
  386TMC3    O2 5780   2.240   3.886  11.211  0.4648  0.0776 -0.1291
  387MPD2     C 5781   4.462   4.684   9.515  0.4156  0.3869  0.0967
  387MPD2    C1 5782   4.575   4.636   9.570  0.2534  0.2919 -0.2919
  387MPD2    C2 5783   4.595   4.499   9.592  0.0701  0.4046  0.4169
  387MPD2    C3 5784   4.497   4.412   9.544 -0.2449  0.3768 -0.1108
  387MPD2    C4 5785   4.380   4.461   9.482 -0.1915 -0.3666 -0.2591
  387MPD2    C5 5786   4.364   4.597   9.467 -0.1617 -0.3776 -0.4715
  387MPD2     H 5787   4.689   4.462   9.631 -0.9396 -0.0196  2.4235
  387MPD2    H1 5788   4.311   4.398   9.428  1.0949 -0.3424 -1.9302
  387MPD2    H2 5789   4.445   0.066   9.506  0.8337  0.5073  0.6518
  387MPD2    H3 5790   4.274   4.624   9.413 -0.6283  0.9639  0.9747
  387MPD2     N 5791   4.521   4.282   9.576  0.1922  0.3551  0.2848
  387MPD2    H5 5792   4.617   4.266   9.604  0.1233  0.7837  0.7732
  387MPD2    N1 5793   4.669   4.724   9.638  0.5141  0.1214 -0.3464
  387MPD2    H7 5794   0.031   4.677   9.663 -0.3504 -1.4461 -0.3305
  388TMC3    C1 5795   0.035   0.176   9.757 -0.0449 -0.5953 -0.5344
  388TMC3    C2 5796   0.088   0.299   9.763 -0.4194 -0.1627  0.1371
  388TMC3    C3 5797   0.192   0.322   9.849 -0.0684  0.3320 -0.7133
  388TMC3    C4 5798   0.084   0.077   9.836 -0.3953  0.0964  0.1601
  388TMC3    C5 5799   0.181   0.107   9.924  0.3671  0.3641  0.0795
  388TMC3    C6 5800   0.244   0.226   9.931  0.5108 -0.8602  1.0567
  388TMC3     C 5801   4.662   0.136   9.656  0.4072  0.3210  0.4521
  388TMC3     O 5802   4.597   0.223   9.597  0.0082  0.1926  0.0269
  388TMC3     H 5803   0.025   0.376   9.721 -1.9328 -2.7731 -2.3735
  388TMC3    H1 5804   0.030   4.709   9.856 -0.6623  0.9275  3.3457
  388TMC3    H2 5805   0.326   0.243  10.000  1.4508 -0.3977 -0.1728
  388TMC3    C7 5806   0.239   0.003  10.008  0.3168  0.1847  0.1640
  388TMC3    C8 5807   0.257   0.456   9.851  0.3070  0.3243 -1.0415
  388TMC3    O1 5808   0.283   0.039  10.118 -0.0129 -0.0044  0.2579
  388TMC3    O2 5809   0.318   0.486   9.954  0.3048  0.4569 -0.2668
  389MPD2     C 5810   3.742   2.332  11.570  0.4359  0.2905  0.3461
  389MPD2    C1 5811   3.669   2.298  11.462 -0.3579 -0.1857 -0.0950
  389MPD2    C2 5812   3.560   2.213  11.483  0.4653 -0.3430  0.5708
  389MPD2    C3 5813   3.519   2.179  11.613 -0.0455 -0.8048 -0.5629
  389MPD2    C4 5814   3.591   2.228  11.721 -0.1846 -0.5832 -0.5503
  389MPD2    C5 5815   3.699   2.316  11.701 -0.5127  0.8531 -0.5539
  389MPD2     H 5816   3.486   2.201  11.404  0.3175  1.3117  0.4489
  389MPD2    H1 5817   3.556   2.214  11.823  0.0532  0.8538 -0.2726
  389MPD2    H2 5818   3.828   2.397  11.562 -0.0092  0.6691 -1.3751
  389MPD2    H3 5819   3.746   2.346  11.794  1.6262 -0.6813 -1.1411
  389MPD2     N 5820   3.408   2.095  11.640 -0.0695  0.1374 -0.2089
  389MPD2    H5 5821   3.388   2.069  11.736  2.3428  2.1358  0.8368
  389MPD2    N1 5822   3.710   2.368  11.344 -0.2559 -0.1895  0.7231
  389MPD2    H7 5823   3.779   2.442  11.350 -0.2004 -0.3893  2.6506
  390TMC3    C1 5824   3.262   1.918  11.612  0.1930 -0.3909 -0.0870
  390TMC3    C2 5825   3.262   1.896  11.750 -0.6284 -0.0341  0.3365
  390TMC3    C3 5826   3.154   1.842  11.814 -0.3799 -0.3833  0.4232
  390TMC3    C4 5827   3.142   1.906  11.539  0.4405  0.4052 -0.2165
  390TMC3    C5 5828   3.029   1.872  11.614  0.3386  0.4443 -0.1388
  390TMC3    C6 5829   3.034   1.841  11.746  0.8240  1.0391  0.2953
  390TMC3     C 5830   3.355   2.004  11.556 -0.5974  0.0793 -0.1042
  390TMC3     O 5831   3.364   1.996  11.433 -0.5447 -0.4083  0.2183
  390TMC3     H 5832   3.351   1.894  11.811 -0.3973 -1.3182 -0.0268
  390TMC3    H1 5833   3.141   1.945  11.437  1.3911  3.3300  0.8866
  390TMC3    H2 5834   2.953   1.779  11.782  0.6596  2.4543  2.4191
  390TMC3    C7 5835   2.922   1.805  11.546 -0.0127  0.3579  0.1789
  390TMC3    C8 5836   3.165   1.702  11.843 -0.2493 -0.2139  0.2216
  390TMC3    O1 5837   2.813   1.785  11.605 -0.0898  0.1582  0.1254
  390TMC3    O2 5838   3.171   1.618  11.755 -0.0260 -0.2438 -0.2058
  391MPD2     C 5839   3.448   3.755  11.304  0.1096  0.0824 -0.2851
  391MPD2    C1 5840   3.535   3.853  11.268 -0.0852  0.2083  0.4194
  391MPD2    C2 5841   3.555   3.881  11.137  0.3432  0.3371  0.3069
  391MPD2    C3 5842   3.459   3.849  11.049 -0.0803  0.3341  0.0401
  391MPD2    C4 5843   3.353   3.767  11.085  0.5244  0.1867 -0.6369
  391MPD2    C5 5844   3.351   3.716  11.214  0.1244  0.3119 -0.1657
  391MPD2     H 5845   3.629   3.954  11.106  1.7546 -0.9885  0.5490
  391MPD2    H1 5846   3.277   3.732  11.016  0.8055  0.1435 -0.9237
  391MPD2    H2 5847   3.457   3.710  11.403 -4.3665 -2.5149 -1.0434
  391MPD2    H3 5848   3.282   3.637  11.244  0.3696  0.4542  0.7813
  391MPD2     N 5849   3.474   3.897  10.915  0.3817 -0.0651 -0.0231
  391MPD2    H5 5850   3.553   3.960  10.906  1.2097 -1.3092 -1.3854
  391MPD2    N1 5851   3.621   3.907  11.366 -0.0141 -0.5695  0.6332
  391MPD2    H7 5852   3.597   3.873  11.459  1.8263 -0.8145  1.0039
  392TMC3    C1 5853   3.435   3.955  10.684  0.0706  0.2665  0.0888
  392TMC3    C2 5854   3.354   3.946  10.576 -0.1855  0.5482  0.3938
  392TMC3    C3 5855   3.383   4.030  10.469  0.2535 -0.2088 -0.1437
  392TMC3    C4 5856   3.539   4.048  10.682 -0.1997 -0.4309 -0.4429
  392TMC3    C5 5857   3.574   4.116  10.574  0.1113  0.7647  0.1800
  392TMC3    C6 5858   3.496   4.107  10.465 -0.0177  0.0764 -0.9882
  392TMC3     C 5859   3.377   3.895  10.811  0.0712 -0.2002  0.2743
  392TMC3     O 5860   3.276   3.828  10.801  0.0808 -0.2446 -0.8044
  392TMC3     H 5861   3.256   3.899  10.576  0.1700 -0.2019  0.7192
  392TMC3    H1 5862   3.594   4.070  10.773 -0.1341 -1.5069 -0.2157
  392TMC3    H2 5863   3.508   4.178  10.385 -0.5252  1.2627 -0.0134
  392TMC3    C7 5864   3.669   4.225  10.589 -0.0854 -0.2617  0.5987
  392TMC3    C8 5865   3.284   4.055  10.365 -0.5380  0.8132 -0.1964
  392TMC3    O1 5866   3.686   4.264  10.702  0.2357  0.2710  0.0483
  392TMC3    O2 5867   3.198   3.967  10.344  0.4281 -0.2509  0.0830
  393TMC3    C1 5868   1.766   2.196  10.506  0.7731  0.5014 -0.3494
  393TMC3    C2 5869   1.722   2.194  10.637  0.1825  0.0339  0.1879
  393TMC3    C3 5870   1.714   2.075  10.699 -0.5684 -0.7713  0.3005
  393TMC3    C4 5871   1.798   2.085  10.434 -0.4167  0.2068  0.2760
  393TMC3    C5 5872   1.797   1.963  10.510 -0.2745  0.1422  0.5031
  393TMC3    C6 5873   1.756   1.957  10.639 -0.3076 -0.0616 -1.2936
  393TMC3     C 5874   1.752   2.322  10.430 -1.0447  0.1143  0.1322
  393TMC3     O 5875   1.801   2.335  10.322 -0.2828  0.4304 -0.9473
  393TMC3     H 5876   1.682   2.281  10.687  1.9784  1.4059 -0.7705
  393TMC3    H1 5877   1.822   2.090  10.328 -1.2917 -1.7533 -0.0113
  393TMC3    H2 5878   1.766   1.861  10.687  0.8933  0.6696 -0.0773
  393TMC3    C7 5879   1.860   1.856  10.435 -0.0512 -0.1018  0.8357
  393TMC3    C8 5880   1.679   2.079  10.841  1.0158 -0.2248 -0.0008
  393TMC3    O1 5881   1.959   1.886  10.370  0.3420 -0.7665 -0.4325
  393TMC3    O2 5882   1.620   2.180  10.883  0.5170  0.0522  0.2503
  394TMC3    C1 5883   3.693   2.452  11.124  0.4561  0.0908 -0.0387
  394TMC3    C2 5884   3.595   2.495  11.041 -0.3423  0.1402  0.1658
  394TMC3    C3 5885   3.629   2.597  10.957  0.7656 -0.1335 -0.1660
  394TMC3    C4 5886   3.821   2.494  11.114 -0.5690 -0.7790 -0.4751
  394TMC3    C5 5887   3.853   2.585  11.019 -0.6983 -0.9898 -0.3946
  394TMC3    C6 5888   3.761   2.635  10.930  0.1428 -0.1319 -0.2388
  394TMC3     C 5889   3.658   2.350  11.220 -0.2822 -0.0772  0.3168
  394TMC3     O 5890   3.579   2.268  11.179  0.1768  1.2237  0.1725
  394TMC3     H 5891   3.490   2.472  11.055 -0.7916  2.3047  0.2924
  394TMC3    H1 5892   3.891   2.484  11.196 -0.8516  0.0184 -0.1441
  394TMC3    H2 5893   3.788   2.711  10.857  0.3552  0.0305  0.0099
  394TMC3    C7 5894   3.995   2.583  10.967  0.2749 -0.7113 -0.0140
  394TMC3    C8 5895   3.545   2.605  10.841 -0.0143 -0.4028 -0.7572
  394TMC3    O1 5896   4.018   2.673  10.887  0.4813 -0.1801 -0.1034
  394TMC3    O2 5897   3.508   2.714  10.809 -0.0424 -0.5166  0.2673
  395TMC3    C1 5898   3.727   4.173  14.619  0.6224 -0.2495  0.1040
  395TMC3    C2 5899   3.602   4.206  14.560 -0.3498  0.0423  0.6297
  395TMC3    C3 5900   3.550   4.333  14.578  0.4650 -0.1519  0.2800
  395TMC3    C4 5901   3.808   4.266  14.672 -0.3234  0.3689 -0.4443
  395TMC3    C5 5902   3.768   4.396  14.662  0.0864  0.7720 -0.3009
  395TMC3    C6 5903   3.638   4.430  14.629 -0.1097  0.3393 -0.0162
  395TMC3     C 5904   3.749   4.040  14.671  0.5894 -0.7794  0.5004
  395TMC3     O 5905   3.863   3.999  14.688 -0.1366 -0.0031 -0.3223
  395TMC3     H 5906   3.543   4.126  14.518  1.2982 -0.4565 -0.7135
  395TMC3    H1 5907   3.897   4.237  14.726  0.1960  0.4104 -1.2863
  395TMC3    H2 5908   3.606   4.534  14.630 -0.7110  0.1411  1.2137
  395TMC3    C7 5909   3.847   4.486  14.722 -0.5733 -0.4482  0.7318
  395TMC3    C8 5910   3.419   4.341  14.637 -0.2966  0.3575 -0.3298
  395TMC3    O1 5911   3.791   4.583  14.775  0.1429 -0.1547  0.1282
  395TMC3    O2 5912   3.397   4.439  14.710  0.4312 -0.0647 -0.0285
  396MPD2     C 5913   2.987   0.250  17.239 -0.5752 -0.6211 -0.4216
  396MPD2    C1 5914   3.038   0.346  17.321  0.3388  0.3586 -0.1911
  396MPD2    C2 5915   3.055   0.474  17.273  0.6147 -1.0507  0.2276
  396MPD2    C3 5916   3.020   0.515  17.146  0.7309  0.2341  0.2991
  396MPD2    C4 5917   2.957   0.420  17.067  0.1874 -0.2209 -0.6216
  396MPD2    C5 5918   2.947   0.293  17.115 -0.7651  0.4811  0.1735
  396MPD2     H 5919   3.100   0.545  17.341 -0.1631  0.1470 -0.5016
  396MPD2    H1 5920   2.942   0.430  16.960 -1.7263  1.2062 -0.2360
  396MPD2    H2 5921   2.962   0.151  17.276  0.5345 -1.2608 -1.3756
  396MPD2    H3 5922   2.907   0.216  17.050 -1.0468  0.4125  0.4293
  396MPD2     N 5923   3.054   0.648  17.115 -0.2633  0.0070 -0.3023
  396MPD2    H5 5924   3.100   0.699  17.189 -0.6908 -0.1053  0.0425
  396MPD2    N1 5925   3.082   0.305  17.451 -0.4445 -0.3574  0.0793
  396MPD2    H7 5926   3.067   0.208  17.477  0.7004  0.1758  2.7596
  397TMC3    C1 5927   3.151   0.327  17.676  0.0489  0.5100 -0.5270
  397TMC3    C2 5928   3.274   0.302   0.026 -0.3715  0.6097  0.5764
  397TMC3    C3 5929   3.332   0.174   0.036  0.2292  0.0773  0.4548
  397TMC3    C4 5930   3.066   0.219  17.679  0.0807  0.6208  0.9473
  397TMC3    C5 5931   3.107   0.093   0.015 -0.0635 -0.4331 -0.5252
  397TMC3    C6 5932   3.242   0.069   0.045 -0.5447 -0.1055 -0.5827
  397TMC3     C 5933   3.156   0.383  17.542 -0.0114  0.5392  0.0828
  397TMC3     O 5934   3.223   0.481  17.519 -0.4450 -0.7336  0.2263
  397TMC3     H 5935   3.336   0.390   0.011  2.2763 -1.0796  1.5321
  397TMC3    H1 5936   2.960   0.242  17.676  0.0400  0.4516  1.0853
  397TMC3    H2 5937   3.266   4.693   0.078  1.6441 -0.2110 -2.4788
  397TMC3    C7 5938   3.000   4.718   0.061  0.4121  0.2169  0.0867
  397TMC3    C8 5939   3.435   0.150  17.637 -0.2392 -0.1725  0.3485
  397TMC3    O1 5940   2.894   0.007  17.695  0.1758  0.4530 -0.1962
  397TMC3    O2 5941   3.413   0.076  17.537  0.0533 -0.2231 -0.7210
  398MPD2     C 5942   1.428   1.158   0.308  0.8370  0.0568 -0.6490
  398MPD2    C1 5943   1.515   1.118   0.408  0.0218 -1.0373 -0.2521
  398MPD2    C2 5944   1.604   1.209   0.457  0.9983  0.1740  0.0429
  398MPD2    C3 5945   1.605   1.343   0.414 -0.2038 -0.5715 -0.3642
  398MPD2    C4 5946   1.515   1.381   0.315  1.5499 -0.2361 -0.1804
  398MPD2    C5 5947   1.428   1.287   0.270 -0.7989  0.5233  0.3131
  398MPD2     H 5948   1.674   1.176   0.533 -1.3513  0.5308  2.3693
  398MPD2    H1 5949   1.516   1.487   0.290  2.0321 -0.4113 -0.8990
  398MPD2    H2 5950   1.350   1.104   0.256  2.4282 -1.1573 -1.7697
  398MPD2    H3 5951   1.365   1.311   0.185 -0.1871 -0.1648 -0.3350
  398MPD2     N 5952   1.713   1.420   0.469 -0.5078  0.4526  0.6825
  398MPD2    H5 5953   1.776   1.367   0.529 -0.1146  1.0740  0.8152
  398MPD2    N1 5954   1.530   0.980   0.444 -0.7626  0.2484 -0.5535
  398MPD2    H7 5955   1.602   0.947   0.508 -1.9627 -0.5493  0.3910
  399TMC3    C1 5956   1.486   0.753   0.447  0.3803  0.9948  0.6570
  399TMC3    C2 5957   1.607   0.726   0.496  0.3859  0.1159  0.0306
  399TMC3    C3 5958   1.627   0.605   0.561  0.6148 -0.4223 -0.2199
  399TMC3    C4 5959   1.387   0.663   0.465 -0.1131 -0.1467  0.2345
  399TMC3    C5 5960   1.406   0.543   0.520  0.6287 -0.4063  0.5439
  399TMC3    C6 5961   1.530   0.514   0.571  0.1718  0.0715  0.0120
  399TMC3     C 5962   1.452   0.882   0.391  0.2927  0.3627 -0.0612
  399TMC3     O 5963   1.339   0.887   0.335  0.2960  0.5162 -0.2782
  399TMC3     H 5964   1.689   0.793   0.472  0.2449  0.4136  0.3770
  399TMC3    H1 5965   1.282   0.687   0.453  0.0487  0.7541  0.6245
  399TMC3    H2 5966   1.548   0.419   0.620 -0.4771 -1.1066 -2.0352
  399TMC3    C7 5967   1.285   0.477   0.586 -0.8369 -0.2498  0.1526
  399TMC3    C8 5968   1.738   0.604   0.647 -0.9224 -0.2217  0.4338
  399TMC3    O1 5969   1.286   0.478   0.710 -0.2818  0.0750 -0.4195
  399TMC3    O2 5970   1.839   0.652   0.612  0.2548  0.1256 -0.0506
  400TMC3    C1 5971   0.159   0.326  17.056  0.4454 -0.3288 -0.1862
  400TMC3    C2 5972   0.086   0.217  17.020 -0.1686  0.1009 -0.6216
  400TMC3    C3 5973   0.044   0.209  16.891 -0.3592 -0.3938 -0.3115
  400TMC3    C4 5974   0.162   0.435  16.973 -0.7903  0.3679  0.0014
  400TMC3    C5 5975   0.089   0.428  16.858 -0.7388  1.0427 -0.3926
  400TMC3    C6 5976   0.037   0.317  16.804 -0.2165  0.8189 -0.0840
  400TMC3     C 5977   0.233   0.317  17.182 -0.3671 -0.4275  0.4612
  400TMC3     O 5978   0.199   0.229  17.260  0.0330  0.1758 -0.4725
  400TMC3     H 5979   0.089   0.127  17.079  1.8177  0.7619  0.2898
  400TMC3    H1 5980   0.234   0.513  16.994 -2.7097  1.7381  1.3596
  400TMC3    H2 5981   4.704   0.326  16.712  2.2662  0.2876 -1.6761
  400TMC3    C7 5982   0.057   0.554  16.789  0.3925  0.3831  1.1451
  400TMC3    C8 5983   4.667   0.110  16.859  0.4820  0.2300 -0.2997
  400TMC3    O1 5984   4.706   0.556  16.696 -0.0602 -0.1985  0.0849
  400TMC3    O2 5985   4.645   0.094  16.742  0.3798 -0.6796  0.3822
  401MPD2     C 5986   2.483   3.335   1.306 -0.1261  0.0788 -0.1782
  401MPD2    C1 5987   2.592   3.413   1.312 -0.6566  0.2992  0.1407
  401MPD2    C2 5988   2.718   3.358   1.339 -0.0572 -0.3547 -0.4662
  401MPD2    C3 5989   2.728   3.219   1.351  0.6336 -0.0419 -0.1983
  401MPD2    C4 5990   2.616   3.141   1.347  0.1505  0.7773  0.6362
  401MPD2    C5 5991   2.500   3.205   1.333 -0.0049  0.5039  0.0590
  401MPD2     H 5992   2.801   3.426   1.338 -1.5131  1.4232 -1.3195
  401MPD2    H1 5993   2.613   3.033   1.354 -2.2889  1.1132  4.3616
  401MPD2    H2 5994   2.382   3.371   1.293 -0.9880 -2.4345 -0.5677
  401MPD2    H3 5995   2.406   3.152   1.342 -0.0573  0.5240 -0.3768
  401MPD2     N 5996   2.857   3.161   1.359  0.3186  0.0212 -0.0697
  401MPD2    H5 5997   2.934   3.227   1.370  0.1154  0.2611 -0.0817
  401MPD2    N1 5998   2.595   3.548   1.286 -0.5561 -0.1867  0.5148
  401MPD2    H7 5999   2.685   3.592   1.298  0.8893 -2.8208 -0.8651
  402TMC3    C1 6000   3.042   3.018   1.358  0.3841 -0.4551  0.1607
  402TMC3    C2 6001   3.091   2.899   1.399  0.2275 -0.3264 -0.2369
  402TMC3    C3 6002   3.221   2.864   1.368  0.3817  0.3199  0.3152
  402TMC3    C4 6003   3.118   3.103   1.281 -0.4189  0.6237  0.1958
  402TMC3    C5 6004   3.247   3.069   1.255  0.0789 -0.5717 -0.6161
  402TMC3    C6 6005   3.297   2.950   1.300  0.3996 -0.4307  0.1175
  402TMC3     C 6006   2.898   3.032   1.355 -0.0306 -0.0658  0.6455
  402TMC3     O 6007   2.826   2.933   1.350  0.3879 -0.6119 -0.1164
  402TMC3     H 6008   3.016   2.829   1.435  1.2016  0.0729  2.5855
  402TMC3    H1 6009   3.089   3.198   1.237 -3.0081 -1.6226 -2.9317
  402TMC3    H2 6010   3.396   2.916   1.271  0.0616  0.0364 -1.6168
  402TMC3    C7 6011   3.326   3.154   1.164 -0.1969  0.2508 -0.2267
  402TMC3    C8 6012   3.271   2.726   1.375  0.4261  0.2041  0.1284
  402TMC3    O1 6013   3.262   3.230   1.096 -0.3143 -0.1764 -0.0976
  402TMC3    O2 6014   3.392   2.704   1.366  0.2937  0.0092  0.2075
  403MPD2     C 6015   1.110   2.098  13.498 -0.0733 -0.0238  0.0740
  403MPD2    C1 6016   1.130   1.973  13.549 -0.3128  0.0330  0.2656
  403MPD2    C2 6017   1.220   1.959  13.652  0.0797  0.0088  0.1342
  403MPD2    C3 6018   1.303   2.059  13.690  0.3732  0.7872  0.2958
  403MPD2    C4 6019   1.291   2.181  13.631  0.6424  0.3223  0.2866
  403MPD2    C5 6020   1.183   2.203  13.542  0.1275  0.7592 -0.2438
  403MPD2     H 6021   1.223   1.861  13.697  2.5163 -0.2482 -0.5868
  403MPD2    H1 6022   1.361   2.262  13.648  0.3014  1.3412 -3.0038
  403MPD2    H2 6023   1.031   2.111  13.424  0.0972  0.2529 -0.0619
  403MPD2    H3 6024   1.159   2.290  13.482 -1.1997 -0.5854 -1.6830
  403MPD2     N 6025   1.414   2.026  13.779 -0.3588  0.1375  0.0634
  403MPD2    H5 6026   1.427   1.930  13.810  1.1125 -0.4490 -2.3191
  403MPD2    N1 6027   1.042   1.869  13.510  0.1075  0.6928 -0.6612
  403MPD2    H7 6028   0.983   1.899  13.433  2.8108 -0.1151 -3.0167
  404TMC3    C1 6029   0.934   1.670  13.471 -0.0562  0.0695 -0.1783
  404TMC3    C2 6030   0.861   1.582  13.534 -0.5951  0.3578 -0.1606
  404TMC3    C3 6031   0.821   1.477  13.461  0.1571  0.2551  0.1856
  404TMC3    C4 6032   0.952   1.671  13.336 -0.9863 -0.4528 -0.0954
  404TMC3    C5 6033   0.900   1.574  13.255 -0.2445 -0.2412 -0.1569
  404TMC3    C6 6034   0.822   1.488  13.320 -0.0289 -0.5984  0.2533
  404TMC3     C 6035   1.036   1.738  13.553 -0.1196  0.0280  0.1258
  404TMC3     O 6036   1.088   1.675  13.647 -0.3431 -0.0677  0.4079
  404TMC3     H 6037   0.867   1.582  13.642 -0.0818 -2.0134 -0.2029
  404TMC3    H1 6038   1.028   1.734  13.291  0.0397 -0.7305  1.2619
  404TMC3    H2 6039   0.780   1.398  13.276 -3.8197  0.5557  1.5002
  404TMC3    C7 6040   0.971   1.549  13.127  0.2408 -0.0937  0.3084
  404TMC3    C8 6041   0.879   1.351  13.510 -0.3659  0.1828 -0.1680
  404TMC3    O1 6042   1.070   1.621  13.106  0.2920  0.2951  0.2570
  404TMC3    O2 6043   0.941   1.279  13.429 -0.1639 -0.1778  0.2961
  405MPD2     C 6044   1.454   1.770  15.211  0.5000 -0.7646 -0.4708
  405MPD2    C1 6045   1.488   1.768  15.077 -0.5632  0.1515 -0.1407
  405MPD2    C2 6046   1.530   1.884  15.009  0.0289 -0.3442  0.4247
  405MPD2    C3 6047   1.536   2.001  15.076 -0.1164  0.3936  0.0828
  405MPD2    C4 6048   1.492   2.000  15.202  0.2528 -0.4937 -0.3065
  405MPD2    C5 6049   1.457   1.887  15.278 -0.2239 -0.5338 -0.1086
  405MPD2     H 6050   1.561   1.898  14.906  1.9379 -1.9269  0.7836
  405MPD2    H1 6051   1.500   2.087  15.265  0.8256 -0.3568 -0.5724
  405MPD2    H2 6052   1.425   1.684  15.270 -1.8966  0.9652  0.8618
  405MPD2    H3 6053   1.431   1.899  15.383 -2.7788  0.8650 -0.8905
  405MPD2     N 6054   1.576   2.116  15.007  0.0906  0.1926  0.0384
  405MPD2    H5 6055   1.583   2.105  14.906 -2.0199  1.0169 -0.1937
  405MPD2    N1 6056   1.464   1.652  15.005 -0.0643  0.4250  0.2105
  405MPD2    H7 6057   1.391   1.595  15.048  0.6658 -0.4498  0.2945
  406TMC3    C1 6058   1.500   2.504  14.821 -0.2271  0.0343 -0.2172
  406TMC3    C2 6059   1.534   2.451  14.698  0.2962 -0.0172  0.0499
  406TMC3    C3 6060   1.597   2.328  14.699  0.9423  0.1827 -0.1838
  406TMC3    C4 6061   1.528   2.444  14.942  0.5631 -0.0653 -0.3617
  406TMC3    C5 6062   1.603   2.331  14.939 -0.4551 -0.0962  1.2123
  406TMC3    C6 6063   1.630   2.268  14.821 -0.2605  0.5571 -0.3576
  406TMC3     C 6064   1.397   2.607  14.821  0.2980  0.1691  0.6247
  406TMC3     O 6065   1.421   2.707  14.887  0.1868 -0.4201 -0.2025
  406TMC3     H 6066   1.523   2.508  14.607  4.2417  1.7629  0.6580
  406TMC3    H1 6067   1.513   2.500  15.033  0.0589 -0.4699 -0.1960
  406TMC3    H2 6068   1.707   2.193  14.828 -0.0102  0.8607  0.1888
  406TMC3    C7 6069   1.563   2.246  15.047 -0.7281 -0.7597  0.5325
  406TMC3    C8 6070   1.603   2.249  14.572 -0.0255 -0.1171  0.1981
  406TMC3    O1 6071   1.537   2.299  15.155  0.1878  0.2361  0.2157
  406TMC3    O2 6072   1.562   2.300  14.466 -0.0905  0.1174 -0.2178
  407MPD2     C 6073   3.910   3.814   9.739 -0.3525 -0.2371 -0.3458
  407MPD2    C1 6074   4.043   3.805   9.726  0.2001 -0.5587  0.2548
  407MPD2    C2 6075   4.124   3.856   9.828 -0.0321  0.2456 -0.4799
  407MPD2    C3 6076   4.072   3.909   9.941  0.1892  0.7969 -0.2274
  407MPD2    C4 6077   3.936   3.925   9.951  0.0569  0.3761 -0.0798
  407MPD2    C5 6078   3.859   3.878   9.846  0.1891 -0.5894 -0.7038
  407MPD2     H 6079   4.229   3.832   9.813 -0.5827 -1.6621 -1.3007
  407MPD2    H1 6080   3.884   3.978  10.030 -1.6652 -0.7113 -0.4822
  407MPD2    H2 6081   3.841   3.778   9.664 -1.7495  2.0960 -0.1859
  407MPD2    H3 6082   3.752   3.894   9.843  0.3179  0.5045  0.5386
  407MPD2     N 6083   4.158   3.949  10.040  0.3695  0.5568 -0.6447
  407MPD2    H5 6084   4.120   4.011  10.111 -2.0271 -1.4705 -0.1743
  407MPD2    N1 6085   4.105   3.746   9.616 -0.2796  0.1799  0.0213
  407MPD2    H7 6086   4.204   3.725   9.620 -0.4898 -1.3520 -2.9278
  408TMC3    C1 6087   4.161   3.760   9.383 -0.8684  0.5711  0.4318
  408TMC3    C2 6088   4.245   3.650   9.390 -0.1445 -0.3707  0.4495
  408TMC3    C3 6089   4.366   3.656   9.323 -0.5219 -0.2693  0.7441
  408TMC3    C4 6090   4.187   3.868   9.308 -0.3946 -0.2297 -0.7249
  408TMC3    C5 6091   4.313   3.869   9.243  0.4194  0.5432 -0.0050
  408TMC3    C6 6092   4.400   3.768   9.251 -0.1013 -0.3730  0.5374
  408TMC3     C 6093   4.056   3.766   9.486 -0.1881  0.0633  0.1727
  408TMC3     O 6094   3.954   3.828   9.457  0.0702  0.4482 -0.2934
  408TMC3     H 6095   4.220   3.560   9.445  0.6832 -0.1385  1.2101
  408TMC3    H1 6096   4.135   3.962   9.322  0.0240 -0.2741  1.1394
  408TMC3    H2 6097   4.485   3.761   9.183  0.2017  4.4210  0.4553
  408TMC3    C7 6098   4.361   3.992   9.189  0.4313  0.3185  0.7889
  408TMC3    C8 6099   4.473   3.576   9.376 -0.1654  0.0770  0.5005
  408TMC3    O1 6100   4.482   4.008   9.183 -0.3654  0.0425  0.1549
  408TMC3    O2 6101   4.451   3.463   9.417  0.1933  0.4881  0.2082
  409MPD2     C 6102   3.736   4.312  16.674 -0.4819  0.5282 -0.0111
  409MPD2    C1 6103   3.751   4.380  16.792 -0.4716 -0.3592  0.2422
  409MPD2    C2 6104   3.825   4.500  16.790  0.1299 -0.3357 -0.2511
  409MPD2    C3 6105   3.874   4.554  16.676 -0.6652 -0.4368 -0.2711
  409MPD2    C4 6106   3.853   4.495  16.562 -0.3434 -0.8861 -0.1362
  409MPD2    C5 6107   3.788   4.375  16.561  0.0207 -0.1667 -0.6256
  409MPD2     H 6108   3.845   4.549  16.885 -1.1817 -1.9010  0.8320
  409MPD2    H1 6109   3.904   4.531  16.473 -0.8765 -4.2040 -1.7765
  409MPD2    H2 6110   3.683   4.218  16.664 -0.1690  0.5299 -1.7573
  409MPD2    H3 6111   3.787   4.310  16.475  0.5999 -3.2019  1.6535
  409MPD2     N 6112   3.973   4.663  16.677 -0.8775  0.5431  0.0274
  409MPD2    H5 6113   3.998   4.709  16.590 -1.0292  2.3812  0.9713
  409MPD2    N1 6114   3.701   4.335  16.918 -0.5230  0.0808 -0.2579
  409MPD2    H7 6115   3.715   4.401  16.994  1.0654 -0.0995 -0.3824
  410TMC3    C1 6116   4.125   0.091  16.781 -0.2790  0.0252  0.1725
  410TMC3    C2 6117   4.204   0.109  16.889 -0.4327  0.4040 -0.0540
  410TMC3    C3 6118   4.261   0.233  16.901 -0.5502  0.0822  0.2767
  410TMC3    C4 6119   4.096   0.187  16.690  0.6342  0.0158 -0.2455
  410TMC3    C5 6120   4.141   0.313  16.720  0.5535  0.3761  0.8240
  410TMC3    C6 6121   4.226   0.346  16.827  0.2439 -0.1006  0.0471
  410TMC3     C 6122   4.044   4.691  16.795 -0.0823  0.1325  0.3026
  410TMC3     O 6123   4.061   4.619  16.892 -0.3959 -0.0237  0.3220
  410TMC3     H 6124   4.228   0.025  16.954  0.8944  0.5422 -0.3764
  410TMC3    H1 6125   4.030   0.168  16.606  0.5317  0.3515 -0.2426
  410TMC3    H2 6126   4.270   0.441  16.854  0.4350 -0.1877  0.0416
  410TMC3    C7 6127   4.140   0.402  16.610 -0.1957  0.9181  0.2944
  410TMC3    C8 6128   4.328   0.261  17.025 -0.0871 -0.0368  0.8957
  410TMC3    O1 6129   4.134   0.356  16.495 -0.4564 -0.4375 -0.4118
  410TMC3    O2 6130   4.395   0.367  17.029  0.5701  0.0518  0.4588
  411MPD2     C 6131   4.159   0.889  14.726  0.2100  0.2692 -0.2339
  411MPD2    C1 6132   4.058   0.849  14.810  0.0994  0.0135  0.4566
  411MPD2    C2 6133   3.995   0.725  14.787 -0.2049  0.9987  0.5694
  411MPD2    C3 6134   4.051   0.638  14.696  0.4554  0.1567 -0.0445
  411MPD2    C4 6135   4.150   0.674  14.616  0.0727 -0.2244  0.0518
  411MPD2    C5 6136   4.200   0.802  14.626  0.3657  0.1026 -0.2310
  411MPD2     H 6137   3.916   0.684  14.850  0.0052  0.7226  0.6537
  411MPD2    H1 6138   4.184   0.620  14.529 -2.3245 -3.0838  0.8789
  411MPD2    H2 6139   4.214   0.982  14.732  0.6378  0.0679 -0.9970
  411MPD2    H3 6140   4.271   0.841  14.554  2.3392 -1.2812  0.9761
  411MPD2     N 6141   4.002   0.515  14.664  0.4075  0.3624 -0.1614
  411MPD2    H5 6142   4.060   0.462  14.600 -0.0120 -2.9996  2.2696
  411MPD2    N1 6143   4.005   0.943  14.911  0.3887  0.0944  0.7782
  411MPD2    H7 6144   4.022   1.043  14.899 -0.2125  0.1378  0.2626
  412TMC3    C1 6145   3.858   0.335  14.645  0.0890  0.0476 -0.6578
  412TMC3    C2 6146   3.759   0.260  14.697  0.8646 -0.2959  0.1964
  412TMC3    C3 6147   3.733   0.134  14.632  0.0039 -0.4222 -0.1768
  412TMC3    C4 6148   3.913   0.310  14.516 -0.1103 -0.6505 -0.1842
  412TMC3    C5 6149   3.883   0.191  14.454  0.1627 -0.6088 -0.0683
  412TMC3    C6 6150   3.809   0.090  14.518 -0.3878 -0.7153 -0.0797
  412TMC3     C 6151   3.905   0.446  14.726 -0.3500  0.6462  0.1935
  412TMC3     O 6152   3.850   0.463  14.833 -0.1325 -0.2014 -0.3191
  412TMC3     H 6153   3.717   0.288  14.793  3.1748  2.3268  0.4156
  412TMC3    H1 6154   3.975   0.380  14.463  0.1047 -0.5897  0.1469
  412TMC3    H2 6155   3.797   4.719  14.468 -1.7095  0.7230 -2.4874
  412TMC3    C7 6156   3.870   0.195  14.309 -0.2006  0.4896 -0.2206
  412TMC3    C8 6157   3.595   0.091  14.622 -0.2147 -0.1410 -0.5934
  412TMC3    O1 6158   3.944   0.265  14.239  0.6893  0.3406  0.0843
  412TMC3    O2 6159   3.571   0.022  14.525 -0.7912 -0.7090  0.1018
  413MPD2     C 6160   0.643   4.040  15.516  0.2606  0.2463  0.2571
  413MPD2    C1 6161   0.576   3.962  15.423  0.5836  0.5488  0.1676
  413MPD2    C2 6162   0.648   3.908  15.323  0.9226  0.0234  0.1334
  413MPD2    C3 6163   0.786   3.912  15.322 -0.6920 -0.1826 -0.7298
  413MPD2    C4 6164   0.852   3.996  15.412  0.1412  0.5112 -0.3400
  413MPD2    C5 6165   0.775   4.058  15.507  0.1762  0.4240 -0.1270
  413MPD2     H 6166   0.597   3.835  15.261 -1.2274  0.9477  0.7832
  413MPD2    H1 6167   0.959   4.013  15.417  0.1526  0.7219 -1.2968
  413MPD2    H2 6168   0.598   4.090  15.601 -0.0809  1.1776 -0.4854
  413MPD2    H3 6169   0.810   4.129  15.582 -0.8181  0.6602  0.1174
  413MPD2     N 6170   0.858   3.828  15.232  0.2211 -0.6758 -0.4965
  413MPD2    H5 6171   0.801   3.769  15.173 -0.6114 -0.5789  0.2144
  413MPD2    N1 6172   0.433   3.968  15.430 -0.7790  0.1895  0.1173
  413MPD2    H7 6173   0.397   4.009  15.516 -1.6962  1.6147 -0.9489
  414TMC3    C1 6174   1.034   3.703  15.145 -0.0238  0.0198 -0.1895
  414TMC3    C2 6175   1.100   3.593  15.198 -0.2763 -0.0214  0.0815
  414TMC3    C3 6176   1.077   3.471  15.139 -0.4002 -0.0472 -0.5085
  414TMC3    C4 6177   0.961   3.697  15.035 -0.3308  0.0178  0.1430
  414TMC3    C5 6178   0.957   3.580  14.966 -0.8915  0.3410  0.6647
  414TMC3    C6 6179   1.006   3.462  15.019  0.5431  0.3121  0.3642
  414TMC3     C 6180   0.993   3.807  15.239  0.1103  0.2144  0.7972
  414TMC3     O 6181   1.080   3.841  15.321  0.4392  0.0615 -0.0947
  414TMC3     H 6182   1.125   3.607  15.303  0.9640 -1.4471 -0.0124
  414TMC3    H1 6183   0.913   3.788  15.000 -0.4894  0.4783  1.5208
  414TMC3    H2 6184   0.990   3.367  14.969 -3.9958  0.7902  0.9234
  414TMC3    C7 6185   0.886   3.600  14.838  0.1140 -0.2644 -0.6203
  414TMC3    C8 6186   1.164   3.359  15.171 -0.2290 -0.2934 -0.1018
  414TMC3    O1 6187   0.807   3.697  14.837  0.2813  0.3316  0.6368
  414TMC3    O2 6188   1.142   3.256  15.109 -0.2611  0.2398  0.3622
  415TMC3    C1 6189   3.190   2.050   9.093 -0.1185  0.5880 -0.0063
  415TMC3    C2 6190   3.192   1.947   9.185  0.3762  0.8108  0.4172
  415TMC3    C3 6191   3.216   1.814   9.133 -0.3522  0.2284 -0.3345
  415TMC3    C4 6192   3.210   2.026   8.961 -0.4066  0.4051  0.2884
  415TMC3    C5 6193   3.239   1.895   8.921  0.1201  0.5199 -0.1756
  415TMC3    C6 6194   3.246   1.787   9.002 -0.3174  0.4143 -0.1640
  415TMC3     C 6195   3.213   2.191   9.143 -0.0622 -0.8269  0.7856
  415TMC3     O 6196   3.262   2.268   9.063 -0.4791  0.3082 -0.0087
  415TMC3     H 6197   3.178   1.972   9.290 -2.1775 -0.6186  0.4355
  415TMC3    H1 6198   3.190   2.108   8.893  1.2480  0.9829  0.4808
  415TMC3    H2 6199   3.279   1.687   8.977  0.3658  0.4879  0.4492
  415TMC3    C7 6200   3.281   1.876   8.784 -0.4711  0.2786  0.0457
  415TMC3    C8 6201   3.212   1.699   9.216  0.0648  0.3300  0.4454
  415TMC3    O1 6202   3.288   1.759   8.747 -0.0652  0.8185  0.0837
  415TMC3    O2 6203   3.262   1.589   9.186  0.2490  0.3703 -0.1287
  416MPD2     C 6204   3.035   0.168  12.024 -0.6644  0.3221 -0.8475
  416MPD2    C1 6205   2.928   0.168  11.937 -0.6159 -0.2480  0.2945
  416MPD2    C2 6206   2.943   0.099  11.816  0.1648 -0.1750  0.5043
  416MPD2    C3 6207   3.066   0.042  11.791  0.3072 -1.0097  0.8381
  416MPD2    C4 6208   3.174   0.059  11.869  0.2352  0.5115  0.3345
  416MPD2    C5 6209   3.157   0.121  11.989  0.3916 -0.2156  0.2196
  416MPD2     H 6210   2.864   0.077  11.746  0.4270 -0.8063  0.4140
  416MPD2    H1 6211   3.266   0.009  11.842  1.0193  0.5204  2.9624
  416MPD2    H2 6212   3.023   0.213  12.122 -1.2540 -2.4003  0.3307
  416MPD2    H3 6213   3.235   0.126  12.065  1.0270  0.2422 -0.4619
  416MPD2     N 6214   3.092   4.671  11.687  0.4388 -0.4962 -0.2181
  416MPD2    H5 6215   3.177   4.617  11.701  0.8836  0.1337 -0.4891
  416MPD2    N1 6216   2.805   0.217  11.982  0.7606 -0.0575  0.5981
  416MPD2    H7 6217   2.801   0.255  12.076 -0.1425 -0.2364  0.6304
  417TMC3    C1 6218   2.584   0.294  11.960  0.1919 -0.4087  0.2273
  417TMC3    C2 6219   2.595   0.329  12.091 -0.2730  0.7908  0.1791
  417TMC3    C3 6220   2.488   0.381  12.152  0.2861  1.0143  0.3263
  417TMC3    C4 6221   2.487   0.337  11.881  0.2974 -0.8548  0.5032
  417TMC3    C5 6222   2.388   0.419  11.940  0.3215 -0.2639  0.5190
  417TMC3    C6 6223   2.395   0.441  12.076  0.1562  0.2331  0.6128
  417TMC3     C 6224   2.700   0.243  11.896  0.0363 -0.1880 -0.0058
  417TMC3     O 6225   2.697   0.235  11.772 -0.3379 -0.1111  0.2178
  417TMC3     H 6226   2.673   0.285  12.152 -0.5027 -1.5249 -1.2034
  417TMC3    H1 6227   2.482   0.304  11.778  2.4710 -1.9645  0.7597
  417TMC3    H2 6228   2.313   0.492  12.126 -0.7946 -0.9431  0.2721
  417TMC3    C7 6229   2.338   0.519  11.851 -0.2101 -0.4542  0.0784
  417TMC3    C8 6230   2.482   0.380  12.296  0.1191  0.0184 -0.0027
  417TMC3    O1 6231   2.396   0.518  11.741 -0.2195 -0.1014  0.1156
  417TMC3    O2 6232   2.583   0.402  12.366 -0.2161 -0.2296 -0.3552
  418TMC3    C1 6233   2.079   1.592   0.472 -0.2683 -0.3759 -0.4505
  418TMC3    C2 6234   1.956   1.637   0.435  0.2912 -0.1040  0.5567
  418TMC3    C3 6235   1.854   1.606   0.514 -0.6442  0.0604 -0.9896
  418TMC3    C4 6236   2.110   1.548   0.598  0.6236 -0.0058 -0.1859
  418TMC3    C5 6237   2.006   1.537   0.684  0.4046  0.4642 -0.2009
  418TMC3    C6 6238   1.879   1.549   0.636 -0.0240  0.3332  0.2790
  418TMC3     C 6239   2.192   1.588   0.377 -0.1852  0.3982  0.5448
  418TMC3     O 6240   2.184   1.673   0.290  0.3417  0.0719 -0.6198
  418TMC3     H 6241   1.941   1.672   0.333 -1.5129  0.0281  0.8681
  418TMC3    H1 6242   2.213   1.532   0.628  0.3290  1.7391  1.7334
  418TMC3    H2 6243   1.800   1.522   0.705  0.2095  0.4540  0.5929
  418TMC3    C7 6244   2.031   1.454   0.800 -0.4068 -0.4670 -0.3309
  418TMC3    C8 6245   1.744   1.549   0.440 -0.6563 -0.1481 -0.6018
  418TMC3    O1 6246   2.108   1.356   0.796 -0.2119  0.1273 -0.0552
  418TMC3    O2 6247   1.699   1.617   0.351 -0.6120  0.3584  0.7983
  419MPD2     C 6248   0.290   4.638  12.979 -0.9038  0.0708  0.1312
  419MPD2    C1 6249   0.250   0.039  12.919 -0.2173  0.3538  0.3560
  419MPD2    C2 6250   0.273   0.156  12.987  0.0175  0.3453  0.4271
  419MPD2    C3 6251   0.329   0.168  13.106 -0.4046 -0.0439  0.2712
  419MPD2    C4 6252   0.376   0.049  13.165 -0.8185 -0.4716  0.7307
  419MPD2    C5 6253   0.350   4.650  13.105 -0.4061  0.2596  0.2397
  419MPD2     H 6254   0.238   0.252  12.949 -0.8140  1.0932  3.0890
  419MPD2    H1 6255   0.419   0.049  13.265  1.2758  1.1054 -0.1860
  419MPD2    H2 6256   0.263   4.537  12.951  1.2167 -0.5704  0.4214
  419MPD2    H3 6257   0.385   4.557  13.147  3.5591  1.5525 -0.1912
  419MPD2     N 6258   0.349   0.289  13.168 -0.3110  0.4124 -0.2004
  419MPD2    H5 6259   0.317   0.362  13.105  1.9692 -0.1486 -1.9867
  419MPD2    N1 6260   0.180   0.048  12.798 -0.2346  0.0332 -0.0964
  419MPD2    H7 6261   0.144   0.141  12.781 -1.4313 -0.1224  1.5138
  420TMC3    C1 6262   0.433   0.457  13.308 -0.2315  0.6851  0.4758
  420TMC3    C2 6263   0.359   0.543  13.227  0.3496  0.3464  0.0465
  420TMC3    C3 6264   0.353   0.680  13.266  0.6433 -0.5875  0.6618
  420TMC3    C4 6265   0.496   0.506  13.420 -0.1035 -0.3940  0.1952
  420TMC3    C5 6266   0.502   0.645  13.441 -0.9300 -0.4422 -0.4045
  420TMC3    C6 6267   0.434   0.733  13.358  0.3486 -0.4128  0.7969
  420TMC3     C 6268   0.404   0.317  13.291 -0.4656  0.2523 -0.9376
  420TMC3     O 6269   0.436   0.250  13.387 -0.6169 -0.0054  0.4774
  420TMC3     H 6270   0.313   0.518  13.132  1.5873 -1.0628 -0.1732
  420TMC3    H1 6271   0.543   0.439  13.492  1.2789  0.3605 -0.0068
  420TMC3    H2 6272   0.440   0.841  13.352  0.0739 -0.4795 -0.5198
  420TMC3    C7 6273   0.520   0.687  13.580  0.0836  0.4872  0.6511
  420TMC3    C8 6274   0.261   0.771  13.206 -0.1999 -0.6993  0.5487
  420TMC3    O1 6275   0.556   0.606  13.664 -0.2015 -0.4310  0.2321
  420TMC3    O2 6276   0.302   0.880  13.173 -0.2515 -0.0084 -0.0325
  421TMC3    C1 6277   1.621   2.061  13.889 -0.5689  0.0746  0.1842
  421TMC3    C2 6278   1.707   2.142  13.956  0.2501 -0.3195  0.2429
  421TMC3    C3 6279   1.835   2.093  13.972  0.1407  0.2968 -0.2902
  421TMC3    C4 6280   1.654   1.937  13.842  0.6622 -0.1234 -0.2826
  421TMC3    C5 6281   1.777   1.895  13.873  0.4481 -0.4409 -0.4683
  421TMC3    C6 6282   1.872   1.969  13.936  0.5644  0.6244  0.1528
  421TMC3     C 6283   1.510   2.120  13.821 -0.6548 -0.4058 -0.0616
  421TMC3     O 6284   1.514   2.245  13.822  0.1692  0.3409 -0.2671
  421TMC3     H 6285   1.684   2.247  13.966 -1.1568 -0.6205  0.0842
  421TMC3    H1 6286   1.619   1.888  13.752 -0.4371 -2.3907  1.3461
  421TMC3    H2 6287   1.978   1.947  13.932  0.6636  1.0333  0.4496
  421TMC3    C7 6288   1.830   1.774  13.808 -0.3859 -0.2372  0.8711
  421TMC3    C8 6289   1.925   2.157  14.064  0.6875 -0.5256 -0.1529
  421TMC3    O1 6290   1.936   1.782  13.752  0.1387 -0.1904  0.3522
  421TMC3    O2 6291   2.044   2.125  14.059  0.3071  0.2587 -0.0768
  422TMC3    C1 6292   3.843   3.076  12.432  0.9545  0.5554 -0.0309
  422TMC3    C2 6293   3.817   3.199  12.459 -0.1856  1.0084  0.4877
  422TMC3    C3 6294   3.750   3.229  12.575 -0.7120  0.6709  0.3224
  422TMC3    C4 6295   3.794   2.976  12.506  0.6078 -0.5317 -0.7315
  422TMC3    C5 6296   3.723   3.005  12.617  0.2481 -0.1739  0.3741
  422TMC3    C6 6297   3.702   3.131  12.653  0.0140  0.5508 -0.0985
  422TMC3     C 6298   3.951   3.037  12.341  0.6181 -0.6565  0.2585
  422TMC3     O 6299   3.957   3.074  12.223 -0.3129  0.3752 -0.3215
  422TMC3     H 6300   3.874   3.273  12.404 -1.3391  0.2098 -1.7680
  422TMC3    H1 6301   3.816   2.874  12.478 -1.0949 -1.4034  1.1068
  422TMC3    H2 6302   3.661   3.149  12.752 -1.2246  0.1813 -0.5432
  422TMC3    C7 6303   3.629   2.904  12.660  0.6384  0.4098  0.0323
  422TMC3    C8 6304   3.715   3.366  12.601 -0.2930  0.2279 -0.6188
  422TMC3    O1 6305   3.658   2.791  12.632  0.5310 -0.1759  0.0360
  422TMC3    O2 6306   3.676   3.398  12.712  0.4073  0.1343 -0.3922
  423MPD2     C 6307   0.373   3.966   0.644 -0.2574  0.5515 -0.2293
  423MPD2    C1 6308   0.444   3.852   0.667 -0.5513  0.1365 -0.7135
  423MPD2    C2 6309   0.515   3.801   0.562 -0.6603 -0.3439 -0.1935
  423MPD2    C3 6310   0.505   3.856   0.436 -0.0464  0.5061 -0.4648
  423MPD2    C4 6311   0.450   3.978   0.428 -0.5452  0.6102 -0.3575
  423MPD2    C5 6312   0.381   4.033   0.532 -0.2251 -0.2298 -0.4563
  423MPD2     H 6313   0.577   3.714   0.584  1.7399  1.6849  1.0332
  423MPD2    H1 6314   0.457   4.042   0.340  2.0760 -1.0862 -1.3822
  423MPD2    H2 6315   0.334   4.019   0.730 -1.0543  1.1369 -0.9492
  423MPD2    H3 6316   0.326   4.123   0.508 -1.5714 -1.1834 -0.9509
  423MPD2     N 6317   0.565   3.813   0.316 -0.3889 -0.2697  0.5794
  423MPD2    H5 6318   0.544   3.865   0.232 -0.3615 -1.0235  0.1044
  423MPD2    N1 6319   0.440   3.798   0.794 -0.0174  0.1219 -0.0501
  423MPD2    H7 6320   0.509   3.724   0.808  0.2632  0.5727  0.9343
  424TMC3    C1 6321   0.398   3.823   1.024 -0.9513  0.1281 -0.6931
  424TMC3    C2 6322   0.488   3.732   1.068  0.2188  0.0338 -0.4075
  424TMC3    C3 6323   0.524   3.736   1.200 -0.3729  0.5631  0.0575
  424TMC3    C4 6324   0.330   3.895   1.114 -0.2808 -0.3139  0.2558
  424TMC3    C5 6325   0.356   3.887   1.250 -0.1869  0.4194  0.4304
  424TMC3    C6 6326   0.460   3.806   1.294  0.2133  0.2093 -0.2206
  424TMC3     C 6327   0.351   3.840   0.888 -0.6183 -0.4143  0.2808
  424TMC3     O 6328   0.235   3.887   0.876 -0.0084  0.3021  0.3290
  424TMC3     H 6329   0.536   3.664   0.999  0.0857 -1.3213  0.8379
  424TMC3    H1 6330   0.259   3.970   1.080  0.4059  0.4869  0.5962
  424TMC3    H2 6331   0.497   3.805   1.396  0.5359 -2.3464 -0.3602
  424TMC3    C7 6332   0.305   3.990   1.338 -0.6831 -0.4267  0.6942
  424TMC3    C8 6333   0.631   3.651   1.245 -0.1398  0.1302  0.6772
  424TMC3    O1 6334   0.220   4.067   1.295  1.0232 -0.8165 -0.5819
  424TMC3    O2 6335   0.671   3.564   1.169 -0.2638 -0.2246 -0.3914
  425MPD2     C 6336   4.268   3.165   0.037 -0.3717  0.2321  0.1476
  425MPD2    C1 6337   4.208   3.053  17.670 -0.4173 -0.4080 -0.4678
  425MPD2    C2 6338   4.077   3.060  17.631 -0.0680 -0.1900  0.4309
  425MPD2    C3 6339   4.001   3.164  17.673  0.2212 -0.0683 -0.7083
  425MPD2    C4 6340   4.052   3.260   0.061  0.8846 -0.5576 -0.4498
  425MPD2    C5 6341   4.186   3.264   0.088  0.9117  0.0495 -0.0572
  425MPD2     H 6342   4.033   2.988  17.563  1.2808 -1.9558  1.4467
  425MPD2    H1 6343   3.995   3.340   0.106  2.3081 -0.3042  0.8866
  425MPD2    H2 6344   4.373   3.182   0.057 -0.2485  1.9187 -1.9625
  425MPD2    H3 6345   4.231   3.352   0.131  1.0719 -0.0443 -0.0320
  425MPD2     N 6346   3.863   3.151  17.653  0.6662 -0.1863  0.5778
  425MPD2    H5 6347   3.835   3.076  17.591 -2.8069 -0.3663  2.3023
  425MPD2    N1 6348   4.299   2.944  17.628 -0.2629 -0.4355  0.5789
  425MPD2    H7 6349   4.397   2.948  17.652  0.1053 -2.3592 -0.5810
  426TMC3    C1 6350   4.349   2.713  17.554 -0.6279  0.5547 -0.2275
  426TMC3    C2 6351   4.339   2.635  17.442 -0.4055  0.0484 -0.5278
  426TMC3    C3 6352   4.363   2.500  17.461 -0.0035 -0.6618  0.0523
  426TMC3    C4 6353   4.369   2.658  17.680 -0.6913 -0.3866  0.5174
  426TMC3    C5 6354   4.388   2.522  17.690  0.6213 -0.3614 -0.9812
  426TMC3    C6 6355   4.392   2.442  17.582  0.2168 -0.0225  0.0465
  426TMC3     C 6356   4.265   2.833  17.552  0.1866 -0.0074  0.6132
  426TMC3     O 6357   4.170   2.819  17.472 -0.4657  0.3893  0.2228
  426TMC3     H 6358   4.339   2.670  17.340  1.7387 -0.5058 -0.7299
  426TMC3    H1 6359   4.358   2.723   0.069  2.0737 -0.2762  0.7891
  426TMC3    H2 6360   4.387   2.334  17.595  0.7859 -0.0658 -0.0862
  426TMC3    C7 6361   4.408   2.459   0.122  0.6878  0.0264 -1.0444
  426TMC3    C8 6362   4.426   2.433  17.354 -0.4124  0.8100 -0.1783
  426TMC3    O1 6363   4.465   2.358   0.118 -0.4385 -0.3972  0.0223
  426TMC3    O2 6364   4.402   2.477  17.244  0.1960 -0.2833 -0.2517
  427MPD2     C 6365   2.756   4.645  15.018 -0.2005 -0.4415  0.4761
  427MPD2    C1 6366   2.782   0.034  15.087  0.1369  0.2312 -0.7828
  427MPD2    C2 6367   2.707   0.154  15.061 -0.2550 -0.4930 -0.1879
  427MPD2    C3 6368   2.599   0.152  14.976 -0.6620 -0.3350  0.3877
  427MPD2    C4 6369   2.583   0.033  14.902  0.6471 -0.1214 -0.5058
  427MPD2    C5 6370   2.667   4.644  14.914 -0.3855 -0.3546  0.0576
  427MPD2     H 6371   2.728   0.240  15.124  3.1817 -0.5404 -1.2449
  427MPD2    H1 6372   2.494   0.029  14.841  1.3169  0.2680 -1.5164
  427MPD2    H2 6373   2.807   4.550  15.031  0.4875 -0.5234 -2.8631
  427MPD2    H3 6374   2.645   4.554  14.857  0.1974 -0.2609 -0.3191
  427MPD2     N 6375   2.500   0.249  14.967 -0.0447  0.1066 -0.0861
  427MPD2    H5 6376   2.413   0.223  14.923  0.1227  1.1475 -1.0500
  427MPD2    N1 6377   2.870   0.040  15.193  0.4089  0.3898  0.2912
  427MPD2    H7 6378   2.895   0.128  15.235  1.3454  1.2455 -2.0497
  428TMC3    C1 6379   3.053   4.677  15.340 -0.1395  0.5338  0.0448
  428TMC3    C2 6380   3.136   4.576  15.358 -0.1338  0.2482  0.5892
  428TMC3    C3 6381   3.245   4.589  15.432 -0.3953  0.6717 -0.5442
  428TMC3    C4 6382   3.063   0.068  15.410  0.8667  0.2862  0.7665
  428TMC3    C5 6383   3.164   0.077  15.503 -0.4756  0.9913  0.0416
  428TMC3    C6 6384   3.256   4.699  15.513 -0.0182  0.5619  0.1876
  428TMC3     C 6385   2.947   4.657  15.237 -0.1426 -0.8428 -0.0409
  428TMC3     O 6386   2.962   4.545  15.186 -0.6255  0.2574  0.1992
  428TMC3     H 6387   3.138   4.495  15.286  1.1638  1.3681 -0.6335
  428TMC3    H1 6388   2.998   0.154  15.400  0.5744  0.1787  1.6961
  428TMC3    H2 6389   3.341   4.711  15.579  0.6566 -0.7925 -0.4227
  428TMC3    C7 6390   3.199   0.196  15.575 -0.3560  0.1545  1.0439
  428TMC3    C8 6391   3.295   4.460  15.483  0.3728  0.3842  0.4294
  428TMC3    O1 6392   3.260   0.199  15.681  0.5024  0.3337  0.6739
  428TMC3    O2 6393   3.316   4.379  15.393 -0.0273 -0.5303 -0.3141
  429MPD2     C 6394   4.456   0.694  17.652 -0.6539 -0.7572  0.5101
  429MPD2    C1 6395   4.459   0.713  17.518  0.1267  0.1310  0.5171
  429MPD2    C2 6396   4.540   0.810  17.464  0.3258 -0.3894 -0.0729
  429MPD2    C3 6397   4.623   0.882  17.553  0.1027  0.3566  0.1851
  429MPD2    C4 6398   4.625   0.852  17.680 -0.3523  0.5906  0.3987
  429MPD2    C5 6399   4.545   0.755   0.037  0.2168 -0.3592  0.1618
  429MPD2     H 6400   4.519   0.843  17.363 -3.0691 -0.6498  0.5524
  429MPD2    H1 6401   4.686   0.907   0.053 -0.3652 -0.4886  1.2562
  429MPD2    H2 6402   4.371   0.641  17.694  0.4117 -0.7177  2.7423
  429MPD2    H3 6403   4.542   0.755   0.146 -0.0441 -2.4117  0.1466
  429MPD2     N 6404   4.709   0.981  17.493 -0.1060  0.3968  0.4115
  429MPD2    H5 6405   4.721   0.980  17.392  1.7802 -0.9672  0.6512
  429MPD2    N1 6406   4.368   0.644  17.430  0.0570  0.3152  0.3811
  429MPD2    H7 6407   4.358   0.676  17.334  1.2363 -0.0950  0.1205
  430TMC3    C1 6408   0.124   1.162  17.483  0.3020 -0.0287  0.6937
  430TMC3    C2 6409   0.070   1.282  17.456  0.1222 -0.4533  0.0653
  430TMC3    C3 6410   0.079   1.329  17.328 -0.2564  0.0186 -0.1836
  430TMC3    C4 6411   0.187   1.090  17.388  0.4248 -0.4192 -0.0034
  430TMC3    C5 6412   0.200   1.142  17.263  0.4744 -0.4521 -0.1032
  430TMC3    C6 6413   0.152   1.266  17.228 -0.3677  0.5527 -0.4006
  430TMC3     C 6414   0.039   1.088  17.563 -0.5229 -0.2159  0.0203
  430TMC3     O 6415   4.717   1.149  17.660 -0.1257  0.1513  0.4552
  430TMC3     H 6416   0.013   1.336  17.530 -0.1688 -0.6394 -0.0269
  430TMC3    H1 6417   0.215   0.986  17.399 -0.6038 -0.4749  2.1661
  430TMC3    H2 6418   0.157   1.322  17.135  0.0230  1.2165  0.0192
  430TMC3    C7 6419   0.164   1.043  17.164  0.8362 -0.2017 -0.1647
  430TMC3    C8 6420   4.680   1.355  17.263  0.0098  0.0527  0.4086
  430TMC3    O1 6421   0.086   0.962  17.216  0.6813  0.0101  0.5915
  430TMC3    O2 6422   4.655   1.284  17.170  0.3450  0.3487 -0.0629
  431MPD2     C 6423   0.064   0.810  12.620  0.4785 -0.1372  0.2002
  431MPD2    C1 6424   0.168   0.760  12.539  0.1459  0.6328 -0.0064
  431MPD2    C2 6425   0.166   0.623  12.512  0.1319 -0.1738 -0.2314
  431MPD2    C3 6426   0.061   0.541  12.540 -0.0933 -0.1259  0.4641
  431MPD2    C4 6427   4.689   0.585  12.623 -0.2075  0.2936  0.8092
  431MPD2    C5 6428   4.693   0.721  12.657  0.3649 -0.1759  0.2039
  431MPD2     H 6429   0.246   0.582  12.451  0.9400  0.4462  0.4222
  431MPD2    H1 6430   4.615   0.520  12.667 -2.4712  0.5141 -2.7066
  431MPD2    H2 6431   0.058   0.913  12.653  1.0342 -0.2816  0.7435
  431MPD2    H3 6432   4.613   0.756  12.722  0.9881 -0.5571  1.1781
  431MPD2     N 6433   0.056   0.399  12.520 -0.2040  0.6829  0.6962
  431MPD2    H5 6434   4.707   0.350  12.571 -0.9458  0.4524 -0.6021
  431MPD2    N1 6435   0.275   0.843  12.491 -0.2155  0.1910 -0.4564
  431MPD2    H7 6436   0.354   0.795  12.449 -0.4509 -0.9294  0.3516
  432TMC3    C1 6437   0.114   0.190  12.439 -0.4893  0.0872  0.5265
  432TMC3    C2 6438   0.151   0.123  12.321  0.6803  0.1767 -0.3491
  432TMC3    C3 6439   0.187   4.718  12.340 -0.0781  0.4433 -0.3941
  432TMC3    C4 6440   0.105   0.130  12.554 -0.5085 -0.2914  0.2734
  432TMC3    C5 6441   0.139   4.724  12.570 -0.3767 -0.3324  0.9237
  432TMC3    C6 6442   0.166   4.651  12.460 -0.4821  0.4659 -0.2564
  432TMC3     C 6443   0.142   0.332  12.441 -0.0978 -0.5029 -0.2052
  432TMC3     O 6444   0.218   0.376  12.355  0.4116  0.3628  0.9673
  432TMC3     H 6445   0.145   0.181  12.230  0.1268  2.8883  1.4206
  432TMC3    H1 6446   0.092   0.190  12.643 -0.4304  1.3599 -0.8320
  432TMC3    H2 6447   0.200   4.550  12.480  0.5655  0.9220  0.2824
  432TMC3    C7 6448   0.184   4.681  12.699  0.6957 -0.1491  0.3921
  432TMC3    C8 6449   0.226   4.636  12.223  0.3270  0.2120  0.4303
  432TMC3    O1 6450   0.250   4.575  12.706 -0.2618 -0.3332 -0.5781
  432TMC3    O2 6451   0.243   4.519  12.264 -0.1929  0.8141 -0.3945
  433MPD2     C 6452   4.163   4.536  10.903 -0.5391  0.1872 -0.2437
  433MPD2    C1 6453   4.127   4.437  10.992  0.0661 -0.4868  0.5427
  433MPD2    C2 6454   4.152   4.456  11.124 -0.0540  0.1424 -0.0141
  433MPD2    C3 6455   4.223   4.566  11.172 -0.2524 -0.3883 -0.1539
  433MPD2    C4 6456   4.280   4.652  11.078 -0.2960 -0.2289  0.2125
  433MPD2    C5 6457   4.242   4.640  10.948  0.8519 -0.2408 -0.4207
  433MPD2     H 6458   4.109   4.387  11.195 -0.9948 -0.6199 -1.3466
  433MPD2    H1 6459   4.343   0.011  11.105 -0.2881 -0.1122 -0.1702
  433MPD2    H2 6460   4.125   4.524  10.802 -1.2554 -1.3888  0.2054
  433MPD2    H3 6461   4.269   4.708  10.868  3.8379 -1.0821 -0.1533
  433MPD2     N 6462   4.258   4.563  11.310  0.3587  0.0567 -0.4314
  433MPD2    H5 6463   4.209   4.492  11.363 -1.1047  0.5971 -1.0755
  433MPD2    N1 6464   4.048   4.339  10.931 -0.1572  0.1177  0.0422
  433MPD2    H7 6465   4.035   4.342  10.830  0.1270 -0.1955 -0.0028
  434TMC3    C1 6466   3.928   4.146  10.904  0.1073  0.6209  0.2148
  434TMC3    C2 6467   3.885   4.034  10.965 -0.9207  0.4923 -0.3440
  434TMC3    C3 6468   3.902   3.909  10.907 -0.8712 -0.3421  0.4258
  434TMC3    C4 6469   3.970   4.138  10.772  0.2122  0.2814 -0.1073
  434TMC3    C5 6470   3.978   4.015  10.719  0.4247 -0.1278 -0.4233
  434TMC3    C6 6471   3.935   3.897  10.780 -0.0530  0.0962  0.1519
  434TMC3     C 6472   3.979   4.245  10.999 -0.3208  0.0475  0.5241
  434TMC3     O 6473   3.966   4.223  11.119  0.0726  0.0548  0.0771
  434TMC3     H 6474   3.842   4.039  11.064 -2.0633  1.0035 -0.8675
  434TMC3    H1 6475   3.996   4.225  10.714 -0.4497  0.0639 -0.7252
  434TMC3    H2 6476   3.940   3.792  10.753  0.0943  0.1990 -0.2315
  434TMC3    C7 6477   4.053   3.996  10.593  0.1416  0.1707  0.2501
  434TMC3    C8 6478   3.958   3.825  11.003  0.0766  0.1235  0.1878
  434TMC3    O1 6479   4.038   4.071  10.498  0.0549  0.5945  0.2566
  434TMC3    O2 6480   3.992   3.871  11.110 -0.1174  0.4424  0.4476
  435MPD2     C 6481   1.010   4.369  15.520  0.4693 -0.5679  0.9005
  435MPD2    C1 6482   0.966   4.345  15.647 -0.3220  0.0744  0.0248
  435MPD2    C2 6483   1.060   4.294  15.734  0.0846 -0.5240  0.7389
  435MPD2    C3 6484   1.189   4.261  15.690  0.1838 -0.6277 -0.6690
  435MPD2    C4 6485   1.233   4.302  15.568  0.2161  0.3371  0.1518
  435MPD2    C5 6486   1.140   4.354  15.487 -0.0680 -0.5139  0.5811
  435MPD2     H 6487   1.028   4.253  15.829 -1.8517 -2.2051 -0.6624
  435MPD2    H1 6488   1.331   4.295  15.522  0.6013 -0.5021  1.0926
  435MPD2    H2 6489   0.948   4.415  15.444  0.3360 -0.8622  0.8315
  435MPD2    H3 6490   1.178   4.370  15.386 -1.5752 -1.2053 -0.0954
  435MPD2     N 6491   1.265   4.185  15.782 -0.6987 -0.1294  0.0357
  435MPD2    H5 6492   1.233   4.166  15.877 -2.2204  0.8809 -0.2782
  435MPD2    N1 6493   0.834   4.368  15.694  0.1084  0.2680 -0.0115
  435MPD2    H7 6494   0.821   4.353  15.794 -1.5459 -0.2108 -0.3006
  436TMC3    C1 6495   0.444   4.367  15.852  0.7219 -0.3629 -0.0834
  436TMC3    C2 6496   0.575   4.361  15.810 -0.2653  0.2220  0.2539
  436TMC3    C3 6497   0.608   4.422  15.688 -0.6699 -0.8642  0.7713
  436TMC3    C4 6498   0.347   4.444  15.786 -0.5096 -0.5124  0.0715
  436TMC3    C5 6499   0.381   4.511  15.676 -0.1761 -0.2826 -0.2573
  436TMC3    C6 6500   0.504   4.486  15.617  0.2227  0.2780  0.3999
  436TMC3     C 6501   0.417   4.356  16.000  0.6013 -0.4663 -0.3363
  436TMC3     O 6502   0.343   4.432  16.058  0.0147  0.2251 -0.2876
  436TMC3     H 6503   0.658   4.332  15.874 -1.4937 -1.0757  1.2413
  436TMC3    H1 6504   0.254   4.467  15.836 -0.9848  0.1278 -1.1147
  436TMC3    H2 6505   0.533   4.524  15.520  1.7427  0.7111  1.0173
  436TMC3    C7 6506   0.294   4.618  15.621  0.2360 -0.8431 -0.1349
  436TMC3    C8 6507   0.734   4.400  15.617  0.2020  0.5571 -0.3048
  436TMC3    O1 6508   0.172   4.621  15.643 -0.1537 -0.0500 -0.2416
  436TMC3    O2 6509   0.729   4.418  15.496 -0.4903  0.1848 -0.5440
  437TMC3    C1 6510   4.116   1.416  13.092 -0.2536 -0.0143 -0.2797
  437TMC3    C2 6511   3.975   1.436  13.077  0.6490  0.2825 -0.2418
  437TMC3    C3 6512   3.929   1.560  13.026  0.5887 -0.4202  0.1756
  437TMC3    C4 6513   4.198   1.514  13.037 -0.1063  0.8786 -0.1831
  437TMC3    C5 6514   4.148   1.631  12.991 -0.8190 -0.1381 -0.6282
  437TMC3    C6 6515   4.012   1.660  12.993 -0.0410  0.0786 -0.1408
  437TMC3     C 6516   4.167   1.290  13.125 -0.0887 -0.6865 -0.7816
  437TMC3     O 6517   4.285   1.290  13.155 -0.3338 -0.3297 -0.2107
  437TMC3     H 6518   3.912   1.358  13.118  1.8111 -0.2430  0.5540
  437TMC3    H1 6519   4.305   1.514  13.057 -0.4539  1.1434  1.7418
  437TMC3    H2 6520   3.976   1.754  12.954 -1.7276 -0.5062 -0.0137
  437TMC3    C7 6521   4.225   1.729  12.914  0.7003 -0.4509 -0.8151
  437TMC3    C8 6522   3.784   1.588  13.012  0.1903 -0.0223  0.4392
  437TMC3    O1 6523   4.154   1.792  12.832  0.4900 -0.1882 -0.8674
  437TMC3    O2 6524   3.748   1.707  13.031  0.2683 -0.2200 -0.5584
  438MPD2     C 6525   2.327   2.140  16.435 -0.8049  0.2895 -0.0985
  438MPD2    C1 6526   2.408   2.061  16.517  0.6292  0.3481 -0.3971
  438MPD2    C2 6527   2.395   2.076  16.652 -0.5601  0.1104  0.0526
  438MPD2    C3 6528   2.295   2.163  16.707  0.1584 -0.2825  0.1706
  438MPD2    C4 6529   2.217   2.236  16.622 -0.5293 -0.0314  0.5195
  438MPD2    C5 6530   2.233   2.224  16.484 -0.6329  0.2115  0.0925
  438MPD2     H 6531   2.461   2.019  16.716 -1.1130  0.5053  0.9698
  438MPD2    H1 6532   2.150   2.310  16.661 -1.9878 -0.8215 -0.4585
  438MPD2    H2 6533   2.331   2.127  16.327 -0.1816  2.0761 -0.2960
  438MPD2    H3 6534   2.172   2.285  16.419 -1.2782  0.3407  0.8191
  438MPD2     N 6535   2.272   2.183  16.851  0.3772 -0.4007 -0.5103
  438MPD2    H5 6536   2.203   2.250  16.881  0.5286 -2.3829  4.1725
  438MPD2    N1 6537   2.503   1.966  16.464  0.1561 -0.0952  0.9978
  438MPD2    H7 6538   2.565   1.918  16.529  0.0426  0.3704  1.4486
  439TMC3    C1 6539   2.624   1.824  16.318 -0.4908  0.2411 -0.1139
  439TMC3    C2 6540   2.630   1.756  16.197  0.3288  0.8582  0.8911
  439TMC3    C3 6541   2.673   1.626  16.193 -0.0220  0.0934 -0.2092
  439TMC3    C4 6542   2.668   1.756  16.429 -0.0777 -0.4447  0.1507
  439TMC3    C5 6543   2.726   1.633  16.422  0.1925  0.0505 -0.3216
  439TMC3    C6 6544   2.731   1.563  16.304  0.1660 -0.3122 -0.0171
  439TMC3     C 6545   2.529   1.934  16.331 -0.4124 -0.9461  0.6960
  439TMC3     O 6546   2.486   1.982  16.229 -0.2509 -0.3135  0.0265
  439TMC3     H 6547   2.575   1.801  16.115  0.1458  2.8532  2.0924
  439TMC3    H1 6548   2.645   1.781  16.531 -0.2398  0.0202 -0.0019
  439TMC3    H2 6549   2.796   1.477  16.289  0.7915 -0.0717  1.3281
  439TMC3    C7 6550   2.719   1.554  16.542 -0.1672  0.1566 -0.4751
  439TMC3    C8 6551   2.577   1.526  16.152 -0.3677 -0.1059 -0.1127
  439TMC3    O1 6552   2.746   1.613  16.649 -0.5526  0.6619  0.0114
  439TMC3    O2 6553   2.586   1.418  16.205 -0.4227  0.2262 -0.1682
  440MPD2     C 6554   0.659   2.746  14.972 -0.0084  0.9360  0.1110
  440MPD2    C1 6555   0.758   2.845  14.983  0.0436 -0.2199 -0.5776
  440MPD2    C2 6556   0.879   2.809  15.032  0.8166  0.2621  0.6877
  440MPD2    C3 6557   0.923   2.675  15.038  0.9504  0.7324  0.0893
  440MPD2    C4 6558   0.826   2.578  15.016 -0.0802 -0.5328 -0.2002
  440MPD2    C5 6559   0.700   2.617  14.984  0.1406  0.5253  0.2375
  440MPD2     H 6560   0.952   2.890  15.039 -0.4984  1.5058 -0.0280
  440MPD2    H1 6561   0.845   2.471  15.019  0.4681 -0.4214  0.2783
  440MPD2    H2 6562   0.554   2.761  14.949 -0.2597  0.5238  1.0030
  440MPD2    H3 6563   0.623   2.540  14.974  1.5741 -0.9582  0.6000
  440MPD2     N 6564   1.051   2.625  15.087  0.1132  0.1132  0.0413
  440MPD2    H5 6565   1.073   2.526  15.095 -1.3235 -0.1901  0.2407
  440MPD2    N1 6566   0.727   2.980  14.964 -0.7866 -0.5378 -0.7270
  440MPD2    H7 6567   0.783   3.050  15.013 -3.3132  1.2673 -0.3849
  441TMC3    C1 6568   1.277   2.642  15.150 -0.1296 -0.5454 -0.2724
  441TMC3    C2 6569   1.378   2.730  15.182 -0.2383  0.1203 -1.0285
  441TMC3    C3 6570   1.467   2.702  15.276  0.3299  0.9100  0.4645
  441TMC3    C4 6571   1.262   2.530  15.227 -0.1917 -0.5847  0.0379
  441TMC3    C5 6572   1.353   2.508  15.329 -0.2423  0.3319  0.7388
  441TMC3    C6 6573   1.459   2.590  15.352 -0.9235  0.1460  0.3491
  441TMC3     C 6574   1.153   2.714  15.116 -0.0169 -0.5738 -0.5605
  441TMC3     O 6575   1.154   2.836  15.113 -0.1104  0.2045  0.5116
  441TMC3     H 6576   1.402   2.803  15.106 -0.1294  1.9661  0.7591
  441TMC3    H1 6577   1.170   2.473  15.220 -0.0622 -0.6957 -0.7559
  441TMC3    H2 6578   1.533   2.573  15.428 -0.4185 -2.4742 -0.7292
  441TMC3    C7 6579   1.343   2.382  15.400 -0.1029  0.2687  0.0984
  441TMC3    C8 6580   1.505   2.816  15.355  0.6387 -0.3101  0.5333
  441TMC3    O1 6581   1.404   2.366  15.505  0.3581 -1.1394 -0.9760
  441TMC3    O2 6582   1.610   2.800  15.422  0.1924  0.3090 -0.3501
  442MPD2     C 6583   3.750   2.658  17.088 -0.1885 -0.2195 -0.1618
  442MPD2    C1 6584   3.742   2.712  16.956 -0.6526  0.5571  0.1306
  442MPD2    C2 6585   3.773   2.626  16.851 -0.1992  0.2721 -0.3220
  442MPD2    C3 6586   3.797   2.491  16.875 -0.4177  0.0605 -0.2970
  442MPD2    C4 6587   3.811   2.443  17.008 -0.2404 -0.2145 -0.4539
  442MPD2    C5 6588   3.791   2.530  17.106 -0.6347  0.2592 -0.1097
  442MPD2     H 6589   3.757   2.655  16.748  0.2642 -0.7730 -0.6867
  442MPD2    H1 6590   3.852   2.346  17.033 -0.8112 -0.0013  1.3063
  442MPD2    H2 6591   3.718   2.720  17.171 -0.9717 -0.7604 -0.0694
  442MPD2    H3 6592   3.796   2.499  17.210  0.5967  1.8780  0.3102
  442MPD2     N 6593   3.814   2.410  16.758  0.7049  0.2309  0.7724
  442MPD2    H5 6594   3.800   2.445  16.664 -0.4774 -2.5312 -0.0777
  442MPD2    N1 6595   3.699   2.847  16.943  0.1750  0.4666 -0.6212
  442MPD2    H7 6596   3.675   2.891  17.031 -0.5264 -1.4769  0.1558
  443TMC3    C1 6597   3.669   3.056  16.840  0.6697 -0.5143  1.1671
  443TMC3    C2 6598   3.695   3.135  16.730  0.7218  0.2823  0.1499
  443TMC3    C3 6599   3.602   3.224  16.702  0.0985  0.1510 -0.4557
  443TMC3    C4 6600   3.572   3.078  16.924  0.8879 -0.7871  0.9679
  443TMC3    C5 6601   3.477   3.173  16.888  0.0486  0.4362 -0.6172
  443TMC3    C6 6602   3.491   3.243  16.777 -0.2998 -0.0677 -0.6105
  443TMC3     C 6603   3.725   2.923  16.836  0.5240 -0.4025 -0.4614
  443TMC3     O 6604   3.784   2.896  16.734 -0.4426 -0.4505 -0.6193
  443TMC3     H 6605   3.780   3.118  16.665  0.6129  1.0901 -0.2079
  443TMC3    H1 6606   3.547   3.019  17.012 -1.6486  1.0681  1.5062
  443TMC3    H2 6607   3.416   3.307  16.733 -2.2700 -0.6726  1.8379
  443TMC3    C7 6608   3.343   3.112  16.902  0.1032 -0.0033 -1.1335
  443TMC3    C8 6609   3.592   3.245  16.555  0.4463 -0.5501  0.8629
  443TMC3    O1 6610   3.327   3.006  16.958 -0.1629  0.2102  0.1799
  443TMC3    O2 6611   3.630   3.156  16.476 -0.1083  0.2056 -0.1725
  444MPD2     C 6612   4.319   2.038  17.383 -0.0547 -0.2391  0.2125
  444MPD2    C1 6613   4.222   2.009  17.283 -0.6235 -0.1334 -0.3696
  444MPD2    C2 6614   4.265   1.932  17.171  0.0720 -0.0657 -0.2536
  444MPD2    C3 6615   4.387   1.878  17.159 -0.0537  0.6826 -0.5612
  444MPD2    C4 6616   4.479   1.910  17.255 -0.2030  0.4296  0.2582
  444MPD2    C5 6617   4.445   2.000  17.360 -0.7036 -0.2026 -0.7852
  444MPD2     H 6618   4.182   1.920  17.102 -1.8699  1.6182  1.7866
  444MPD2    H1 6619   4.582   1.876  17.246 -0.0591  0.9023  0.1053
  444MPD2    H2 6620   4.301   2.084  17.480  0.2691 -1.4452  0.8459
  444MPD2    H3 6621   4.522   2.023  17.433 -1.9355 -1.0790  0.8026
  444MPD2     N 6622   4.411   1.792  17.052 -0.0774  0.0297  0.2647
  444MPD2    H5 6623   4.332   1.765  16.994  0.3141  2.9606 -1.6531
  444MPD2    N1 6624   4.086   2.043  17.296 -0.1833 -0.7171  0.2488
  444MPD2    H7 6625   4.023   2.008  17.225  0.0180 -0.0191 -0.2722
  445TMC3    C1 6626   4.528   1.625  16.936  0.4203 -0.7585 -0.0982
  445TMC3    C2 6627   4.406   1.582  16.875 -0.5364  0.9004 -0.5346
  445TMC3    C3 6628   4.409   1.512  16.761 -0.4927 -0.1401  0.0957
  445TMC3    C4 6629   4.643   1.605  16.869  0.4907 -0.1161  0.7434
  445TMC3    C5 6630   4.638   1.532  16.759  0.4363  0.0296  0.1936
  445TMC3    C6 6631   4.527   1.489  16.697 -0.4480 -0.3472 -0.4499
  445TMC3     C 6632   4.536   1.742  17.021 -0.2346  0.7799  0.0570
  445TMC3     O 6633   4.651   1.784  17.039 -0.0165 -0.1754 -0.0146
  445TMC3     H 6634   4.308   1.592  16.920  0.0889 -1.7229  1.3657
  445TMC3    H1 6635   0.006   1.617  16.931  0.9741 -0.4565  0.1323
  445TMC3    H2 6636   4.533   1.453  16.595  3.4109 -0.2326 -0.2934
  445TMC3    C7 6637   0.047   1.505  16.709  0.1102 -0.4386 -0.0800
  445TMC3    C8 6638   4.286   1.458  16.701 -0.0082 -0.5403  0.1381
  445TMC3    O1 6639   0.134   1.570  16.756 -0.7702 -0.1785  0.0671
  445TMC3    O2 6640   4.181   1.511  16.737  0.5758  0.5030  0.4503
  446MPD2     C 6641   3.849   3.590  11.565  0.5793 -0.7811  0.0282
  446MPD2    C1 6642   3.845   3.608  11.432 -0.1895  0.5965  0.1418
  446MPD2    C2 6643   3.915   3.707  11.370  0.2235 -0.0113  0.2967
  446MPD2    C3 6644   4.003   3.779  11.449  0.7197  0.6708  1.0371
  446MPD2    C4 6645   4.019   3.745  11.583 -0.2907 -0.2016  0.8498
  446MPD2    C5 6646   3.944   3.651  11.638  0.0521 -0.4431 -0.3446
  446MPD2     H 6647   3.889   3.732  11.268 -0.5598  0.8210  0.7022
  446MPD2    H1 6648   4.086   3.796  11.650 -0.0527  1.8439 -0.9649
  446MPD2    H2 6649   3.791   3.520  11.625  1.4326 -0.4230  1.2852
  446MPD2    H3 6650   3.953   3.629  11.744 -1.1617  0.5312 -0.0346
  446MPD2     N 6651   4.083   3.887  11.390  0.6387  0.5025 -0.6242
  446MPD2    H5 6652   4.059   3.906  11.293 -0.1352  1.7157 -0.2037
  446MPD2    N1 6653   3.760   3.531  11.349  0.1316  0.9078 -0.0419
  446MPD2    H7 6654   3.742   3.562  11.254  1.6394  2.5932  0.2117
  447TMC3    C1 6655   4.270   4.030  11.361  0.1035  0.2827  0.2356
  447TMC3    C2 6656   4.240   4.062  11.226 -0.2328  0.5177  0.4590
  447TMC3    C3 6657   4.330   4.127  11.149  0.1263 -0.2733  0.0791
  447TMC3    C4 6658   4.379   4.083  11.419  0.5042 -0.0310 -0.1042
  447TMC3    C5 6659   4.459   4.168  11.341  0.6582 -0.0195  0.3609
  447TMC3    C6 6660   4.438   4.194  11.204 -0.1767 -1.0985 -0.2524
  447TMC3     C 6661   4.183   3.959  11.454 -0.0475  0.0434  0.1103
  447TMC3     O 6662   4.224   3.941  11.562  0.6197  0.4475 -0.4985
  447TMC3     H 6663   4.165   4.008  11.170  1.4004 -0.8250 -0.4323
  447TMC3    H1 6664   4.400   4.057  11.522  1.2203 -1.9935 -0.7294
  447TMC3    H2 6665   4.500   4.263  11.148 -2.5575  1.0500 -0.2922
  447TMC3    C7 6666   4.597   4.145  11.363 -0.6673  0.0791  0.5823
  447TMC3    C8 6667   4.365   4.075  11.013  0.3700 -0.1930  0.0918
  447TMC3    O1 6668   4.652   4.099  11.266  0.4632 -0.1235  0.1183
  447TMC3    O2 6669   4.268   4.044  10.935 -0.0289  0.7873  0.0973
  448TMC3    C1 6670   2.271   3.565  16.966  0.1007 -0.0872 -0.5689
  448TMC3    C2 6671   2.220   3.450  16.914  0.4040 -0.0317  0.3841
  448TMC3    C3 6672   2.307   3.345  16.901 -0.5145  0.3761  0.6000
  448TMC3    C4 6673   2.408   3.575  17.000  0.4016 -0.3177  0.4949
  448TMC3    C5 6674   2.502   3.476  16.966  0.0495  0.5800 -0.5391
  448TMC3    C6 6675   2.443   3.351  16.924  1.3334 -0.1901 -0.0314
  448TMC3     C 6676   2.185   3.679  16.969 -0.7420  0.4521  0.0414
  448TMC3     O 6677   2.207   3.758  17.060 -0.4204  0.3884 -0.3441
  448TMC3     H 6678   2.113   3.444  16.903  0.4955 -0.2161 -0.3789
  448TMC3    H1 6679   2.444   3.670  17.039 -0.1557 -0.1400  0.5677
  448TMC3    H2 6680   2.514   3.269  16.919 -1.1172 -2.2648 -0.5348
  448TMC3    C7 6681   2.627   3.472  17.045 -0.3279 -0.8087  0.6509
  448TMC3    C8 6682   2.257   3.221  16.847  0.1938  0.6495 -0.1167
  448TMC3    O1 6683   2.678   3.575  17.081  0.3222 -0.7866  0.1393
  448TMC3    O2 6684   2.330   3.128  16.881 -0.3232 -0.0729  0.0333
  449MPD2     C 6685   3.511   1.434  13.863 -0.3129 -0.0560 -0.1460
  449MPD2    C1 6686   3.443   1.419  13.740 -0.2538  0.8419  1.1282
  449MPD2    C2 6687   3.304   1.403  13.739  0.3463  0.5779  0.2752
  449MPD2    C3 6688   3.227   1.396  13.857 -0.2342 -0.2240 -0.0444
  449MPD2    C4 6689   3.300   1.410  13.974 -0.7772 -0.4333 -0.6488
  449MPD2    C5 6690   3.438   1.428  13.978 -0.0631  0.4908 -0.4094
  449MPD2     H 6691   3.253   1.393  13.643  2.5192 -0.0792 -0.8017
  449MPD2    H1 6692   3.245   1.406  14.067  0.5889  1.3627  0.2629
  449MPD2    H2 6693   3.617   1.452  13.873 -0.1210 -0.0742 -2.1445
  449MPD2    H3 6694   3.484   1.446  14.074  0.6270 -2.4000 -0.2159
  449MPD2     N 6695   3.080   1.400  13.845  0.0300 -0.7355  0.4880
  449MPD2    H5 6696   3.037   1.410  13.754  1.9842  1.5064 -0.2070
  449MPD2    N1 6697   3.506   1.435  13.616 -0.1310 -0.0650 -0.9310
  449MPD2    H7 6698   3.452   1.424  13.531 -2.2821 -1.5166  0.6195
  450TMC3    C1 6699   3.657   1.482  13.444  0.3095 -0.0735  0.2826
  450TMC3    C2 6700   3.734   1.596  13.423  0.2343  0.6473  0.2272
  450TMC3    C3 6701   3.676   1.709  13.374  0.7266 -0.3156  0.3127
  450TMC3    C4 6702   3.539   1.470  13.379  0.7847 -1.0445  0.1021
  450TMC3    C5 6703   3.480   1.584  13.323  0.4695 -0.0412  0.2593
  450TMC3    C6 6704   3.549   1.708  13.329  0.2349  0.1556  0.2611
  450TMC3     C 6705   3.641   1.451  13.589 -0.4476 -0.7220 -0.2843
  450TMC3     O 6706   3.740   1.458  13.661 -0.0566  0.8223  0.2008
  450TMC3     H 6707   3.813   1.611  13.495 -1.2277 -0.1996  2.0229
  450TMC3    H1 6708   3.487   1.374  13.384  1.6332 -1.4613  0.8772
  450TMC3    H2 6709   3.500   1.794  13.286  1.0719 -0.1105 -1.2385
  450TMC3    C7 6710   3.336   1.577  13.316  0.1750 -0.6730 -0.2296
  450TMC3    C8 6711   3.746   1.835  13.349 -0.1889 -1.0162 -0.1688
  450TMC3    O1 6712   3.293   1.483  13.382 -0.5381  0.1830  0.1124
  450TMC3    O2 6713   3.683   1.936  13.341 -0.1917 -0.0100  0.4159
  451MPD2     C 6714   0.164   0.818   1.882  0.4176 -1.0617  0.1452
  451MPD2    C1 6715   0.237   0.918   1.832 -0.1648  0.1753 -0.1506
  451MPD2    C2 6716   0.372   0.921   1.860  0.2148 -0.3333 -0.5145
  451MPD2    C3 6717   0.428   0.804   1.919  1.1819 -0.6819 -0.6915
  451MPD2    C4 6718   0.352   0.695   1.949 -0.4166 -0.3207 -0.3903
  451MPD2    C5 6719   0.218   0.702   1.930  0.4276  0.8463  0.0623
  451MPD2     H 6720   0.437   1.007   1.848  0.6635 -0.2142  2.7488
  451MPD2    H1 6721   0.391   0.600   1.985 -0.4687 -0.0445  0.4037
  451MPD2    H2 6722   0.058   0.814   1.856  0.7812 -1.3337 -1.3162
  451MPD2    H3 6723   0.162   0.612   1.957  2.0505  0.2426  1.4327
  451MPD2     N 6724   0.567   0.803   1.936  0.0051  0.5920 -0.3405
  451MPD2    H5 6725   0.611   0.888   1.904 -1.0640  1.1213 -0.4237
  451MPD2    N1 6726   0.160   1.021   1.776 -0.3941 -0.5308  0.3580
  451MPD2    H7 6727   0.063   0.999   1.756 -0.5599 -0.4097  1.0273
  452TMC3    C1 6728   0.775   0.732   1.991 -0.2054 -0.5227  0.6503
  452TMC3    C2 6729   0.844   0.693   2.100 -0.2590  0.6076  0.2392
  452TMC3    C3 6730   0.969   0.644   2.087 -0.0942  0.6123  0.2331
  452TMC3    C4 6731   0.829   0.722   1.866  0.1970 -0.2705 -0.0466
  452TMC3    C5 6732   0.949   0.653   1.850  0.0781  0.7139  0.0990
  452TMC3    C6 6733   1.012   0.610   1.965  0.4300  0.0110 -0.8823
  452TMC3     C 6734   0.636   0.712   1.999  0.6190 -0.0681 -0.1963
  452TMC3     O 6735   0.594   0.618   2.064 -0.5550 -0.3191 -0.0411
  452TMC3     H 6736   0.806   0.714   2.199  0.9535  0.2668  0.7700
  452TMC3    H1 6737   0.780   0.734   1.770  0.6213 -0.9739 -0.3512
  452TMC3    H2 6738   1.088   0.534   1.948  1.0826 -0.0692  2.4238
  452TMC3    C7 6739   0.985   0.597   1.720 -0.3612  0.0885  0.2179
  452TMC3    C8 6740   1.029   0.567   2.194  0.1387  0.6531  0.2602
  452TMC3    O1 6741   0.888   0.583   1.645 -0.0858  0.1867  0.4234
  452TMC3    O2 6742   0.950   0.534   2.281  0.0520  0.1233 -0.1987
  453TMC3    C1 6743   1.322   2.480  12.118  0.1560 -0.8406 -0.6709
  453TMC3    C2 6744   1.249   2.386  12.189 -0.0754  0.6024 -0.0256
  453TMC3    C3 6745   1.137   2.339  12.126  0.2912 -0.0891 -0.0968
  453TMC3    C4 6746   1.301   2.509  11.986  0.1774 -0.6996 -0.5245
  453TMC3    C5 6747   1.181   2.456  11.931  0.5015 -0.5082 -0.4620
  453TMC3    C6 6748   1.096   2.378  12.007  0.9315  0.1071 -0.3406
  453TMC3     C 6749   1.440   2.542  12.171 -0.4841  0.3160  0.4009
  453TMC3     O 6750   1.468   2.651  12.124 -0.0614  0.0440 -0.8099
  453TMC3     H 6751   1.265   2.367  12.295 -3.9584  0.4129  0.5029
  453TMC3    H1 6752   1.366   2.574  11.929 -1.2719  2.0730  0.9810
  453TMC3    H2 6753   1.014   2.327  11.956 -1.0180  1.6492  1.2981
  453TMC3    C7 6754   1.188   2.420  11.789 -0.1888  0.6341  0.1542
  453TMC3    C8 6755   1.073   2.220  12.175 -0.3440 -0.0425  1.0684
  453TMC3    O1 6756   1.189   2.300  11.760  0.0117  0.1890 -0.3101
  453TMC3    O2 6757   0.957   2.207  12.144  0.6661 -0.0297  0.1535
  454MPD2     C 6758   0.152   2.042  15.992  0.1667  0.3939  0.6158
  454MPD2    C1 6759   0.039   2.099  16.040 -0.6948  0.0589 -0.0420
  454MPD2    C2 6760   0.023   2.102  16.178  0.1979  0.3714 -0.7749
  454MPD2    C3 6761   0.126   2.045  16.256 -0.5490  0.9218 -0.3149
  454MPD2    C4 6762   0.236   1.987  16.197  0.1879  0.0473  0.0189
  454MPD2    C5 6763   0.250   1.979  16.061 -0.1794 -0.1404 -0.1788
  454MPD2     H 6764   4.663   2.154  16.221  0.1520  0.1338 -0.5811
  454MPD2    H1 6765   0.307   1.947  16.269  1.1002 -0.8026 -1.3522
  454MPD2    H2 6766   0.166   2.028  15.885 -3.6580  0.7133  0.0780
  454MPD2    H3 6767   0.337   1.937  16.012  2.0519  2.0445  1.9494
  454MPD2     N 6768   0.114   2.032  16.398  0.0985 -0.4640 -0.0806
  454MPD2    H5 6769   0.171   1.958  16.438  1.0512 -0.1811 -0.9113
  454MPD2    N1 6770   4.669   2.158  15.961 -0.0339 -0.3457 -0.0241
  454MPD2    H7 6771   4.580   2.182  16.004  0.6632 -0.6021  1.5347
  455TMC3    C1 6772   4.722   2.025  16.595 -0.2260 -0.6397  0.6581
  455TMC3    C2 6773   4.681   2.105  16.703 -0.4649  0.7739  0.0405
  455TMC3    C3 6774   4.566   2.082  16.768 -0.4145  0.1279  0.1505
  455TMC3    C4 6775   4.643   1.919  16.568  0.0028  0.3857 -1.1263
  455TMC3    C5 6776   4.526   1.897  16.634  0.6508  0.9669 -0.2019
  455TMC3    C6 6777   4.484   1.980  16.741 -0.1807  0.7809  0.0635
  455TMC3     C 6778   0.030   2.102  16.480  0.5366 -0.4430  0.0944
  455TMC3     O 6779   4.696   2.209  16.456 -0.1891  0.1289 -0.5929
  455TMC3     H 6780   0.026   2.174  16.751  1.0163 -0.8981  0.3102
  455TMC3    H1 6781   4.649   1.882  16.466  3.0181  0.2270 -0.8997
  455TMC3    H2 6782   4.403   1.962  16.810  0.2753  1.0497  0.6691
  455TMC3    C7 6783   4.442   1.806  16.570 -0.0080  0.4891 -0.3982
  455TMC3    C8 6784   4.551   2.144  16.895  0.0419 -0.1456 -0.0086
  455TMC3    O1 6785   4.497   1.717  16.500 -0.7659 -0.1137  0.2318
  455TMC3    O2 6786   4.444   2.192  16.934  0.8147 -0.2048 -0.6653
  456MPD2     C 6787   2.623   2.347  15.852 -0.0549 -0.4334 -0.3343
  456MPD2    C1 6788   2.673   2.266  15.947 -0.6156 -0.6014 -0.5815
  456MPD2    C2 6789   2.629   2.276  16.080  0.3292  1.1312  0.0475
  456MPD2    C3 6790   2.544   2.382  16.115  0.4384  0.0076  0.0396
  456MPD2    C4 6791   2.494   2.462  16.012 -0.9970 -0.4194 -0.3438
  456MPD2    C5 6792   2.544   2.455  15.882  0.3665 -0.2959 -0.0215
  456MPD2     H 6793   2.665   2.210  16.157 -3.5708 -0.8928  0.1257
  456MPD2    H1 6794   2.444   2.556  16.032 -0.1669 -0.1674  0.5497
  456MPD2    H2 6795   2.650   2.344  15.748  0.8671  0.2282 -0.1117
  456MPD2    H3 6796   2.499   2.517  15.805 -0.9374  0.4825  1.3709
  456MPD2     N 6797   2.503   2.399  16.251  0.0865 -0.7723  0.5930
  456MPD2    H5 6798   2.552   2.336  16.314 -3.0368 -1.4115  2.4100
  456MPD2    N1 6799   2.760   2.162  15.908  0.1841  0.1388 -0.4859
  456MPD2    H7 6800   2.777   2.160  15.807 -0.1041 -0.6868 -0.5164
  457TMC3    C1 6801   2.407   2.501  16.436  0.4442 -0.4284 -0.0153
  457TMC3    C2 6802   2.308   2.579  16.488  0.2941  0.4840  0.1909
  457TMC3    C3 6803   2.294   2.594  16.620  0.0605  0.1476 -0.5730
  457TMC3    C4 6804   2.499   2.438  16.520 -0.9675  0.3781  0.4187
  457TMC3    C5 6805   2.490   2.466  16.652  0.1383 -0.0312  0.0443
  457TMC3    C6 6806   2.384   2.542  16.703  0.3335 -0.3808  0.9098
  457TMC3     C 6807   2.413   2.494  16.292 -0.1646  0.1795  0.2947
  457TMC3     O 6808   2.340   2.572  16.231  1.0234  0.2517  0.0323
  457TMC3     H 6809   2.243   2.619  16.411  0.0845 -0.5795 -0.1815
  457TMC3    H1 6810   2.568   2.359  16.491 -1.0825  0.5468 -0.3343
  457TMC3    H2 6811   2.365   2.554  16.809 -1.4687 -0.3017  0.5886
  457TMC3    C7 6812   2.570   2.404  16.751 -0.1052  0.4579  0.2146
  457TMC3    C8 6813   2.239   2.728  16.670  0.0942  0.2396  0.9374
  457TMC3    O1 6814   2.622   2.297  16.725 -0.8799  0.5831  0.0645
  457TMC3    O2 6815   2.285   2.770  16.775 -0.6533 -0.3285  0.3203
  458MPD2     C 6816   4.677   1.918  12.736  0.0995 -0.9026 -0.1585
  458MPD2    C1 6817   4.698   1.804  12.814 -0.5568 -0.2507 -0.1678
  458MPD2    C2 6818   4.594   1.742  12.879 -0.3533 -0.0524 -0.1746
  458MPD2    C3 6819   4.466   1.785  12.856 -0.0827  0.4758 -0.1597
  458MPD2    C4 6820   4.440   1.885  12.763 -0.0044  0.0998  0.2452
  458MPD2    C5 6821   4.545   1.957  12.715  0.2033  0.1257  0.5750
  458MPD2     H 6822   4.613   1.657  12.943 -0.2983 -2.1990 -3.0350
  458MPD2    H1 6823   4.341   1.924  12.741  0.8442  2.5062  0.6876
  458MPD2    H2 6824   0.033   1.954  12.673  0.0655  1.3385  1.0739
  458MPD2    H3 6825   4.521   2.030  12.639 -2.2123 -1.5446 -0.2934
  458MPD2     N 6826   4.361   1.711  12.922  0.1502 -0.2898  0.3704
  458MPD2    H5 6827   4.388   1.633  12.982 -0.1620 -0.2380  0.5798
  458MPD2    N1 6828   0.108   1.758  12.825 -0.7327  0.0331  0.1173
  458MPD2    H7 6829   0.180   1.808  12.774  0.9637 -1.5383  0.9903
  459TMC3    C1 6830   0.292   1.656  12.926  0.4876 -0.3804  0.7967
  459TMC3    C2 6831   0.383   1.730  12.859 -0.0049 -0.1049 -0.4115
  459TMC3    C3 6832   0.515   1.720  12.892  0.4169  0.1556  1.0275
  459TMC3    C4 6833   0.335   1.553  13.004 -0.4300  0.1324 -0.0121
  459TMC3    C5 6834   0.468   1.544  13.040  0.5292 -0.4628  0.0088
  459TMC3    C6 6835   0.557   1.627  12.984  0.5998 -0.4445 -0.0017
  459TMC3     C 6836   0.151   1.652  12.902  0.1066  0.2614 -0.0165
  459TMC3     O 6837   0.083   1.569  12.966 -0.9798  0.5022  0.1091
  459TMC3     H 6838   0.356   1.812  12.793 -1.1169 -2.1846 -2.5346
  459TMC3    H1 6839   0.271   1.470  13.029 -0.9898  0.3603 -0.6812
  459TMC3    H2 6840   0.660   1.619  13.016 -0.2865 -2.3898  2.3774
  459TMC3    C7 6841   0.524   1.439  13.126  0.2339  0.0742  0.0788
  459TMC3    C8 6842   0.607   1.822  12.861  0.3904  0.1591 -0.2823
  459TMC3    O1 6843   0.643   1.407  13.104  0.0693 -0.1413  0.6913
  459TMC3    O2 6844   0.699   1.844  12.939 -0.3689  0.0133 -0.4013
  460MPD2     C 6845   4.700   3.975  10.916  0.0146  0.4752  0.0220
  460MPD2    C1 6846   4.571   4.014  10.899 -0.3202  0.2152  0.4481
  460MPD2    C2 6847   4.514   4.029  10.775 -0.7499  0.6730 -0.2649
  460MPD2    C3 6848   4.586   3.979  10.672 -0.6062  0.0455  0.0076
  460MPD2    C4 6849   4.715   3.931  10.689  0.3240  0.2393 -0.2872
  460MPD2    C5 6850   0.044   3.930  10.808 -0.4457  1.2780  0.2025
  460MPD2     H 6851   4.412   4.063  10.761 -0.3620  2.0513  0.2802
  460MPD2    H1 6852   0.046   3.902  10.599 -0.9060  1.4677 -1.4270
  460MPD2    H2 6853   0.027   3.975  11.012  1.8140  1.4182 -0.9324
  460MPD2    H3 6854   0.143   3.888  10.824 -1.0656 -0.5721 -0.8065
  460MPD2     N 6855   4.532   3.988  10.543  0.2532  0.8667 -0.5127
  460MPD2    H5 6856   4.456   4.055  10.532 -0.7516 -0.3291 -0.7444
  460MPD2    N1 6857   4.503   4.062  11.012 -0.1661  0.1746 -0.2629
  460MPD2    H7 6858   4.547   4.060  11.103 -2.3398  0.9215  0.8172
  461TMC3    C1 6859   4.528   3.981  10.307  0.2072  0.4617  0.1392
  461TMC3    C2 6860   4.461   3.909  10.213  0.7029  0.6134  0.3397
  461TMC3    C3 6861   4.365   3.981  10.140  0.3652 -0.2541  0.6686
  461TMC3    C4 6862   4.532   4.119  10.302 -0.6135 -0.3671  0.1365
  461TMC3    C5 6863   4.443   4.184  10.221  0.1893 -1.0809 -0.3363
  461TMC3    C6 6864   4.365   4.116  10.128  0.7061  0.0362 -0.3551
  461TMC3     C 6865   4.576   3.914  10.427  0.0943 -0.5685 -0.2192
  461TMC3     O 6866   4.649   3.810  10.420 -0.0506 -0.0731  0.4410
  461TMC3     H 6867   4.448   3.801  10.219 -0.3285  0.7601  0.7515
  461TMC3    H1 6868   4.574   4.180  10.381  0.5349  0.1886 -0.9051
  461TMC3    H2 6869   4.301   4.168  10.058  0.4343  1.0220  0.6269
  461TMC3    C7 6870   4.452   4.327  10.194 -0.1291 -0.4444 -0.0346
  461TMC3    C8 6871   4.289   3.904  10.048 -0.9668 -0.6241  0.4628
  461TMC3    O1 6872   4.382   4.365  10.100 -0.3174  0.0924  0.2461
  461TMC3    O2 6873   4.334   3.800  10.006  0.3754  0.2913 -0.8385
  462TMC3    C1 6874   4.145   4.696   0.177  0.1386 -0.0049 -0.0592
  462TMC3    C2 6875   4.257   4.648   0.231 -0.0980  0.5239  0.6896
  462TMC3    C3 6876   4.246   4.530   0.304  0.5020 -0.6486 -0.1274
  462TMC3    C4 6877   4.025   4.631   0.193 -0.3495 -0.0253  0.0382
  462TMC3    C5 6878   4.020   4.521   0.268 -0.1077 -0.6765  0.2224
  462TMC3    C6 6879   4.128   4.460   0.319  1.3028  0.2636  0.9729
  462TMC3     C 6880   4.141   0.116   0.165  0.3303  0.0739 -0.4770
  462TMC3     O 6881   4.244   0.161   0.114 -0.0047  0.5657  0.1117
  462TMC3     H 6882   4.347   4.706   0.212  0.0237 -0.8683 -2.9889
  462TMC3    H1 6883   3.928   4.673   0.170 -0.5812 -1.0263 -0.8157
  462TMC3    H2 6884   4.119   4.376   0.387  3.0285 -0.6811  0.0330
  462TMC3    C7 6885   3.886   4.460   0.281  0.0869  0.4839 -0.0546
  462TMC3    C8 6886   4.349   4.494   0.401  0.1829  0.0507 -0.7093
  462TMC3    O1 6887   3.801   4.478   0.194 -0.3035 -0.0172  0.7265
  462TMC3    O2 6888   4.332   4.428   0.499 -0.3197  0.1531  0.1557
  463MPD2     C 6889   0.857   3.646   2.276  0.8180 -0.0864  0.1445
  463MPD2    C1 6890   0.770   3.700   2.185  0.2449 -0.0589  0.4641
  463MPD2    C2 6891   0.798   3.821   2.126  0.0367  0.5097  0.8479
  463MPD2    C3 6892   0.923   3.883   2.146 -0.1264  0.8029  0.4588
  463MPD2    C4 6893   1.004   3.835   2.246 -0.0353  0.2858  0.6209
  463MPD2    C5 6894   0.970   3.715   2.311 -0.0139 -0.1411  0.3671
  463MPD2     H 6895   0.728   3.856   2.051 -0.0543 -2.0486 -0.2672
  463MPD2    H1 6896   1.103   3.878   2.254  0.8278 -1.4129 -1.0774
  463MPD2    H2 6897   0.829   3.555   2.327  2.3009 -0.1083  0.9128
  463MPD2    H3 6898   1.038   3.670   2.383  0.0341 -0.9924 -0.2112
  463MPD2     N 6899   0.961   4.010   2.098 -0.2054  0.3951 -0.1636
  463MPD2    H5 6900   1.029   4.064   2.150 -0.5559  0.7711 -0.0953
  463MPD2    N1 6901   0.652   3.627   2.141 -0.2064  0.0885 -0.3816
  463MPD2    H7 6902   0.592   3.676   2.075  1.3292  1.3086 -0.8619
  464TMC3    C1 6903   0.484   3.463   2.122 -0.4619  0.1350 -0.4014
  464TMC3    C2 6904   0.403   3.544   2.051 -0.5568 -0.0613  0.2861
  464TMC3    C3 6905   0.276   3.500   2.022 -0.3944  0.7329  0.3313
  464TMC3    C4 6906   0.431   3.343   2.174  0.0138 -0.0604 -0.2060
  464TMC3    C5 6907   0.308   3.303   2.135 -0.3932  0.3965  0.5160
  464TMC3    C6 6908   0.221   3.383   2.068  0.1397  0.2736  0.2472
  464TMC3     C 6909   0.614   3.502   2.176 -0.2949  0.0996  0.0820
  464TMC3     O 6910   0.671   3.416   2.241 -0.2152 -0.0350 -0.0462
  464TMC3     H 6911   0.445   3.627   1.995  1.2222  0.1192  1.8895
  464TMC3    H1 6912   0.507   3.270   2.201  1.7249  0.8886 -2.4304
  464TMC3    H2 6913   0.125   3.348   2.033  1.8958 -2.3546 -1.9684
  464TMC3    C7 6914   0.291   3.164   2.155  0.7262  0.5085 -0.2576
  464TMC3    C8 6915   0.181   3.597   1.974 -0.0301 -1.3786  0.3740
  464TMC3    O1 6916   0.379   3.110   2.222  0.1628 -0.3217  0.1150
  464TMC3    O2 6917   0.081   3.563   1.910 -0.1290  0.2063 -0.0407
  465MPD2     C 6918   1.976   1.901  16.889  0.1324  0.3576  0.2872
  465MPD2    C1 6919   1.842   1.900  16.931 -0.1601  0.0691  0.4847
  465MPD2    C2 6920   1.750   1.975  16.862 -0.1061 -0.2459 -0.0118
  465MPD2    C3 6921   1.784   2.057  16.759 -0.2112  0.2785 -0.0001
  465MPD2    C4 6922   1.916   2.071  16.727 -0.3933  0.3328  0.3537
  465MPD2    C5 6923   2.007   1.984  16.787  0.0825  0.2809 -0.2327
  465MPD2     H 6924   1.645   1.959  16.883  0.1392  0.6186  1.8622
  465MPD2    H1 6925   1.951   2.135  16.648 -3.8398 -1.2007 -2.3849
  465MPD2    H2 6926   2.061   1.844  16.926  0.0787 -0.3343 -0.6703
  465MPD2    H3 6927   2.109   1.971  16.754  0.9108  0.3417  2.3050
  465MPD2     N 6928   1.675   2.116  16.683  0.3004 -0.1835  0.4555
  465MPD2    H5 6929   1.588   2.070  16.707 -0.5419  1.9616  1.5623
  465MPD2    N1 6930   1.802   1.812  17.040  0.0118  0.7544  0.0274
  465MPD2    H7 6931   1.706   1.816  17.072 -0.3326 -2.5804 -0.5722
  466TMC3    C1 6932   1.319   2.215  16.505 -0.0554  0.7561  0.2818
  466TMC3    C2 6933   1.294   2.343  16.455 -0.3514 -0.4342 -0.0604
  466TMC3    C3 6934   1.412   2.420  16.441 -0.0567 -0.4876  0.0469
  466TMC3    C4 6935   1.438   2.164  16.541  0.0787  0.5788 -0.6255
  466TMC3    C5 6936   1.549   2.249  16.530 -0.0779  0.0820  0.7742
  466TMC3    C6 6937   1.538   2.378  16.476  0.2199  0.1865  0.2054
  466TMC3     C 6938   1.205   2.158  16.564  0.2640 -0.8527 -0.6895
  466TMC3     O 6939   1.135   2.236  16.621  0.5131  0.2240 -0.2752
  466TMC3     H 6940   1.196   2.381  16.429  0.5217  2.9153  1.5483
  466TMC3    H1 6941   1.445   2.061  16.575  1.0087  0.6139 -0.6992
  466TMC3    H2 6942   1.630   2.434  16.465 -0.8447  2.1120  1.2151
  466TMC3    C7 6943   1.685   2.223  16.598 -0.7962  0.2792  0.0350
  466TMC3    C8 6944   1.393   2.564  16.401 -1.0642  0.0979 -0.6339
  466TMC3    O1 6945   1.783   2.289  16.565 -0.3243 -0.0084  0.3007
  466TMC3    O2 6946   1.494   2.622  16.356  0.3554  0.3808 -0.7559
  467TMC3    C1 6947   2.406   1.076  13.921 -0.3955 -0.4211  0.6395
  467TMC3    C2 6948   2.369   1.070  13.787 -0.5839  0.0243 -0.2453
  467TMC3    C3 6949   2.297   0.958  13.752  0.2087  0.3919 -0.3850
  467TMC3    C4 6950   2.351   0.997  14.019  0.1358  0.3215  0.3898
  467TMC3    C5 6951   2.282   0.891  13.972  1.1436 -0.1284  0.2066
  467TMC3    C6 6952   2.260   0.863  13.840 -0.0249 -0.0361 -0.4889
  467TMC3     C 6953   2.553   1.092  13.940  0.1695 -0.6336  0.5871
  467TMC3     O 6954   2.604   1.088  14.055 -0.1130  0.2598 -0.3928
  467TMC3     H 6955   2.403   1.147  13.719  0.8463  0.9769  1.5502
  467TMC3    H1 6956   2.378   1.022  14.121 -0.8273  0.5659  0.5843
  467TMC3    H2 6957   2.212   0.773  13.802  2.8821 -1.0003 -1.8588
  467TMC3    C7 6958   2.256   0.786  14.065 -0.6778 -0.3106 -0.0303
  467TMC3    C8 6959   2.316   0.939  13.609  0.2827 -0.0392  0.0792
  467TMC3    O1 6960   2.355   0.732  14.107  0.3026 -0.3477 -0.4258
  467TMC3    O2 6961   2.411   0.998  13.552 -0.2560 -0.3997  0.3868
  468MPD2     C 6962   1.697   3.658  10.590 -0.2418  0.8737 -0.8597
  468MPD2    C1 6963   1.815   3.581  10.598 -0.5301 -0.3024  0.2291
  468MPD2    C2 6964   1.807   3.442  10.615 -0.2680  0.2148 -0.7784
  468MPD2    C3 6965   1.683   3.384  10.636 -0.0405 -0.4883 -0.1173
  468MPD2    C4 6966   1.568   3.468  10.628  0.2191 -0.1304 -0.2924
  468MPD2    C5 6967   1.575   3.598  10.597  0.0097 -0.0966  0.0957
  468MPD2     H 6968   1.897   3.384  10.600 -0.8092 -0.7355 -0.3443
  468MPD2    H1 6969   1.471   3.419  10.632  0.5094 -0.6770  0.2025
  468MPD2    H2 6970   1.696   3.764  10.567 -1.3086  1.4171  1.8088
  468MPD2    H3 6971   1.481   3.644  10.569  0.8487  1.5335 -0.0217
  468MPD2     N 6972   1.659   3.245  10.648  0.0986  0.6022  0.4375
  468MPD2    H5 6973   1.562   3.216  10.646 -0.1665  1.4252  1.2063
  468MPD2    N1 6974   1.939   3.654  10.588  0.3148 -0.1159  0.5202
  468MPD2    H7 6975   1.931   3.752  10.565 -1.5589 -0.0145  1.5703
  469TMC3    C1 6976   2.173   3.684  10.555 -0.1430  0.0788  0.3734
  469TMC3    C2 6977   2.295   3.646  10.598 -0.1818  0.0949  0.4235
  469TMC3    C3 6978   2.397   3.726  10.552 -0.0345  0.6089  0.6162
  469TMC3    C4 6979   2.147   3.778  10.456 -0.4737 -0.2297 -0.2969
  469TMC3    C5 6980   2.262   3.842  10.408  0.5306  0.4136 -0.3912
  469TMC3    C6 6981   2.389   3.821  10.453 -0.2110  0.1805 -0.5477
  469TMC3     C 6982   2.066   3.601  10.599 -0.3832 -0.0301 -0.2644
  469TMC3     O 6983   2.100   3.495  10.646 -0.4201  0.1037  0.5447
  469TMC3     H 6984   2.308   3.571  10.675 -1.1847 -2.0929 -1.5108
  469TMC3    H1 6985   2.050   3.804  10.414 -0.8730  1.2332  1.5337
  469TMC3    H2 6986   2.472   3.884  10.426 -1.1717  1.9386  0.5716
  469TMC3    C7 6987   2.245   3.976  10.349 -0.2201 -0.4161 -0.6294
  469TMC3    C8 6988   2.506   3.768  10.647  0.5987 -0.8620 -0.0932
  469TMC3    O1 6989   2.321   4.021  10.263  0.3758 -0.0180  0.3188
  469TMC3    O2 6990   2.589   3.841  10.597  0.6077 -0.0034 -1.2209
  470TMC3    C1 6991   4.320   4.323   1.675 -0.5076  0.1410 -0.6722
  470TMC3    C2 6992   4.313   4.440   1.747 -0.2660 -0.1544  0.0077
  470TMC3    C3 6993   4.366   4.435   1.875 -0.0409 -0.1696 -0.4294
  470TMC3    C4 6994   4.352   4.205   1.734  0.3245 -0.5015  0.5321
  470TMC3    C5 6995   4.419   4.216   1.857  0.2709  0.4834 -0.0414
  470TMC3    C6 6996   4.414   4.325   1.933  0.6197  1.0133 -0.1908
  470TMC3     C 6997   4.253   4.316   1.546 -0.1864 -0.2844  0.4307
  470TMC3     O 6998   4.210   4.208   1.511 -0.3463 -0.0406  0.3465
  470TMC3     H 6999   4.283   4.532   1.698  0.1354 -0.3566 -0.6223
  470TMC3    H1 7000   4.372   4.127   1.662  0.3430  0.9888 -1.1021
  470TMC3    H2 7001   4.429   4.327   2.040  0.6070 -0.3667 -0.1723
  470TMC3    C7 7002   4.437   4.101   1.942 -0.4105  0.0509  0.3034
  470TMC3    C8 7003   4.419   4.561   1.923  0.4403  0.0759 -0.3010
  470TMC3    O1 7004   4.502   4.116   2.042 -0.1321  0.1813 -0.3431
  470TMC3    O2 7005   4.502   4.546   2.014 -1.1001 -0.1423 -0.5246
  471MPD2     C 7006   4.209   1.572  17.239 -0.0151 -0.5002 -0.0085
  471MPD2    C1 7007   4.261   1.459  17.176 -0.6660  0.2375  0.8758
  471MPD2    C2 7008   4.396   1.427  17.192 -0.0886  0.0815 -0.1709
  471MPD2    C3 7009   4.474   1.496  17.280  0.2836 -0.3285 -0.7207
  471MPD2    C4 7010   4.421   1.599  17.354 -0.4308  0.6050  0.2836
  471MPD2    C5 7011   4.298   1.639  17.322  0.2307 -0.2939  0.0797
  471MPD2     H 7012   4.437   1.336  17.148 -0.1665  0.0317 -0.1402
  471MPD2    H1 7013   4.470   1.656  17.432 -0.5732 -0.2636  1.0077
  471MPD2    H2 7014   4.107   1.608  17.237  0.5067  0.9255 -0.8759
  471MPD2    H3 7015   4.264   1.724  17.382 -0.0208 -0.9239  0.8379
  471MPD2     N 7016   4.604   1.459  17.317 -0.0168  0.7410  0.5305
  471MPD2    H5 7017   4.656   1.509  17.389  1.1266 -0.8489  0.8033
  471MPD2    N1 7018   4.184   1.390  17.075 -0.9052  0.1493  0.0862
  471MPD2    H7 7019   4.233   1.308  17.039 -1.1358  0.0112  0.0881
  472TMC3    C1 7020   4.010   1.327  16.928 -0.1739 -0.9906 -0.2851
  472TMC3    C2 7021   3.879   1.346  16.871 -0.3659 -0.3755  0.0119
  472TMC3    C3 7022   3.852   1.274  16.754 -0.2890 -0.1417  0.7549
  472TMC3    C4 7023   4.093   1.230  16.877  0.1351  0.4278 -0.5140
  472TMC3    C5 7024   4.050   1.160  16.769 -0.3310 -0.0216  0.5036
  472TMC3    C6 7025   3.933   1.176  16.705  0.2096 -0.0367 -0.3732
  472TMC3     C 7026   4.053   1.410  17.041  1.1195 -0.3183  0.2290
  472TMC3     O 7027   3.968   1.487  17.086  0.0592  0.1718  0.2157
  472TMC3     H 7028   3.815   1.428  16.903 -0.1057 -0.2058  0.0944
  472TMC3    H1 7029   4.182   1.199  16.932 -0.5159  0.2168  0.4223
  472TMC3    H2 7030   3.907   1.120  16.615  0.2983 -0.9883  0.1870
  472TMC3    C7 7031   4.114   1.040  16.736  0.5115 -0.1038 -0.0618
  472TMC3    C8 7032   3.714   1.264  16.710  0.3564 -0.7724  0.2613
  472TMC3    O1 7033   4.195   0.992  16.816 -0.4473  0.1312  1.1883
  472TMC3    O2 7034   3.657   1.359  16.658 -0.7128 -0.0792 -0.0137
  473MPD2     C 7035   4.069   3.285  13.663 -0.4430 -0.3129 -0.8772
  473MPD2    C1 7036   4.045   3.426  13.654  0.0464  0.1487  0.6887
  473MPD2    C2 7037   4.028   3.504  13.767 -0.0784  0.6672 -0.9961
  473MPD2    C3 7038   4.052   3.453  13.896  0.1257 -0.6034  0.3452
  473MPD2    C4 7039   4.076   3.316  13.905  0.1054  0.2585 -0.6402
  473MPD2    C5 7040   4.087   3.239  13.791 -0.3231 -0.2335  0.1661
  473MPD2     H 7041   4.007   3.609  13.749 -0.5541  0.7181 -0.1307
  473MPD2    H1 7042   4.073   3.270  14.003 -1.6464 -1.1538 -1.3697
  473MPD2    H2 7043   4.079   3.224  13.573 -0.7884  0.2240 -1.2819
  473MPD2    H3 7044   4.107   3.133  13.808 -1.4039 -0.3239  0.8426
  473MPD2     N 7045   4.042   3.533  14.014 -0.7504 -0.5292 -0.6585
  473MPD2    H5 7046   4.044   3.468  14.092  2.6170  1.6734  1.0440
  473MPD2    N1 7047   4.022   3.502  13.541  0.3319 -0.5441 -0.2534
  473MPD2    H7 7048   3.994   3.598  13.557 -0.2639 -1.0619  1.8106
  474TMC3    C1 7049   4.015   3.701  14.164  0.1010  0.3102  0.3557
  474TMC3    C2 7050   3.949   3.824  14.191 -0.1349  0.3919  1.2930
  474TMC3    C3 7051   3.994   3.897  14.301 -0.1105  0.4371 -0.1736
  474TMC3    C4 7052   4.122   3.665  14.242 -0.2734  0.1797  0.1781
  474TMC3    C5 7053   4.173   3.751  14.329  0.0576  0.1271 -0.1608
  474TMC3    C6 7054   4.112   3.869  14.364 -0.5619  0.0860 -0.0208
  474TMC3     C 7055   4.003   3.659  14.026  0.0746  0.7949 -0.4765
  474TMC3     O 7056   3.955   3.738  13.944  0.0206 -0.0500  0.1435
  474TMC3     H 7057   3.860   3.852  14.135 -0.4774 -1.1964  1.0402
  474TMC3    H1 7058   4.180   3.574  14.232 -1.2104 -0.3791 -0.1420
  474TMC3    H2 7059   4.139   3.937  14.443 -0.1559 -1.1181  0.8811
  474TMC3    C7 7060   4.292   3.707  14.399  0.2871  0.2187 -0.5520
  474TMC3    C8 7061   3.929   4.019  14.330  0.0037 -0.0759  0.3420
  474TMC3    O1 7062   4.360   3.620  14.341 -0.0754  0.6934  0.3425
  474TMC3    O2 7063   3.806   4.012  14.310  0.2806 -0.4929  0.0625
  475MPD2     C 7064   2.002   1.388  10.536  0.9820  0.5538  0.6506
  475MPD2    C1 7065   2.061   1.463  10.443 -0.0894  0.8009 -0.1656
  475MPD2    C2 7066   1.988   1.580  10.414 -0.2841  0.0794 -1.2936
  475MPD2    C3 7067   1.868   1.607  10.475 -0.5538 -0.2005 -0.4756
  475MPD2    C4 7068   1.807   1.521  10.568  0.1257 -0.2032  0.3875
  475MPD2    C5 7069   1.874   1.410  10.587  0.8532  0.3726 -0.4832
  475MPD2     H 7070   2.032   1.654  10.350  1.3506  0.5969  0.4385
  475MPD2    H1 7071   1.716   1.550  10.621 -0.6032 -1.9187  0.0682
  475MPD2    H2 7072   2.036   1.293  10.573  2.0510  1.0407  0.9181
  475MPD2    H3 7073   1.836   1.331  10.651  1.1827 -1.6090 -2.7384
  475MPD2     N 7074   1.800   1.736  10.461  0.1759 -0.4656  0.3195
  475MPD2    H5 7075   1.707   1.737  10.501  0.6402 -2.5114  1.4974
  475MPD2    N1 7076   2.191   1.440  10.402  0.6060  0.3746 -0.2203
  475MPD2    H7 7077   2.257   1.377  10.446  4.0833  2.1796 -2.8995
  476TMC3    C1 7078   2.390   1.548  10.310  0.3733 -0.1955 -0.2352
  476TMC3    C2 7079   2.438   1.620  10.208  0.5648  0.3252  0.0823
  476TMC3    C3 7080   2.522   1.729  10.227  0.2028 -0.0435 -0.3085
  476TMC3    C4 7081   2.417   1.593  10.440  0.8200  0.2153 -0.2095
  476TMC3    C5 7082   2.488   1.707  10.454  0.3042 -0.8222  1.3972
  476TMC3    C6 7083   2.546   1.777  10.355  0.8718  0.0491  0.0273
  476TMC3     C 7084   2.249   1.510  10.298  0.8556 -0.3715  0.5748
  476TMC3     O 7085   2.193   1.571  10.207  0.3695  0.0886 -0.0688
  476TMC3     H 7086   2.403   1.592  10.110  2.0056  0.1745 -0.3818
  476TMC3    H1 7087   2.357   1.555  10.522  0.4622 -0.9283 -1.0040
  476TMC3    H2 7088   2.594   1.874  10.359  0.6675  0.1377  0.3794
  476TMC3    C7 7089   2.493   1.752  10.589  0.5553 -0.5973 -0.7536
  476TMC3    C8 7090   2.523   1.830  10.120  0.6053 -0.0379  0.0332
  476TMC3    O1 7091   2.402   1.718  10.667 -0.1638  0.3184 -0.0742
  476TMC3    O2 7092   2.536   1.949  10.147  0.3160 -0.4915 -0.7025
  477MPD2     C 7093   0.054   3.069  11.413 -0.6194 -0.5890 -0.2606
  477MPD2    C1 7094   0.033   3.140  11.526 -0.2521  0.3444 -0.5827
  477MPD2    C2 7095   0.040   3.073  11.648  0.1318  0.2632 -1.1118
  477MPD2    C3 7096   0.084   2.947  11.661 -0.5172 -0.5322  0.2902
  477MPD2    C4 7097   0.115   2.876  11.543  0.6046 -0.5426  0.5743
  477MPD2    C5 7098   0.096   2.935  11.421 -0.5234  0.7053 -0.1614
  477MPD2     H 7099   0.017   3.124  11.742 -0.5697 -0.7615 -0.7271
  477MPD2    H1 7100   0.147   2.772  11.542  4.0092  0.5035  1.6940
  477MPD2    H2 7101   0.052   3.102  11.309 -0.2604 -1.0277 -0.4086
  477MPD2    H3 7102   0.125   2.881  11.332  1.4812  1.7036 -0.0974
  477MPD2     N 7103   0.104   2.871  11.781  0.5971  0.0338 -0.1766
  477MPD2    H5 7104   0.145   2.778  11.773  0.7399  0.0297  0.5490
  477MPD2    N1 7105   4.717   3.276  11.511  0.3129 -0.7762 -0.3575
  477MPD2    H7 7106   4.684   3.313  11.423  0.9951 -0.3834 -0.4544
  478TMC3    C1 7107   4.638   3.486  11.571 -0.3663  0.2063 -0.2874
  478TMC3    C2 7108   4.634   3.576  11.675  0.0338  0.6204  0.2271
  478TMC3    C3 7109   4.532   3.661  11.675 -0.3598  0.3839 -0.3221
  478TMC3    C4 7110   4.561   3.485  11.457 -0.1563  0.2547 -0.0832
  478TMC3    C5 7111   4.461   3.575  11.465 -0.3476 -1.2815 -0.5030
  478TMC3    C6 7112   4.447   3.670  11.567  0.6984 -0.2895  0.2492
  478TMC3     C 7113   4.712   3.363  11.609  0.4451 -0.4385 -0.7666
  478TMC3     O 7114   0.032   3.359  11.722 -0.3778  0.2083  0.2467
  478TMC3     H 7115   4.721   3.576  11.738  0.5446  0.4670 -0.4741
  478TMC3    H1 7116   4.554   3.407  11.382 -1.3564  1.1202 -0.8674
  478TMC3    H2 7117   4.356   3.728  11.559  0.9506 -0.1528 -1.5624
  478TMC3    C7 7118   4.338   3.512  11.414  0.0095 -0.6155 -0.2650
  478TMC3    C8 7119   4.510   3.739  11.799 -0.2761  0.0660  0.5147
  478TMC3    O1 7120   4.337   3.393  11.441  0.3975 -0.2843 -1.0154
  478TMC3    O2 7121   4.569   3.695  11.897  0.7398 -0.4269  0.4216
  479MPD2     C 7122   3.097   0.539  15.459 -0.1464 -0.0799 -0.0194
  479MPD2    C1 7123   3.146   0.447  15.549  0.0063  0.1827  0.1431
  479MPD2    C2 7124   3.167   0.482  15.676 -0.1268 -0.7448 -0.2592
  479MPD2    C3 7125   3.174   0.620  15.706  0.3076 -0.1360 -0.0517
  479MPD2    C4 7126   3.139   0.712  15.610  0.5579 -0.0589  0.2969
  479MPD2    C5 7127   3.091   0.671  15.487 -0.3614  0.2286 -0.4963
  479MPD2     H 7128   3.180   0.404  15.749  1.0739  1.2770  1.6985
  479MPD2    H1 7129   3.147   0.820  15.615 -1.0663 -0.0664  2.9773
  479MPD2    H2 7130   3.064   0.507  15.361  0.5513  0.1931 -0.3407
  479MPD2    H3 7131   3.056   0.741  15.412  2.9468  0.4394 -1.8544
  479MPD2     N 7132   3.208   0.671  15.830  0.2996  1.1315  0.8153
  479MPD2    H5 7133   3.222   0.771  15.832  0.4618  1.0951  1.5950
  479MPD2    N1 7134   3.158   0.311  15.503 -0.0374 -0.6911 -0.1557
  479MPD2    H7 7135   3.139   0.292  15.405  0.7676  0.1743 -0.4759
  480TMC3    C1 7136   3.399   0.677  16.247  0.3706 -0.5932 -0.5322
  480TMC3    C2 7137   3.495   0.766  16.204 -0.4992  0.2072 -0.6850
  480TMC3    C3 7138   3.500   0.795  16.070  0.0007  0.1359  0.2302
  480TMC3    C4 7139   3.291   0.644  16.169  0.4314 -0.3370  0.8260
  480TMC3    C5 7140   3.292   0.688  16.041  0.0730 -0.9866 -0.0552
  480TMC3    C6 7141   3.398   0.760  15.989 -0.1289 -0.5960 -0.5293
  480TMC3     C 7142   3.419   0.579  16.354 -0.3496  0.1526  0.1223
  480TMC3     O 7143   3.324   0.502  16.380 -0.1722 -0.0816 -0.1410
  480TMC3     H 7144   3.561   0.814  16.276  0.6264 -1.1491 -0.8073
  480TMC3    H1 7145   3.205   0.587  16.204 -0.7466  0.6000 -0.5746
  480TMC3    H2 7146   3.392   0.795  15.887 -0.2307  1.7769  0.2933
  480TMC3    C7 7147   3.229   0.602  15.945  0.9339  0.3461 -0.5867
  480TMC3    C8 7148   3.582   0.907  16.029  0.1396  0.4868  0.0603
  480TMC3    O1 7149   3.195   0.485  15.971 -0.2642 -0.1581 -0.2468
  480TMC3    O2 7150   3.620   0.987  16.115  0.3505 -0.3603  0.2174
  481MPD2     C 7151   0.602   0.114  14.058  0.0969  0.2901  0.2370
  481MPD2    C1 7152   0.520   0.111  14.169  0.2551 -0.3087  0.2017
  481MPD2    C2 7153   0.547   0.023  14.275 -0.2725 -0.2143 -0.4742
  481MPD2    C3 7154   0.650   4.652  14.259 -0.9844  0.0857 -0.9102
  481MPD2    C4 7155   0.719   4.647  14.140  0.2757 -0.0476  0.2034
  481MPD2    C5 7156   0.707   0.021  14.049 -0.0091  1.1841 -0.4032
  481MPD2     H 7157   0.482   0.023  14.362 -1.6629  0.9455 -1.5087
  481MPD2    H1 7158   0.784   4.563  14.118  0.8806  0.7283 -0.9812
  481MPD2    H2 7159   0.586   0.187  13.979  0.7017 -1.4151 -1.4474
  481MPD2    H3 7160   0.760   0.011  13.955  0.7739  3.0796 -0.1565
  481MPD2     N 7161   0.687   4.555  14.359  0.0207 -0.2409 -0.1944
  481MPD2    H5 7162   0.772   4.505  14.339 -0.0383 -1.1342  1.7869
  481MPD2    N1 7163   0.417   0.202  14.177  0.1207 -0.1786 -0.1828
  481MPD2    H7 7164   0.415   0.276  14.109 -1.5066 -1.2789 -1.3128
  482TMC3    C1 7165   0.188   0.258  14.222  0.3059  0.3220  0.2337
  482TMC3    C2 7166   0.063   0.207  14.195 -0.2168 -0.4879  0.5139
  482TMC3    C3 7167   4.683   0.283  14.149  0.1986 -0.0956  0.0223
  482TMC3    C4 7168   0.210   0.393  14.188 -0.2007  0.1202  0.1388
  482TMC3    C5 7169   0.102   0.462  14.133 -0.6985 -0.4744 -0.5989
  482TMC3    C6 7170   4.695   0.411  14.113  0.0430 -0.2744  0.2430
  482TMC3     C 7171   0.297   0.161  14.230  0.0499  0.1381 -0.6789
  482TMC3     O 7172   0.259   0.048  14.262  0.5824  0.2852 -0.6291
  482TMC3     H 7173   0.049   0.101  14.214 -1.5850 -0.0669  1.8937
  482TMC3    H1 7174   0.304   0.444  14.205 -0.1689  0.6028 -1.4467
  482TMC3    H2 7175   4.611   0.465  14.071 -0.0818  0.2267  1.1503
  482TMC3    C7 7176   0.117   0.598  14.090 -0.0521 -0.2187 -0.5761
  482TMC3    C8 7177   4.601   0.198  14.063  0.2517 -0.3748 -0.2308
  482TMC3    O1 7178   0.015   0.661  14.108  0.2129 -0.2625  0.0785
  482TMC3    O2 7179   4.574   0.084  14.098  0.1454  0.0615 -0.2289
  483TMC3    C1 7180   2.547   3.762   1.218 -0.3696 -0.6898  0.2609
  483TMC3    C2 7181   2.563   3.794   1.086 -0.1945 -0.1802  0.2375
  483TMC3    C3 7182   2.689   3.829   1.049  0.4382 -0.0148 -0.5660
  483TMC3    C4 7183   2.654   3.772   1.307 -0.2655  0.3057 -0.7199
  483TMC3    C5 7184   2.772   3.818   1.261 -0.4893  0.2263  0.4381
  483TMC3    C6 7185   2.787   3.857   1.130 -0.3475  0.1010 -0.1550
  483TMC3     C 7186   2.497   3.631   1.237  0.1661  0.3309 -0.0448
  483TMC3     O 7187   2.387   3.597   1.191 -0.3757 -0.1597  0.2735
  483TMC3     H 7188   2.490   3.764   1.011 -0.3599  0.9764 -0.0700
  483TMC3    H1 7189   2.645   3.746   1.412 -0.5465 -1.1615 -1.0953
  483TMC3    H2 7190   2.883   3.893   1.094 -0.1875  1.5784  1.7282
  483TMC3    C7 7191   2.882   3.734   1.302  0.2547 -0.5190  0.4917
  483TMC3    C8 7192   2.713   3.872   0.912  0.1250 -0.1972 -0.2063
  483TMC3    O1 7193   2.848   3.641   1.374 -0.3857 -0.1016 -0.2148
  483TMC3    O2 7194   2.830   3.889   0.873  0.0319  0.6470 -0.4947
  484MPD2     C 7195   0.596   2.015  12.558 -0.9830 -0.4252  0.0175
  484MPD2    C1 7196   0.655   1.964  12.666  0.9340 -0.7621 -0.0135
  484MPD2    C2 7197   0.788   1.996  12.698  0.0315  0.2152 -0.4889
  484MPD2    C3 7198   0.860   2.086  12.617  0.7593 -0.1257 -1.2746
  484MPD2    C4 7199   0.795   2.139  12.503 -0.0340  0.4376  0.2304
  484MPD2    C5 7200   0.662   2.104  12.477 -0.1100 -0.3869 -0.2317
  484MPD2     H 7201   0.836   1.951  12.785  0.9452  1.4142 -0.3695
  484MPD2    H1 7202   0.847   2.182  12.419 -1.7064 -0.7923 -1.4146
  484MPD2    H2 7203   0.494   1.985  12.537 -1.8076  1.9662  0.5233
  484MPD2    H3 7204   0.624   2.145  12.384 -0.6336  0.9854  0.5945
  484MPD2     N 7205   1.001   2.102  12.623 -0.1601  0.2852 -0.2936
  484MPD2    H5 7206   1.051   2.147  12.547  1.2719 -0.9732 -0.0993
  484MPD2    N1 7207   0.570   1.877  12.742  0.1675 -0.0251  0.2412
  484MPD2    H7 7208   0.495   1.837  12.688 -0.5097  1.1922  0.2841
  485TMC3    C1 7209   1.229   2.077  12.708  0.5324 -0.0866 -0.0021
  485TMC3    C2 7210   1.321   2.023  12.795  0.5125  0.2186  0.1209
  485TMC3    C3 7211   1.455   2.055  12.788  0.4818  0.4433 -0.8054
  485TMC3    C4 7212   1.278   2.146  12.603 -0.7327 -0.5171 -0.6311
  485TMC3    C5 7213   1.410   2.175  12.595 -0.9312  0.4224  1.0089
  485TMC3    C6 7214   1.500   2.139  12.688 -0.2119 -0.0430 -0.2417
  485TMC3     C 7215   1.086   2.044  12.718 -0.6173  0.3357 -0.1191
  485TMC3     O 7216   1.048   1.971  12.808 -0.1888 -0.0806 -0.0344
  485TMC3     H 7217   1.295   1.983  12.892  0.9257 -2.6666 -0.9435
  485TMC3    H1 7218   1.218   2.195  12.526 -1.1907 -1.0285 -0.5988
  485TMC3    H2 7219   1.599   2.181  12.679 -0.6165  1.1204  0.7515
  485TMC3    C7 7220   1.461   2.165  12.459 -0.0271 -0.3844 -0.1365
  485TMC3    C8 7221   1.533   1.934  12.771  0.1626  0.5643 -0.4004
  485TMC3    O1 7222   1.412   2.217  12.359  0.1603  0.5820  0.5447
  485TMC3    O2 7223   1.637   1.947  12.708  0.2128 -0.1551  0.2533
  486MPD2     C 7224   3.157   0.717  13.004 -0.8072 -0.5229  0.1405
  486MPD2    C1 7225   3.040   0.671  12.953 -0.5596 -0.4434  0.6943
  486MPD2    C2 7226   2.975   0.740  12.846 -0.3434  0.0035 -0.0939
  486MPD2    C3 7227   3.024   0.858  12.797  0.6057  0.6841 -0.4539
  486MPD2    C4 7228   3.143   0.904  12.853 -0.0034  0.3905  0.4067
  486MPD2    C5 7229   3.212   0.829  12.949  0.5903  0.0066  0.4588
  486MPD2     H 7230   2.883   0.701  12.802  1.6192 -3.6479 -0.9770
  486MPD2    H1 7231   3.185   1.000  12.824  0.5433  0.1041  0.2469
  486MPD2    H2 7232   3.209   0.673  13.087  0.6000  1.6436  0.4237
  486MPD2    H3 7233   3.311   0.863  12.977  1.2867 -1.9471  0.3768
  486MPD2     N 7234   2.942   0.932  12.707  0.2118 -0.7980 -0.3458
  486MPD2    H5 7235   2.845   0.905  12.699 -0.3565  0.6548  1.5234
  486MPD2    N1 7236   2.991   0.553  13.011  0.8250 -0.3019  0.6410
  486MPD2    H7 7237   3.033   0.511  13.093  1.8089  1.0879  0.8342
  487TMC3    C1 7238   2.836   0.377  13.040  0.1559  0.2317  0.0210
  487TMC3    C2 7239   2.739   0.295  12.981  0.6886  0.0388 -0.5860
  487TMC3    C3 7240   2.647   0.238  13.063  0.2561  0.3633 -0.2946
  487TMC3    C4 7241   2.839   0.397  13.176 -0.0387 -0.2684  0.7262
  487TMC3    C5 7242   2.747   0.331  13.249  0.1368 -0.4304  0.4736
  487TMC3    C6 7243   2.651   0.249  13.200 -0.3864 -0.0303  0.2192
  487TMC3     C 7244   2.883   0.489  12.955 -0.8448 -0.2548  0.6666
  487TMC3     O 7245   2.827   0.498  12.850 -0.2686  0.0412 -0.0877
  487TMC3     H 7246   2.712   0.285  12.876  1.0331 -0.7307 -0.5977
  487TMC3    H1 7247   2.913   0.448  13.236  0.6152 -0.4025  0.0331
  487TMC3    H2 7248   2.601   0.172  13.258 -0.7988  0.1667  0.1291
  487TMC3    C7 7249   2.765   0.325  13.395  0.2800  0.0080 -0.5879
  487TMC3    C8 7250   2.530   0.174  13.001  0.7396  0.5489  0.3926
  487TMC3    O1 7251   2.871   0.363  13.444  0.0051 -0.3811  0.0042
  487TMC3    O2 7252   2.553   0.091  12.915  0.7287  0.1536 -0.1438
  488MPD2     C 7253   3.054   2.527  15.935  0.6064  0.3730  0.4523
  488MPD2    C1 7254   3.120   2.605  16.031 -0.0648  0.7292 -0.6465
  488MPD2    C2 7255   3.108   2.581  16.165 -0.2693  0.5529 -0.4840
  488MPD2    C3 7256   3.021   2.481  16.216 -1.2150  0.3406  0.2378
  488MPD2    C4 7257   2.962   2.401  16.119  0.3047  0.2295 -0.3924
  488MPD2    C5 7258   2.977   2.423  15.986 -0.4417  0.2124  0.0968
  488MPD2     H 7259   3.167   2.651  16.224 -4.8491  2.4634  1.8377
  488MPD2    H1 7260   2.901   2.314  16.143 -1.3444  1.3653 -0.5299
  488MPD2    H2 7261   3.058   2.544  15.828 -0.2668  4.8971  1.1719
  488MPD2    H3 7262   2.929   2.357  15.915  0.4435 -1.1198  0.7287
  488MPD2     N 7263   3.015   2.469  16.359 -0.4385  0.1022  0.3016
  488MPD2    H5 7264   3.068   2.537  16.414  0.8945 -0.3483 -0.4291
  488MPD2    N1 7265   3.218   2.703  16.005  0.4728  0.6001  0.5057
  488MPD2    H7 7266   3.274   2.736  16.083 -1.3369  2.2948  1.0786
  489TMC3    C1 7267   2.967   2.402  16.572  0.2411  0.4270 -0.4553
  489TMC3    C2 7268   2.979   2.526  16.613  0.4145 -0.0741 -0.5973
  489TMC3    C3 7269   3.030   2.545  16.737  0.1262 -0.0733 -0.5569
  489TMC3    C4 7270   2.992   2.296  16.651  0.0429 -0.2534  0.4130
  489TMC3    C5 7271   3.052   2.315  16.770 -1.0763 -0.0596 -0.2920
  489TMC3    C6 7272   3.067   2.440  16.815 -0.2297  0.4421  0.2750
  489TMC3     C 7273   2.946   2.374  16.432 -0.4533 -0.5872  0.0577
  489TMC3     O 7274   2.868   2.287  16.393 -0.6869  0.0683  0.0678
  489TMC3     H 7275   2.930   2.599  16.549 -0.1773 -0.4281 -0.5489
  489TMC3    H1 7276   2.975   2.195  16.615  0.5698  0.5423 -2.0961
  489TMC3    H2 7277   3.111   2.455  16.913 -1.1612  0.0962  0.7496
  489TMC3    C7 7278   3.097   2.207  16.842  0.1557 -0.1544  0.5285
  489TMC3    C8 7279   3.068   2.674  16.779  0.3318 -1.1398  0.1064
  489TMC3    O1 7280   3.190   2.234  16.922 -0.5601 -0.0831 -0.4439
  489TMC3    O2 7281   3.150   2.690  16.868 -0.1561  0.8839 -0.9081
  490MPD2     C 7282   4.116   1.780  17.614 -0.3849 -0.5060  0.2004
  490MPD2    C1 7283   4.207   1.673  17.635 -0.0528  0.1629  0.4435
  490MPD2    C2 7284   4.320   1.694   0.015  0.2837  0.2685 -0.4492
  490MPD2    C3 7285   4.349   1.814   0.069 -0.6324  0.0870  0.6078
  490MPD2    C4 7286   4.254   1.917   0.051  0.5940  0.2026  0.4048
  490MPD2    C5 7287   4.142   1.900  17.669  0.3341  0.6346 -0.4012
  490MPD2     H 7288   4.390   1.612   0.029  0.8202  0.8096 -0.0139
  490MPD2    H1 7289   4.270   2.008   0.107  1.9952  1.9529 -2.8225
  490MPD2    H2 7290   4.023   1.772  17.558 -0.3129 -2.1053  0.2980
  490MPD2    H3 7291   4.061   1.972  17.670  2.5254  3.1310 -1.4935
  490MPD2     N 7292   4.471   1.836   0.132  0.9076  0.5872 -0.4904
  490MPD2    H5 7293   4.538   1.761   0.138  0.5877  0.1257 -2.9565
  490MPD2    N1 7294   4.185   1.542  17.595 -0.3452 -0.2949 -0.1163
  490MPD2    H7 7295   4.253   1.474  17.628  0.0808  1.0690  1.8464
  491TMC3    C1 7296   4.053   1.361  17.516 -0.9837 -0.7275 -0.3216
  491TMC3    C2 7297   4.055   1.289  17.630 -0.7898 -0.2994 -0.0561
  491TMC3    C3 7298   3.973   1.178  17.648  0.2490 -0.0924 -0.0421
  491TMC3    C4 7299   3.982   1.320  17.410  0.4657  0.6481 -0.2131
  491TMC3    C5 7300   3.900   1.207  17.431 -0.2091 -0.5887  0.5552
  491TMC3    C6 7301   3.883   1.139  17.550  0.0421 -0.2967  0.9883
  491TMC3     C 7302   4.072   1.503  17.531  0.7127  0.0581 -0.1550
  491TMC3     O 7303   3.990   1.560  17.465 -0.0655  0.6182 -0.1191
  491TMC3     H 7304   4.113   1.311   0.020 -0.9447 -1.6628  0.3852
  491TMC3    H1 7305   4.012   1.369  17.318 -2.3784 -0.5130 -1.7577
  491TMC3    H2 7306   3.815   1.059  17.574 -0.5831 -0.1530 -0.3053
  491TMC3    C7 7307   3.775   1.201  17.353 -0.1594 -0.6531 -0.0290
  491TMC3    C8 7308   3.927   1.168   0.086 -0.1907  0.4170  0.0743
  491TMC3    O1 7309   3.704   1.104  17.356  0.4382 -0.0965 -0.1458
  491TMC3    O2 7310   3.895   1.271   0.140 -0.1046  0.4439 -0.2396
  492MPD2     C 7311   0.165   1.807  11.006  0.4517  0.4097 -0.0137
  492MPD2    C1 7312   0.032   1.852  11.005  0.2368  1.0481 -0.8812
  492MPD2    C2 7313   4.661   1.802  11.088  0.3025  0.2744  0.9182
  492MPD2    C3 7314   4.700   1.713  11.186 -0.0590 -0.2098  0.5371
  492MPD2    C4 7315   0.105   1.670  11.185  0.0636  0.2665 -0.1078
  492MPD2    C5 7316   0.192   1.713  11.099 -0.0603  0.3712 -0.7210
  492MPD2     H 7317   4.561   1.842  11.077 -0.0734 -1.9544 -4.2014
  492MPD2    H1 7318   0.133   1.591  11.254  3.9839  0.4741 -1.4469
  492MPD2    H2 7319   0.250   1.841  10.948 -0.3172  0.6377 -1.0144
  492MPD2    H3 7320   0.293   1.674  11.106  0.6220  2.3699  0.5975
  492MPD2     N 7321   4.610   1.649  11.276  0.7718  0.1166  0.1564
  492MPD2    H5 7322   4.643   1.574  11.336  1.8201 -1.5504 -2.5282
  492MPD2    N1 7323   4.723   1.944  10.902  0.0438 -0.1743 -0.1501
  492MPD2    H7 7324   0.074   1.997  10.858 -1.1727  1.3120 -0.4573
  493TMC3    C1 7325   4.603   2.079  10.751  0.4067 -0.2953 -0.2737
  493TMC3    C2 7326   4.714   2.154  10.733 -0.2549  0.5557  0.5926
  493TMC3    C3 7327   0.001   2.215  10.616 -1.1938  0.5750  0.3576
  493TMC3    C4 7328   4.501   2.078  10.659  0.0509  0.4973 -0.0674
  493TMC3    C5 7329   4.513   2.147  10.544 -0.3336 -0.1729  0.5198
  493TMC3    C6 7330   4.624   2.222  10.516  0.6081  0.1324 -0.1386
  493TMC3     C 7331   4.598   1.978  10.856  0.2825 -0.8819 -0.1737
  493TMC3     O 7332   4.491   1.932  10.893  0.2460 -0.2351 -0.4501
  493TMC3     H 7333   0.068   2.156  10.808  0.4979  0.4926 -0.1839
  493TMC3    H1 7334   4.413   2.019  10.682  2.3508 -2.6301  0.7071
  493TMC3    H2 7335   4.639   2.282  10.427  0.1530  0.1457 -0.2077
  493TMC3    C7 7336   4.394   2.124  10.452  0.3153 -0.0685 -0.0863
  493TMC3    C8 7337   0.125   2.282  10.592  0.5719 -0.0965 -0.0589
  493TMC3    O1 7338   4.290   2.093  10.506 -0.0214 -0.5724 -0.1867
  493TMC3    O2 7339   0.215   2.249  10.668  0.4832 -0.0086  0.1620
  494TMC3    C1 7340   0.271   3.414   0.692  0.3531 -0.9217  0.5235
  494TMC3    C2 7341   0.345   3.303   0.684 -0.6993 -0.9300  0.3614
  494TMC3    C3 7342   0.383   3.259   0.562  0.6112 -0.8243 -0.1214
  494TMC3    C4 7343   0.232   3.488   0.586  0.0362 -0.4951 -0.2732
  494TMC3    C5 7344   0.292   3.449   0.464  0.1698 -0.4962 -0.4381
  494TMC3    C6 7345   0.361   3.326   0.443  0.4487 -0.0780 -0.6074
  494TMC3     C 7346   0.216   3.466   0.812 -0.4764  0.9592  0.1341
  494TMC3     O 7347   0.128   3.549   0.804  0.0514  0.0046 -0.4591
  494TMC3     H 7348   0.358   3.238   0.770 -1.5317  0.7562  1.7683
  494TMC3    H1 7349   0.152   3.562   0.583 -0.5097 -1.0608  0.2659
  494TMC3    H2 7350   0.415   3.306   0.351  0.6349 -1.1067 -0.2719
  494TMC3    C7 7351   0.277   3.539   0.347 -0.1177  0.0379  0.0939
  494TMC3    C8 7352   0.406   3.117   0.544 -0.6231 -0.1515 -0.3601
  494TMC3    O1 7353   0.321   3.497   0.241 -0.1571  0.0232 -0.1499
  494TMC3    O2 7354   0.428   3.061   0.650 -0.8202  0.3566  0.2262
  495TMC3    C1 7355   3.882   1.017  15.092  0.1059 -0.0217 -0.4263
  495TMC3    C2 7356   3.784   1.065  15.018  0.5551 -0.1234 -0.3203
  495TMC3    C3 7357   3.654   1.037  15.050  0.3020 -0.0088  0.5918
  495TMC3    C4 7358   3.852   0.973  15.220  0.0204 -0.1062 -0.8554
  495TMC3    C5 7359   3.723   0.953  15.263 -0.3796 -0.0982  0.0692
  495TMC3    C6 7360   3.621   0.983  15.174  0.0425 -0.0676 -0.5276
  495TMC3     C 7361   3.937   0.902  15.021 -0.4248  0.1155 -0.3869
  495TMC3     O 7362   3.931   0.792  15.075 -0.2249 -0.1269 -0.2155
  495TMC3     H 7363   3.811   1.103  14.920 -0.3567  2.1444  0.3136
  495TMC3    H1 7364   3.937   0.961  15.286  0.4625 -1.7149 -1.7053
  495TMC3    H2 7365   3.520   0.985  15.214 -0.6992  4.4572 -2.6644
  495TMC3    C7 7366   3.697   0.960  15.408 -0.4532 -0.4772  0.0706
  495TMC3    C8 7367   3.564   1.004  14.936  0.2154  0.1833 -0.7457
  495TMC3    O1 7368   3.606   0.892  15.451  0.1989 -0.4361  0.2551
  495TMC3    O2 7369   3.447   0.981  14.963  0.1565  0.5056  0.1745
  496MPD2     C 7370   0.462   0.701  15.157 -0.6553  0.5117  0.0577
  496MPD2    C1 7371   0.525   0.694  15.268  0.9048 -0.2437  0.5199
  496MPD2    C2 7372   0.452   0.680  15.386  0.1002 -0.1780 -0.3841
  496MPD2    C3 7373   0.318   0.642  15.376  0.5853  0.4186 -0.1491
  496MPD2    C4 7374   0.262   0.627  15.252 -0.2829  0.4556  0.6378
  496MPD2    C5 7375   0.333   0.664  15.143  0.1538  0.5504 -1.2880
  496MPD2     H 7376   0.499   0.675  15.483 -0.7961  1.1685  0.1180
  496MPD2    H1 7377   0.161   0.586  15.256  0.2710 -0.8345  1.3847
  496MPD2    H2 7378   0.508   0.721  15.060 -4.6059  3.1052 -1.2674
  496MPD2    H3 7379   0.288   0.646  15.046  0.4301 -0.5453 -1.2149
  496MPD2     N 7380   0.236   0.620  15.489  0.1368  0.4998 -0.2023
  496MPD2    H5 7381   0.143   0.585  15.469  1.1682 -2.9783  1.1475
  496MPD2    N1 7382   0.663   0.717  15.261  0.3509  0.8059 -0.2522
  496MPD2    H7 7383   0.701   0.748  15.172 -1.4569 -0.6959 -1.5215
  497TMC3    C1 7384   0.174   0.588  15.712  1.0060  0.6762  0.4414
  497TMC3    C2 7385   0.189   0.455  15.716 -0.8634 -0.2110 -0.3501
  497TMC3    C3 7386   0.172   0.396  15.834  0.5336 -0.2036 -0.4558
  497TMC3    C4 7387   0.132   0.662  15.821 -0.6597  0.1541  0.7110
  497TMC3    C5 7388   0.091   0.597  15.931 -0.2483 -0.8435  0.7618
  497TMC3    C6 7389   0.117   0.462  15.943  0.5587  0.3936 -0.2367
  497TMC3     C 7390   0.260   0.659  15.621 -0.1155 -0.4818 -0.5022
  497TMC3     O 7391   0.352   0.726  15.659  0.4533  0.0117 -0.6633
  497TMC3     H 7392   0.234   0.407  15.630 -1.8755 -0.4259 -0.7638
  497TMC3    H1 7393   0.143   0.770  15.827 -1.5802  0.2619  0.3927
  497TMC3    H2 7394   0.102   0.421  16.042 -0.8058  1.9084  0.1950
  497TMC3    C7 7395   0.125   0.657  16.056 -0.3277  0.2374 -0.0278
  497TMC3    C8 7396   0.266   0.295  15.870  0.4036 -0.0624  0.5497
  497TMC3    O1 7397   0.043   0.634  16.144 -0.2339  0.2598 -0.0706
  497TMC3    O2 7398   0.255   0.262  15.986 -0.0994 -0.3607 -0.8423
  498MPD2     C 7399   3.107   1.512   9.685  0.3530  0.4825  0.0369
  498MPD2    C1 7400   3.056   1.638   9.676  0.4576 -0.5870 -1.3158
  498MPD2    C2 7401   3.072   1.707   9.562  0.1737 -0.0789  0.3008
  498MPD2    C3 7402   3.141   1.653   9.453  0.1337  0.0654  1.1269
  498MPD2    C4 7403   3.218   1.540   9.477  0.0957 -0.0364 -0.8414
  498MPD2    C5 7404   3.191   1.467   9.591  0.1801  0.3801 -0.1982
  498MPD2     H 7405   3.046   1.811   9.547  0.3444 -0.2705 -1.3760
  498MPD2    H1 7406   3.283   1.488   9.408 -0.1340 -4.4597  2.2406
  498MPD2    H2 7407   3.086   1.447   9.769 -1.0943 -2.3384 -2.4841
  498MPD2    H3 7408   3.233   1.368   9.602 -0.4689 -0.0136 -1.3019
  498MPD2     N 7409   3.144   1.732   9.334 -0.1446 -0.1764  0.2686
  498MPD2    H5 7410   3.107   1.826   9.341 -1.0724 -0.4055 -1.5366
  498MPD2    N1 7411   2.989   1.701   9.779 -0.3998  0.7029  0.6908
  498MPD2    H7 7412   2.959   1.796   9.762 -0.0533  0.8413  0.8513
  499TMC3    C1 7413   2.932   1.740   9.996  0.4860 -0.4572  0.6420
  499TMC3    C2 7414   2.935   1.696  10.127 -0.8648 -0.0078 -0.3600
  499TMC3    C3 7415   2.900   1.781  10.231 -0.0223 -0.6431  0.2205
  499TMC3    C4 7416   2.888   1.867   9.969 -0.0489 -0.3308 -0.5985
  499TMC3    C5 7417   2.855   1.952  10.075 -1.1932 -0.2579 -0.8360
  499TMC3    C6 7418   2.854   1.906  10.211 -0.8177  0.6106  0.2591
  499TMC3     C 7419   2.963   1.645   9.896 -0.4141 -0.2243 -0.2724
  499TMC3     O 7420   2.938   1.532   9.928  0.0073 -0.5777  0.8095
  499TMC3     H 7421   3.002   1.613  10.148 -0.4634  0.8067  1.5849
  499TMC3    H1 7422   2.872   1.897   9.866  0.6091  0.8589 -0.3561
  499TMC3    H2 7423   2.821   1.963  10.297  2.6134 -0.1670  2.0972
  499TMC3    C7 7424   2.830   2.085  10.042 -0.3910 -0.4236 -0.5275
  499TMC3    C8 7425   2.882   1.720  10.363  0.5479  0.1830  0.8988
  499TMC3    O1 7426   2.854   2.113   9.927 -0.1382 -0.2771 -0.8826
  499TMC3    O2 7427   2.844   1.774  10.462  0.0249  0.0236  0.2832
  500MPD2     C 7428   3.912   2.845  10.254  0.1793 -0.1302  0.6891
  500MPD2    C1 7429   3.914   2.979  10.301  0.4630 -0.1688  0.1384
  500MPD2    C2 7430   3.818   3.072  10.263 -0.8477 -0.2609 -0.0892
  500MPD2    C3 7431   3.711   3.031  10.181 -0.3319 -0.0819  0.2900
  500MPD2    C4 7432   3.707   2.898  10.143 -0.0604 -0.1585  0.1816
  500MPD2    C5 7433   3.806   2.812  10.173 -0.4847 -0.0001  0.0594
  500MPD2     H 7434   3.827   3.177  10.289 -0.6585 -0.1802 -0.4840
  500MPD2    H1 7435   3.622   2.858  10.090  0.8372 -1.1775 -0.5067
  500MPD2    H2 7436   3.988   2.770  10.274  1.3806  0.7636 -0.5831
  500MPD2    H3 7437   3.798   2.707  10.148 -1.8492  0.5747 -1.8661
  500MPD2     N 7438   3.604   3.112  10.137 -0.0087  0.3054  0.0360
  500MPD2    H5 7439   3.524   3.068  10.093  0.1130  0.6024 -0.4802
  500MPD2    N1 7440   4.018   3.030  10.385  0.6515 -0.2646 -0.4977
  500MPD2    H7 7441   4.012   3.124  10.421  0.7901 -0.4329 -0.0449
  501TMC3    C1 7442   4.202   3.043  10.542 -0.1109  0.1482 -0.3717
  501TMC3    C2 7443   4.225   3.166  10.500 -0.4293 -0.1487 -0.0532
  501TMC3    C3 7444   4.310   3.237  10.583  0.1297 -0.3219  0.2231
  501TMC3    C4 7445   4.275   2.981  10.643 -0.3343  0.1614 -0.2078
  501TMC3    C5 7446   4.361   3.054  10.720  0.1962  0.5460 -0.3746
  501TMC3    C6 7447   4.377   3.191  10.696 -0.5257  0.1577 -0.6488
  501TMC3     C 7448   4.124   2.958  10.449 -0.0051  0.5407 -0.2602
  501TMC3     O 7449   4.144   2.841  10.457 -0.1721 -0.2755 -0.1344
  501TMC3     H 7450   4.187   3.209  10.409  2.0981 -0.4368 -1.2573
  501TMC3    H1 7451   4.253   2.877  10.664 -0.2779  0.2399  0.2415
  501TMC3    H2 7452   4.427   3.256  10.767 -1.1447  2.3543 -2.2190
  501TMC3    C7 7453   4.438   2.986  10.818 -0.1026  0.2006  0.0334
  501TMC3    C8 7454   4.288   3.382  10.580  0.0482 -0.2235  0.2910
  501TMC3    O1 7455   4.393   2.879  10.856 -0.5940 -0.1766  0.0884
  501TMC3    O2 7456   4.320   3.440  10.681  0.4647 -0.8422 -0.2127
  502TMC3    C1 7457   2.911   1.254  15.001 -0.4186 -0.7197 -0.5895
  502TMC3    C2 7458   2.900   1.370  14.933 -1.0501  0.4808  0.0984
  502TMC3    C3 7459   2.783   1.435  14.925  0.5598 -0.3650 -0.2868
  502TMC3    C4 7460   2.792   1.190  15.052 -0.2678 -0.7931  0.0977
  502TMC3    C5 7461   2.676   1.267  15.054 -0.2734  0.0913  0.0031
  502TMC3    C6 7462   2.668   1.393  14.997  0.2366  0.4010  0.0845
  502TMC3     C 7463   2.997   1.291  15.111  0.8363 -0.1886  0.1785
  502TMC3     O 7464   3.069   1.388  15.086  0.1358 -0.1181 -0.5458
  502TMC3     H 7465   2.980   1.393  14.864 -0.0990 -0.2786  0.9284
  502TMC3    H1 7466   2.795   1.088  15.090  1.6555 -0.9700 -0.5176
  502TMC3    H2 7467   2.585   1.463  15.008  0.7443  1.1850 -0.9790
  502TMC3    C7 7468   2.590   1.235  15.168  0.1710 -0.0396 -0.2017
  502TMC3    C8 7469   2.796   1.574  14.935 -0.1694  0.0299 -0.3685
  502TMC3    O1 7470   2.629   1.138  15.234  0.7773 -0.3343  0.0409
  502TMC3    O2 7471   2.710   1.656  14.902  0.0716  0.2024  0.1657
  503MPD2     C 7472   0.440   2.170  17.085  0.4170 -0.5487  0.1625
  503MPD2    C1 7473   0.454   2.203  17.222 -0.4154 -0.0600  0.6180
  503MPD2    C2 7474   0.535   2.121  17.299 -0.2254  0.3509  0.0206
  503MPD2    C3 7475   0.579   1.996  17.249 -0.2837 -0.8532  0.7890
  503MPD2    C4 7476   0.549   1.958  17.122  0.3055 -0.8673 -0.1759
  503MPD2    C5 7477   0.480   2.046  17.039 -0.4591 -0.3362  0.4042
  503MPD2     H 7478   0.573   2.146  17.397  1.4962 -0.1558 -0.5153
  503MPD2    H1 7479   0.570   1.857  17.088  2.9197 -1.1555  2.2737
  503MPD2    H2 7480   0.385   2.235  17.018 -0.6437 -1.6643 -0.0346
  503MPD2    H3 7481   0.469   2.004  16.940 -3.2128  1.1356  0.0784
  503MPD2     N 7482   0.678   1.928  17.323  0.5864  0.3549  0.5997
  503MPD2    H5 7483   0.699   1.962  17.416  0.8369  1.1129  0.2609
  503MPD2    N1 7484   0.410   2.323  17.285 -0.4570 -0.3294  0.1620
  503MPD2    H7 7485   0.431   2.331  17.384 -1.4274 -0.3376  0.3675
  504TMC3    C1 7486   0.878   1.812  17.361 -0.2912  0.5527 -0.5376
  504TMC3    C2 7487   0.849   1.790  17.491  0.2856 -1.1276 -0.2431
  504TMC3    C3 7488   0.944   1.751  17.581  0.0956 -0.1865  0.3793
  504TMC3    C4 7489   1.011   1.796  17.316 -0.2092  0.1204  0.4399
  504TMC3    C5 7490   1.099   1.747  17.410  0.0581 -0.6007  0.1861
  504TMC3    C6 7491   1.073   1.732  17.538  0.2940  0.5087  0.5612
  504TMC3     C 7492   0.775   1.856  17.266 -0.0942 -0.1457 -0.3293
  504TMC3     O 7493   0.801   1.824  17.150  0.4541  0.2375 -1.3649
  504TMC3     H 7494   0.746   1.800  17.524  0.4587  1.2422 -0.3923
  504TMC3    H1 7495   1.030   1.809  17.211 -1.1610  0.8175  0.3506
  504TMC3    H2 7496   1.155   1.707  17.605  1.1258  2.4690  0.2586
  504TMC3    C7 7497   1.222   1.690  17.347  0.2216  0.5051 -0.2497
  504TMC3    C8 7498   0.902   1.735   0.021  0.4952  0.4778  0.1146
  504TMC3    O1 7499   1.238   1.732  17.233  0.4254  0.3574  0.0951
  504TMC3    O2 7500   0.789   1.777   0.048  0.2857 -0.2566  0.1430
  505MPD2     C 7501   3.965   2.442   8.691  0.0496 -0.3780  0.7384
  505MPD2    C1 7502   3.858   2.523   8.644  0.5830  0.1404  0.0834
  505MPD2    C2 7503   3.794   2.610   8.735 -0.4309 -0.2519 -0.0843
  505MPD2    C3 7504   3.833   2.626   8.870  0.2059 -0.1234  0.2575
  505MPD2    C4 7505   3.943   2.551   8.913  0.0445 -0.0207  0.3850
  505MPD2    C5 7506   3.999   2.453   8.827  0.9400  0.7631 -0.6138
  505MPD2     H 7507   3.704   2.659   8.700 -1.4767 -2.2025 -0.1076
  505MPD2    H1 7508   3.973   2.567   9.016 -0.2989 -1.3435  0.6939
  505MPD2    H2 7509   4.015   2.375   8.623  0.1539  0.3791  0.0690
  505MPD2    H3 7510   4.078   2.390   8.867  0.3039 -0.8660 -1.9100
  505MPD2     N 7511   3.768   2.715   8.959  0.7648 -0.4710  0.3999
  505MPD2    H5 7512   3.794   2.721   9.057  0.6532  0.1509  0.3940
  505MPD2    N1 7513   3.827   2.510   8.510 -0.0873 -0.1332  0.5740
  505MPD2    H7 7514   3.843   2.421   8.464  2.2810  0.0349  1.0558
  506TMC3    C1 7515   3.720   2.553   8.306  0.0042 -0.3076 -0.5163
  506TMC3    C2 7516   3.693   2.420   8.291  0.0566 -0.6863  0.2868
  506TMC3    C3 7517   3.600   2.374   8.199 -0.0034 -0.0284 -0.1213
  506TMC3    C4 7518   3.655   2.647   8.234 -0.1750  0.6585  0.3881
  506TMC3    C5 7519   3.542   2.610   8.167  0.3150 -0.2234 -0.7911
  506TMC3    C6 7520   3.518   2.468   8.144 -0.3379  0.2165 -0.2332
  506TMC3     C 7521   3.748   2.595   8.443 -0.0413  0.1095 -0.2067
  506TMC3     O 7522   3.718   2.708   8.474 -0.1141  0.6413  0.4148
  506TMC3     H 7523   3.739   2.341   8.350  1.7495  1.0906  1.3191
  506TMC3    H1 7524   3.684   2.751   8.244  0.4380  0.6931 -1.7906
  506TMC3    H2 7525   3.422   2.440   8.102  0.2812 -0.8183 -0.9384
  506TMC3    C7 7526   3.418   2.681   8.218 -0.6165 -0.2980  0.1376
  506TMC3    C8 7527   3.524   2.258   8.223  0.6888  0.4965 -0.0754
  506TMC3    O1 7528   3.309   2.636   8.184  0.7452  0.1146  0.2646
  506TMC3    O2 7529   3.484   2.204   8.120 -0.6119  0.2239  0.3982
  507TMC3    C1 7530   1.271   1.468  14.685 -0.2326  0.0469  0.8955
  507TMC3    C2 7531   1.352   1.417  14.581  0.8987  0.4759  0.8154
  507TMC3    C3 7532   1.487   1.436  14.590  0.4360  0.1537 -0.5967
  507TMC3    C4 7533   1.323   1.525  14.802 -0.4642  0.9058 -0.4169
  507TMC3    C5 7534   1.459   1.522  14.812  0.0200  0.1742  0.2940
  507TMC3    C6 7535   1.540   1.482  14.705  0.1927 -0.1436  0.0559
  507TMC3     C 7536   1.127   1.456  14.670  0.3791  0.1371 -0.1010
  507TMC3     O 7537   1.075   1.449  14.557  0.1191 -0.0806  0.4093
  507TMC3     H 7538   1.311   1.384  14.486 -1.5255 -1.4929  2.5141
  507TMC3    H1 7539   1.258   1.569  14.877  1.0502  3.3941 -0.5737
  507TMC3    H2 7540   1.648   1.476  14.719  0.5315  1.5750 -1.9307
  507TMC3    C7 7541   1.519   1.631  14.881  0.0707  0.2130  0.0961
  507TMC3    C8 7542   1.525   1.528  14.478 -0.1033 -0.4864  0.5383
  507TMC3    O1 7543   1.603   1.690  14.818 -0.2070  0.4147 -0.6666
  507TMC3    O2 7544   1.494   1.498  14.360  0.2440 -0.1468  0.0200
  508MPD2     C 7545   2.688   3.852  15.978 -0.5443  0.5367 -0.1767
  508MPD2    C1 7546   2.608   3.963  16.002 -0.8033  0.1920  0.3964
  508MPD2    C2 7547   2.555   4.041  15.905  0.5274 -0.1897 -0.3815
  508MPD2    C3 7548   2.572   4.002  15.777  0.2689 -0.1736 -0.3779
  508MPD2    C4 7549   2.648   3.886  15.747  0.3209  0.0595 -0.3672
  508MPD2    C5 7550   2.706   3.812  15.848  0.7909 -0.2663 -0.7367
  508MPD2     H 7551   2.502   4.133  15.925  1.2744  0.2906 -0.5832
  508MPD2    H1 7552   2.674   3.860  15.645 -1.0629  1.5686 -1.0863
  508MPD2    H2 7553   2.740   3.797  16.056  2.1849  1.6954 -1.1910
  508MPD2    H3 7554   2.772   3.729  15.823 -1.2867 -1.8108 -1.1131
  508MPD2     N 7555   2.517   4.075  15.667  0.2398 -0.3321 -0.0384
  508MPD2    H5 7556   2.461   4.152  15.700  0.3832 -0.6741  1.0122
  508MPD2    N1 7557   2.575   3.989  16.136  0.0838  0.3686 -0.1278
  508MPD2    H7 7558   2.633   3.939  16.202  0.8189  1.8072  0.3092
  509TMC3    C1 7559   2.364   4.360  15.472  0.0938 -0.0250  0.2345
  509TMC3    C2 7560   2.462   4.444  15.434 -0.1583 -0.0733 -0.5017
  509TMC3    C3 7561   2.585   4.387  15.409  0.4515 -0.3523 -0.5169
  509TMC3    C4 7562   2.377   4.232  15.495 -0.2292 -0.2095  0.4511
  509TMC3    C5 7563   2.502   4.180  15.460 -0.5086 -0.4755 -0.5995
  509TMC3    C6 7564   2.603   4.253  15.413 -0.0087  0.0010  0.2572
  509TMC3     C 7565   2.226   4.398  15.460  0.1023 -0.3825  0.3491
  509TMC3     O 7566   2.140   4.308  15.441  0.1734  0.1444  0.0803
  509TMC3     H 7567   2.444   4.544  15.396  1.6615  0.3145 -0.3419
  509TMC3    H1 7568   2.302   4.172  15.546 -1.1016  1.6193  1.3215
  509TMC3    H2 7569   2.704   4.214  15.417 -0.7338 -1.9459 -0.1732
  509TMC3    C7 7570   2.546   4.059  15.530  0.5159 -0.2447  0.3245
  509TMC3    C8 7571   2.705   4.465  15.429 -0.0083  0.1467  0.0123
  509TMC3    O1 7572   2.624   3.989  15.460 -0.3297  0.2328  0.5090
  509TMC3    O2 7573   2.815   4.408  15.443 -0.5050 -0.3450 -0.2535
  510MPD2     C 7574   0.212   1.268  14.816  0.1399  0.5996 -0.5829
  510MPD2    C1 7575   0.256   1.146  14.840 -0.6095  0.0462 -0.4917
  510MPD2    C2 7576   0.347   1.087  14.760  0.5158 -0.1286 -0.5419
  510MPD2    C3 7577   0.402   1.146  14.649  0.4345 -0.5378 -0.0274
  510MPD2    C4 7578   0.358   1.276  14.625  0.2824 -0.2958  0.1000
  510MPD2    C5 7579   0.257   1.331  14.704  0.2471  0.9082 -0.2109
  510MPD2     H 7580   0.384   0.988  14.782  0.3189 -0.2093 -0.5728
  510MPD2    H1 7581   0.382   1.331  14.534 -1.3785  1.5358  0.7562
  510MPD2    H2 7582   0.122   1.309  14.859  0.3512  2.7804 -2.2000
  510MPD2    H3 7583   0.218   1.428  14.674 -1.1314 -0.7404 -3.7533
  510MPD2     N 7584   0.498   1.080  14.568 -1.0043 -0.2998 -0.2008
  510MPD2    H5 7585   0.523   0.986  14.596  0.9963  0.7927  1.6406
  510MPD2    N1 7586   0.194   1.074  14.943 -0.1883 -0.0004 -0.2083
  510MPD2    H7 7587   0.120   1.123  14.994  1.2705  2.3936 -0.3754
  511TMC3    C1 7588   0.087   0.895  15.055 -1.0183  0.5796  0.5309
  511TMC3    C2 7589   0.063   0.967  15.174 -0.4043 -0.2858 -0.0651
  511TMC3    C3 7590   4.720   0.896  15.277  0.5139 -0.6226  0.8941
  511TMC3    C4 7591   0.027   0.776  15.036 -0.1802  0.2313  0.1862
  511TMC3    C5 7592   4.670   0.717  15.134  0.1908 -0.3309 -0.1540
  511TMC3    C6 7593   4.661   0.778  15.255 -0.7903  0.0141  0.4120
  511TMC3     C 7594   0.181   0.939  14.944 -0.6670 -1.4854  0.1403
  511TMC3     O 7595   0.222   0.860  14.859  0.3041  0.4972  0.2099
  511TMC3     H 7596   0.114   1.059  15.200  2.2288 -1.4919 -1.0380
  511TMC3    H1 7597   0.051   0.726  14.943  0.5152  2.1422 -0.6541
  511TMC3    H2 7598   4.589   0.742  15.328 -1.4746  2.4455  0.9310
  511TMC3    C7 7599   4.629   0.579  15.125  0.4905  0.0094  0.4785
  511TMC3    C8 7600   4.655   0.980  15.381  0.1697 -0.7739 -0.3740
  511TMC3    O1 7601   4.657   0.527  15.020 -0.3534  0.0526  0.4271
  511TMC3    O2 7602   4.537   0.966  15.409 -0.1922 -0.4580  0.2960
  512TMC3    C1 7603   3.464   0.340  13.786 -0.4739  0.3488  0.3011
  512TMC3    C2 7604   3.600   0.374  13.775  0.2676  0.0477  0.1867
  512TMC3    C3 7605   3.658   0.330  13.658 -1.0670  0.2206  0.1699
  512TMC3    C4 7606   3.394   0.261  13.697  0.0098  0.4261 -0.1432
  512TMC3    C5 7607   3.460   0.221  13.590  0.1324  0.4738  0.5736
  512TMC3    C6 7608   3.588   0.257  13.565 -0.6464 -0.3236  0.5188
  512TMC3     C 7609   3.396   0.368  13.911 -0.9193 -0.4655  0.7889
  512TMC3     O 7610   3.276   0.405  13.910  0.3474 -0.3390 -0.9013
  512TMC3     H 7611   3.650   0.429  13.853 -0.0704  1.1915 -0.3957
  512TMC3    H1 7612   3.292   0.232  13.721 -0.0084 -1.8769 -3.0255
  512TMC3    H2 7613   3.643   0.223  13.478  1.6813 -1.0725  2.2531
  512TMC3    C7 7614   3.382   0.145  13.496 -0.0071  0.1079 -1.0720
  512TMC3    C8 7615   3.798   0.288  13.676 -0.2615  0.3735  0.3365
  512TMC3    O1 7616   3.263   0.168  13.488  0.1768  0.1562 -0.0917
  512TMC3    O2 7617   3.835   0.184  13.623  0.1717  0.1775 -0.3913
  513MPD2     C 7618   0.664   0.666  13.043  0.2667 -0.0481  0.3043
  513MPD2    C1 7619   0.644   0.542  12.990 -0.2093  0.0267 -0.2541
  513MPD2    C2 7620   0.699   0.433  13.064 -0.3168 -0.1121 -0.5974
  513MPD2    C3 7621   0.755   0.455  13.187 -0.5162 -0.5790 -0.3808
  513MPD2    C4 7622   0.771   0.580  13.235  0.2820  0.1808 -0.6381
  513MPD2    C5 7623   0.728   0.689  13.158  0.9795 -0.1539  0.3848
  513MPD2     H 7624   0.694   0.331  13.030  1.7767 -0.7828  1.0967
  513MPD2    H1 7625   0.801   0.602  13.337 -2.6513 -0.4779  0.3615
  513MPD2    H2 7626   0.635   0.754  12.986  1.6352  0.2057 -0.0016
  513MPD2    H3 7627   0.729   0.790  13.198  0.1779 -0.4728  1.2343
  513MPD2     N 7628   0.784   0.341  13.260  0.3612  0.3082 -0.6641
  513MPD2    H5 7629   0.755   0.252  13.220 -0.1963  1.7382 -3.4681
  513MPD2    N1 7630   0.580   0.534  12.863 -0.2375  0.8667 -0.5359
  513MPD2    H7 7631   0.553   0.623  12.822 -1.6255  0.2298 -0.9856
  514TMC3    C1 7632   0.456   0.412  12.694 -0.4110  0.9190 -0.2029
  514TMC3    C2 7633   0.492   0.493  12.588 -0.7087 -0.2567 -0.5525
  514TMC3    C3 7634   0.512   0.436  12.466  0.2082 -0.1242  0.4413
  514TMC3    C4 7635   0.429   0.282  12.668  0.0620  0.3356  0.0949
  514TMC3    C5 7636   0.471   0.229  12.554  0.0482  0.3501  0.2869
  514TMC3    C6 7637   0.512   0.299  12.445 -0.5659 -0.6595  0.3419
  514TMC3     C 7638   0.544   0.410  12.809  0.0372  0.1178  0.1458
  514TMC3     O 7639   0.595   0.300  12.833 -0.5534 -0.2652 -0.3295
  514TMC3     H 7640   0.502   0.599  12.607 -0.6609 -0.0171 -1.9617
  514TMC3    H1 7641   0.397   0.229  12.757  0.5787  1.6595  1.0814
  514TMC3    H2 7642   0.530   0.254  12.348  1.3032 -0.4916  0.6126
  514TMC3    C7 7643   0.526   0.098  12.566 -0.1388 -0.3409 -0.4328
  514TMC3    C8 7644   0.518   0.522  12.348  0.3543 -0.0284 -0.0839
  514TMC3    O1 7645   0.515   0.030  12.463 -0.3569 -0.3578  0.0903
  514TMC3    O2 7646   0.489   0.642  12.363 -0.0967 -0.2091 -0.1478
  515MPD2     C 7647   3.610   2.527  14.904 -0.4817  0.3232  0.1506
  515MPD2    C1 7648   3.653   2.395  14.921  0.0242  0.8162  0.4058
  515MPD2    C2 7649   3.775   2.368  14.971 -0.1173 -0.1580  0.0665
  515MPD2    C3 7650   3.864   2.465  15.017 -0.1702 -0.0038 -0.6243
  515MPD2    C4 7651   3.827   2.597  14.988 -0.4724 -0.8429 -0.4688
  515MPD2    C5 7652   3.699   2.625  14.941 -0.2785 -0.3834 -0.0293
  515MPD2     H 7653   3.796   2.262  14.974 -0.3744 -0.2378 -1.0733
  515MPD2    H1 7654   3.897   2.676  15.012 -0.4915 -1.7087  2.4147
  515MPD2    H2 7655   3.505   2.546  14.885 -0.4060  1.5576  1.0289
  515MPD2    H3 7656   3.660   2.724  14.920  2.9705  1.2519  1.7287
  515MPD2     N 7657   3.993   2.443  15.078  0.0586 -0.0480 -1.4110
  515MPD2    H5 7658   4.042   2.527  15.106  1.2596 -1.7064  1.3893
  515MPD2    N1 7659   3.579   2.276  14.898  0.0440 -0.3009  0.1233
  515MPD2    H7 7660   3.621   2.186  14.917 -0.2173 -0.1855  1.2169
  516TMC3    C1 7661   3.387   2.145  14.846 -0.0861 -0.1094 -0.3389
  516TMC3    C2 7662   3.292   2.124  14.745 -0.0214  0.5024 -0.8518
  516TMC3    C3 7663   3.255   1.999  14.721  0.3907  0.2538 -0.2805
  516TMC3    C4 7664   3.439   2.042  14.919  0.1509 -0.1095 -0.3371
  516TMC3    C5 7665   3.388   1.916  14.900  0.2309  0.6620  0.4427
  516TMC3    C6 7666   3.300   1.894  14.794 -0.4789 -0.5131 -0.4044
  516TMC3     C 7667   3.449   2.279  14.851  1.1978 -0.7168  0.5291
  516TMC3     O 7668   3.391   2.373  14.800 -0.1352 -0.0686  0.4243
  516TMC3     H 7669   3.262   2.214  14.692 -2.5418 -0.8285 -1.6682
  516TMC3    H1 7670   3.508   2.055  15.002 -1.3985  1.7859  0.6606
  516TMC3    H2 7671   3.256   1.795  14.780 -0.0690 -0.9552  1.5068
  516TMC3    C7 7672   3.422   1.806  14.990 -0.4337  0.1162  0.0680
  516TMC3    C8 7673   3.203   1.981  14.591 -0.7615  0.3390  0.1953
  516TMC3    O1 7674   3.460   1.836  15.104  0.5461 -0.1446 -0.2015
  516TMC3    O2 7675   3.165   2.086  14.535 -0.5002  0.5059  0.1246
  517MPD2     C 7676   3.206   3.579  17.379 -0.5777 -0.1160  0.2713
  517MPD2    C1 7677   3.246   3.558  17.512 -0.0301  0.4819  0.2823
  517MPD2    C2 7678   3.225   3.670  17.598  1.4930 -0.1079 -0.5285
  517MPD2    C3 7679   3.155   3.780  17.550  0.3688 -0.7122  0.4637
  517MPD2    C4 7680   3.103   3.789  17.419  0.5909 -0.0320 -0.4965
  517MPD2    C5 7681   3.144   3.692  17.335  0.2372 -0.4486 -0.1469
  517MPD2     H 7682   3.258   3.656   0.003  1.1305 -0.5658 -0.4753
  517MPD2    H1 7683   3.036   3.867  17.384  0.5130  0.0465 -0.1668
  517MPD2    H2 7684   3.225   3.504  17.303 -0.1529 -0.9675  1.2133
  517MPD2    H3 7685   3.113   3.709  17.233  1.3057  1.1400 -0.2011
  517MPD2     N 7686   3.127   3.898  17.627  0.3010 -0.2924 -0.1814
  517MPD2    H5 7687   3.071   3.975  17.592  1.1495  0.7002  0.6502
  517MPD2    N1 7688   3.321   3.449  17.554  0.2693 -0.8910  0.1345
  517MPD2    H7 7689   3.358   3.456  17.648 -0.5559  1.4608  0.2797
  518TMC3    C1 7690   3.438   3.248  17.542 -0.2022  0.5654 -0.3517
  518TMC3    C2 7691   3.418   3.113  17.516  0.4425  0.5044  0.9263
  518TMC3    C3 7692   3.499   3.022  17.572 -0.2039 -0.3587  0.7687
  518TMC3    C4 7693   3.556   3.293  17.613  0.5687 -0.2918 -0.1971
  518TMC3    C5 7694   3.635   3.192  17.653 -0.1845  0.0468 -0.3090
  518TMC3    C6 7695   3.607   3.061  17.644  0.1819  0.3756 -0.9022
  518TMC3     C 7696   3.342   3.342  17.478 -0.1453  0.3890  0.6722
  518TMC3     O 7697   3.277   3.301  17.382  0.2337 -0.1735  0.3531
  518TMC3     H 7698   3.331   3.078  17.462  2.4217 -0.2418 -1.7629
  518TMC3    H1 7699   3.584   3.398  17.624 -0.1277  0.0254 -1.4684
  518TMC3    H2 7700   3.676   2.984  17.676  0.6235  0.2883 -2.0587
  518TMC3    C7 7701   3.766   3.237  17.693  0.8127  0.0712 -0.5031
  518TMC3    C8 7702   3.493   2.881  17.533  0.0801  1.0591 -0.6328
  518TMC3    O1 7703   3.764   3.344   0.054  0.5867 -0.1271  0.4220
  518TMC3    O2 7704   3.561   2.809  17.606  0.1592 -0.5504 -0.3684
  519MPD2     C 7705   0.899   2.409  14.338 -0.7288  0.3666 -0.5228
  519MPD2    C1 7706   0.788   2.353  14.268 -0.1784  0.0646  0.2368
  519MPD2    C2 7707   0.801   2.233  14.210 -0.3953 -0.8396 -0.3008
  519MPD2    C3 7708   0.916   2.163  14.211  0.0931  0.0988 -0.4989
  519MPD2    C4 7709   1.027   2.215  14.271 -0.3347  0.1721  0.2227
  519MPD2    C5 7710   1.018   2.340  14.327  0.2000  0.0676 -0.0860
  519MPD2     H 7711   0.725   2.192  14.144  0.1008 -2.7442  0.3084
  519MPD2    H1 7712   1.118   2.156  14.267  0.2898  1.1050  0.5875
  519MPD2    H2 7713   0.898   2.500  14.396  0.7931 -1.1869  1.9772
  519MPD2    H3 7714   1.107   2.393  14.356  0.2157 -0.6942  1.2513
  519MPD2     N 7715   0.922   2.037  14.153  0.4420  0.1441 -0.2128
  519MPD2    H5 7716   1.012   1.993  14.139  0.7767  0.6716  0.3329
  519MPD2    N1 7717   0.667   2.415  14.256  0.7581  0.5347 -0.5759
  519MPD2    H7 7718   0.660   2.514  14.281 -1.7361  1.1257 -3.7370
  520TMC3    C1 7719   0.848   1.824  14.076 -0.2103 -0.1622 -0.4457
  520TMC3    C2 7720   0.735   1.755  14.032 -1.0038 -0.8550  0.4028
  520TMC3    C3 7721   0.760   1.648  13.950  0.2544  0.3317  0.6073
  520TMC3    C4 7722   0.974   1.776  14.046 -0.3319  0.8488  0.3082
  520TMC3    C5 7723   0.993   1.669  13.961 -0.3065 -0.2774 -0.7115
  520TMC3    C6 7724   0.882   1.595  13.924 -0.5563 -0.4058  0.0685
  520TMC3     C 7725   0.810   1.957  14.139 -0.2418  0.0470 -0.0276
  520TMC3     O 7726   0.702   1.968  14.192 -0.2237 -0.2192  0.0577
  520TMC3     H 7727   0.635   1.797  14.039 -0.9569 -0.5096 -1.0365
  520TMC3    H1 7728   1.066   1.829  14.068 -0.5786  1.1927  0.5111
  520TMC3    H2 7729   0.884   1.505  13.864  1.0113  0.9329 -1.8741
  520TMC3    C7 7730   1.111   1.584  13.982  0.1563 -0.0596 -0.0472
  520TMC3    C8 7731   0.652   1.601  13.862 -0.5496 -0.4388  0.1410
  520TMC3    O1 7732   1.185   1.616  14.072 -0.7761 -0.5687  0.4255
  520TMC3    O2 7733   0.682   1.508  13.783 -0.0254  0.0447 -0.6672
  521MPD2     C 7734   1.479   0.173  17.596 -0.8996  0.2545 -0.2676
  521MPD2    C1 7735   1.422   0.068  17.526 -0.1731  0.0712  0.6073
  521MPD2    C2 7736   1.469   0.041  17.401  0.2939 -0.3321  0.2833
  521MPD2    C3 7737   1.530   0.133  17.325  0.0895  0.5583 -0.4807
  521MPD2    C4 7738   1.581   0.246  17.392  0.7451 -0.1574 -0.1058
  521MPD2    C5 7739   1.564   0.253  17.527  0.4385  0.0395 -0.6860
  521MPD2     H 7740   1.434   4.675  17.354  1.5986 -0.8096  0.2339
  521MPD2    H1 7741   1.640   0.316  17.335  1.7979 -1.2371 -0.3466
  521MPD2    H2 7742   1.457   0.195   0.002  2.7201 -3.1288  1.2012
  521MPD2    H3 7743   1.610   0.326  17.593 -0.3521 -0.1860  0.1186
  521MPD2     N 7744   1.563   0.100  17.195 -1.0615  0.4822  0.6227
  521MPD2    H5 7745   1.544   0.004  17.170  1.8228  0.3073 -0.9446
  521MPD2    N1 7746   1.320   4.718  17.594 -0.0135 -0.0444  0.8246
  521MPD2    H7 7747   1.310   0.003  17.694 -0.4415  1.6055  0.6363
  522TMC3    C1 7748   1.621   0.118  16.961  0.3787  0.3612  0.1777
  522TMC3    C2 7749   1.738   0.148  16.896 -0.5113  0.2684 -1.0484
  522TMC3    C3 7750   1.780   0.068  16.794 -0.1574 -0.2868  0.2041
  522TMC3    C4 7751   1.552   0.009  16.940  0.2595  0.3603 -0.0973
  522TMC3    C5 7752   1.588   4.656  16.834 -0.4573  0.3131 -0.6136
  522TMC3    C6 7753   1.707   4.677  16.766 -0.2960  0.5090  0.5293
  522TMC3     C 7754   1.620   0.179  17.096  0.1422  0.1327 -0.1055
  522TMC3     O 7755   1.660   0.294  17.109  0.0170 -0.0865 -0.3178
  522TMC3     H 7756   1.796   0.236  16.920  0.6942 -0.1898 -2.2420
  522TMC3    H1 7757   1.460   4.716  16.996 -0.0368 -1.6207 -1.1953
  522TMC3    H2 7758   1.741   4.614  16.684  1.4211 -0.9741  2.3641
  522TMC3    C7 7759   1.508   4.549  16.797  0.1475 -0.1065  0.4240
  522TMC3    C8 7760   1.917   0.098  16.753 -0.6030 -0.1281  0.3742
  522TMC3    O1 7761   1.569   4.461  16.746 -0.3303  0.0137  0.1906
  522TMC3    O2 7762   1.958   0.210  16.797 -0.5006 -0.1130  0.1505
  523MPD2     C 7763   4.700   4.563  10.335  0.7287  0.1894  0.1566
  523MPD2    C1 7764   4.589   4.528  10.260  0.9808  0.9249 -0.1537
  523MPD2    C2 7765   4.541   4.621  10.176 -0.6077  0.0481 -0.2355
  523MPD2    C3 7766   4.594   0.028  10.168 -0.1214 -0.0542 -0.3582
  523MPD2    C4 7767   4.691   0.060  10.257  0.1486 -0.7318 -0.6872
  523MPD2    C5 7768   0.027   4.689  10.334 -0.5140 -0.3374 -0.3384
  523MPD2     H 7769   4.460   4.598  10.107 -0.4245  1.0891 -0.8034
  523MPD2    H1 7770   0.016   0.157  10.255 -4.0353  1.4427  0.7536
  523MPD2    H2 7771   0.034   4.498  10.400  1.8717 -0.9822 -2.0290
  523MPD2    H3 7772   0.115   4.705  10.395  1.3358  0.1720 -3.1464
  523MPD2     N 7773   4.552   0.130  10.075 -0.3376 -0.3279  0.9874
  523MPD2    H5 7774   4.579   0.227  10.088  1.7662 -0.9097  0.9494
  523MPD2    N1 7775   4.552   4.389  10.265 -0.5017 -0.1618 -0.3958
  523MPD2    H7 7776   4.616   4.322  10.306 -2.4811 -2.2467 -0.6665
  524TMC3    C1 7777   4.424   0.224   9.903 -0.4259 -0.5750  0.4409
  524TMC3    C2 7778   4.342   0.189   9.801  0.1996 -0.8887 -0.6721
  524TMC3    C3 7779   4.261   0.293   9.746 -0.1882  1.1417 -0.0265
  524TMC3    C4 7780   4.391   0.338   9.976  0.0514 -0.1624  0.4642
  524TMC3    C5 7781   4.292   0.421   9.934 -0.1527  0.5670  0.1685
  524TMC3    C6 7782   4.232   0.405   9.817  0.0259  0.0191 -0.4835
  524TMC3     C 7783   4.474   0.105   9.971 -0.0768  0.3466  0.2464
  524TMC3     O 7784   4.440   4.721   9.924 -0.0235 -0.9806 -0.1142
  524TMC3     H 7785   4.373   0.109   9.734  2.1213  0.5053 -1.4561
  524TMC3    H1 7786   4.443   0.364  10.067  1.3588 -2.3305  0.3333
  524TMC3    H2 7787   4.147   0.465   9.787 -0.5052 -0.7893 -0.6136
  524TMC3    C7 7788   4.250   0.514  10.036 -0.2483 -0.6018 -0.3999
  524TMC3    C8 7789   4.162   0.256   9.643  0.2673 -0.2550  0.9981
  524TMC3    O1 7790   4.302   0.514  10.148  0.3702 -0.6230  0.4892
  524TMC3    O2 7791   4.108   0.348   9.580 -0.3607  0.2678 -0.9626
  525MPD2     C 7792   1.884   1.367  14.504 -0.3623  1.0185  0.2015
  525MPD2    C1 7793   1.967   1.410  14.601  0.2467 -0.1029  0.2550
  525MPD2    C2 7794   2.025   1.533  14.587 -0.0920 -0.2410 -0.6640
  525MPD2    C3 7795   2.011   1.606  14.471  0.3266  0.7206 -1.1474
  525MPD2    C4 7796   1.926   1.559  14.376 -0.0791  0.3380 -0.0937
  525MPD2    C5 7797   1.857   1.438  14.392 -0.0591  0.0553 -0.4958
  525MPD2     H 7798   2.076   1.577  14.673 -1.0395 -0.0626 -0.1908
  525MPD2    H1 7799   1.899   1.627  14.296 -2.0703 -0.7655 -0.3628
  525MPD2    H2 7800   1.831   1.272  14.503  1.5195 -0.0219  0.0575
  525MPD2    H3 7801   1.775   1.415  14.325 -0.5352  0.8518 -0.1806
  525MPD2     N 7802   2.053   1.743  14.477  0.8971  0.1798  0.0206
  525MPD2    H5 7803   2.088   1.772  14.568 -1.3386  0.0924  0.9149
  525MPD2    N1 7804   2.012   1.339  14.717 -0.3250 -0.4164 -0.0643
  525MPD2    H7 7805   2.082   1.379  14.778 -0.9577  0.5304  0.0417
  526TMC3    C1 7806   2.027   1.159  14.872  0.6280 -0.5907  0.1621
  526TMC3    C2 7807   1.952   1.108  14.978  0.2785 -0.3432 -0.1631
  526TMC3    C3 7808   2.012   1.090  15.103 -0.1444  0.0560 -0.2413
  526TMC3    C4 7809   2.161   1.177  14.883 -1.0934 -0.8633 -0.3337
  526TMC3    C5 7810   2.218   1.139  15.003 -0.5491 -0.5822  0.1818
  526TMC3    C6 7811   2.148   1.104  15.112  0.2383  0.8979  0.7470
  526TMC3     C 7812   1.957   1.213  14.756 -0.1887 -0.1730  0.1715
  526TMC3     O 7813   1.860   1.152  14.713 -0.5010 -0.6637  0.4264
  526TMC3     H 7814   1.844   1.117  14.976  0.3436  0.2113 -0.9848
  526TMC3    H1 7815   2.215   1.212  14.796 -0.8238  0.0493  0.2115
  526TMC3    H2 7816   2.195   1.090  15.209  0.9434 -0.4277  0.2290
  526TMC3    C7 7817   2.342   1.056  14.988 -0.0748  0.9909 -0.7439
  526TMC3    C8 7818   1.934   1.069  15.224  0.2972  0.2242 -0.0249
  526TMC3    O1 7819   2.427   1.078  14.904  0.1643 -0.3759  0.1279
  526TMC3    O2 7820   1.992   1.101  15.329  0.2075  0.4482 -0.1231
  527MPD2     C 7821   0.376   4.283   1.756 -1.0492 -0.3177  0.0400
  527MPD2    C1 7822   0.447   4.164   1.772  0.2225  0.0084 -0.7224
  527MPD2    C2 7823   0.431   4.069   1.672 -0.2891  0.3474 -0.2347
  527MPD2    C3 7824   0.350   4.092   1.564  0.2612 -0.0800  0.4607
  527MPD2    C4 7825   0.282   4.211   1.554  0.3501  0.0688  0.2416
  527MPD2    C5 7826   0.287   4.301   1.653  0.1827  0.0334  0.0628
  527MPD2     H 7827   0.471   3.968   1.682  1.7932  0.9999 -1.9143
  527MPD2    H1 7828   0.201   4.217   1.483  1.3903  1.4591 -0.8218
  527MPD2    H2 7829   0.377   4.367   1.825 -4.3011  1.1760 -1.7190
  527MPD2    H3 7830   0.226   4.390   1.647  1.6712  0.9855 -0.8280
  527MPD2     N 7831   0.354   3.985   1.470  0.0916 -0.1507  0.0899
  527MPD2    H5 7832   0.416   3.911   1.502  1.3218  0.3164 -1.2308
  527MPD2    N1 7833   0.512   4.136   1.894 -0.0023 -0.7373  0.6197
  527MPD2    H7 7834   0.572   4.054   1.902 -0.2878 -1.1654 -1.5537
  528TMC3    C1 7835   0.568   4.158   2.116  0.0307  0.7271  0.4754
  528TMC3    C2 7836   0.603   4.249   2.215  0.0841  0.3535 -0.4605
  528TMC3    C3 7837   0.618   4.201   2.343  0.2043 -0.4730  0.7076
  528TMC3    C4 7838   0.529   4.028   2.142 -0.5498  0.1437 -0.1967
  528TMC3    C5 7839   0.553   3.996   2.271 -0.7740 -0.0350  0.9249
  528TMC3    C6 7840   0.587   4.075   2.373  0.0438  0.2282  0.6143
  528TMC3     C 7841   0.521   4.223   1.998  0.3210 -0.1023 -0.1787
  528TMC3     O 7842   0.496   4.340   2.012  0.1775  0.1617 -0.1904
  528TMC3     H 7843   0.637   4.350   2.199 -0.6568  0.5416 -0.8481
  528TMC3    H1 7844   0.505   3.959   2.062 -0.3058  1.2211 -1.2000
  528TMC3    H2 7845   0.591   4.029   2.471  2.0753 -1.1866 -0.1556
  528TMC3    C7 7846   0.487   3.869   2.313 -1.2609  0.4268  0.9126
  528TMC3    C8 7847   0.684   4.287   2.444 -0.4642  0.0017 -0.2030
  528TMC3    O1 7848   0.424   3.824   2.223 -0.3890 -0.3231 -0.2233
  528TMC3    O2 7849   0.744   4.385   2.409  0.1740 -0.6368  0.6105
  529MPD2     C 7850   3.070   2.656   0.499  0.3701  0.4856  0.3187
  529MPD2    C1 7851   3.090   2.546   0.417 -0.5165  0.3238  0.0213
  529MPD2    C2 7852   3.082   2.561   0.280 -0.0617  0.2880 -0.5870
  529MPD2    C3 7853   3.051   2.673   0.217  0.4682  0.2628 -0.1819
  529MPD2    C4 7854   3.021   2.783   0.293  0.0862  0.7254 -0.1721
  529MPD2    C5 7855   3.037   2.774   0.433 -0.2794 -0.3874 -0.2921
  529MPD2     H 7856   3.097   2.467   0.229 -2.6594 -0.0996 -0.6357
  529MPD2    H1 7857   3.007   2.876   0.239  2.6069  1.8512  1.0701
  529MPD2    H2 7858   3.087   2.651   0.606  3.2536  1.2918 -0.0823
  529MPD2    H3 7859   3.011   2.861   0.491 -1.2517  1.0134 -2.8322
  529MPD2     N 7860   3.037   2.687   0.079  0.4294  0.0091  0.4551
  529MPD2    H5 7861   3.001   2.777   0.047 -0.2911 -0.4789 -0.1270
  529MPD2    N1 7862   3.108   2.412   0.465  0.0840  0.2264  0.0130
  529MPD2    H7 7863   3.113   2.337   0.397  4.1133  2.4454 -2.1275
  530TMC3    C1 7864   3.139   2.241   0.627  0.0156 -0.2051 -0.1165
  530TMC3    C2 7865   3.179   2.197   0.751  0.1893 -0.3255  0.2942
  530TMC3    C3 7866   3.147   2.072   0.788 -0.8745 -0.2578  0.7383
  530TMC3    C4 7867   3.050   2.158   0.557  0.3305 -0.7747  0.3469
  530TMC3    C5 7868   2.998   2.043   0.622 -0.1001 -0.8447 -0.2439
  530TMC3    C6 7869   3.056   1.992   0.729 -0.8868  0.3071  0.0812
  530TMC3     C 7870   3.124   2.376   0.602 -0.1991 -0.6806  0.2283
  530TMC3     O 7871   3.131   2.451   0.703  0.5521  0.0437  0.4521
  530TMC3     H 7872   3.245   2.256   0.814  0.4394 -1.3468  0.9821
  530TMC3    H1 7873   3.004   2.199   0.468  0.3225  1.1124  1.2097
  530TMC3    H2 7874   3.015   1.906   0.781  0.6391  1.5018  3.2534
  530TMC3    C7 7875   2.892   1.979   0.552  0.9726  0.1324  0.1656
  530TMC3    C8 7876   3.181   2.047   0.930  0.0546 -0.0716  0.0611
  530TMC3    O1 7877   2.889   1.999   0.430  0.0127 -0.5207 -0.1679
  530TMC3    O2 7878   3.191   2.151   0.996 -0.2000  0.5246  0.5490
  531MPD2     C 7879   0.846   4.536  12.846  0.0273  0.1048 -0.2778
  531MPD2    C1 7880   0.779   4.632  12.924 -0.4568 -0.8925  0.0097
  531MPD2    C2 7881   0.684   4.715  12.863  0.2063  0.3927  0.3128
  531MPD2    C3 7882   0.656   4.701  12.735 -0.1235  0.9444  0.3361
  531MPD2    C4 7883   0.715   4.612  12.650 -0.3592  0.0222  0.0494
  531MPD2    C5 7884   0.818   4.536  12.709 -0.2105  0.3523  0.2277
  531MPD2     H 7885   0.640   0.071  12.921  1.9722  0.6985  1.2407
  531MPD2    H1 7886   0.700   4.619  12.543  1.8107  0.0139 -0.2656
  531MPD2    H2 7887   0.922   4.469  12.885 -0.4510 -0.2594  0.0244
  531MPD2    H3 7888   0.881   4.467  12.653 -1.3793 -0.1132 -0.5326
  531MPD2     N 7889   0.579   0.080  12.689 -0.0683  0.6496 -0.8167
  531MPD2    H5 7890   0.562   0.160  12.748  1.9795 -0.9106  1.8803
  531MPD2    N1 7891   0.818   4.645  13.063 -0.0824 -0.4150  0.0955
  531MPD2    H7 7892   0.887   4.578  13.098 -0.5809 -0.5501  0.8137
  532TMC3    C1 7893   0.825   0.024  13.275 -0.3712 -0.4931  0.2366
  532TMC3    C2 7894   0.773   0.130  13.348 -0.1776 -0.8360 -0.1269
  532TMC3    C3 7895   0.852   0.202  13.430  0.5759 -0.1152  1.0867
  532TMC3    C4 7896   0.946   4.704  13.301 -0.1207 -0.4633 -0.8626
  532TMC3    C5 7897   1.017   0.036  13.403  0.6619 -0.0024 -0.6109
  532TMC3    C6 7898   0.977   0.154  13.465  0.5597  0.2044  0.0863
  532TMC3     C 7899   0.771   0.019  13.146 -0.3510  0.1948  0.2656
  532TMC3     O 7900   0.706   0.122  13.125  0.0312 -0.3073  0.1612
  532TMC3     H 7901   0.666   0.144  13.340 -0.2568 -0.3272  1.9326
  532TMC3    H1 7902   0.982   4.628  13.232 -0.5844  0.6394 -2.3381
  532TMC3    H2 7903   1.050   0.217  13.514 -0.1717  0.1768  1.2142
  532TMC3    C7 7904   1.127   4.692  13.466  0.4197  0.6356  0.2781
  532TMC3    C8 7905   0.860   0.336  13.376 -0.2870 -0.2653  0.5659
  532TMC3    O1 7906   1.211   0.038  13.533  0.1489  0.1596 -0.0600
  532TMC3    O2 7907   0.912   0.429  13.440 -0.4582 -0.3632 -0.1159
  533TMC3    C1 7908   2.061   1.967  14.420  0.1607 -0.6891 -0.4185
  533TMC3    C2 7909   2.195   1.991  14.417  0.1511  0.6751  0.4264
  533TMC3    C3 7910   2.241   2.070  14.519 -0.1819  0.2167  0.5533
  533TMC3    C4 7911   1.975   2.021  14.515 -0.0736 -0.3555 -0.0258
  533TMC3    C5 7912   2.027   2.091  14.616 -0.5168  0.1640  0.0275
  533TMC3    C6 7913   2.166   2.119  14.621 -0.0722 -0.6170  0.2520
  533TMC3     C 7914   2.035   1.836  14.378 -0.3130 -0.4394 -0.0562
  533TMC3     O 7915   2.004   1.828  14.260 -0.2441 -0.3578 -0.3867
  533TMC3     H 7916   2.264   1.956  14.342  0.7008 -0.5504  1.5105
  533TMC3    H1 7917   1.874   1.981  14.509 -0.6435  0.7050  2.8748
  533TMC3    H2 7918   2.208   2.172  14.705  0.4611  0.0204 -0.4225
  533TMC3    C7 7919   1.945   2.089  14.739 -0.2512  0.3587 -0.5942
  533TMC3    C8 7920   2.378   2.117  14.517 -0.3025 -0.8385 -0.0873
  533TMC3    O1 7921   1.845   2.015  14.746 -0.4587  0.5771  0.0045
  533TMC3    O2 7922   2.412   2.174  14.618 -0.6214 -0.1463 -0.2716
  534MPD2     C 7923   0.163   2.896   2.188  0.4244  0.2441 -0.4488
  534MPD2    C1 7924   0.138   2.985   2.084 -0.1336 -0.4990  0.4250
  534MPD2    C2 7925   0.052   2.943   1.987  0.9269  0.5894  0.4552
  534MPD2    C3 7926   0.007   2.807   1.986 -0.6415 -0.6515  0.7169
  534MPD2    C4 7927   0.047   2.722   2.078  0.0238  0.4913  0.0963
  534MPD2    C5 7928   0.121   2.764   2.188 -1.0471 -0.2345  0.9768
  534MPD2     H 7929   0.009   3.013   1.917 -0.8831  1.4469  2.4217
  534MPD2    H1 7930   0.023   2.617   2.064 -0.5081  0.4321  1.5395
  534MPD2    H2 7931   0.225   2.921   2.274 -0.9600 -2.2772  1.2853
  534MPD2    H3 7932   0.150   2.699   2.269  0.1753 -1.7440 -0.6629
  534MPD2     N 7933   4.643   2.755   1.882  0.5178  0.4117  0.1863
  534MPD2    H5 7934   4.596   2.667   1.901 -0.5229  0.7629 -0.7790
  534MPD2    N1 7935   0.181   3.120   2.085 -0.4328  0.3864 -0.4852
  534MPD2    H7 7936   0.145   3.178   2.009  1.0159  1.3797 -0.4096
  535TMC3    C1 7937   4.512   2.784   1.684  0.2474  0.5492  0.4292
  535TMC3    C2 7938   4.420   2.685   1.733  0.0129 -0.0566 -0.1439
  535TMC3    C3 7939   4.319   2.656   1.647 -0.4720  0.0226 -0.3640
  535TMC3    C4 7940   4.503   2.850   1.567  0.2494  0.1185  0.6935
  535TMC3    C5 7941   4.404   2.807   1.482  0.3950  0.5343 -0.3368
  535TMC3    C6 7942   4.311   2.712   1.524 -0.5752  1.4009 -0.0672
  535TMC3     C 7943   4.626   2.824   1.765 -0.1150  0.2257 -0.4683
  535TMC3     O 7944   4.697   2.912   1.713 -0.2344  0.6676 -0.2413
  535TMC3     H 7945   4.433   2.637   1.829  0.6817 -1.8379 -1.1368
  535TMC3    H1 7946   4.573   2.926   1.535 -1.3494  1.0275 -0.6889
  535TMC3    H2 7947   4.234   2.678   1.456 -0.7910  2.8921 -0.5660
  535TMC3    C7 7948   4.396   2.856   1.344  0.1304  0.1497 -0.3604
  535TMC3    C8 7949   4.249   2.531   1.660 -0.4655 -0.1367 -0.2019
  535TMC3    O1 7950   4.506   2.870   1.287 -0.4864 -0.3516 -0.3810
  535TMC3    O2 7951   4.187   2.493   1.563 -0.4609 -0.2881 -0.4677
  536MPD2     C 7952   3.145   1.364  16.491 -0.5048 -0.3540 -0.4036
  536MPD2    C1 7953   3.080   1.245  16.512  0.9415 -0.2785 -0.0249
  536MPD2    C2 7954   3.009   1.196  16.406  0.1117  0.1779  0.3406
  536MPD2    C3 7955   2.989   1.272  16.292 -0.2386 -0.6051 -0.2106
  536MPD2    C4 7956   3.063   1.383  16.269  0.5476  0.6311 -0.2152
  536MPD2    C5 7957   3.132   1.427  16.372 -0.2091  0.5496 -0.3536
  536MPD2     H 7958   2.960   1.101  16.425 -0.7408  0.4150 -0.6857
  536MPD2    H1 7959   3.053   1.434  16.174  0.8368  0.7817 -0.1647
  536MPD2    H2 7960   3.218   1.408  16.558 -2.3067 -0.6048  1.7007
  536MPD2    H3 7961   3.171   1.528  16.368  1.4261 -0.0944 -0.5282
  536MPD2     N 7962   2.911   1.232  16.184  0.5096  0.3785 -0.4093
  536MPD2    H5 7963   2.912   1.297  16.106  2.3398  1.4703  0.5392
  536MPD2    N1 7964   3.103   1.174  16.634 -0.1557  0.4986  0.5576
  536MPD2    H7 7965   3.162   1.231  16.695  0.6483 -0.5566  0.7682
  537TMC3    C1 7966   3.103   0.995  16.801 -0.1268 -0.5752  0.1111
  537TMC3    C2 7967   3.203   1.069  16.866  0.0894  0.6178  0.6564
  537TMC3    C3 7968   3.242   1.018  16.987 -0.0126  0.6695 -0.2756
  537TMC3    C4 7969   3.038   0.886  16.851 -0.1289  0.3336  0.4211
  537TMC3    C5 7970   3.082   0.840  16.972  0.2808 -0.7308 -0.9521
  537TMC3    C6 7971   3.185   0.904  17.045 -0.6577 -0.2605  0.1421
  537TMC3     C 7972   3.057   1.049  16.669 -0.6192  0.3900 -0.2504
  537TMC3     O 7973   2.985   0.975  16.603  0.0510  0.1899 -0.3764
  537TMC3     H 7974   3.264   1.140  16.811  0.4224  0.3109  0.6325
  537TMC3    H1 7975   2.958   0.837  16.795 -0.8247  2.0694 -0.1176
  537TMC3    H2 7976   3.229   0.858  17.132 -0.0251  3.2586  1.6863
  537TMC3    C7 7977   3.035   0.705  16.991  0.3993 -0.9509 -0.1790
  537TMC3    C8 7978   3.354   1.080  17.055  0.3445 -0.0515  0.1348
  537TMC3    O1 7979   2.994   0.645  16.891  0.4728  0.4423 -0.5313
  537TMC3    O2 7980   3.410   1.021  17.145  0.3333  0.6044 -0.2955
  538TMC3    C1 7981   0.091   4.355  10.978  0.0758  0.1679 -0.7627
  538TMC3    C2 7982   0.120   4.271  10.870 -0.2998 -0.0984  0.1556
  538TMC3    C3 7983   0.061   4.312  10.748  0.7880  0.1552  0.0908
  538TMC3    C4 7984   0.005   4.465  10.973  0.4982 -0.0436 -0.5603
  538TMC3    C5 7985   4.692   4.500  10.848  0.0313  0.7794  0.2805
  538TMC3    C6 7986   4.714   4.428  10.739 -0.6206 -0.4422  0.0852
  538TMC3     C 7987   0.155   4.349  11.114 -0.6016  0.1283  0.7451
  538TMC3     O 7988   0.085   4.393  11.204 -0.1043  0.2190  0.1958
  538TMC3     H 7989   0.175   4.179  10.882  3.3819  2.1212  0.2567
  538TMC3    H1 7990   4.721   4.536  11.054  0.3519 -1.5957  0.7890
  538TMC3    H2 7991   4.670   4.453  10.643  1.6492 -1.1530 -1.1276
  538TMC3    C7 7992   4.622   4.622  10.835  0.0868 -0.2936  0.1163
  538TMC3    C8 7993   0.112   4.254  10.625 -0.5316 -0.6453  0.0845
  538TMC3    O1 7994   4.542   4.632  10.739  0.5280 -0.2348 -0.2819
  538TMC3    O2 7995   0.046   4.269  10.524  0.2763  0.1746  0.1883
  539MPD2     C 7996   4.455   3.930  12.024 -0.5673 -0.1249  0.4326
  539MPD2    C1 7997   4.438   3.952  11.885 -0.3164  0.1711 -0.5259
  539MPD2    C2 7998   4.385   4.079  11.850  0.2471  0.0413  0.4451
  539MPD2    C3 7999   4.399   4.190  11.925 -0.2447  0.0732 -0.2628
  539MPD2    C4 8000   4.429   4.167  12.056  0.6333  0.1590  0.0113
  539MPD2    C5 8001   4.447   4.042  12.109 -0.7636 -0.0292  0.1632
  539MPD2     H 8002   4.353   4.084  11.746  1.6497 -0.8856 -0.0296
  539MPD2    H1 8003   4.430   4.252  12.124  0.2999  2.3231 -2.6782
  539MPD2    H2 8004   4.466   3.830  12.062  1.0119 -0.7430 -1.5994
  539MPD2    H3 8005   4.467   4.031  12.215  2.2347  0.1582 -0.3633
  539MPD2     N 8006   4.370   4.318  11.876  0.1707 -0.9375  0.5257
  539MPD2    H5 8007   4.363   4.392  11.945 -0.3696 -2.7799  2.4554
  539MPD2    N1 8008   4.444   3.856  11.787 -0.4689 -0.0689  0.4759
  539MPD2    H7 8009   4.396   3.884  11.703 -2.0473 -2.0263  0.7131
  540TMC3    C1 8010   4.350   4.486  11.695  0.3117  0.4539 -0.2472
  540TMC3    C2 8011   4.349   4.507  11.560  0.1258 -0.0304 -0.7278
  540TMC3    C3 8012   4.307   4.632  11.521  0.0161  0.8489 -0.3070
  540TMC3    C4 8013   4.312   4.591  11.776  0.2730  0.2253 -0.4084
  540TMC3    C5 8014   4.261   4.711  11.729 -0.1861  0.2490 -0.5676
  540TMC3    C6 8015   4.263   0.011  11.593  0.3121 -0.0719  0.1374
  540TMC3     C 8016   4.371   4.344  11.742 -0.1357 -0.6449  0.0276
  540TMC3     O 8017   4.411   4.281  11.647 -0.3367  0.1120  0.6284
  540TMC3     H 8018   4.383   4.437  11.484  1.9928  0.5990 -0.4833
  540TMC3    H1 8019   4.314   4.573  11.883  1.9831 -0.8174 -0.6212
  540TMC3    H2 8020   4.229   0.101  11.543  2.2800  0.6369  0.0630
  540TMC3    C7 8021   4.164   0.050  11.821  0.2981 -0.9075 -0.0809
  540TMC3    C8 8022   4.319   4.664  11.377 -0.1178 -0.0878 -0.1917
  540TMC3    O1 8023   4.141   4.709  11.925 -0.2168  0.2452  0.1745
  540TMC3    O2 8024   4.366   0.048  11.344  1.1120 -0.4840 -0.1194
  541MPD2     C 8025   2.419   0.589  13.785  0.0244 -0.3018 -0.6184
  541MPD2    C1 8026   2.350   0.516  13.688 -0.1345 -0.2377 -0.3736
  541MPD2    C2 8027   2.397   0.518  13.555  0.3771 -0.6495  0.3154
  541MPD2    C3 8028   2.495   0.610  13.519  0.2647  0.7966  0.6071
  541MPD2    C4 8029   2.557   0.688  13.616 -0.0981 -0.3485 -0.2472
  541MPD2    C5 8030   2.516   0.676  13.745  0.2218 -0.6406  0.5016
  541MPD2     H 8031   2.345   0.466  13.476  0.7279  0.7186 -0.8075
  541MPD2    H1 8032   2.636   0.754  13.582 -1.5968  0.9072 -1.3027
  541MPD2    H2 8033   2.392   0.574  13.889 -2.8261  0.6290 -1.2276
  541MPD2    H3 8034   2.547   0.741  13.826  0.4969 -1.6454  1.2019
  541MPD2     N 8035   2.536   0.615  13.379 -0.0058 -0.4699 -0.2586
  541MPD2    H5 8036   2.597   0.696  13.371  2.4903 -2.2703  0.3357
  541MPD2    N1 8037   2.251   0.423  13.730 -0.0103  0.4506 -0.1395
  541MPD2    H7 8038   2.237   0.420  13.831  0.0338 -0.3579 -0.1553
  542TMC3    C1 8039   2.519   0.598  13.151  0.1529 -0.3103  0.4081
  542TMC3    C2 8040   2.462   0.549  13.036  0.1500 -0.1160  0.4332
  542TMC3    C3 8041   2.483   0.609  12.917  0.2394 -0.2589  0.4879
  542TMC3    C4 8042   2.609   0.699  13.141  0.4278 -0.1333  0.0385
  542TMC3    C5 8043   2.630   0.770  13.018 -0.1600 -0.0833 -0.3452
  542TMC3    C6 8044   2.570   0.719  12.909 -0.4426 -0.2185  0.3077
  542TMC3     C 8045   2.489   0.543  13.273 -0.5825 -0.7915 -0.1844
  542TMC3     O 8046   2.419   0.440  13.269  0.3544  0.3484 -0.1264
  542TMC3     H 8047   2.385   0.473  13.047 -0.0880 -0.2882 -2.2979
  542TMC3    H1 8048   2.678   0.717  13.223 -1.4682  1.0124  1.3648
  542TMC3    H2 8049   2.583   0.764  12.812  2.5894 -2.5564 -0.3794
  542TMC3    C7 8050   2.719   0.884  13.007 -0.3500  0.2654  0.3492
  542TMC3    C8 8051   2.454   0.547  12.791  0.1565 -1.1832 -0.0989
  542TMC3    O1 8052   2.730   0.938  12.900  0.1617 -0.1457  0.1348
  542TMC3    O2 8053   2.538   0.563  12.704  0.1307 -0.4892 -0.5211
  543TMC3    C1 8054   2.266   2.124  17.069  0.2613  0.0833  0.3609
  543TMC3    C2 8055   2.256   2.008  17.137 -0.1065  0.3481 -0.1666
  543TMC3    C3 8056   2.142   1.997  17.216  0.3695  0.2251  0.7221
  543TMC3    C4 8057   2.167   2.221  17.066 -0.2505  0.1199  0.0410
  543TMC3    C5 8058   2.049   2.193  17.126  0.3765 -0.4730 -0.2792
  543TMC3    C6 8059   2.031   2.075  17.200 -0.1064  0.8045  0.4425
  543TMC3     C 8060   2.336   2.113  16.941 -0.1648  0.1769 -0.2273
  543TMC3     O 8061   2.421   2.025  16.933  0.0914  0.2370 -0.2657
  543TMC3     H 8062   2.341   1.942  17.150 -0.8396 -0.8681 -1.4453
  543TMC3    H1 8063   2.188   2.317  17.021 -0.7597  0.4364  0.4749
  543TMC3    H2 8064   1.935   2.055  17.246  0.3594 -0.9191  0.6567
  543TMC3    C7 8065   1.940   2.282  17.091 -0.8036  0.5525  0.7784
  543TMC3    C8 8066   2.141   1.879  17.304 -0.0285 -0.6346 -0.6390
  543TMC3    O1 8067   1.971   2.393  17.048 -0.7397 -0.1072 -0.2362
  543TMC3    O2 8068   2.223   1.790  17.283 -0.2113  0.4243  0.0326
  544MPD2     C 8069   2.009   1.653   0.032 -0.5021  0.1897 -0.1090
  544MPD2    C1 8070   2.093   1.611  17.632  0.6408 -0.3422 -0.2591
  544MPD2    C2 8071   2.105   1.688  17.522  0.2502  0.5927 -0.1697
  544MPD2    C3 8072   2.036   1.814  17.516  0.3276  0.3481  0.1864
  544MPD2    C4 8073   1.934   1.841  17.604  0.1965 -0.2122  0.0191
  544MPD2    C5 8074   1.924   1.764   0.021 -0.3022 -0.3442 -0.7562
  544MPD2     H 8075   2.178   1.653  17.450  0.8921  2.1668 -0.2872
  544MPD2    H1 8076   1.864   1.923  17.595  0.2327 -0.0123  1.6536
  544MPD2    H2 8077   1.994   1.600   0.126 -3.4448 -0.7113 -1.0912
  544MPD2    H3 8078   1.858   1.781   0.106 -0.4473 -0.7478 -0.7904
  544MPD2     N 8079   2.051   1.899  17.405  0.1920  0.4652  0.0556
  544MPD2    H5 8080   1.998   1.986  17.404 -0.0898  0.3161  2.4584
  544MPD2    N1 8081   2.146   1.483  17.645  0.2055 -0.1398 -0.2673
  544MPD2    H7 8082   2.088   1.418  17.698  0.2314 -0.8477 -1.1006
  545TMC3    C1 8083   2.283   1.287  17.602 -0.2947  0.6758 -0.5980
  545TMC3    C2 8084   2.354   1.223  17.507  0.4790  0.9922 -0.5607
  545TMC3    C3 8085   2.373   1.090  17.527  0.4122 -0.1803  0.9542
  545TMC3    C4 8086   2.228   1.228   0.016  0.3416 -0.4018 -0.3544
  545TMC3    C5 8087   2.248   1.094   0.027  0.6029 -0.1305  0.0717
  545TMC3    C6 8088   2.321   1.023  17.633 -0.0090  0.3674  0.3585
  545TMC3     C 8089   2.253   1.425  17.576 -0.1431 -0.4131 -0.7689
  545TMC3     O 8090   2.313   1.484  17.487  0.0054 -0.3935  0.0846
  545TMC3     H 8091   2.397   1.267  17.417  0.3707  2.6919  0.2131
  545TMC3    H1 8092   2.176   1.287   0.090  2.6758  0.0535  0.9341
  545TMC3    H2 8093   2.324   0.916  17.649  0.3215  0.5063  1.1978
  545TMC3    C7 8094   2.196   1.028   0.146  0.2222  0.3291  0.1610
  545TMC3    C8 8095   2.431   1.024  17.411  0.3151  0.3283  0.8396
  545TMC3    O1 8096   2.137   1.105   0.221 -0.0479  0.1135 -0.5877
  545TMC3    O2 8097   2.451   1.085  17.313  0.4706  0.1882  0.4400
  546MPD2     C 8098   3.543   1.444  17.552  0.7203  0.4877 -0.2972
  546MPD2    C1 8099   3.468   1.501  17.445  0.7137  0.9412  0.0950
  546MPD2    C2 8100   3.506   1.628  17.399 -0.4145 -0.9663  0.2044
  546MPD2    C3 8101   3.618   1.688  17.449  0.1329  0.1217 -0.5099
  546MPD2    C4 8102   3.699   1.627  17.541 -0.1845 -0.1111  0.4879
  546MPD2    C5 8103   3.661   1.506  17.592 -0.7358  0.2104  0.1184
  546MPD2     H 8104   3.450   1.674  17.318  1.0299  0.9266  0.2824
  546MPD2    H1 8105   3.793   1.664  17.578  0.5186 -0.7315 -0.6976
  546MPD2    H2 8106   3.521   1.354  17.608 -1.5273 -0.2111 -2.2766
  546MPD2    H3 8107   3.723   1.463  17.671  2.3302  1.8942 -1.3544
  546MPD2     N 8108   3.662   1.822  17.415 -1.2618 -0.8735  0.4220
  546MPD2    H5 8109   3.743   1.859  17.464 -0.6831  0.3110 -1.4628
  546MPD2    N1 8110   3.356   1.429  17.399 -0.0822  0.4245 -0.2118
  546MPD2    H7 8111   3.348   1.337  17.442  0.8992 -0.5559 -2.1377
  547TMC3    C1 8112   3.158   1.372  17.278  0.4907  0.1232  0.4122
  547TMC3    C2 8113   3.081   1.398  17.171  0.3399 -0.4559  0.0882
  547TMC3    C3 8114   3.003   1.297  17.122 -0.0315  0.3865  0.8126
  547TMC3    C4 8115   3.153   1.250  17.345 -0.0080  0.5235 -0.5875
  547TMC3    C5 8116   3.074   1.153  17.299 -0.0206 -0.1556 -0.8941
  547TMC3    C6 8117   2.999   1.172  17.184  0.0937  0.2320  0.3912
  547TMC3     C 8118   3.261   1.467  17.304  0.8277 -0.1545  0.1746
  547TMC3     O 8119   3.261   1.573  17.242 -0.0228 -0.3450 -0.2821
  547TMC3     H 8120   3.075   1.492  17.117 -2.6269 -2.0032 -2.2777
  547TMC3    H1 8121   3.213   1.219  17.430 -3.4536 -1.0901  1.2820
  547TMC3    H2 8122   2.923   1.098  17.161  0.3475  0.8616 -2.4935
  547TMC3    C7 8123   3.067   1.034  17.388  1.3848 -1.0509 -0.0027
  547TMC3    C8 8124   2.938   1.320  16.990  0.0789  0.2773  0.3235
  547TMC3    O1 8125   3.137   1.027  17.489  0.0128  0.2149  0.1453
  547TMC3    O2 8126   2.955   1.430  16.938  0.0684 -0.2979 -0.0399
  548MPD2     C 8127   3.201   2.463  11.942  0.4023 -0.0354 -0.3058
  548MPD2    C1 8128   3.188   2.356  12.031 -0.3187 -0.3450  0.5305
  548MPD2    C2 8129   3.305   2.300  12.081  0.4599  0.0595  0.3621
  548MPD2    C3 8130   3.426   2.348  12.045 -0.5290  0.2013 -0.1951
  548MPD2    C4 8131   3.439   2.444  11.950  0.6116  0.4295 -0.8221
  548MPD2    C5 8132   3.320   2.504  11.902 -0.1902  0.1133 -0.1913
  548MPD2     H 8133   3.295   2.235  12.167 -0.3665 -0.2280  0.0507
  548MPD2    H1 8134   3.537   2.480  11.922  0.9264 -0.4648 -0.8508
  548MPD2    H2 8135   3.112   2.520  11.916  0.5899  0.9388  1.1698
  548MPD2    H3 8136   3.321   2.593  11.840 -0.1229 -0.1460 -0.5666
  548MPD2     N 8137   3.532   2.304  12.122  0.1701  0.2605 -0.2229
  548MPD2    H5 8138   3.514   2.240  12.198  1.2239  1.3391  0.9271
  548MPD2    N1 8139   3.066   2.337  12.100 -0.3035 -0.0041  0.2085
  548MPD2    H7 8140   2.995   2.408  12.082  1.6899  1.9358 -0.0124
  549TMC3    C1 8141   2.926   2.264  12.264  0.2639 -0.2024 -0.0150
  549TMC3    C2 8142   2.882   2.386  12.276  0.0248  0.6947  0.3987
  549TMC3    C3 8143   2.761   2.406  12.334 -0.4861  0.1320 -0.3908
  549TMC3    C4 8144   2.865   2.154  12.312 -0.1466  0.1337 -0.7788
  549TMC3    C5 8145   2.744   2.171  12.370  0.2987  0.3528 -0.4181
  549TMC3    C6 8146   2.697   2.296  12.381 -0.6254  0.2067 -0.8096
  549TMC3     C 8147   3.042   2.238  12.184 -0.5077 -0.0917 -0.5769
  549TMC3     O 8148   3.094   2.127  12.189  0.6626  0.4970  0.3008
  549TMC3     H 8149   2.949   2.471  12.268  0.7047  0.3511  2.4298
  549TMC3    H1 8150   2.902   2.054  12.291  4.4874  2.5862 -3.9321
  549TMC3    H2 8151   2.598   2.299  12.426  0.5278  1.4329  1.6009
  549TMC3    C7 8152   2.683   2.090  12.477  0.1800 -0.0947 -0.2854
  549TMC3    C8 8153   2.704   2.536  12.370 -0.4202  0.0214  0.1550
  549TMC3    O1 8154   2.646   2.145  12.586  0.0262 -0.0114  0.3014
  549TMC3    O2 8155   2.583   2.535  12.385  0.2389 -0.4424 -0.3879
  550TMC3    C1 8156   1.429   4.432  12.612  0.0208 -0.5428  0.3321
  550TMC3    C2 8157   1.344   4.475  12.711 -0.2268 -0.0714  0.0199
  550TMC3    C3 8158   1.224   4.539  12.685  0.6191 -0.1924 -0.1604
  550TMC3    C4 8159   1.390   4.450  12.479  0.6611  0.2440  0.0198
  550TMC3    C5 8160   1.281   4.527  12.451 -0.6395  0.1958 -0.4356
  550TMC3    C6 8161   1.195   4.567  12.550  0.1385  0.5126  0.0559
  550TMC3     C 8162   1.556   4.370  12.654  0.2043  0.8220  0.2363
  550TMC3     O 8163   1.548   4.307  12.757  0.4594  0.5392 -0.3802
  550TMC3     H 8164   1.391   4.476  12.808  1.2708  0.5018 -0.7236
  550TMC3    H1 8165   1.458   4.405  12.407  0.8036 -0.5898  0.6842
  550TMC3    H2 8166   1.099   4.611  12.526 -0.3578 -0.3308  0.4539
  550TMC3    C7 8167   1.257   4.586  12.319 -0.4556  0.5206 -0.2463
  550TMC3    C8 8168   1.175   4.646  12.776 -0.5677 -0.0616  0.0027
  550TMC3    O1 8169   1.139   4.610  12.293  0.0979  0.2003 -0.1361
  550TMC3    O2 8170   1.127   0.018  12.722  0.1132  0.4397 -0.0533
  551TMC3    C1 8171   4.484   2.960  13.408 -0.3282  0.4295  0.2906
  551TMC3    C2 8172   4.604   3.007  13.359  0.2505 -0.6577 -0.2492
  551TMC3    C3 8173   4.666   3.103  13.431  0.6101 -0.1244 -0.1672
  551TMC3    C4 8174   4.425   3.007  13.516 -0.5982  0.1307  0.2264
  551TMC3    C5 8175   4.490   3.107  13.577 -0.0758 -0.4680  0.4082
  551TMC3    C6 8176   4.599   3.169  13.534 -0.3928  0.2037  0.0803
  551TMC3     C 8177   4.390   2.914  13.310 -1.0441 -0.0840  0.4511
  551TMC3     O 8178   4.297   2.848  13.354  0.2022  0.1478 -0.2591
  551TMC3     H 8179   4.646   2.957  13.271  1.0416 -0.2505 -0.1007
  551TMC3    H1 8180   4.338   2.954  13.553 -1.5274  0.7933 -0.9749
  551TMC3    H2 8181   4.657   3.240  13.593 -1.4765  0.4886  0.8084
  551TMC3    C7 8182   4.428   3.161  13.700 -0.4618 -0.2992 -0.4106
  551TMC3    C8 8183   0.029   3.179  13.346  0.6133  0.0441 -0.1326
  551TMC3    O1 8184   4.385   3.084  13.787  0.5045  0.3520 -0.1256
  551TMC3    O2 8185   0.020   3.301  13.341 -0.0717 -0.7897  0.2054
  552MPD2     C 8186   1.592   0.206  14.036 -0.4056 -0.4914 -0.0974
  552MPD2    C1 8187   1.580   0.084  14.090 -0.5295 -0.2774 -0.2615
  552MPD2    C2 8188   1.685   0.032  14.172 -0.1558  0.3817  0.1898
  552MPD2    C3 8189   1.806   0.097  14.184 -0.0703  0.2029 -0.1623
  552MPD2    C4 8190   1.810   0.222  14.137 -0.1788  0.1177 -0.4629
  552MPD2    C5 8191   1.706   0.273  14.068  0.8104 -0.4951 -0.2279
  552MPD2     H 8192   1.673   4.659  14.219  2.1196  0.2336  0.4285
  552MPD2    H1 8193   1.895   0.288  14.145 -0.2707  0.1484  0.2384
  552MPD2    H2 8194   1.517   0.261  13.980  0.3456  0.1790 -0.4452
  552MPD2    H3 8195   1.699   0.377  14.038  0.2024 -0.6686 -0.6856
  552MPD2     N 8196   1.916   0.038  14.248  0.0494 -0.7457  0.2642
  552MPD2    H5 8197   1.995   0.100  14.255 -0.0301 -0.5162 -0.8678
  552MPD2    N1 8198   1.474   0.003  14.057 -0.3119  0.3350 -0.6233
  552MPD2    H7 8199   1.470   4.638  14.106  1.0044  0.3511 -0.4837
  553TMC3    C1 8200   1.266   4.654  13.984 -0.0778 -0.2751 -0.2623
  553TMC3    C2 8201   1.143   4.668  13.918 -1.0860  0.0071  0.3764
  553TMC3    C3 8202   1.057   4.562  13.928 -0.2085 -0.4828  0.1582
  553TMC3    C4 8203   1.309   4.525  14.017 -0.0093  0.7996  0.7901
  553TMC3    C5 8204   1.226   4.416  14.003 -1.1739  0.2975 -0.8054
  553TMC3    C6 8205   1.094   4.443  13.976  0.2462 -0.1034  0.2844
  553TMC3     C 8206   1.369   0.039  13.974 -0.0334  0.5474 -0.1735
  553TMC3     O 8207   1.348   0.143  13.916 -0.5281 -0.5837  0.2662
  553TMC3     H 8208   1.113   0.038  13.874  2.3158  0.9114 -0.0098
  553TMC3    H1 8209   1.413   4.499  14.004 -0.4406 -0.3082 -0.4090
  553TMC3    H2 8210   1.018   4.366  13.968  0.4673 -0.5722  2.8763
  553TMC3    C7 8211   1.273   4.304  13.926 -0.5540  0.0766 -1.0696
  553TMC3    C8 8212   0.965   4.557  13.811  0.0768 -0.9750 -0.1268
  553TMC3    O1 8213   1.208   4.285  13.825  0.1194 -0.6601 -0.5038
  553TMC3    O2 8214   0.909   4.663  13.782  0.7602 -0.4809  0.6815
  554TMC3    C1 8215   3.802   4.062  11.700 -0.0468  0.0763  0.5650
  554TMC3    C2 8216   3.765   3.990  11.588 -0.3729  0.1830  0.2639
  554TMC3    C3 8217   3.795   4.049  11.462  0.1955 -0.1585  0.4155
  554TMC3    C4 8218   3.876   4.177  11.694  0.7529  0.0954  0.6072
  554TMC3    C5 8219   3.898   4.229  11.570  0.3607  0.4970  0.6111
  554TMC3    C6 8220   3.864   4.170  11.455  0.0457  0.0378  0.1829
  554TMC3     C 8221   3.808   3.988  11.829  0.1022 -0.4099  0.0871
  554TMC3     O 8222   3.884   4.031  11.914  0.0090 -0.2923 -0.5865
  554TMC3     H 8223   3.738   3.886  11.601 -1.7154  0.4952  0.0149
  554TMC3    H1 8224   3.893   4.235  11.784  0.1087  1.4894 -0.1718
  554TMC3    H2 8225   3.869   4.226  11.362  1.6668  0.9521  0.8183
  554TMC3    C7 8226   3.955   4.358  11.551  0.1148  0.1313 -0.1072
  554TMC3    C8 8227   3.714   4.011  11.347  0.5346 -0.0218  0.1378
  554TMC3    O1 8228   4.041   4.360  11.461 -0.4685 -0.2129  0.1757
  554TMC3    O2 8229   3.736   4.068  11.241  0.2950 -0.4420 -0.0288
  555TMC3    C1 8230   2.364   3.125  15.070 -0.0739  0.1909 -0.3854
  555TMC3    C2 8231   2.275   3.210  15.134 -0.8646 -0.4731 -0.1842
  555TMC3    C3 8232   2.274   3.210  15.274 -0.4467 -0.3544 -0.3519
  555TMC3    C4 8233   2.425   3.026  15.139 -0.4500 -0.0680  0.1483
  555TMC3    C5 8234   2.398   3.017  15.270 -0.9683 -0.4814  0.4559
  555TMC3    C6 8235   2.329   3.109  15.345  0.2080 -0.3859  0.2273
  555TMC3     C 8236   2.405   3.150  14.934 -0.3253  0.5103 -0.0037
  555TMC3     O 8237   2.510   3.099  14.901 -0.4191  0.3509  0.4635
  555TMC3     H 8238   2.231   3.295  15.084  1.1499 -0.1480 -1.4026
  555TMC3    H1 8239   2.484   2.950  15.089 -2.1895 -1.8775  0.8536
  555TMC3    H2 8240   2.337   3.096  15.453  1.2517  0.4015  0.2528
  555TMC3    C7 8241   2.411   2.890  15.336  0.4143  0.6630 -0.6800
  555TMC3    C8 8242   2.255   3.334  15.336  0.5265 -0.6214 -0.2412
  555TMC3    O1 8243   2.420   2.895  15.458  0.6862  0.1982  0.3597
  555TMC3    O2 8244   2.223   3.423  15.262  0.3620  0.3530  0.0857
  556MPD2     C 8245   0.319   4.604  10.744  0.0756  0.6731 -0.7755
  556MPD2    C1 8246   0.420   4.573  10.837 -1.2684 -0.0357  0.2519
  556MPD2    C2 8247   0.536   4.511  10.789  0.3185 -0.1400 -0.1364
  556MPD2    C3 8248   0.553   4.485  10.654 -0.2049  0.2884  1.0075
  556MPD2    C4 8249   0.446   4.509  10.566 -0.1679 -0.7311  0.5326
  556MPD2    C5 8250   0.334   4.572  10.609 -0.1541 -0.1820  0.4933
  556MPD2     H 8251   0.617   4.489  10.857  0.1821 -0.9617 -0.2484
  556MPD2    H1 8252   0.465   4.490  10.461  0.6337  2.7200  0.0435
  556MPD2    H2 8253   0.229   4.658  10.772  1.7815  2.4768  1.2261
  556MPD2    H3 8254   0.259   4.602  10.537  0.4703  1.1666  0.4044
  556MPD2     N 8255   0.679   4.433  10.610 -0.2635  0.6210  0.6045
  556MPD2    H5 8256   0.733   4.381  10.678  0.6431 -0.9326 -1.2941
  556MPD2    N1 8257   0.421   4.605  10.970  0.1514  0.3399 -0.5654
  556MPD2    H7 8258   0.506   4.597  11.025  0.0752 -1.2309 -0.6911
  557TMC3    C1 8259   0.837   4.362  10.432  0.2785 -0.1179 -0.0154
  557TMC3    C2 8260   0.875   4.394  10.300  0.6030  0.0805 -0.4282
  557TMC3    C3 8261   0.915   4.295  10.216 -0.4450  0.3709  0.0647
  557TMC3    C4 8262   0.817   4.230  10.467 -0.5964 -0.1709  0.4011
  557TMC3    C5 8263   0.854   4.133  10.372  0.3946  0.0418  0.4062
  557TMC3    C6 8264   0.910   4.163  10.248  0.8166 -0.6335 -0.3817
  557TMC3     C 8265   0.728   4.449  10.478 -0.1642  1.0442 -0.6162
  557TMC3     O 8266   0.685   4.534  10.399 -0.3516 -1.0671 -0.6526
  557TMC3     H 8267   0.893   4.495  10.264  3.1236 -0.3063 -0.2589
  557TMC3    H1 8268   0.815   4.197  10.570 -2.6532  0.2907  0.5166
  557TMC3    H2 8269   0.963   4.083  10.198  0.4333 -2.4033  2.0663
  557TMC3    C7 8270   0.740   4.052  10.358 -0.2788 -0.3640  0.3081
  557TMC3    C8 8271   0.953   4.327  10.082  0.5577  0.8435 -0.2854
  557TMC3    O1 8272   0.719   4.035  10.240  0.2177  0.4272 -0.1539
  557TMC3    O2 8273   1.010   4.434  10.067 -0.1790  0.3950  0.0976
  558TMC3    C1 8274   3.463   3.302  10.123  0.0842  0.6223 -0.4386
  558TMC3    C2 8275   3.357   3.250  10.199  0.3182 -0.4814 -0.5878
  558TMC3    C3 8276   3.236   3.312  10.193  0.2051  0.3283  0.5644
  558TMC3    C4 8277   3.442   3.400  10.036 -0.1589 -0.1030  0.2678
  558TMC3    C5 8278   3.321   3.455  10.019 -0.0423  0.7125 -0.5891
  558TMC3    C6 8279   3.226   3.417  10.103  0.4618  0.1732  0.2027
  558TMC3     C 8280   3.602   3.256  10.131  0.6694  0.3200  0.3207
  558TMC3     O 8281   3.701   3.324  10.121  0.7030 -0.3710  0.2402
  558TMC3     H 8282   3.377   3.174  10.274 -0.3799 -0.5852 -0.5071
  558TMC3    H1 8283   3.527   3.418   9.970  0.2658 -1.7288  0.3709
  558TMC3    H2 8284   3.137   3.479  10.101  0.7472  0.5910  0.5177
  558TMC3    C7 8285   3.283   3.453   9.888  0.1239 -0.1688  0.0674
  558TMC3    C8 8286   3.126   3.224  10.172 -1.1728 -0.8183 -0.4262
  558TMC3    O1 8287   3.362   3.500   9.814 -0.1329 -0.0996 -0.3508
  558TMC3    O2 8288   3.054   3.250  10.075  0.2619 -0.5659  0.1715
  559MPD2     C 8289   3.095   3.516  10.619 -0.8092 -0.5052 -0.2680
  559MPD2    C1 8290   3.059   3.426  10.721  0.1109 -0.0685  0.1346
  559MPD2    C2 8291   3.148   3.399  10.815 -0.1224  0.4561  0.7109
  559MPD2    C3 8292   3.269   3.464  10.818 -0.3215 -0.4257  0.2586
  559MPD2    C4 8293   3.306   3.550  10.721 -0.2551  1.0177 -0.1217
  559MPD2    C5 8294   3.212   3.584  10.629  0.4322 -0.8894 -0.3447
  559MPD2     H 8295   3.125   3.333  10.898  0.6787 -0.4532  0.1918
  559MPD2    H1 8296   3.406   3.593  10.715  0.5265 -0.8964 -0.7902
  559MPD2    H2 8297   3.041   3.542  10.529 -1.9565  0.4482  0.7063
  559MPD2    H3 8298   3.246   3.645  10.546 -2.8489  1.9912  0.4423
  559MPD2     N 8299   3.359   3.425  10.922  0.1680  0.5594 -0.7976
  559MPD2    H5 8300   3.308   3.366  10.987 -1.0204  0.9115 -1.4141
  559MPD2    N1 8301   2.930   3.359  10.729  0.2970  0.0226 -0.7097
  559MPD2    H7 8302   2.914   3.292  10.803 -3.3407 -0.5329 -2.0043
  560TMC3    C1 8303   3.542   3.383  11.044 -0.1170  0.1419  0.6700
  560TMC3    C2 8304   3.499   3.255  11.044  0.5794 -0.2721  0.2500
  560TMC3    C3 8305   3.518   3.186  11.157 -0.9140 -0.2651 -0.6199
  560TMC3    C4 8306   3.595   3.447  11.154  1.1749 -0.4405  0.2539
  560TMC3    C5 8307   3.610   3.375  11.266 -0.2439  0.2528 -0.3444
  560TMC3    C6 8308   3.570   3.241  11.276  0.8815 -0.2691 -0.6142
  560TMC3     C 8309   3.490   3.464  10.945  0.2626 -0.2694 -0.5976
  560TMC3     O 8310   3.547   3.567  10.899  0.1654  0.3473  0.3503
  560TMC3     H 8311   3.478   3.212  10.947 -0.6418  0.9729 -0.0425
  560TMC3    H1 8312   3.606   3.555  11.148 -1.0097 -0.1700  1.0778
  560TMC3    H2 8313   3.583   3.192  11.372  1.3652 -0.5622 -0.8302
  560TMC3    C7 8314   3.683   3.423  11.385  0.1069 -0.6419  0.9965
  560TMC3    C8 8315   3.474   3.048  11.154 -0.3933  0.4771  0.4840
  560TMC3    O1 8316   3.682   3.361  11.489 -0.0486  0.0055  0.2860
  560TMC3    O2 8317   3.429   3.020  11.040 -0.1946  0.5008 -0.4253
  561TMC3    C1 8318   0.891   2.364  11.218 -0.0791  0.1402  0.1108
  561TMC3    C2 8319   0.877   2.316  11.342 -0.7625 -1.0155 -1.1364
  561TMC3    C3 8320   0.868   2.409  11.448  0.3948  0.2307  1.1637
  561TMC3    C4 8321   0.897   2.499  11.191 -0.5270  0.1783 -1.0110
  561TMC3    C5 8322   0.889   2.582  11.298  0.0850 -0.6004 -1.0522
  561TMC3    C6 8323   0.870   2.543  11.429 -0.5581 -0.0267  0.9308
  561TMC3     C 8324   0.924   2.274  11.111  1.0988 -0.3654 -0.4482
  561TMC3     O 8325   0.904   2.317  10.999 -0.1049  0.2145  0.4241
  561TMC3     H 8326   0.864   2.214  11.376  0.7394 -1.2894 -1.3566
  561TMC3    H1 8327   0.883   2.533  11.089  1.9670  0.3006 -1.3281
  561TMC3    H2 8328   0.887   2.624  11.498  1.0625  2.6625 -2.6092
  561TMC3    C7 8329   0.936   2.718  11.274  0.3979 -0.5463  0.4704
  561TMC3    C8 8330   0.855   2.361  11.587  0.2267  0.6428 -0.4291
  561TMC3    O1 8331   0.896   2.811  11.340  0.4682 -0.1456  0.1458
  561TMC3    O2 8332   0.894   2.247  11.611 -0.2180  0.5226 -0.0518
  562TMC3    C1 8333   2.113   3.963  16.420  0.1619  0.5501 -0.1470
  562TMC3    C2 8334   2.071   4.079  16.355 -0.0629 -0.3711 -0.2293
  562TMC3    C3 8335   2.029   4.072  16.225 -0.8333 -0.9256 -0.2904
  562TMC3    C4 8336   2.128   3.846  16.346  0.4685  0.5118 -0.3852
  562TMC3    C5 8337   2.061   3.834  16.235 -0.1987  1.2400  0.1435
  562TMC3    C6 8338   2.012   3.948  16.173  0.1557  0.3022 -0.5181
  562TMC3     C 8339   2.183   3.969  16.548 -0.1247  0.2093  0.6598
  562TMC3     O 8340   2.275   3.894  16.570 -0.2194  0.4364 -0.2335
  562TMC3     H 8341   2.088   4.174  16.405  0.5067 -0.0723 -0.9860
  562TMC3    H1 8342   2.193   3.769  16.387  1.3581  0.3291 -2.0910
  562TMC3    H2 8343   1.967   3.931  16.076 -1.7966  0.9934  0.2662
  562TMC3    C7 8344   2.064   3.716  16.152 -0.2940  0.0516  0.6715
  562TMC3    C8 8345   1.967   4.190  16.161  0.1898  0.5297 -0.1988
  562TMC3    O1 8346   2.019   3.730  16.039  0.0619  0.6042 -0.0377
  562TMC3    O2 8347   1.959   4.292  16.228 -0.8245 -0.3747  0.2848
  563MPD2     C 8348   4.107   4.383  16.017 -0.0645 -0.0057 -0.4885
  563MPD2    C1 8349   4.139   4.422  16.147  0.2083  0.1894 -0.2255
  563MPD2    C2 8350   4.192   4.548  16.158  0.3098  0.1705  0.7796
  563MPD2    C3 8351   4.228   4.627  16.056  0.3063  0.2567  0.0278
  563MPD2    C4 8352   4.185   4.587  15.929 -0.6651 -1.2002  0.2103
  563MPD2    C5 8353   4.124   4.466  15.911  0.3368 -0.2432 -0.4695
  563MPD2     H 8354   4.224   4.570  16.260  1.9075  0.7421  0.1518
  563MPD2    H1 8355   4.223   4.625  15.835  0.6418 -4.0420 -0.4147
  563MPD2    H2 8356   4.049   4.294  15.994 -0.9523  0.3203  0.5039
  563MPD2    H3 8357   4.084   4.437  15.815 -2.0921 -1.4122  0.8906
  563MPD2     N 8358   4.307   0.021  16.078  0.0702  0.2788 -0.4294
  563MPD2    H5 8359   4.328   0.047  16.174 -1.3310  0.2479 -0.1183
  563MPD2    N1 8360   4.127   4.327  16.248  0.5840 -0.1257  0.3756
  563MPD2    H7 8361   4.087   4.240  16.215 -0.9675  1.4044 -1.7717
  564TMC3    C1 8362   4.118   4.210  16.452 -1.0026  0.3717 -0.4227
  564TMC3    C2 8363   4.089   4.214  16.585 -0.2534 -0.4889 -0.1622
  564TMC3    C3 8364   4.068   4.097  16.658 -0.1601  0.1700 -0.0773
  564TMC3    C4 8365   4.129   4.092  16.383  0.7064 -0.9602 -0.2401
  564TMC3    C5 8366   4.116   3.980  16.457  0.3326  0.4000  0.2808
  564TMC3    C6 8367   4.068   3.977  16.587  0.9506 -0.2836  0.1108
  564TMC3     C 8368   4.156   4.338  16.377  0.3828 -0.3025  0.5395
  564TMC3     O 8369   4.180   4.442  16.435  0.1800 -0.1560  0.3166
  564TMC3     H 8370   4.079   4.310  16.636 -1.5120 -0.3963 -0.5706
  564TMC3    H1 8371   4.154   4.085  16.278 -1.6623 -1.5077 -0.7847
  564TMC3    H2 8372   4.064   3.881  16.636 -1.6874  0.3814  1.2120
  564TMC3    C7 8373   4.196   3.865  16.424  0.4091  0.1709 -0.0863
  564TMC3    C8 8374   4.039   4.109  16.797  0.7187 -0.0065 -0.1651
  564TMC3    O1 8375   4.255   3.817  16.520  0.3326  0.4976  0.0643
  564TMC3    O2 8376   4.103   4.196  16.856 -0.2913  0.0808  0.3644
  565TMC3    C1 8377   4.550   1.728   9.976  0.1118  0.1129  0.1740
  565TMC3    C2 8378   4.576   1.610  10.045  0.2987 -0.0271  0.1491
  565TMC3    C3 8379   4.467   1.542  10.091 -0.8961  0.4006 -0.2305
  565TMC3    C4 8380   4.428   1.786   9.969 -0.0933  0.8161 -0.0958
  565TMC3    C5 8381   4.317   1.711  10.011  0.0212  0.3217 -0.1991
  565TMC3    C6 8382   4.344   1.593  10.071  0.0669  0.3250 -0.0458
  565TMC3     C 8383   4.657   1.826   9.964 -0.6770 -0.2523 -0.0072
  565TMC3     O 8384   4.634   1.942   9.929 -0.1758  0.0047 -0.9185
  565TMC3     H 8385   4.674   1.563  10.055 -0.3073 -1.2538  0.2886
  565TMC3    H1 8386   4.409   1.880   9.919 -0.3049  0.1660 -1.2409
  565TMC3    H2 8387   4.279   1.507  10.058 -0.0407 -0.0305  2.9470
  565TMC3    C7 8388   4.191   1.737   9.955 -0.6231 -0.1625 -0.3126
  565TMC3    C8 8389   4.498   1.432  10.179 -0.8898 -0.8066 -0.3909
  565TMC3    O1 8390   4.188   1.782   9.842 -0.0565 -0.2923 -0.5899
  565TMC3    O2 8391   4.601   1.371  10.168 -0.2240 -0.3068  0.4302
  566MPD2     C 8392   1.669   2.710  14.301  0.1050  0.1870 -0.0758
  566MPD2    C1 8393   1.769   2.780  14.247 -0.1447 -0.3207 -0.0208
  566MPD2    C2 8394   1.738   2.848  14.126  0.0793 -0.4268 -0.6213
  566MPD2    C3 8395   1.611   2.836  14.061 -0.2807  0.0224 -0.0237
  566MPD2    C4 8396   1.521   2.756  14.126  0.2262  0.3608 -0.1274
  566MPD2    C5 8397   1.542   2.693  14.250 -0.3099 -0.6536  0.1072
  566MPD2     H 8398   1.805   2.925  14.089 -1.3859  1.6781  1.1024
  566MPD2    H1 8399   1.419   2.747  14.089  0.5388 -1.5278 -0.4959
  566MPD2    H2 8400   1.692   2.668  14.399  0.4621  0.4785 -0.0362
  566MPD2    H3 8401   1.470   2.626  14.296 -0.4702  0.2759  1.2131
  566MPD2     N 8402   1.568   2.905  13.945 -0.6313  0.0409 -0.1015
  566MPD2    H5 8403   1.467   2.913  13.938 -0.7375 -3.2113 -2.0937
  566MPD2    N1 8404   1.893   2.780  14.310 -0.1838  0.1579  0.1220
  566MPD2    H7 8405   1.898   2.748  14.406  0.1007 -0.3398 -0.0519
  567TMC3    C1 8406   2.128   2.791  14.323  0.3354 -0.7062 -0.4324
  567TMC3    C2 8407   2.246   2.815  14.247 -0.0127  0.1130  0.1451
  567TMC3    C3 8408   2.354   2.847  14.322  0.1003  0.0892  0.5380
  567TMC3    C4 8409   2.112   2.805  14.460  0.9931  0.3666 -0.1426
  567TMC3    C5 8410   2.226   2.842  14.521 -0.8554  0.9527 -0.4308
  567TMC3    C6 8411   2.341   2.860  14.462  0.3850 -0.4010  0.6710
  567TMC3     C 8412   2.005   2.805  14.243  0.1569 -0.3625 -0.8124
  567TMC3     O 8413   2.017   2.836  14.126 -0.5638  0.1186  0.3891
  567TMC3     H 8414   2.244   2.811  14.139  3.1100 -0.1916  0.1079
  567TMC3    H1 8415   2.022   2.786  14.518  2.5684  1.8824  2.7913
  567TMC3    H2 8416   2.422   2.901  14.521 -1.0260  1.8001  1.0866
  567TMC3    C7 8417   2.226   2.839  14.662  0.2359 -0.0781  0.3872
  567TMC3    C8 8418   2.444   2.945  14.253  0.1358 -0.1107  0.8278
  567TMC3    O1 8419   2.330   2.803  14.715  0.3144  0.3633 -0.3807
  567TMC3    O2 8420   2.412   2.985  14.141 -0.4695 -0.4912  0.1696
  568MPD2     C 8421   4.519   3.542  17.597  0.2036  0.1576 -0.4577
  568MPD2    C1 8422   4.404   3.572  17.527  0.1994  0.7157  0.6591
  568MPD2    C2 8423   4.374   3.698  17.485 -0.4079  0.1357  0.2643
  568MPD2    C3 8424   4.451   3.807  17.527  0.0188 -0.9909 -1.4714
  568MPD2    C4 8425   4.567   3.781  17.598  0.1183 -0.5128 -0.2619
  568MPD2    C5 8426   4.600   3.647  17.622 -0.0508 -0.4945  0.3271
  568MPD2     H 8427   4.295   3.718  17.414 -1.2799 -0.0577  1.1906
  568MPD2    H1 8428   4.627   3.856  17.647 -0.8438  0.7843 -1.0754
  568MPD2    H2 8429   4.544   3.441  17.627 -0.4729 -0.0662 -0.6638
  568MPD2    H3 8430   4.692   3.620  17.674  0.3269  0.1253 -0.0229
  568MPD2     N 8431   4.397   3.938  17.511 -0.1837 -0.5815  0.0007
  568MPD2    H5 8432   4.307   3.934  17.464 -0.1707 -0.5076 -0.0293
  568MPD2    N1 8433   4.319   3.462  17.493 -0.4712 -0.1298  0.2569
  568MPD2    H7 8434   4.350   3.366  17.502 -3.0047 -0.8366  1.3848
  569TMC3    C1 8435   4.373   4.170  17.526 -0.3882 -0.0525  0.0404
  569TMC3    C2 8436   4.428   4.290  17.501 -0.5841 -0.0570 -0.3520
  569TMC3    C3 8437   4.361   4.387  17.440  0.6212 -0.2170 -0.4943
  569TMC3    C4 8438   4.239   4.154  17.502 -0.4220  0.3648 -0.4567
  569TMC3    C5 8439   4.170   4.248  17.437 -0.2330  0.8329 -0.0831
  569TMC3    C6 8440   4.230   4.362  17.406  0.6820  0.1222 -0.0586
  569TMC3     C 8441   4.460   4.053  17.533 -0.0976 -0.1350  0.1232
  569TMC3     O 8442   4.578   4.067  17.560  0.2355 -0.1705 -0.2669
  569TMC3     H 8443   4.535   4.297  17.513 -0.7884  1.2202  0.8243
  569TMC3    H1 8444   4.189   4.058  17.514 -0.3840  0.2700 -1.0844
  569TMC3    H2 8445   4.174   4.445  17.363  0.5116  0.6726  1.2405
  569TMC3    C7 8446   4.110   4.202  17.318 -0.0146 -0.1258  0.5550
  569TMC3    C8 8447   4.431   4.454  17.334  0.9252 -0.2165 -0.0974
  569TMC3    O1 8448   4.156   4.261  17.221  0.2063 -0.2391 -0.5744
  569TMC3    O2 8449   4.546   4.490  17.358  0.1342 -0.1440 -0.3426
  570TMC3    C1 8450   3.337   2.862  15.884  1.3281 -0.0701  0.0046
  570TMC3    C2 8451   3.374   2.898  15.757 -0.0535  0.1389  0.3450
  570TMC3    C3 8452   3.418   3.030  15.740 -0.5220 -0.1873  1.3120
  570TMC3    C4 8453   3.326   2.947  15.987 -0.3157 -0.6774 -0.0479
  570TMC3    C5 8454   3.375   3.071  15.965 -0.4456 -0.8218  0.6466
  570TMC3    C6 8455   3.414   3.123  15.841 -0.1316  0.0956  0.1982
  570TMC3     C 8456   3.247   2.752  15.881 -0.4209 -0.2716 -0.5086
  570TMC3     O 8457   3.190   2.728  15.776 -0.3717  0.0431  0.2977
  570TMC3     H 8458   3.364   2.825  15.678  0.0810  0.1685  0.3001
  570TMC3    H1 8459   3.265   2.919  16.072  0.5152 -1.9228  0.1363
  570TMC3    H2 8460   3.470   3.216  15.842  1.4602 -0.8477 -1.7917
  570TMC3    C7 8461   3.400   3.139  16.087  0.6954  0.1702 -0.7050
  570TMC3    C8 8462   3.526   3.057  15.645 -0.1225 -0.6131 -0.1673
  570TMC3    O1 8463   3.354   3.091  16.190  0.3725 -0.0892  0.1807
  570TMC3    O2 8464   3.596   3.157  15.665 -0.0389 -0.2686 -0.1647
  571MPD2     C 8465   1.507   4.218  17.632  0.1449  0.6360  0.7865
  571MPD2    C1 8466   1.415   4.275   0.018 -0.4028  0.5186  0.3565
  571MPD2    C2 8467   1.439   4.402   0.069  0.1201  0.1567  0.0065
  571MPD2    C3 8468   1.569   4.466   0.053 -0.3146  1.3526 -0.0271
  571MPD2    C4 8469   1.659   4.400  17.673 -0.2455  0.6591 -0.5118
  571MPD2    C5 8470   1.633   4.273  17.625 -0.2926  0.5744 -0.1178
  571MPD2     H 8471   1.357   4.457   0.115 -0.4791 -0.5167 -0.2602
  571MPD2    H1 8472   1.762   4.431  17.661 -0.6321  2.3571  0.5389
  571MPD2    H2 8473   1.498   4.118  17.591  0.2645  0.7026  0.5968
  571MPD2    H3 8474   1.714   4.220  17.575  0.7701  1.8460  0.2865
  571MPD2     N 8475   1.623   4.577   0.127 -0.0419 -0.6525 -0.1353
  571MPD2    H5 8476   1.722   4.600   0.125  0.2333 -1.9925 -1.6827
  571MPD2    N1 8477   1.294   4.204   0.026  0.1515 -0.6571  0.1120
  571MPD2    H7 8478   1.293   4.118  17.669  1.7271 -1.0227  0.6719
  572TMC3    C1 8479   1.625   0.033   0.273 -0.0882 -0.6517 -0.7616
  572TMC3    C2 8480   1.746   0.004   0.313 -0.9363  0.3092 -0.2906
  572TMC3    C3 8481   1.808   0.103   0.379 -0.5688 -0.3236 -0.2083
  572TMC3    C4 8482   1.583   0.163   0.263  0.0876  0.7192 -0.0849
  572TMC3    C5 8483   1.659   0.261   0.319  0.5718  0.8137  0.5151
  572TMC3    C6 8484   1.766   0.226   0.396 -0.4358 -0.3527  0.1710
  572TMC3     C 8485   1.551   4.655   0.212  0.2715  0.1027 -0.3304
  572TMC3     O 8486   1.433   4.676   0.204 -0.3596 -0.2145 -0.9272
  572TMC3     H 8487   1.771   4.623   0.324  0.5571  0.5429 -1.4139
  572TMC3    H1 8488   1.498   0.184   0.199  0.1378 -2.3696 -1.1468
  572TMC3    H2 8489   1.810   0.306   0.455  0.0830 -2.4973  2.6662
  572TMC3    C7 8490   1.646   0.390   0.248 -0.9037 -0.4521  0.4862
  572TMC3    C8 8491   1.920   0.052   0.457  0.6776  0.4682  0.0521
  572TMC3    O1 8492   1.549   0.404   0.168 -0.3251  0.5686 -0.1090
  572TMC3    O2 8493   1.983   4.688   0.402  0.2712 -0.5560 -0.5111
  573MPD2     C 8494   2.403   0.178   1.277  0.2211  0.0813  0.1988
  573MPD2    C1 8495   2.500   0.097   1.217  0.1399  0.3597 -0.9816
  573MPD2    C2 8496   2.485   0.059   1.085  0.3022  0.0449  0.1109
  573MPD2    C3 8497   2.373   0.103   1.014  0.3343  0.0224  0.4342
  573MPD2    C4 8498   2.276   0.164   1.076  0.3583  0.4243 -0.7142
  573MPD2    C5 8499   2.281   0.197   1.208  0.5741 -0.4115 -0.1961
  573MPD2     H 8500   2.568   0.017   1.029  0.9213 -1.8799  2.4741
  573MPD2    H1 8501   2.200   0.211   1.014 -1.9893 -1.9230  0.3908
  573MPD2    H2 8502   2.437   0.220   1.370  2.6733 -0.8323 -0.2885
  573MPD2    H3 8503   2.197   0.249   1.253  1.3102  0.9587 -0.4197
  573MPD2     N 8504   2.360   0.095   0.868 -0.1364 -0.0604  0.5639
  573MPD2    H5 8505   2.276   0.141   0.834  0.1518  0.6175  0.7674
  573MPD2    N1 8506   2.618   0.060   1.283 -0.8322 -0.3054  0.2368
  573MPD2    H7 8507   2.633   0.095   1.377 -0.8456 -0.7173  0.3951
  574TMC3    C1 8508   2.431   0.082   0.646 -0.5930  0.8378  0.4015
  574TMC3    C2 8509   2.353   0.190   0.625  0.5213 -0.6112  0.6774
  574TMC3    C3 8510   2.393   0.285   0.534  0.5903 -0.1857  0.9330
  574TMC3    C4 8511   2.537   0.064   0.558  0.5074  0.1288  0.3251
  574TMC3    C5 8512   2.566   0.155   0.460  0.5950  0.3226 -0.3370
  574TMC3    C6 8513   2.495   0.272   0.443 -1.3079  0.4303  0.1687
  574TMC3     C 8514   2.459   0.054   0.782 -0.3410 -0.4365  0.1470
  574TMC3     O 8515   2.567   0.003   0.804  0.1896 -0.1251  0.4371
  574TMC3     H 8516   2.262   0.209   0.680  1.0187  2.1817  0.5410
  574TMC3    H1 8517   2.581   4.690   0.562  0.5158  0.1700  1.3679
  574TMC3    H2 8518   2.520   0.349   0.370 -2.0819 -0.8238 -1.4264
  574TMC3    C7 8519   2.700   0.170   0.403  0.7677  0.9110  0.4418
  574TMC3    C8 8520   2.304   0.403   0.529 -0.4218 -0.4646 -0.2153
  574TMC3    O1 8521   2.713   0.202   0.286 -0.0042 -0.6609  0.1642
  574TMC3    O2 8522   2.207   0.402   0.599  0.0929  0.1988 -0.0535
  575TMC3    C1 8523   0.470   1.381  10.603  0.7760 -0.5258  0.1961
  575TMC3    C2 8524   0.494   1.306  10.716  0.3451 -0.5440  0.4420
  575TMC3    C3 8525   0.385   1.276  10.790  0.2914  1.1776 -0.3680
  575TMC3    C4 8526   0.352   1.428  10.565 -0.1927  0.7306  0.0494
  575TMC3    C5 8527   0.244   1.398  10.642  0.2293 -0.0617 -0.1341
  575TMC3    C6 8528   0.261   1.333  10.763 -1.0302 -0.0991  0.1693
  575TMC3     C 8529   0.587   1.414  10.522 -0.2264  0.1371 -0.1631
  575TMC3     O 8530   0.685   1.338  10.531 -0.3112  0.1173  0.5041
  575TMC3     H 8531   0.591   1.276  10.754  0.4867 -0.7337 -0.0709
  575TMC3    H1 8532   0.334   1.477  10.470 -1.0679 -0.2976 -0.3116
  575TMC3    H2 8533   0.174   1.294  10.814 -1.2920 -0.4724 -0.5601
  575TMC3    C7 8534   0.116   1.371  10.569 -0.0370  0.4706  0.1226
  575TMC3    C8 8535   0.421   1.226  10.921  0.7180  0.4719 -0.2252
  575TMC3    O1 8536   0.127   1.352  10.448 -0.1194  0.6011  0.0496
  575TMC3    O2 8537   0.487   1.123  10.926  0.1686 -0.4834 -0.1531
  576MPD2     C 8538   0.005   2.974  12.635  0.0606  0.4550 -0.0793
  576MPD2    C1 8539   4.716   3.032  12.515  0.0491  0.8517 -0.1292
  576MPD2    C2 8540   4.670   3.161  12.500 -0.0946  0.3671 -0.2513
  576MPD2    C3 8541   4.641   3.235  12.609  0.4229 -0.7589 -0.3894
  576MPD2    C4 8542   4.665   3.177  12.730 -0.1638  0.1174 -0.2587
  576MPD2    C5 8543   4.723   3.052  12.747 -0.6571  0.4255 -0.0212
  576MPD2     H 8544   4.650   3.207  12.403 -1.5106  0.6173  0.1585
  576MPD2    H1 8545   4.641   3.234  12.819  2.7388  0.2769  0.4052
  576MPD2    H2 8546   0.040   2.872  12.649 -0.8543  0.3805  1.6297
  576MPD2    H3 8547   0.007   3.006  12.845 -1.6830  1.8394  0.7301
  576MPD2     N 8548   4.571   3.357  12.586 -0.3216  0.1789 -0.4655
  576MPD2    H5 8549   4.537   3.376  12.493  3.3391  0.9240 -1.6737
  576MPD2    N1 8550   0.029   2.957  12.397 -0.0728 -0.3352  0.7771
  576MPD2    H7 8551   0.016   3.014  12.315  1.7583  2.1320  2.2086
  577TMC3    C1 8552   0.122   2.788  12.253 -0.0482  0.9466  0.2307
  577TMC3    C2 8553   0.231   2.708  12.250  0.0638 -0.0166  0.2971
  577TMC3    C3 8554   0.287   2.696  12.124 -0.1422  0.4598 -0.1194
  577TMC3    C4 8555   0.063   2.852  12.145  0.1748  0.2807 -0.1387
  577TMC3    C5 8556   0.119   2.827  12.022  0.2498 -0.0991 -0.7366
  577TMC3    C6 8557   0.222   2.735  12.012 -0.4106 -0.3001  0.1565
  577TMC3     C 8558   0.086   2.825  12.384 -0.0621 -0.1370 -0.1551
  577TMC3     O 8559   0.102   2.749  12.480  0.1759  0.4087  0.6585
  577TMC3     H 8560   0.272   2.676  12.345  0.3980 -2.5926 -0.7101
  577TMC3    H1 8561   4.700   2.914  12.163 -0.4646 -1.1417  1.6567
  577TMC3    H2 8562   0.262   2.717  11.912  1.4069 -0.4537  0.9069
  577TMC3    C7 8563   0.095   2.918  11.911  0.6828 -0.6270 -0.2132
  577TMC3    C8 8564   0.396   2.596  12.112 -0.0149  0.4958 -0.4734
  577TMC3    O1 8565   0.059   3.031  11.946  0.2392  0.1497 -0.5901
  577TMC3    O2 8566   0.425   2.537  12.214 -0.2589 -0.5944 -0.4037
  578MPD2     C 8567   3.061   2.417   1.404  0.0726  0.3224  0.2372
  578MPD2    C1 8568   3.184   2.487   1.381 -0.0590 -0.3069  0.6402
  578MPD2    C2 8569   3.301   2.418   1.375  0.0219 -0.0721  0.2777
  578MPD2    C3 8570   3.307   2.286   1.404 -0.2114 -0.6151 -0.8829
  578MPD2    C4 8571   3.194   2.213   1.412 -1.1012 -0.0720 -0.4475
  578MPD2    C5 8572   3.067   2.283   1.418 -0.5622 -0.2189  0.4343
  578MPD2     H 8573   3.394   2.472   1.361  0.2823 -0.7420 -0.5682
  578MPD2    H1 8574   3.193   2.108   1.438  0.0181 -0.5918 -2.5439
  578MPD2    H2 8575   2.973   2.480   1.407  0.5554  0.9184  1.7452
  578MPD2    H3 8576   2.979   2.222   1.439 -1.4002  1.5303  1.9773
  578MPD2     N 8577   3.432   2.226   1.413 -0.4850  0.2225  0.9057
  578MPD2    H5 8578   3.509   2.268   1.361 -1.5029  0.9638  0.0202
  578MPD2    N1 8579   3.172   2.630   1.378 -0.1226 -0.5964  0.4097
  578MPD2    H7 8580   3.078   2.667   1.368  0.9107  2.2537  1.3543
  579TMC3    C1 8581   3.592   2.055   1.459  0.6489 -0.4363  0.3451
  579TMC3    C2 8582   3.655   1.999   1.567 -0.1824 -0.5008  0.1111
  579TMC3    C3 8583   3.788   1.999   1.549  0.1640  0.3441 -0.3069
  579TMC3    C4 8584   3.645   2.074   1.333 -0.2676  0.3770 -0.6222
  579TMC3    C5 8585   3.778   2.046   1.316  0.2338 -0.4761 -0.5652
  579TMC3    C6 8586   3.856   2.028   1.431 -0.3136 -0.3014  0.3200
  579TMC3     C 8587   3.458   2.104   1.475  0.2454  0.3812  0.5412
  579TMC3     O 8588   3.388   2.042   1.552  0.3792  0.3603 -0.6482
  579TMC3     H 8589   3.598   1.999   1.660 -0.6659 -2.4414 -0.1821
  579TMC3    H1 8590   3.585   2.100   1.247 -0.4276 -0.3826 -0.7320
  579TMC3    H2 8591   3.962   2.006   1.421 -0.4846 -1.4734  1.1773
  579TMC3    C7 8592   3.818   1.968   1.201  0.0443 -0.2031  0.3592
  579TMC3    C8 8593   3.862   2.029   1.671  0.4131 -0.7736 -0.6568
  579TMC3    O1 8594   3.915   1.894   1.217  0.7475 -0.1173  0.3903
  579TMC3    O2 8595   3.806   2.016   1.778  0.0342  0.1462 -0.4763
  580TMC3    C1 8596   2.257   1.511  11.573 -0.0711  0.3061 -0.3411
  580TMC3    C2 8597   2.312   1.497  11.451 -0.4523  0.3977 -0.0452
  580TMC3    C3 8598   2.381   1.384  11.430 -0.1604  0.7664 -0.4615
  580TMC3    C4 8599   2.245   1.412  11.666  0.5526  0.4127  0.0157
  580TMC3    C5 8600   2.312   1.295  11.637  0.3210  0.2656 -0.4939
  580TMC3    C6 8601   2.382   1.285  11.522 -0.8296 -0.1144  0.1741
  580TMC3     C 8602   2.229   1.653  11.603  0.5760 -0.3220 -0.1265
  580TMC3     O 8603   2.247   1.742  11.523  0.0531  1.1149  0.2405
  580TMC3     H 8604   2.313   1.581  11.383  2.5156  1.3915  1.2339
  580TMC3    H1 8605   2.183   1.413  11.755 -1.2067 -0.7139 -1.1851
  580TMC3    H2 8606   2.422   1.189  11.492  0.5021  0.6406 -0.4430
  580TMC3    C7 8607   2.359   1.213  11.750 -0.8596  0.2278  0.2483
  580TMC3    C8 8608   2.485   1.395  11.332  0.4885 -0.6573 -0.3369
  580TMC3    O1 8609   2.349   1.271  11.858  0.5988 -0.6113 -0.2919
  580TMC3    O2 8610   2.542   1.287  11.305  0.1197 -0.6703  0.3566
  581MPD2     C 8611   1.114   1.749  15.049  0.2692  0.4605  0.4468
  581MPD2    C1 8612   1.015   1.680  15.110 -1.2203  0.4859  0.1898
  581MPD2    C2 8613   0.879   1.730  15.104 -0.6851  0.3383  0.7488
  581MPD2    C3 8614   0.851   1.833  15.024 -0.4706 -0.0789 -0.2702
  581MPD2    C4 8615   0.952   1.883  14.939  0.6564 -0.3406  0.2510
  581MPD2    C5 8616   1.080   1.849  14.966 -0.5334 -0.0209 -0.3687
  581MPD2     H 8617   0.806   1.687  15.172 -0.0500  1.1299  1.9491
  581MPD2    H1 8618   0.923   1.959  14.867 -0.6654 -1.2808 -0.2161
  581MPD2    H2 8619   1.218   1.721  15.055  0.1768  0.0431  0.1516
  581MPD2    H3 8620   1.157   1.900  14.909  0.9781 -0.7732  1.0217
  581MPD2     N 8621   0.718   1.865  15.016  0.1055 -0.1192 -0.2876
  581MPD2    H5 8622   0.648   1.808  15.063  0.0666  1.1386  1.2049
  581MPD2    N1 8623   1.036   1.574  15.201 -0.2312  0.1016 -0.0986
  581MPD2    H7 8624   0.964   1.549  15.268 -0.7554  2.2756  0.1279
  582TMC3    C1 8625   1.126   1.395  15.295 -0.1030  0.2347 -0.0978
  582TMC3    C2 8626   1.120   1.434  15.431  0.5215  0.8593 -0.2560
  582TMC3    C3 8627   1.078   1.335  15.516  0.1375 -0.8090  0.3323
  582TMC3    C4 8628   1.116   1.268  15.250 -0.3415  0.1270 -0.1616
  582TMC3    C5 8629   1.069   1.171  15.335  0.4443 -0.0790  0.3537
  582TMC3    C6 8630   1.056   1.209  15.469 -0.2894  0.5807  0.3111
  582TMC3     C 8631   1.148   1.498  15.195 -0.5800  0.1088 -0.4370
  582TMC3     O 8632   1.231   1.492  15.105 -0.3152 -0.2017 -0.0171
  582TMC3     H 8633   1.125   1.539  15.458  0.1002  0.1801  2.4496
  582TMC3    H1 8634   1.126   1.259  15.143  1.8034 -0.7599  0.1280
  582TMC3    H2 8635   1.015   1.142  15.544 -0.2410 -0.2043 -0.3561
  582TMC3    C7 8636   0.951   1.109  15.264  0.0648  0.3823  0.5059
  582TMC3    C8 8637   1.090   1.352  15.663  0.1335  0.0294 -0.5498
  582TMC3    O1 8638   0.955   1.094  15.143  0.6761  0.5491  0.0955
  582TMC3    O2 8639   1.012   1.292  15.737 -0.5146 -0.2462 -0.1357
  583MPD2     C 8640   0.383   3.330  16.652  0.6393  0.3058 -0.2411
  583MPD2    C1 8641   0.487   3.421  16.661 -0.0886  0.0258 -0.7344
  583MPD2    C2 8642   0.477   3.514  16.768  0.2326 -0.0217 -0.6124
  583MPD2    C3 8643   0.384   3.507  16.869 -0.8578 -0.1508 -0.3469
  583MPD2    C4 8644   0.301   3.393  16.868 -0.3597  0.2245 -0.1863
  583MPD2    C5 8645   0.288   3.315  16.754  0.5541 -0.0365  0.0006
  583MPD2     H 8646   0.556   3.587  16.778 -0.0019  0.2235 -0.5312
  583MPD2    H1 8647   0.237   3.361  16.949 -0.6949 -0.5154 -0.7331
  583MPD2    H2 8648   0.362   3.266  16.567 -1.6286 -0.3300  0.7858
  583MPD2    H3 8649   0.209   3.244  16.735 -0.8327  1.2701  0.8452
  583MPD2     N 8650   0.382   3.609  16.972 -0.1892  0.7169 -0.4322
  583MPD2    H5 8651   0.446   3.687  16.964 -2.3025  2.4042 -0.7976
  583MPD2    N1 8652   0.592   3.426  16.569 -0.4408 -0.1053 -0.8657
  583MPD2    H7 8653   0.674   3.480  16.597 -2.1781  0.6420  2.7454
  584TMC3    C1 8654   0.318   3.711  17.186  0.3764 -0.1784  0.5945
  584TMC3    C2 8655   0.332   3.843  17.145  0.6980  0.4142 -0.4470
  584TMC3    C3 8656   0.346   3.944  17.235  0.2191  0.1164 -0.3368
  584TMC3    C4 8657   0.306   3.682  17.324  0.1279 -0.6955 -0.5132
  584TMC3    C5 8658   0.312   3.789  17.413  0.3984 -0.1475  0.2277
  584TMC3    C6 8659   0.334   3.916  17.367  0.5728 -0.4148 -0.1059
  584TMC3     C 8660   0.322   3.597  17.098 -0.2105 -0.5297  0.4017
  584TMC3     O 8661   0.265   3.495  17.144  0.3913 -0.1691  0.1517
  584TMC3     H 8662   0.343   3.865  17.039 -0.3666 -0.2948 -0.7141
  584TMC3    H1 8663   0.298   3.579  17.356 -0.0826 -0.5065  0.0479
  584TMC3    H2 8664   0.330   3.998  17.438  4.6033  0.0644 -0.4257
  584TMC3    C7 8665   0.280   3.750  17.552  0.8009 -0.2887  0.0927
  584TMC3    C8 8666   0.392   4.069  17.186 -0.2714  0.0462  0.0960
  584TMC3    O1 8667   0.310   3.635  17.583 -0.1146  0.7909 -0.4846
  584TMC3    O2 8668   0.345   4.108  17.082  0.1976 -0.1938  0.8885
  585MPD2     C 8669   0.028   2.342   0.921 -0.0574 -0.6084  0.3113
  585MPD2    C1 8670   0.038   2.389   0.793  0.4135  0.1430 -0.3065
  585MPD2    C2 8671   0.043   2.289   0.691  0.1267  0.1162 -0.5118
  585MPD2    C3 8672   0.030   2.153   0.716  0.1139 -0.6946 -0.0522
  585MPD2    C4 8673   4.718   2.111   0.845 -0.1249  0.4692 -0.5089
  585MPD2    C5 8674   0.005   2.207   0.947 -0.0738  0.9198 -0.1142
  585MPD2     H 8675   0.055   2.315   0.586 -0.9337 -0.5808 -0.8086
  585MPD2    H1 8676   4.668   2.017   0.867  0.5362  0.1518 -0.3538
  585MPD2    H2 8677   0.028   2.408   1.007  2.0195 -1.4891  0.9879
  585MPD2    H3 8678   4.706   2.173   1.047 -1.6195  2.5315  0.0764
  585MPD2     N 8679   0.028   2.063   0.607 -0.0170 -0.0125  0.2065
  585MPD2    H5 8680   0.046   2.103   0.516  0.0232  0.8505  0.5904
  585MPD2    N1 8681   0.042   2.528   0.770 -0.0373  0.1073 -0.1701
  585MPD2    H7 8682   0.026   2.595   0.844  0.4151 -0.1219  0.1351
  586TMC3    C1 8683   0.009   1.869   0.476  0.6128 -0.1007 -0.6211
  586TMC3    C2 8684   0.105   1.784   0.426  0.1062  0.3074  0.2269
  586TMC3    C3 8685   0.089   1.762   0.290 -0.8545 -0.2665  0.2611
  586TMC3    C4 8686   4.644   1.933   0.397  0.4475 -1.4411  0.0404
  586TMC3    C5 8687   4.641   1.913   0.261 -0.5569 -0.0043  0.5532
  586TMC3    C6 8688   4.718   1.816   0.207 -0.6094 -0.3972  0.3035
  586TMC3     C 8689   0.025   1.923   0.611 -0.2496  0.4208  0.0212
  586TMC3     O 8690   0.013   1.846   0.702  0.6647  0.1371 -0.1844
  586TMC3     H 8691   0.182   1.730   0.481 -0.0439 -1.0163 -0.8799
  586TMC3    H1 8692   4.577   2.007   0.440 -0.8687 -1.2389 -2.3411
  586TMC3    H2 8693   4.712   1.787   0.102 -0.8454 -1.2775  0.5660
  586TMC3    C7 8694   4.516   1.944   0.192 -0.4976 -0.4266  0.9660
  586TMC3    C8 8695   0.208   1.716   0.217 -0.1432 -0.1122 -0.1227
  586TMC3    O1 8696   4.455   2.048   0.226 -0.1552 -0.0348  0.0516
  586TMC3    O2 8697   0.278   1.627   0.264  0.1391  0.2155  0.0294
  587TMC3    C1 8698   1.982   0.498  16.238 -0.3564 -0.4749 -0.3470
  587TMC3    C2 8699   1.968   0.635  16.260  0.1926 -0.6268  0.2175
  587TMC3    C3 8700   2.074   0.715  16.247 -0.2667 -0.5611 -0.8315
  587TMC3    C4 8701   2.105   0.445  16.212  0.5840 -0.2863  1.1361
  587TMC3    C5 8702   2.207   0.531  16.187  0.0641  0.3392 -0.8029
  587TMC3    C6 8703   2.197   0.666  16.205 -0.2593  0.1481 -0.4394
  587TMC3     C 8704   1.864   0.414  16.216 -0.2825 -0.6290  0.3641
  587TMC3     O 8705   1.884   0.308  16.161 -0.3048 -0.3995  0.0743
  587TMC3     H 8706   1.871   0.672  16.288 -0.4914 -1.9195 -0.4234
  587TMC3    H1 8707   2.112   0.337  16.207 -1.6331 -0.3343 -0.5933
  587TMC3    H2 8708   2.287   0.724  16.192 -0.5210  0.4290 -1.0072
  587TMC3    C7 8709   2.335   0.477  16.145 -0.2721  0.5397  0.3208
  587TMC3    C8 8710   2.052   0.842  16.302 -0.2175  0.0054  0.2040
  587TMC3    O1 8711   2.436   0.543  16.159 -0.5205 -0.2996  0.8273
  587TMC3    O2 8712   1.953   0.853  16.378 -0.4360 -0.2292 -0.1536
  588TMC3    C1 8713   4.487   4.074   9.662  0.5280 -0.6627 -0.1431
  588TMC3    C2 8714   4.468   3.945   9.633  0.5221 -0.5494 -0.6002
  588TMC3    C3 8715   4.521   3.853   9.717 -0.6251 -0.2419 -0.0589
  588TMC3    C4 8716   4.548   4.115   9.776 -0.0472 -0.3534 -0.0117
  588TMC3    C5 8717   4.596   4.018   9.862  0.0794  0.3448  0.6599
  588TMC3    C6 8718   4.578   3.888   9.837 -0.1748  0.4062  0.4157
  588TMC3     C 8719   4.435   4.176   9.567 -0.5042  0.0045 -0.1981
  588TMC3     O 8720   4.314   4.177   9.529 -0.0328  0.1511 -0.2919
  588TMC3     H 8721   4.412   3.922   9.543 -1.4285 -0.2388  0.5198
  588TMC3    H1 8722   4.547   4.219   9.807  0.0067  0.1975 -1.8148
  588TMC3    H2 8723   4.636   3.822   9.900  0.3399 -0.1895 -0.6778
  588TMC3    C7 8724   4.696   4.051   9.960 -0.1735  0.1924  0.1825
  588TMC3    C8 8725   4.475   3.713   9.710 -0.4321  0.8066 -0.7602
  588TMC3    O1 8726   4.707   3.975  10.055  0.3092  0.0742  0.1832
  588TMC3    O2 8727   4.370   3.697   9.655  0.6651 -0.2121 -0.4843
  589TMC3    C1 8728   3.937   0.444   1.350 -0.2482 -0.2783 -1.0292
  589TMC3    C2 8729   3.921   0.571   1.398 -0.0082  0.0890  0.6199
  589TMC3    C3 8730   4.007   0.622   1.484 -0.0712  0.9072  0.0055
  589TMC3    C4 8731   4.037   0.364   1.409  0.1717 -0.3042 -0.4280
  589TMC3    C5 8732   4.102   0.411   1.516  0.1016 -0.0571 -0.4943
  589TMC3    C6 8733   4.093   0.543   1.555 -0.2807  0.8330  0.8263
  589TMC3     C 8734   3.864   0.389   1.238  0.1956 -0.5016 -0.5922
  589TMC3     O 8735   3.892   0.278   1.206  0.4079 -0.4417  0.2792
  589TMC3     H 8736   3.855   0.639   1.345 -2.2085 -1.4517  1.3954
  589TMC3    H1 8737   4.037   0.256   1.399  0.8035 -0.4083  0.7335
  589TMC3    H2 8738   4.146   0.581   1.643 -1.1376 -0.3648  1.8536
  589TMC3    C7 8739   4.175   0.312   1.593  0.4443 -0.2829  0.1341
  589TMC3    C8 8740   3.991   0.754   1.523 -0.3167  0.1929  0.1874
  589TMC3    O1 8741   4.171   0.197   1.561 -0.0022 -0.1858  0.6814
  589TMC3    O2 8742   3.883   0.795   1.509  0.2523 -0.1425 -0.0673
  590MPD2     C 8743   2.884   4.149  16.897 -0.7780 -0.0443 -0.0466
  590MPD2    C1 8744   2.881   4.182  16.765  0.4713 -0.6493  0.6271
  590MPD2    C2 8745   3.005   4.212  16.711  0.3013 -1.3194 -0.6779
  590MPD2    C3 8746   3.120   4.232  16.787 -0.6699  0.1948  0.4516
  590MPD2    C4 8747   3.118   4.193  16.920 -0.2040 -0.8683 -0.0195
  590MPD2    C5 8748   2.998   4.150  16.971  0.2221  0.5819 -0.3283
  590MPD2     H 8749   3.004   4.254  16.611  1.3463 -1.3106 -0.6855
  590MPD2    H1 8750   3.205   4.197  16.984 -1.0622  0.3746  1.0569
  590MPD2    H2 8751   2.797   4.099  16.937 -0.3760 -0.6758  0.0501
  590MPD2    H3 8752   2.994   4.112  17.073  0.8791  0.0336 -0.5081
  590MPD2     N 8753   3.229   4.297  16.722  0.8828  0.6594 -0.5630
  590MPD2    H5 8754   3.220   4.308  16.621  1.1216 -0.1222 -0.6685
  590MPD2    N1 8755   2.760   4.173  16.693 -1.0386  0.1636  0.4240
  590MPD2    H7 8756   2.680   4.136  16.743 -1.4087 -0.3482 -0.5436
  591TMC3    C1 8757   3.407   4.446  16.710 -0.0904  0.0911 -0.1920
  591TMC3    C2 8758   3.385   4.434  16.579  0.3128  0.2914  0.6688
  591TMC3    C3 8759   3.441   4.526  16.499  0.0642  1.1064  0.4872
  591TMC3    C4 8760   3.470   4.552  16.765  0.3400 -0.3344  0.0743
  591TMC3    C5 8761   3.514   4.652  16.679 -0.0749 -0.5799  0.6399
  591TMC3    C6 8762   3.506   4.639  16.547  0.0248 -0.2808  0.3028
  591TMC3     C 8763   3.327   4.363  16.794  0.1478 -0.9538  0.0929
  591TMC3     O 8764   3.345   4.381  16.915  0.0554 -0.2310 -0.3242
  591TMC3     H 8765   3.359   4.342  16.528  1.6300  1.0592 -1.3924
  591TMC3    H1 8766   3.487   4.554  16.872  2.3429 -0.5619 -0.2449
  591TMC3    H2 8767   3.547   4.710  16.476  2.9459 -0.6101  1.6521
  591TMC3    C7 8768   3.559   0.058  16.735 -0.4942 -0.1127 -0.1147
  591TMC3    C8 8769   3.481   4.493  16.365 -0.0767  0.6374  0.0011
  591TMC3    O1 8770   3.618   0.065  16.843 -0.3937 -0.1789  0.5114
  591TMC3    O2 8771   3.541   4.387  16.333 -0.3903 -0.7812 -0.2541
  592MPD2     C 8772   3.637   1.703  11.410 -0.7523 -0.1758 -0.0307
  592MPD2    C1 8773   3.649   1.753  11.537  0.2941 -0.2216  0.5855
  592MPD2    C2 8774   3.584   1.688  11.636 -0.3004  0.1601 -0.0802
  592MPD2    C3 8775   3.523   1.563  11.614 -0.2114 -0.4139 -0.5490
  592MPD2    C4 8776   3.505   1.519  11.481  0.0977  0.4366  0.3105
  592MPD2    C5 8777   3.558   1.598  11.386  0.3282 -0.0966  0.2124
  592MPD2     H 8778   3.598   1.716  11.739 -0.5997  1.5695 -0.4310
  592MPD2    H1 8779   3.448   1.429  11.460 -0.5897  0.5378  1.7446
  592MPD2    H2 8780   3.694   1.742  11.327  0.2025 -0.5331  0.4607
  592MPD2    H3 8781   3.556   1.561  11.284 -1.0691  0.5698 -0.0116
  592MPD2     N 8782   3.481   1.504  11.732 -0.7203 -0.1365  0.8681
  592MPD2    H5 8783   3.526   1.537  11.816  1.7875  0.2955 -0.6701
  592MPD2    N1 8784   3.732   1.860  11.568 -0.1200  0.5777  0.0889
  592MPD2    H7 8785   3.789   1.893  11.490 -1.8797  1.1350 -0.9615
  593TMC3    C1 8786   3.872   1.995  11.693  0.6208 -0.9780 -0.4887
  593TMC3    C2 8787   3.891   2.064  11.805 -0.0202  0.0031  0.4058
  593TMC3    C3 8788   4.013   2.078  11.861  0.4552  0.5778 -0.5434
  593TMC3    C4 8789   3.981   1.951  11.622 -0.3447  0.8103  0.4992
  593TMC3    C5 8790   4.103   1.960  11.677 -0.2707  0.8112 -0.1533
  593TMC3    C6 8791   4.122   2.021  11.794 -0.6282  0.5089  0.4026
  593TMC3     C 8792   3.744   1.922  11.691 -0.8405  0.4394  0.3071
  593TMC3     O 8793   3.678   1.917  11.796  0.0799 -1.0469 -0.4292
  593TMC3     H 8794   3.808   2.095  11.868 -1.3854 -0.1146 -1.3513
  593TMC3    H1 8795   3.977   1.890  11.533  1.2069  0.5392  0.6153
  593TMC3    H2 8796   4.225   2.049  11.815 -0.9088  2.7995 -1.1666
  593TMC3    C7 8797   4.214   1.941  11.588  0.2955  0.3119  0.9425
  593TMC3    C8 8798   4.038   2.193  11.946 -0.5726 -1.1314  0.2754
  593TMC3    O1 8799   4.190   1.954  11.468  0.1303  0.3300 -0.1870
  593TMC3    O2 8800   3.961   2.286  11.941  0.7000  0.1741 -0.1704
  594MPD2     C 8801   2.496   0.262  14.103  0.2456  0.0010  0.2083
  594MPD2    C1 8802   2.493   0.208  14.228  0.4161  0.6227  0.8842
  594MPD2    C2 8803   2.581   0.263  14.325 -0.0626  0.3513 -0.0772
  594MPD2    C3 8804   2.667   0.368  14.299 -0.8934  0.3473 -0.7176
  594MPD2    C4 8805   2.665   0.416  14.172  0.0537  0.1176 -0.1765
  594MPD2    C5 8806   2.578   0.370  14.078 -0.6705  0.7507 -0.1413
  594MPD2     H 8807   2.583   0.221  14.425 -1.3530  2.6483  0.9001
  594MPD2    H1 8808   2.733   0.499  14.157  1.4700 -0.9366  0.4151
  594MPD2    H2 8809   2.432   0.228  14.022  0.5083  0.0537 -0.0240
  594MPD2    H3 8810   2.574   0.413  13.978 -1.3928 -0.6065 -0.6913
  594MPD2     N 8811   2.744   0.420  14.405 -0.1388 -0.3446  0.0291
  594MPD2    H5 8812   2.732   0.384  14.499 -0.5478  2.4103  1.0332
  594MPD2    N1 8813   2.393   0.106  14.251  0.2965 -0.5064 -0.2683
  594MPD2    H7 8814   2.330   0.080  14.176  0.4887 -2.1631  0.1394
  595TMC3    C1 8815   3.025   0.682  14.661  0.0539  0.1687  0.1665
  595TMC3    C2 8816   3.000   0.608  14.550  0.0271  1.0253 -0.1930
  595TMC3    C3 8817   2.877   0.564  14.533 -0.9023 -1.3500  0.6104
  595TMC3    C4 8818   2.931   0.703  14.759 -0.3001 -0.1549  0.5024
  595TMC3    C5 8819   2.809   0.647  14.733  0.2706  0.3111  0.0220
  595TMC3    C6 8820   2.770   0.581  14.618  0.3987  0.6054 -0.3170
  595TMC3     C 8821   3.159   0.731  14.695  0.2043  0.0242 -0.4838
  595TMC3     O 8822   3.178   0.749  14.814 -0.3298 -0.0982  0.1414
  595TMC3     H 8823   3.074   0.575  14.478  0.9237  0.9845  0.7498
  595TMC3    H1 8824   2.960   0.766  14.843  1.7909 -0.4769  0.0326
  595TMC3    H2 8825   2.667   0.548  14.609 -0.0811  2.0398  0.0461
  595TMC3    C7 8826   2.701   0.707  14.812  0.8951  0.3279 -0.6424
  595TMC3    C8 8827   2.842   0.521  14.400  0.0087  0.4280 -0.2689
  595TMC3    O1 8828   2.601   0.738  14.758 -0.2711  0.3454  0.4452
  595TMC3    O2 8829   2.908   0.560  14.306  0.4599 -0.0250  0.6652
  596MPD2     C 8830   1.502   3.200  16.575 -0.1896  0.8399 -0.2247
  596MPD2    C1 8831   1.475   3.326  16.516 -0.0311 -0.8850  0.0106
  596MPD2    C2 8832   1.495   3.344  16.381 -0.5564  1.2986  0.9683
  596MPD2    C3 8833   1.565   3.248  16.307  0.1527  0.4162 -0.1532
  596MPD2    C4 8834   1.590   3.126  16.367  0.2062  0.6406  0.6199
  596MPD2    C5 8835   1.567   3.103  16.502  0.6205 -0.2559  0.9838
  596MPD2     H 8836   1.475   3.436  16.328 -1.8557  0.0851 -0.6425
  596MPD2    H1 8837   1.642   3.046  16.315  0.6684  0.2560  1.6515
  596MPD2    H2 8838   1.495   3.185  16.682  0.0586  0.9394 -0.1942
  596MPD2    H3 8839   1.587   3.008  16.552 -5.2054 -1.4303  1.0843
  596MPD2     N 8840   1.606   3.264  16.170  0.2112  0.1368 -0.7474
  596MPD2    H5 8841   1.648   3.180  16.130 -1.2874 -2.3764  3.0128
  596MPD2    N1 8842   1.415   3.430  16.589 -0.1193 -0.5725 -0.2582
  596MPD2    H7 8843   1.414   3.520  16.543  1.3173 -0.3197  0.2201
  597TMC3    C1 8844   1.321   3.548  16.764 -0.3581  0.3577  0.2647
  597TMC3    C2 8845   1.396   3.651  16.735  0.0745  0.2370 -0.3286
  597TMC3    C3 8846   1.372   3.770  16.785  0.6675 -0.6767 -0.3241
  597TMC3    C4 8847   1.228   3.564  16.865  0.0739  0.0890 -0.1583
  597TMC3    C5 8848   1.205   3.689  16.923  0.5806  0.3994  0.4810
  597TMC3    C6 8849   1.282   3.793  16.884 -0.7983  0.9867 -0.0967
  597TMC3     C 8850   1.348   3.414  16.710 -0.0720  0.3282 -0.3910
  597TMC3     O 8851   1.310   3.312  16.761 -0.2249  0.4528  0.0686
  597TMC3     H 8852   1.482   3.646  16.670 -1.0402  2.2854 -1.9454
  597TMC3    H1 8853   1.184   3.473  16.905 -1.2237  0.0063 -1.7543
  597TMC3    H2 8854   1.275   3.892  16.928  0.5842  1.2781 -0.5617
  597TMC3    C7 8855   1.106   3.700  17.035  0.1182  0.0137 -0.6673
  597TMC3    C8 8856   1.437   3.895  16.730 -0.8586  0.3793  0.2541
  597TMC3    O1 8857   1.050   3.600  17.078  0.2579  0.6263 -0.7403
  597TMC3    O2 8858   1.452   3.997  16.801  0.0080 -0.1915  0.3577
  598TMC3    C1 8859   3.964   0.150  15.652  0.1844  0.7550  0.1272
  598TMC3    C2 8860   3.833   0.143  15.617 -0.4293 -0.3005 -0.4096
  598TMC3    C3 8861   3.797   0.101  15.492 -1.3719 -0.2826 -0.0637
  598TMC3    C4 8862   4.071   0.134  15.561  0.0209  0.4522 -0.6119
  598TMC3    C5 8863   4.034   0.087  15.435  0.3559 -0.5231  0.9569
  598TMC3    C6 8864   3.899   0.075  15.402  0.1866 -0.5387 -0.3180
  598TMC3     C 8865   4.003   0.207  15.773 -0.7403  0.2774 -1.2247
  598TMC3     O 8866   4.085   0.300  15.765  0.0915  0.0083 -0.6014
  598TMC3     H 8867   3.753   0.169  15.685  1.3260  0.4221  1.3326
  598TMC3    H1 8868   4.172   0.133  15.599  0.4146  0.6628 -1.6701
  598TMC3    H2 8869   3.871   0.056  15.300  0.0657 -0.6589 -0.2625
  598TMC3    C7 8870   4.133   0.100  15.327  0.7632  0.3334 -0.0937
  598TMC3    C8 8871   3.657   0.107  15.459 -0.1742 -1.1155  0.6809
  598TMC3    O1 8872   4.120   0.031  15.225  0.6151 -0.6094  0.0742
  598TMC3    O2 8873   3.594   0.191  15.524 -0.2272  0.4667 -0.1299
  599MPD2     C 8874   3.898   2.441  15.796  0.2539  0.9295  0.7848
  599MPD2    C1 8875   4.004   2.414  15.876 -0.1877  1.1922  0.2663
  599MPD2    C2 8876   3.984   2.392  16.013 -0.2237  0.8434  0.3051
  599MPD2    C3 8877   3.850   2.395  16.060  0.0805  0.1888 -0.5385
  599MPD2    C4 8878   3.747   2.437  15.978 -0.7519 -0.3804  0.8900
  599MPD2    C5 8879   3.771   2.454  15.847 -0.1905 -0.2573  0.6396
  599MPD2     H 8880   4.065   2.361  16.078  1.7288  2.1421 -1.5056
  599MPD2    H1 8881   3.646   2.448  16.018 -2.2560  1.0466 -3.2487
  599MPD2    H2 8882   3.904   2.455  15.689 -1.5712  0.5042  0.6221
  599MPD2    H3 8883   3.694   2.478  15.775 -0.0715 -2.6123 -0.2799
  599MPD2     N 8884   3.815   2.367  16.190 -0.1341 -0.0379 -0.1942
  599MPD2    H5 8885   3.719   2.387  16.218 -0.7256  1.0991 -3.0552
  599MPD2    N1 8886   4.128   2.395  15.816 -0.4065  0.4040  0.2911
  599MPD2    H7 8887   4.126   2.402  15.714  1.2002  2.1067  0.3772
  600TMC3    C1 8888   3.821   2.264  16.400 -0.0493 -0.5773  0.4595
  600TMC3    C2 8889   3.761   2.147  16.368 -0.4731  1.0540 -0.0706
  600TMC3    C3 8890   3.720   2.060  16.473  0.1938 -0.6008  0.7142
  600TMC3    C4 8891   3.870   2.282  16.525 -0.2598 -0.0278  0.0120
  600TMC3    C5 8892   3.811   2.209  16.628  0.4446  0.3144  0.7009
  600TMC3    C6 8893   3.745   2.090  16.605 -0.3191  0.7055 -0.8239
  600TMC3     C 8894   3.893   2.312  16.286 -0.0906  0.5664  0.3765
  600TMC3     O 8895   4.011   2.280  16.283 -0.1320  0.5485 -0.5396
  600TMC3     H 8896   3.739   2.129  16.263 -1.2185  1.5587 -0.0004
  600TMC3    H1 8897   3.921   2.376  16.542  0.0423 -0.1373 -0.2853
  600TMC3    H2 8898   3.709   2.022  16.682 -0.2892 -1.4274 -2.6901
  600TMC3    C7 8899   3.809   2.271  16.760 -0.0328 -0.3240 -0.1991
  600TMC3    C8 8900   3.653   1.935  16.446 -0.5726  0.0388 -0.3709
  600TMC3    O1 8901   3.796   2.195  16.853  0.1111  0.2914  0.4787
  600TMC3    O2 8902   3.671   1.849  16.534 -0.5490  0.0402 -0.2801
  601MPD2     C 8903   1.749   0.885   0.114 -0.2096 -0.4961 -0.2386
  601MPD2    C1 8904   1.631   0.806   0.105 -0.1120  0.0408  0.2157
  601MPD2    C2 8905   1.625   0.675   0.156 -0.3887 -0.3741  0.2476
  601MPD2    C3 8906   1.740   0.615   0.206  0.2540  0.0620 -0.0210
  601MPD2    C4 8907   1.851   0.690   0.204 -0.2048  0.2647  0.5391
  601MPD2    C5 8908   1.857   0.824   0.168 -0.1992 -0.1246  0.3488
  601MPD2     H 8909   1.528   0.627   0.163 -0.7151 -0.0076 -1.7610
  601MPD2    H1 8910   1.946   0.647   0.235 -0.0511 -0.5913 -1.1016
  601MPD2    H2 8911   1.754   0.987   0.077  1.1023 -1.1161 -1.7615
  601MPD2    H3 8912   1.954   0.871   0.174  0.1370 -0.8631  0.7695
  601MPD2     N 8913   1.746   0.487   0.263 -0.4914 -0.4258 -1.1373
  601MPD2    H5 8914   1.839   0.460   0.295 -1.8020 -1.2307  1.9859
  601MPD2    N1 8915   1.508   0.838   0.041  0.1773 -0.3375  0.2868
  601MPD2    H7 8916   1.434   0.771   0.026  0.2447 -0.4995  0.6658
  602TMC3    C1 8917   1.344   0.960  17.613  0.0569 -0.8750 -0.2011
  602TMC3    C2 8918   1.311   1.081  17.550  0.2304 -0.3666 -0.0633
  602TMC3    C3 8919   1.217   1.077  17.453  0.1476 -0.0913 -0.6776
  602TMC3    C4 8920   1.285   0.840  17.574  0.7015 -0.3942  0.3518
  602TMC3    C5 8921   1.199   0.852  17.470  0.1111 -0.3879 -0.2649
  602TMC3    C6 8922   1.168   0.963  17.404  0.6318 -0.5080 -0.0821
  602TMC3     C 8923   1.471   0.962  17.692 -0.5663 -0.1925 -0.4231
  602TMC3     O 8924   1.524   1.068   0.017  0.7624  0.5296  0.7278
  602TMC3     H 8925   1.351   1.170  17.596 -2.1574  0.2447  0.8477
  602TMC3    H1 8926   1.301   0.745  17.623 -0.9342 -0.7563  0.1617
  602TMC3    H2 8927   1.087   0.972  17.332 -0.0292  1.0342  0.8582
  602TMC3    C7 8928   1.130   0.729  17.434  0.2299  0.6136 -0.0926
  602TMC3    C8 8929   1.179   1.199  17.391 -0.4127  0.3160 -0.0642
  602TMC3    O1 8930   1.109   0.645  17.515  0.0889 -0.5614 -0.0447
  602TMC3    O2 8931   1.150   1.286  17.467  0.1910  0.1554  0.3934
  603TMC3    C1 8932   0.197   0.837  11.092 -0.5079  0.0328  0.9258
  603TMC3    C2 8933   0.232   0.806  11.219  0.6877 -0.0409  0.0768
  603TMC3    C3 8934   0.215   0.915  11.305 -1.0681  0.0060  0.7682
  603TMC3    C4 8935   0.137   0.949  11.043 -0.3313 -0.0147  0.2260
  603TMC3    C5 8936   0.122   1.047  11.140  0.0898 -0.6816  0.5067
  603TMC3    C6 8937   0.167   1.039  11.269  0.5254  0.5219 -0.3664
  603TMC3     C 8938   0.202   0.735  10.999  0.0565  0.6994 -0.2133
  603TMC3     O 8939   0.124   0.735  10.913 -0.0867  0.0201 -0.4575
  603TMC3     H 8940   0.247   0.706  11.258  0.3493 -0.4308 -0.7990
  603TMC3    H1 8941   0.101   0.960  10.941 -0.4115  0.5358  0.3160
  603TMC3    H2 8942   0.125   1.104  11.344 -0.2491 -2.4243  1.7522
  603TMC3    C7 8943   0.016   1.150  11.116  1.2710 -0.6348  0.6596
  603TMC3    C8 8944   0.217   0.882  11.448 -0.5477 -0.1024 -0.5462
  603TMC3    O1 8945   0.025   1.241  11.197 -0.1606  0.3169 -0.2534
  603TMC3    O2 8946   0.186   0.771  11.485  0.3699 -0.4402 -0.0022
  604MPD2     C 8947   0.456   4.179  16.457 -0.2823 -0.8123 -0.1247
  604MPD2    C1 8948   0.453   4.074  16.364 -0.3338  0.6615  0.4362
  604MPD2    C2 8949   0.480   4.108  16.240  0.1475  0.5643 -0.1463
  604MPD2    C3 8950   0.485   4.240  16.193 -0.1450  0.2728 -0.3100
  604MPD2    C4 8951   0.474   4.342  16.281 -0.1790 -0.0139 -0.0926
  604MPD2    C5 8952   0.467   4.309  16.409 -0.3049 -0.3148  0.5673
  604MPD2     H 8953   0.471   4.032  16.163 -0.4655  1.6651 -1.1638
  604MPD2    H1 8954   0.483   4.446  16.254  0.6656  0.3284  1.4610
  604MPD2    H2 8955   0.428   4.161  16.560 -0.3701 -0.2462 -0.0515
  604MPD2    H3 8956   0.463   4.392  16.478 -1.0840 -0.7411  1.0304
  604MPD2     N 8957   0.486   4.249  16.050 -0.3697 -0.7849 -0.0458
  604MPD2    H5 8958   0.506   4.170  15.991 -0.1003 -1.6479  1.1985
  604MPD2    N1 8959   0.423   3.949  16.413 -0.2377  0.0883  0.5185
  604MPD2    H7 8960   0.400   3.952  16.512  0.2137  0.9162  0.5993
  605TMC3    C1 8961   0.357   3.732  16.421  0.4577  0.0082  0.0010
  605TMC3    C2 8962   0.384   3.749  16.548  0.1496 -0.1522 -0.3897
  605TMC3    C3 8963   0.279   3.738  16.634 -0.2767 -0.0406  1.1085
  605TMC3    C4 8964   0.232   3.704  16.366 -0.1546 -0.1947 -0.3151
  605TMC3    C5 8965   0.130   3.699  16.460 -0.4099 -0.2752  0.4654
  605TMC3    C6 8966   0.156   3.713  16.591 -0.7680 -0.4067  0.0395
  605TMC3     C 8967   0.430   3.831  16.343  0.1854 -1.0273  0.2150
  605TMC3     O 8968   0.454   3.809  16.226  0.1494 -0.1834  0.4442
  605TMC3     H 8969   0.490   3.757  16.573 -0.2020  0.0273  1.0814
  605TMC3    H1 8970   0.207   3.712  16.261 -2.0583 -1.3525  0.0449
  605TMC3    H2 8971   0.073   3.692  16.657  0.1221 -0.4819  1.1311
  605TMC3    C7 8972   4.719   3.730  16.419 -0.4433 -0.4816  0.3081
  605TMC3    C8 8973   0.286   3.865  16.703 -0.2474 -0.5916  0.6192
  605TMC3    O1 8974   4.647   3.782  16.505  0.1619  0.6026 -0.1882
  605TMC3    O2 8975   0.395   3.916  16.690  0.1803  0.1503  0.1354
  606TMC3    C1 8976   1.910   2.667  17.179  0.9108  0.8212  0.4498
  606TMC3    C2 8977   2.039   2.669  17.221  0.2477  0.0031  0.6219
  606TMC3    C3 8978   2.075   2.584  17.324  0.2920  0.4488  0.1817
  606TMC3    C4 8979   1.815   2.579  17.225 -0.1104 -0.2421  0.1764
  606TMC3    C5 8980   1.846   2.505  17.339  1.4070  0.2679 -0.3718
  606TMC3    C6 8981   1.977   2.499  17.380  0.7556 -0.7848  0.3923
  606TMC3     C 8982   1.898   2.706  17.042  0.1942 -0.5198 -0.5618
  606TMC3     O 8983   2.001   2.709  16.977  0.9430 -0.0874  0.6032
  606TMC3     H 8984   2.118   2.729  17.177 -0.7450  0.1891 -0.8974
  606TMC3    H1 8985   1.710   2.580  17.197 -0.4078 -1.4130  1.2797
  606TMC3    H2 8986   1.997   2.443  17.471  2.3315  0.4419  0.7973
  606TMC3    C7 8987   1.732   2.458  17.424  0.0601 -0.4856 -1.0394
  606TMC3    C8 8988   2.213   2.548  17.322  0.6983 -0.1961 -0.0578
  606TMC3    O1 8989   1.770   2.424  17.534 -0.2395 -0.3190  0.4773
  606TMC3    O2 8990   2.286   2.640  17.291  0.3637  0.1611 -0.6866
  607MPD2     C 8991   3.851   1.349  11.646  0.4375 -0.8493 -0.3739
  607MPD2    C1 8992   3.939   1.428  11.713 -0.3397 -0.5250  0.6134
  607MPD2    C2 8993   3.941   1.424  11.846 -1.0350  0.4385 -0.1957
  607MPD2    C3 8994   3.859   1.338  11.925 -1.0694  0.7121 -0.0736
  607MPD2    C4 8995   3.765   1.263  11.856  0.7904  0.0467  0.5013
  607MPD2    C5 8996   3.771   1.263  11.719 -0.7305  0.0734 -0.5395
  607MPD2     H 8997   4.002   1.500  11.892  0.6865 -0.0185 -1.7412
  607MPD2    H1 8998   3.695   1.199  11.909  1.4591 -0.9176  0.2140
  607MPD2    H2 8999   3.827   1.345  11.540  1.2650  2.3847 -0.7034
  607MPD2    H3 9000   3.692   1.200  11.682  1.2636 -0.3364 -4.0494
  607MPD2     N 9001   3.876   1.351  12.066 -0.0068  0.3284  0.3330
  607MPD2    H5 9002   3.954   1.406  12.100 -0.6037  0.2014  1.9106
  607MPD2    N1 9003   4.037   1.511  11.653  0.5513 -0.6447  0.5676
  607MPD2    H7 9004   4.101   1.560  11.716 -1.1200 -0.5435  2.1901
  608TMC3    C1 9005   4.228   1.531  11.511 -0.7419 -0.3246  0.0997
  608TMC3    C2 9006   4.311   1.493  11.612 -0.5798 -1.0264  0.3777
  608TMC3    C3 9007   4.443   1.532  11.617  0.8696 -0.5691 -0.2694
  608TMC3    C4 9008   4.282   1.592  11.405  0.0273 -1.1466  0.0238
  608TMC3    C5 9009   4.420   1.603  11.399  0.6286  0.8486 -0.4153
  608TMC3    C6 9010   4.502   1.577  11.511  0.0481 -0.0615 -0.4476
  608TMC3     C 9011   4.085   1.509  11.522 -0.3592  0.2062 -0.8613
  608TMC3     O 9012   4.032   1.461  11.424  0.0781  0.4613 -0.0285
  608TMC3     H 9013   4.269   1.437  11.695 -0.7854 -0.5057  0.6253
  608TMC3    H1 9014   4.217   1.617  11.322  2.8086 -1.3350 -2.2110
  608TMC3    H2 9015   4.601   1.620  11.519  0.8649 -2.1108  0.5160
  608TMC3    C7 9016   4.473   1.671  11.282 -0.0371 -0.0022 -0.3233
  608TMC3    C8 9017   4.510   1.534  11.744 -1.0177 -0.3076 -0.2538
  608TMC3    O1 9018   4.405   1.743  11.212 -0.4625  0.6456 -0.9066
  608TMC3    O2 9019   4.628   1.509  11.735  0.0113  0.2366 -0.4558
  609TMC3    C1 9020   3.387   0.204   9.587 -0.3765  0.0551  0.3138
  609TMC3    C2 9021   3.384   0.132   9.468  0.7556  0.5940  0.5959
  609TMC3    C3 9022   3.486   0.046   9.448  0.9852 -0.2429  0.6231
  609TMC3    C4 9023   3.475   0.174   9.689 -0.2818 -0.1351 -0.2420
  609TMC3    C5 9024   3.580   0.099   9.654 -0.2138  0.9971  0.3790
  609TMC3    C6 9025   3.592   0.035   9.538  0.6832 -0.3418  1.0543
  609TMC3     C 9026   3.296   0.316   9.609  0.0646 -0.9328  0.1018
  609TMC3     O 9027   3.196   0.324   9.537  0.1380  0.1452  0.7240
  609TMC3     H 9028   3.312   0.148   9.389  0.1054  1.0538  1.2790
  609TMC3    H1 9029   3.464   0.211   9.790 -2.3173 -2.0017  0.2138
  609TMC3    H2 9030   3.678   4.693   9.534  0.9340 -0.1380  3.1753
  609TMC3    C7 9031   3.681   0.080   9.758  0.1384 -0.5736  0.3573
  609TMC3    C8 9032   3.479   4.688   9.320  0.6497 -0.3176  0.1571
  609TMC3    O1 9033   3.688   0.162   9.846  0.0309  0.0770 -0.2843
  609TMC3    O2 9034   3.421   0.021   9.228  0.7130 -0.0480  0.2896
  610TMC3    C1 9035   4.535   1.380  12.682  0.3598  0.0875  0.2184
  610TMC3    C2 9036   4.629   1.452  12.617 -0.6839 -0.8807 -0.2476
  610TMC3    C3 9037   0.033   1.411  12.641 -0.3805  0.0234  0.1451
  610TMC3    C4 9038   4.555   1.277  12.762 -0.1487 -0.0578 -0.0420
  610TMC3    C5 9039   4.685   1.237  12.788 -1.3173 -0.2775  0.2961
  610TMC3    C6 9040   0.060   1.307  12.724  0.2515  0.0133  0.6105
  610TMC3     C 9041   4.397   1.424  12.662  0.0423 -0.0371 -0.7747
  610TMC3     O 9042   4.389   1.532  12.600 -0.2164 -0.4298  0.6856
  610TMC3     H 9043   4.612   1.528  12.543  1.7744  1.1694  1.2852
  610TMC3    H1 9044   4.476   1.229  12.817 -0.1812 -0.0426 -0.0755
  610TMC3    H2 9045   0.157   1.273  12.759  0.6613  1.7230  1.1382
  610TMC3    C7 9046   0.007   1.126  12.878 -0.6018 -0.2554 -0.2376
  610TMC3    C8 9047   0.137   1.471  12.554 -0.0490 -0.4984  0.4113
  610TMC3    O1 9048   0.125   1.121  12.920  0.2254 -0.0679  0.3853
  610TMC3    O2 9049   0.106   1.538  12.453 -0.4173 -0.4821  0.2890
  611MPD2     C 9050   3.207   1.121  10.768 -0.4302  0.9849  0.0769
  611MPD2    C1 9051   3.255   1.053  10.657  0.2364  0.0641  0.1866
  611MPD2    C2 9052   3.391   1.066  10.627 -0.2252 -0.0168  0.1280
  611MPD2    C3 9053   3.476   1.145  10.701 -0.9223 -0.8165  0.2256
  611MPD2    C4 9054   3.420   1.213  10.809  0.7893  0.3510 -0.2598
  611MPD2    C5 9055   3.294   1.195  10.846 -0.6729 -0.2576 -0.0041
  611MPD2     H 9056   3.429   1.002  10.548 -2.1527 -2.6342  1.3377
  611MPD2    H1 9057   3.477   1.275  10.877  2.1057 -0.4856 -0.5967
  611MPD2    H2 9058   3.101   1.126  10.787 -0.2728 -0.3687  1.3068
  611MPD2    H3 9059   3.244   1.250  10.925 -0.8807 -0.6778  0.1553
  611MPD2     N 9060   3.611   1.161  10.674  0.5602  0.1541 -0.4598
  611MPD2    H5 9061   3.654   1.219  10.745 -0.6312  2.8629 -1.9216
  611MPD2    N1 9062   3.158   0.974  10.582 -0.2869  0.0499  0.5611
  611MPD2    H7 9063   3.084   0.933  10.639 -0.2693  1.2633  1.4392
  612TMC3    C1 9064   3.824   1.134  10.584  0.2295  0.1411  0.0346
  612TMC3    C2 9065   3.874   1.137  10.711 -0.5962 -0.2198  0.1928
  612TMC3    C3 9066   4.011   1.146  10.712  0.4468  0.5163  1.0552
  612TMC3    C4 9067   3.895   1.141  10.465 -0.5215 -0.5765  0.2006
  612TMC3    C5 9068   4.030   1.139  10.477  0.0147  0.3174  0.0314
  612TMC3    C6 9069   4.087   1.139  10.602  0.2284  0.4567 -0.2429
  612TMC3     C 9070   3.682   1.106  10.572 -0.1975 -0.8633 -0.7160
  612TMC3     O 9071   3.641   1.058  10.473 -0.0708 -0.5443 -0.7285
  612TMC3     H 9072   3.818   1.138  10.804  0.4280  0.0246  0.8087
  612TMC3    H1 9073   3.842   1.161  10.372  0.9491  1.9358 -0.0891
  612TMC3    H2 9074   4.195   1.126  10.600  0.3437  1.3569  0.1601
  612TMC3    C7 9075   4.113   1.164  10.363  0.1120  0.0792  0.5560
  612TMC3    C8 9076   4.068   1.172  10.840  0.2499 -0.0920 -0.5459
  612TMC3    O1 9077   4.230   1.131  10.382  0.0079  0.3831  0.0356
  612TMC3    O2 9078   3.997   1.223  10.928 -0.2495  0.0616 -0.3481
  613MPD2     C 9079   2.851   3.565  16.686 -0.5854  0.2778  0.4190
  613MPD2    C1 9080   2.748   3.569  16.594 -0.2857  0.7115 -0.2889
  613MPD2    C2 9081   2.649   3.468  16.581  0.0972  0.1265 -0.2592
  613MPD2    C3 9082   2.665   3.365  16.665  0.0050 -0.8091  0.0274
  613MPD2    C4 9083   2.761   3.359  16.762  0.4187  0.1948  0.4128
  613MPD2    C5 9084   2.851   3.464  16.779 -0.1212  0.0174  0.3611
  613MPD2     H 9085   2.570   3.475  16.506  0.8208 -0.6002 -1.0911
  613MPD2    H1 9086   2.770   3.274  16.829 -1.6228 -1.7210 -1.7641
  613MPD2    H2 9087   2.931   3.639  16.688 -0.3268 -0.0017  0.3613
  613MPD2    H3 9088   2.925   3.452  16.856  0.3507  2.6333  0.2949
  613MPD2     N 9089   2.588   3.246  16.658 -0.5409  0.6783  0.8274
  613MPD2    H5 9090   2.607   3.179  16.732 -0.3687  2.2948  2.2480
  613MPD2    N1 9091   2.766   3.670  16.496  0.5226 -0.5788  0.0079
  613MPD2    H7 9092   2.834   3.737  16.528 -0.2664 -0.9070  2.4025
  614TMC3    C1 9093   2.634   3.592  16.297  0.0431  0.0535  0.4758
  614TMC3    C2 9094   2.708   3.480  16.277 -0.5149  0.2078  0.3819
  614TMC3    C3 9095   2.655   3.386  16.186  0.1552 -1.1330 -0.2868
  614TMC3    C4 9096   2.535   3.632  16.212 -0.0437 -0.1002 -0.1274
  614TMC3    C5 9097   2.500   3.541  16.114 -0.4374  0.0914 -0.6760
  614TMC3    C6 9098   2.549   3.412  16.103  0.6511 -0.5728 -0.9668
  614TMC3     C 9099   2.683   3.700  16.386 -0.1316 -0.5738 -0.2464
  614TMC3     O 9100   2.662   3.804  16.327  0.0678  0.2165 -0.0533
  614TMC3     H 9101   2.787   3.451  16.345  1.3318  0.9533 -1.4577
  614TMC3    H1 9102   2.492   3.732  16.208 -0.8960 -0.4557  0.0753
  614TMC3    H2 9103   2.514   3.334  16.036 -1.2260 -0.7109  0.1779
  614TMC3    C7 9104   2.424   3.599  16.007  0.3798  0.0151 -0.0281
  614TMC3    C8 9105   2.703   3.246  16.214  0.2667  0.1776 -0.3794
  614TMC3    O1 9106   2.385   3.713  16.016  0.0370 -0.1741  0.1104
  614TMC3    O2 9107   2.742   3.225  16.328 -0.6136 -0.4029  0.4392
  615MPD2     C 9108   2.243   4.352  15.954 -0.1720  0.1713  0.4135
  615MPD2    C1 9109   2.223   4.491  15.987 -0.5878  0.0212 -0.2911
  615MPD2    C2 9110   2.145   4.561  15.895  0.4704 -0.0181  0.5535
  615MPD2    C3 9111   2.087   4.503  15.784  0.0271 -0.8931 -0.0076
  615MPD2    C4 9112   2.107   4.368  15.763  0.0922 -0.4840 -0.0622
  615MPD2    C5 9113   2.183   4.291  15.845 -0.4019  0.8578 -1.2177
  615MPD2     H 9114   2.137   4.666  15.919 -0.2467 -0.1311  0.7956
  615MPD2    H1 9115   2.058   4.314  15.682  1.5863 -1.0773 -0.5741
  615MPD2    H2 9116   2.309   4.296  16.018  0.0764 -0.5528 -0.4762
  615MPD2    H3 9117   2.197   4.187  15.820 -0.5620  0.9391 -1.6620
  615MPD2     N 9118   1.993   4.572  15.702  0.0627  0.0460 -0.1135
  615MPD2    H5 9119   1.958   4.521  15.621 -2.7495  2.4474 -0.4203
  615MPD2    N1 9120   2.283   4.560  16.095  0.4969  0.0671 -0.4083
  615MPD2    H7 9121   2.262   4.659  16.102 -1.1103 -0.5012  2.8670
  616TMC3    C1 9122   2.445   4.615  16.256 -0.3702 -0.4044 -0.1238
  616TMC3    C2 9123   2.571   4.597  16.302  0.4982  0.3778  0.2026
  616TMC3    C3 9124   2.622   4.684  16.396  0.2108 -0.3499 -0.7501
  616TMC3    C4 9125   2.364   4.717  16.295 -0.1350  0.6608  0.0130
  616TMC3    C5 9126   2.424   0.091  16.377  0.5424 -0.3662  0.0071
  616TMC3    C6 9127   2.548   0.075  16.436 -0.0336  0.3180  0.1669
  616TMC3     C 9128   2.390   4.515  16.162 -0.4891  0.1608  0.0221
  616TMC3     O 9129   2.458   4.410  16.145  0.0190  0.0417  0.3775
  616TMC3     H 9130   2.627   4.506  16.283  0.9221  0.8534 -0.8566
  616TMC3    H1 9131   2.264   0.004  16.255 -1.5937  1.6323  3.9393
  616TMC3    H2 9132   2.595   0.149  16.500  2.3506 -0.7734 -0.3179
  616TMC3    C7 9133   2.330   0.193  16.423 -1.0529  0.8405  0.0828
  616TMC3    C8 9134   2.693   4.619  16.500  0.1824 -0.2977  0.0955
  616TMC3    O1 9135   2.207   0.188  16.403 -0.0647 -0.0851 -0.7962
  616TMC3    O2 9136   2.674   4.502  16.530 -0.0472  0.0749  0.1359
  617MPD2     C 9137   0.214   3.199  13.856 -0.3626  0.3912  0.1973
  617MPD2    C1 9138   0.274   3.101  13.922  0.3807  0.2236  0.1816
  617MPD2    C2 9139   0.203   3.026  14.014  0.3769  0.4752 -0.3813
  617MPD2    C3 9140   0.072   3.059  14.043 -0.7970 -0.3741  0.4900
  617MPD2    C4 9141   0.012   3.158  13.972 -0.2971 -0.3494 -0.2589
  617MPD2    C5 9142   0.086   3.238  13.883 -0.8578 -0.0241  0.5240
  617MPD2     H 9143   0.250   2.937  14.055  0.4730  0.1853 -1.1192
  617MPD2    H1 9144   4.632   3.186  13.975 -0.9452 -2.7588 -0.5677
  617MPD2    H2 9145   0.267   3.274  13.798 -0.1134  2.0118  2.5368
  617MPD2    H3 9146   0.041   3.323  13.834  0.1564 -0.9545 -2.0300
  617MPD2     N 9147   4.722   2.990  14.140 -0.2572  0.1494 -0.4120
  617MPD2    H5 9148   4.626   3.022  14.152 -0.2092  0.8213 -1.8692
  617MPD2    N1 9149   0.409   3.085  13.901  0.2563  0.5205  0.2015
  617MPD2    H7 9150   0.453   3.147  13.834  1.2332  1.1134  1.3961
  618TMC3    C1 9151   0.627   2.990  13.908 -0.4287  0.8431  0.5426
  618TMC3    C2 9152   0.728   2.927  13.972  0.2860 -0.6675  0.6055
  618TMC3    C3 9153   0.842   2.895  13.903 -0.3748  0.6370 -1.0821
  618TMC3    C4 9154   0.648   3.037  13.779  0.5362  0.1345  0.0116
  618TMC3    C5 9155   0.764   3.009  13.708  0.3388 -0.0562  0.0923
  618TMC3    C6 9156   0.859   2.937  13.773 -0.1452 -0.4030  1.0044
  618TMC3     C 9157   0.492   2.990  13.962 -0.6928 -0.4734 -0.3847
  618TMC3     O 9158   0.477   2.932  14.069  0.0429  0.1279 -0.1636
  618TMC3     H 9159   0.711   2.883  14.069  1.9822 -3.8752 -0.5451
  618TMC3    H1 9160   0.581   3.109  13.733 -0.6583 -0.1529  1.2932
  618TMC3    H2 9161   0.944   2.905  13.714 -0.9766  0.2591 -0.5519
  618TMC3    C7 9162   0.720   2.949  13.590  0.0612  0.0492  0.3494
  618TMC3    C8 9163   0.936   2.810  13.971 -0.2379 -0.0344 -0.2557
  618TMC3    O1 9164   0.598   2.936  13.573  0.1874  0.2290 -0.2747
  618TMC3    O2 9165   0.897   2.746  14.071  0.0616  0.3529 -0.0236
  619MPD2     C 9166   1.304   3.667  13.776  0.2753  0.0375  0.7805
  619MPD2    C1 9167   1.235   3.785  13.752 -0.2936  0.5999 -0.1147
  619MPD2    C2 9168   1.189   3.861  13.855  0.3212 -0.1805  0.5516
  619MPD2    C3 9169   1.221   3.819  13.980  0.0039 -0.2763 -0.0193
  619MPD2    C4 9170   1.312   3.720  13.998  0.0404 -0.1637  0.3613
  619MPD2    C5 9171   1.365   3.643  13.901 -0.5233  0.0761  0.3284
  619MPD2     H 9172   1.137   3.954  13.837  1.6633  0.4205 -0.2535
  619MPD2    H1 9173   1.343   3.701  14.101 -0.3822 -0.6802  0.3973
  619MPD2    H2 9174   1.325   3.602  13.692  1.6701  1.5117 -0.0173
  619MPD2    H3 9175   1.423   3.559  13.935  0.6844  0.4415 -0.8394
  619MPD2     N 9176   1.173   3.891  14.096  0.2197  0.0743  0.1373
  619MPD2    H5 9177   1.233   3.883  14.177  0.2257 -2.3297 -0.1012
  619MPD2    N1 9178   1.187   3.810  13.618 -0.3153 -0.0783  0.6889
  619MPD2    H7 9179   1.109   3.870  13.595  1.7073  1.5394 -1.8744
  620TMC3    C1 9180   1.176   3.796  13.391 -0.9380  0.5331  0.7388
  620TMC3    C2 9181   1.043   3.823  13.402 -0.2262  0.1064 -0.3877
  620TMC3    C3 9182   0.979   3.913  13.336 -0.0063  0.1571 -0.1577
  620TMC3    C4 9183   1.258   3.865  13.309 -0.2033 -0.0811  0.2802
  620TMC3    C5 9184   1.193   3.963  13.231 -0.3468  0.3058 -0.4034
  620TMC3    C6 9185   1.053   3.979  13.240  0.1126 -0.2946  0.6484
  620TMC3     C 9186   1.248   3.759  13.507 -0.1891  0.4185  0.1741
  620TMC3     O 9187   1.352   3.691  13.501  0.0346 -0.0811 -0.0644
  620TMC3     H 9188   0.995   3.756  13.474 -0.2953  2.2191  1.5272
  620TMC3    H1 9189   1.364   3.843  13.308  0.0682  1.2620 -1.8569
  620TMC3    H2 9190   1.014   4.053  13.171  0.3801 -1.5173 -0.8047
  620TMC3    C7 9191   1.256   4.088  13.228 -0.7365  0.3770 -0.1935
  620TMC3    C8 9192   0.935   4.002  13.435 -0.9291 -0.5776 -0.0462
  620TMC3    O1 9193   1.209   4.165  13.144 -0.2122  0.2872 -0.4017
  620TMC3    O2 9194   0.980   3.976  13.548  0.0444 -0.0116 -0.1697
  621MPD2     C 9195   2.399   4.171   9.793 -0.6130  0.0783 -0.1189
  621MPD2    C1 9196   2.375   4.168   9.928  0.7718 -1.2942  0.0854
  621MPD2    C2 9197   2.446   4.244  10.009 -0.3974  0.1314  0.7832
  621MPD2    C3 9198   2.552   4.324   9.966 -0.5808 -0.5572 -0.2538
  621MPD2    C4 9199   2.579   4.326   9.832  0.3324 -0.8811  0.3033
  621MPD2    C5 9200   2.501   4.244   9.750  0.5508  0.5046 -0.3033
  621MPD2     H 9201   2.434   4.230  10.116 -0.9277  2.3384  1.0222
  621MPD2    H1 9202   2.663   4.377   9.787 -1.7375  0.3911 -2.1367
  621MPD2    H2 9203   2.343   4.115   9.719 -0.1672  0.8171 -1.0071
  621MPD2    H3 9204   2.531   4.239   9.646 -0.0605  1.3008 -0.5160
  621MPD2     N 9205   2.630   4.387  10.066  0.6537 -0.2230 -0.3505
  621MPD2    H5 9206   2.590   4.369  10.157  0.4735 -0.6860 -0.5260
  621MPD2    N1 9207   2.281   4.087   9.990  0.1099 -0.1814 -0.7968
  621MPD2    H7 9208   2.272   4.094  10.091 -0.5654  0.2312 -0.8883
  622TMC3    C1 9209   2.103   3.947  10.006  0.1737  0.5125 -0.1636
  622TMC3    C2 9210   2.031   4.031  10.087 -0.1127  0.1515 -0.3197
  622TMC3    C3 9211   1.921   3.978  10.148 -0.2482 -0.7171 -0.5454
  622TMC3    C4 9212   2.067   3.814   9.989 -0.6165 -0.7257 -0.2223
  622TMC3    C5 9213   1.960   3.764  10.046  0.3994  0.0751  0.0252
  622TMC3    C6 9214   1.888   3.849  10.125  0.3145  0.2547  0.2359
  622TMC3     C 9215   2.212   3.996   9.922 -0.6326  0.1753 -0.2676
  622TMC3     O 9216   2.208   3.971   9.803 -0.1321 -0.3903  0.3985
  622TMC3     H 9217   2.060   4.130  10.118 -0.7684 -0.0710  0.9993
  622TMC3    H1 9218   2.127   3.760   9.916  2.5650 -0.5378  2.2237
  622TMC3    H2 9219   1.801   3.811  10.177 -2.2543  1.7015 -3.0138
  622TMC3    C7 9220   1.885   3.653   9.990 -0.4912  0.3340  0.2830
  622TMC3    C8 9221   1.819   4.063  10.209 -0.5467  0.4310  0.2856
  622TMC3    O1 9222   1.802   3.610  10.068 -0.4288  0.2168  0.7381
  622TMC3    O2 9223   1.737   3.998  10.273  0.0501  0.6048  0.1737
  623MPD2     C 9224   0.190   0.489  16.460 -0.1236 -0.4138  0.7160
  623MPD2    C1 9225   0.144   0.365  16.425 -0.6857  0.7143 -0.0877
  623MPD2    C2 9226   0.202   0.255  16.480  0.6750  0.1115  0.1466
  623MPD2    C3 9227   0.305   0.272  16.576 -0.4110  0.1276 -0.4599
  623MPD2    C4 9228   0.349   0.403  16.608 -0.1991 -0.0944 -0.3791
  623MPD2    C5 9229   0.294   0.511  16.541 -0.1468  0.3471 -0.7833
  623MPD2     H 9230   0.152   0.160  16.465 -1.3963  1.0889  0.8185
  623MPD2    H1 9231   0.420   0.428  16.686  0.8358  0.0299 -1.3659
  623MPD2    H2 9232   0.145   0.579  16.419  2.7171  0.1968 -1.0826
  623MPD2    H3 9233   0.319   0.613  16.568 -1.5804  0.1672  1.2477
  623MPD2     N 9234   0.370   0.157  16.634 -0.4584 -0.1151  0.2216
  623MPD2    H5 9235   0.345   0.063  16.606 -1.0379  0.5551 -1.5317
  623MPD2    N1 9236   0.038   0.368  16.332 -0.0162 -0.1088  0.4740
  623MPD2    H7 9237   0.009   0.462  16.307  0.5470  0.1599  0.8363
  624TMC3    C1 9238   0.720   4.642  16.732 -0.3970  0.1847 -0.3118
  624TMC3    C2 9239   0.657   4.523  16.759 -0.2270 -0.3908 -0.1501
  624TMC3    C3 9240   0.516   4.524  16.770  0.3794 -0.1454 -0.0045
  624TMC3    C4 9241   0.665   0.039  16.747  0.7540  0.3479  0.1464
  624TMC3    C5 9242   0.529   0.031  16.762  0.6685  0.6297 -0.3242
  624TMC3    C6 9243   0.450   4.643  16.768 -0.1724  0.0219  0.3922
  624TMC3     C 9244   0.859   4.633  16.751  0.4617  0.8552 -0.1292
  624TMC3     O 9245   0.911   4.709  16.833  0.3006 -0.0281 -0.1338
  624TMC3     H 9246   0.705   4.426  16.756 -0.1695 -0.4114  1.3624
  624TMC3    H1 9247   0.709   0.137  16.731 -0.3408  0.7675 -0.3565
  624TMC3    H2 9248   0.344   4.660  16.772 -0.3632 -1.1800  0.6306
  624TMC3    C7 9249   0.469   0.160  16.731 -0.1438  0.3542 -0.2080
  624TMC3    C8 9250   0.440   4.392  16.768  0.0506 -0.5998  0.4938
  624TMC3    O1 9251   0.514   0.257  16.791 -0.7609 -0.2152 -0.4864
  624TMC3    O2 9252   0.507   4.290  16.789 -0.5740  0.5641 -0.6962
  625MPD2     C 9253   1.417   0.728   0.862  0.4031  0.2200  0.7595
  625MPD2    C1 9254   1.514   0.834   0.842  0.2101  0.3270  1.0611
  625MPD2    C2 9255   1.635   0.831   0.915  0.2242  0.4790 -0.5340
  625MPD2    C3 9256   1.651   0.743   1.023 -0.5833  0.7399  0.3404
  625MPD2    C4 9257   1.553   0.646   1.041  0.1824 -0.5897  0.2167
  625MPD2    C5 9258   1.445   0.639   0.958 -0.3053 -0.5655  0.4876
  625MPD2     H 9259   1.720   0.899   0.914  0.4944  0.1738  1.4303
  625MPD2    H1 9260   1.565   0.566   1.113  0.0475  0.1821  1.0938
  625MPD2    H2 9261   1.325   0.726   0.805  1.3416 -2.5832 -0.6649
  625MPD2    H3 9262   1.370   0.561   0.970  0.2014 -0.9353  1.2272
  625MPD2     N 9263   1.759   0.759   1.110 -0.1554  0.5925 -0.4196
  625MPD2    H5 9264   1.811   0.844   1.090 -1.1078  1.0356 -1.0137
  625MPD2    N1 9265   1.477   0.950   0.771 -0.5607  0.4958  0.4780
  625MPD2    H7 9266   1.549   1.021   0.781  0.6982 -1.0279  2.2241
  626TMC3    C1 9267   1.335   1.126   0.706 -0.0902 -0.5088  0.5072
  626TMC3    C2 9268   1.252   1.162   0.604 -0.4397 -0.1947  0.4849
  626TMC3    C3 9269   1.251   1.292   0.573 -0.5850 -0.1301 -0.1087
  626TMC3    C4 9270   1.420   1.215   0.769 -0.8555  0.0644 -0.3865
  626TMC3    C5 9271   1.413   1.343   0.728 -0.1647 -0.6191 -0.5102
  626TMC3    C6 9272   1.322   1.393   0.631  0.1375  0.1255 -0.0062
  626TMC3     C 9273   1.355   0.980   0.718 -0.1420  0.7409 -0.4190
  626TMC3     O 9274   1.256   0.911   0.690  0.3671  0.3076  0.1150
  626TMC3     H 9275   1.185   1.086   0.565 -1.7302  0.6771  1.0155
  626TMC3    H1 9276   1.484   1.189   0.853 -4.7485 -0.8462  2.2945
  626TMC3    H2 9277   1.314   1.498   0.608 -0.0918 -0.3193 -1.8998
  626TMC3    C7 9278   1.483   1.431   0.810 -0.0193  0.6492 -0.2649
  626TMC3    C8 9279   1.151   1.353   0.483 -0.4146  0.0002  0.0804
  626TMC3    O1 9280   1.578   1.382   0.867  0.4409  0.0040  0.0683
  626TMC3    O2 9281   1.121   1.291   0.380 -0.3025  0.2689  0.4656
  627MPD2     C 9282   0.291   1.609  14.449  0.4684  0.3298 -0.2622
  627MPD2    C1 9283   0.193   1.647  14.543 -0.4179  0.2708 -0.1292
  627MPD2    C2 9284   0.068   1.595  14.543  0.6209 -0.2968  0.8650
  627MPD2    C3 9285   0.025   1.512  14.440 -0.2790  0.3876  0.4956
  627MPD2    C4 9286   0.117   1.472  14.348  0.1550 -0.2509 -0.0038
  627MPD2    C5 9287   0.248   1.518  14.356  0.0451  0.1909  0.0479
  627MPD2     H 9288   4.719   1.630  14.615  0.0471 -0.7697  0.5234
  627MPD2    H1 9289   0.087   1.415  14.261  0.4589 -2.2129  1.1556
  627MPD2    H2 9290   0.395   1.641  14.450  0.3440  0.6683  2.9504
  627MPD2    H3 9291   0.317   1.486  14.278 -1.1971 -0.2074 -0.9020
  627MPD2     N 9292   4.622   1.456  14.451 -0.5066  0.6766 -0.1258
  627MPD2    H5 9293   4.567   1.475  14.534 -0.7844  0.7589 -0.3311
  627MPD2    N1 9294   0.227   1.727  14.654 -0.5763 -0.0532 -1.0476
  627MPD2    H7 9295   0.148   1.757  14.710 -1.0435 -2.2297 -0.5448
  628TMC3    C1 9296   0.364   1.836  14.815 -0.3140 -0.0648 -0.3648
  628TMC3    C2 9297   0.492   1.841  14.871  0.0546  0.1420  0.2103
  628TMC3    C3 9298   0.523   1.958  14.943  0.9058  0.0299  0.0244
  628TMC3    C4 9299   0.282   1.944  14.814  0.2520 -0.2503  0.4279
  628TMC3    C5 9300   0.322   2.056  14.875  0.4125  0.6993 -0.2389
  628TMC3    C6 9301   0.443   2.070  14.930 -0.4304 -0.8595  0.3663
  628TMC3     C 9302   0.348   1.732  14.716 -0.1092 -0.2844  0.0525
  628TMC3     O 9303   0.444   1.662  14.690 -0.2949  0.5347 -0.0147
  628TMC3     H 9304   0.557   1.754  14.872  1.6771  1.3288 -1.3596
  628TMC3    H1 9305   0.195   1.936  14.750 -0.3508 -0.7142  1.3206
  628TMC3    H2 9306   0.449   2.145  15.009 -0.8119 -0.5327  0.0855
  628TMC3    C7 9307   0.216   2.124  14.941  0.1156  0.3511 -0.2500
  628TMC3    C8 9308   0.662   1.975  14.954 -0.7311  0.5420 -1.0162
  628TMC3    O1 9309   0.210   2.146  15.061  0.2023 -0.6000  0.0451
  628TMC3    O2 9310   0.717   2.073  14.916 -0.1192  0.1415 -0.4200
  629MPD2     C 9311   3.075   4.639  16.838 -0.3280  0.1296 -0.2009
  629MPD2    C1 9312   3.069   0.035  16.776  0.2100 -0.3319 -0.2387
  629MPD2    C2 9313   2.974   0.049  16.681 -0.4070  0.6975  0.2277
  629MPD2    C3 9314   2.884   4.678  16.651  0.2939  0.4775  0.0887
  629MPD2    C4 9315   2.893   4.552  16.719  0.5812  0.1095 -0.6040
  629MPD2    C5 9316   2.987   4.541  16.816 -0.1418  0.0620 -0.2886
  629MPD2     H 9317   2.964   0.137  16.618 -0.4360  1.2349  0.9874
  629MPD2    H1 9318   2.833   4.466  16.691 -1.2761  1.3283 -0.3350
  629MPD2    H2 9319   3.145   4.620  16.919  2.1537  0.9835 -2.1581
  629MPD2    H3 9320   2.986   4.451  16.876  2.8056 -0.5850 -1.1698
  629MPD2     N 9321   2.787   4.703  16.551 -0.9624 -0.2963  0.1771
  629MPD2    H5 9322   2.800   0.058  16.489 -0.4415  0.5191  1.3330
  629MPD2    N1 9323   3.160   0.142  16.814  0.6791 -0.5327  0.0868
  629MPD2    H7 9324   3.225   0.124  16.890  0.0921  2.6582  1.3461
  630TMC3    C1 9325   3.277   0.355  16.820  0.1819 -0.1904  0.4003
  630TMC3    C2 9326   3.273   0.493  16.798  0.0962  0.3888 -1.2655
  630TMC3    C3 9327   3.344   0.572  16.881  0.4809  0.1699  0.0708
  630TMC3    C4 9328   3.355   0.301  16.912 -0.2834  0.6549  0.0046
  630TMC3    C5 9329   3.420   0.387  17.002 -0.2674  0.0350  0.1468
  630TMC3    C6 9330   3.406   0.524  16.993  0.8509  0.2380 -0.1630
  630TMC3     C 9331   3.171   0.271  16.760  0.3202  0.2631 -0.1138
  630TMC3     O 9332   3.102   0.323  16.671  0.0919  0.3307  1.1101
  630TMC3     H 9333   3.205   0.532  16.723 -1.1940 -0.8299 -0.7344
  630TMC3    H1 9334   3.365   0.194  16.927 -0.7144  0.5098 -0.7472
  630TMC3    H2 9335   3.471   0.580  17.059 -0.0888  1.9322 -0.6758
  630TMC3    C7 9336   3.472   0.330  17.124 -0.1330  0.5367 -0.0931
  630TMC3    C8 9337   3.393   0.704  16.839  0.4315  0.2777 -0.7545
  630TMC3    O1 9338   3.422   0.226  17.167 -0.0661 -0.4492 -0.3609
  630TMC3    O2 9339   3.442   0.757  16.935  0.1190  0.0931  0.3187
  631MPD2     C 9340   1.073   0.100  15.494  0.3256 -0.2624  0.3103
  631MPD2    C1 9341   1.154   0.202  15.446 -0.5318  0.2056 -0.3828
  631MPD2    C2 9342   1.287   0.172  15.432  0.0046  0.2935 -0.7024
  631MPD2    C3 9343   1.346   0.052  15.467  0.0244 -0.5868 -0.2056
  631MPD2    C4 9344   1.260   4.675  15.517 -0.1479  0.6563  0.1157
  631MPD2    C5 9345   1.131   4.702  15.527  0.2886  0.2623  0.2132
  631MPD2     H 9346   1.360   0.244  15.395  1.5863 -0.3882  1.1094
  631MPD2    H1 9347   1.297   4.576  15.541 -0.9422  0.7133  1.5315
  631MPD2    H2 9348   0.965   0.101  15.498  0.2581 -2.3354 -0.7427
  631MPD2    H3 9349   1.066   4.621  15.556  2.9240 -1.2592  1.8992
  631MPD2     N 9350   1.484   0.042  15.462  0.3249 -0.0203  0.0057
  631MPD2    H5 9351   1.538   0.122  15.431  1.9354 -1.2278 -0.3066
  631MPD2    N1 9352   1.100   0.328  15.422 -0.1153 -0.3160  0.4943
  631MPD2    H7 9353   1.001   0.341  15.442  0.0451 -2.0214  2.3506
  632TMC3    C1 9354   1.093   0.545  15.321 -0.3623  0.1081 -0.9908
  632TMC3    C2 9355   0.968   0.564  15.371  0.0103  0.7599 -0.1819
  632TMC3    C3 9356   0.894   0.663  15.312  0.9022  0.0497 -0.4051
  632TMC3    C4 9357   1.149   0.627  15.224 -0.4348 -0.3290 -0.6280
  632TMC3    C5 9358   1.074   0.734  15.175 -0.2969  0.6917  0.3577
  632TMC3    C6 9359   0.943   0.750  15.216  0.2433 -0.0181 -0.1349
  632TMC3     C 9360   1.169   0.424  15.348 -0.7710  0.3073  0.0418
  632TMC3     O 9361   1.268   0.415  15.287  0.0075 -0.7847 -0.0410
  632TMC3     H 9362   0.931   0.487  15.437 -0.0725  0.3683 -0.6946
  632TMC3    H1 9363   1.249   0.608  15.188 -0.2211  1.4234 -0.9292
  632TMC3    H2 9364   0.879   0.820  15.164  1.0632  0.3001 -0.7105
  632TMC3    C7 9365   1.135   0.801  15.064 -0.3646  0.4361 -0.6611
  632TMC3    C8 9366   0.756   0.683  15.360 -0.8140  0.5802  0.5126
  632TMC3    O1 9367   1.253   0.782  15.052 -0.2292  0.4140  0.3194
  632TMC3    O2 9368   0.728   0.627  15.463 -0.4745  0.5225  0.1123
  633MPD2     C 9369   0.826   2.953  17.410  0.0311 -0.3459  0.3686
  633MPD2    C1 9370   0.812   2.911  17.276  0.0621  0.0587  0.2556
  633MPD2    C2 9371   0.766   2.775  17.251 -0.1665  0.2772  0.5747
  633MPD2    C3 9372   0.746   2.688  17.356 -0.0872  0.2394  0.1546
  633MPD2    C4 9373   0.762   2.732  17.487 -0.4839  0.1784 -0.9426
  633MPD2    C5 9374   0.805   2.861  17.511 -0.5302  0.2275  0.4328
  633MPD2     H 9375   0.780   2.739  17.150 -0.8180 -0.4313  0.7313
  633MPD2    H1 9376   0.750   2.669  17.573  2.6313  0.8657  0.0024
  633MPD2    H2 9377   0.855   3.055  17.432  0.8945 -0.6110  0.4581
  633MPD2    H3 9378   0.825   2.887  17.615 -1.8546  0.0152  0.7395
  633MPD2     N 9379   0.729   2.550  17.339 -0.0513 -0.1205 -0.5199
  633MPD2    H5 9380   0.729   2.492  17.422  1.2874 -1.3441 -1.3850
  633MPD2    N1 9381   0.852   2.988  17.165 -0.6525 -0.7443 -0.3396
  633MPD2    H7 9382   0.840   2.952  17.071 -0.9762  0.6659 -0.8389
  634TMC3    C1 9383   0.910   3.162  17.031 -0.4577 -0.1203 -0.4302
  634TMC3    C2 9384   0.957   3.069  16.943  0.2320 -0.5504  0.0544
  634TMC3    C3 9385   0.971   3.099  16.810  0.6108  0.0244  0.0620
  634TMC3    C4 9386   0.887   3.291  16.988 -0.3831  0.0253  0.1155
  634TMC3    C5 9387   0.914   3.317  16.857 -0.3137  0.2794  0.1833
  634TMC3    C6 9388   0.942   3.228  16.760 -0.4041 -0.1910  0.8111
  634TMC3     C 9389   0.886   3.125  17.169 -0.3995 -0.1799  0.4435
  634TMC3     O 9390   0.885   3.213  17.254 -0.1390  0.3217 -0.5573
  634TMC3     H 9391   0.993   2.971  16.971 -2.1908 -1.1886  0.9258
  634TMC3    H1 9392   0.882   3.365  17.067 -0.5373  1.2670 -1.0534
  634TMC3    H2 9393   0.956   3.248  16.655 -1.5506 -0.5235  0.5893
  634TMC3    C7 9394   0.884   3.449  16.810  0.9920  0.2312 -1.0106
  634TMC3    C8 9395   1.017   2.991  16.723  0.4182  0.1194  0.0373
  634TMC3    O1 9396   0.930   3.483  16.705  0.0531  0.7504  1.1660
  634TMC3    O2 9397   0.985   2.877  16.755 -0.3452  0.2117 -0.6024
  635TMC3    C1 9398   1.085   4.132   0.116  0.6855 -0.1301 -0.1610
  635TMC3    C2 9399   1.095   4.019   0.046  0.5638  0.1825 -0.5062
  635TMC3    C3 9400   0.981   3.936   0.037  0.3410 -0.1823  0.7062
  635TMC3    C4 9401   0.964   4.167   0.169 -0.4013 -0.3678 -0.1741
  635TMC3    C5 9402   0.854   4.086   0.176  0.2424 -0.2710  0.1734
  635TMC3    C6 9403   0.859   3.971   0.104  0.1306  0.4314  0.0259
  635TMC3     C 9404   1.197   4.223   0.121 -0.2960  0.2981  0.2397
  635TMC3     O 9405   1.191   4.310   0.210 -0.2506  0.3937  0.1323
  635TMC3     H 9406   1.185   3.994  17.688  1.8591  0.3375  1.5256
  635TMC3    H1 9407   0.959   4.257   0.229 -0.8740  0.4417 -1.4213
  635TMC3    H2 9408   0.775   3.902   0.107  0.9165 -0.4875  0.9101
  635TMC3    C7 9409   0.726   4.142   0.204 -0.0352 -0.7301  0.1709
  635TMC3    C8 9410   0.975   3.801  17.687 -0.6856  0.4948 -0.1686
  635TMC3    O1 9411   0.633   4.076   0.165  0.4582 -0.0878  0.3322
  635TMC3    O2 9412   0.912   3.721   0.050 -0.9179 -0.3261  0.4886
  636MPD2     C 9413   2.084   3.441  16.026  0.0128  0.0677 -0.2204
  636MPD2    C1 9414   2.141   3.484  16.146 -0.5591 -0.0129 -0.5189
  636MPD2    C2 9415   2.221   3.395  16.209  0.2741  0.0636  0.4412
  636MPD2    C3 9416   2.241   3.265  16.166 -0.1130 -0.1018 -0.1625
  636MPD2    C4 9417   2.197   3.233  16.037 -0.1970  0.2901  0.0253
  636MPD2    C5 9418   2.115   3.317  15.970 -0.2528 -0.4434 -0.0079
  636MPD2     H 9419   2.254   3.418  16.310  4.2400  2.4470 -1.4092
  636MPD2    H1 9420   2.204   3.138  15.986 -3.0804 -0.8181  1.7253
  636MPD2    H2 9421   2.013   3.499  15.969  0.2478  0.5574 -0.0176
  636MPD2    H3 9422   2.067   3.279  15.880  0.1023  1.0600 -0.8254
  636MPD2     N 9423   2.303   3.178  16.257  0.0849 -0.4056  0.2581
  636MPD2    H5 9424   2.340   3.217  16.344  1.2255  1.3571 -1.0208
  636MPD2    N1 9425   2.137   3.613  16.207  0.4493 -0.2390  0.2237
  636MPD2    H7 9426   2.158   3.605  16.306 -1.8336 -2.4155  0.5374
  637TMC3    C1 9427   2.337   2.984  16.373 -0.3216 -0.7735  0.3030
  637TMC3    C2 9428   2.342   3.075  16.475 -0.5543 -0.5497 -1.6299
  637TMC3    C3 9429   2.440   3.083  16.567 -0.6116  0.1040 -0.4285
  637TMC3    C4 9430   2.433   2.886  16.365  0.1853 -0.0021 -0.7108
  637TMC3    C5 9431   2.523   2.883  16.469 -0.5700  0.1503  0.0821
  637TMC3    C6 9432   2.532   2.982  16.564 -0.0999  0.5094  0.3972
  637TMC3     C 9433   2.305   3.043  16.247  0.3480 -0.4160  0.0087
  637TMC3     O 9434   2.259   2.968  16.159  0.9153  0.9594  0.0437
  637TMC3     H 9435   2.246   3.123  16.486 -1.3280 -2.4533 -0.0789
  637TMC3    H1 9436   2.425   2.808  16.289 -2.1281  0.4429 -0.9151
  637TMC3    H2 9437   2.601   2.977  16.648  1.0029  1.5627 -0.4476
  637TMC3    C7 9438   2.638   2.795  16.473 -0.4563  0.1146  0.1141
  637TMC3    C8 9439   2.494   3.219  16.560 -0.0093  0.2896 -0.5286
  637TMC3    O1 9440   2.667   2.748  16.584  0.0013 -0.5240 -0.4462
  637TMC3    O2 9441   2.450   3.292  16.474 -0.0646 -0.4402  0.0214
  638MPD2     C 9442   2.017   2.250  15.066 -0.1359  0.0466  0.3462
  638MPD2    C1 9443   1.976   2.154  14.979 -0.6759 -0.1359  0.2496
  638MPD2    C2 9444   1.926   2.039  15.019  0.6729 -0.0243 -0.0874
  638MPD2    C3 9445   1.908   2.016  15.152 -0.2299 -0.1008 -0.0270
  638MPD2    C4 9446   1.932   2.116  15.245  0.7592 -0.4684 -0.6632
  638MPD2    C5 9447   1.992   2.230  15.205  0.3654 -0.7418  0.9042
  638MPD2     H 9448   1.902   1.953  14.957  1.8739 -0.8781  0.6429
  638MPD2    H1 9449   1.926   2.093  15.350 -1.4693 -0.8638 -0.8656
  638MPD2    H2 9450   2.062   2.338  15.020  1.8301 -1.2175 -0.1612
  638MPD2    H3 9451   2.006   2.308  15.278  0.1855  0.9881 -0.9011
  638MPD2     N 9452   1.873   1.883  15.179  0.2777  0.4721 -0.1508
  638MPD2    H5 9453   1.873   1.824  15.096  0.4653 -3.5224  2.6815
  638MPD2    N1 9454   1.988   2.179  14.839 -0.3894 -0.3090  0.0913
  638MPD2    H7 9455   2.046   2.258  14.814 -0.8241 -0.0960 -0.2506
  639TMC3    C1 9456   1.830   1.681  15.299 -0.1586 -0.2052  0.9822
  639TMC3    C2 9457   1.771   1.619  15.194  0.4179  0.3777  0.2361
  639TMC3    C3 9458   1.736   1.493  15.213  0.3199  0.1355 -0.3413
  639TMC3    C4 9459   1.874   1.609  15.414 -0.3462 -0.1392  0.5292
  639TMC3    C5 9460   1.843   1.473  15.425 -0.0424  0.3519 -0.5216
  639TMC3    C6 9461   1.765   1.420  15.326  0.5848  0.4593 -0.1432
  639TMC3     C 9462   1.868   1.823  15.302  0.3063 -0.0652 -0.0274
  639TMC3     O 9463   1.899   1.872  15.412  0.2839  0.2682 -0.1604
  639TMC3     H 9464   1.758   1.669  15.099  1.4622 -1.9093 -1.0972
  639TMC3    H1 9465   1.918   1.653  15.503 -0.3935 -0.2121  0.5884
  639TMC3    H2 9466   1.743   1.314  15.318  1.2069  0.3543 -0.4152
  639TMC3    C7 9467   1.942   1.384  15.476 -0.3741 -0.1243 -0.8268
  639TMC3    C8 9468   1.703   1.414  15.101  0.0261  0.1491  0.2641
  639TMC3    O1 9469   1.921   1.301  15.565 -0.3969  0.0560  0.3193
  639TMC3    O2 9470   1.774   1.410  15.001  0.2714 -0.5948 -0.5234
  640MPD2     C 9471   2.980   1.031   9.802  0.1487 -0.3999  0.0903
  640MPD2    C1 9472   3.045   1.018   9.684  0.5251  0.6175 -0.0811
  640MPD2    C2 9473   3.011   1.116   9.582 -0.4964 -0.3568  0.2799
  640MPD2    C3 9474   2.915   1.214   9.604 -0.1296  0.3530 -0.5159
  640MPD2    C4 9475   2.851   1.218   9.730 -0.1873 -0.8198 -0.1834
  640MPD2    C5 9476   2.885   1.121   9.825  0.1598 -0.2523  0.1116
  640MPD2     H 9477   3.069   1.122   9.491 -0.1644 -1.3631  0.4265
  640MPD2    H1 9478   2.774   1.290   9.757 -1.9256 -2.4058 -0.9534
  640MPD2    H2 9479   3.001   0.956   9.877 -1.0097  0.0868  0.9095
  640MPD2    H3 9480   2.840   1.132   9.923  1.2148 -0.0009  0.5653
  640MPD2     N 9481   2.870   1.310   9.510  0.1051  0.5479  0.2114
  640MPD2    H5 9482   2.804   1.381   9.541  1.4936  1.0508  2.0587
  640MPD2    N1 9483   3.154   0.929   9.672  0.0040 -0.0506 -0.4618
  640MPD2    H7 9484   3.194   0.894   9.758  1.7642  0.7800 -0.9294
  641TMC3    C1 9485   3.335   0.818   9.562 -0.2906 -0.9273  0.0420
  641TMC3    C2 9486   3.386   0.802   9.693  0.4928  0.7660 -0.5373
  641TMC3    C3 9487   3.480   0.702   9.691 -0.2848 -0.3519  0.0314
  641TMC3    C4 9488   3.370   0.746   9.449 -0.0083 -0.2767 -0.6537
  641TMC3    C5 9489   3.459   0.644   9.462 -0.1326  0.3508 -0.3828
  641TMC3    C6 9490   3.512   0.617   9.586  0.3277 -0.0994 -0.4156
  641TMC3     C 9491   3.209   0.891   9.552 -0.2121 -0.3990  0.9870
  641TMC3     O 9492   3.154   0.910   9.441  0.1431  0.1973 -0.5356
  641TMC3     H 9493   3.369   0.868   9.777 -2.3828 -1.0195  0.2507
  641TMC3    H1 9494   3.325   0.785   9.358  1.1567 -3.1260 -2.4595
  641TMC3    H2 9495   3.574   0.529   9.594 -0.7704 -0.4330  4.5750
  641TMC3    C7 9496   3.457   0.532   9.371 -0.0133 -0.5413  0.3364
  641TMC3    C8 9497   3.569   0.667   9.804  0.1960 -0.6300  0.0632
  641TMC3    O1 9498   3.497   0.426   9.413 -0.1211 -0.2939 -0.1317
  641TMC3    O2 9499   3.640   0.568   9.796 -0.0694 -0.0152  0.0654
  642TMC3    C1 9500   3.740   2.274  12.213  0.2085  0.2746 -0.0801
  642TMC3    C2 9501   3.821   2.338  12.303  0.3145 -0.0531  0.8478
  642TMC3    C3 9502   3.902   2.255  12.376 -0.9874 -0.2285  0.1420
  642TMC3    C4 9503   3.722   2.139  12.204  0.8319 -0.4510  0.2030
  642TMC3    C5 9504   3.801   2.066  12.282  0.3792 -0.2193 -0.2109
  642TMC3    C6 9505   3.895   2.117  12.363  1.1555  0.0226 -0.4745
  642TMC3     C 9506   3.661   2.348  12.122 -0.2582 -0.5714  0.4614
  642TMC3     O 9507   3.713   2.444  12.072 -0.1345 -0.0101 -0.2910
  642TMC3     H 9508   3.835   2.446  12.303 -0.8508  0.0913 -0.4460
  642TMC3    H1 9509   3.644   2.089  12.148  0.7322  0.3012 -0.3363
  642TMC3    H2 9510   3.966   2.053  12.415  1.5717  0.3975 -0.5853
  642TMC3    C7 9511   3.778   1.925  12.278  0.5880  0.9571 -0.0384
  642TMC3    C8 9512   3.976   2.309  12.484 -0.0159 -0.3047  0.3064
  642TMC3    O1 9513   3.779   1.869  12.167 -0.3158 -0.5163 -0.2644
  642TMC3    O2 9514   3.990   2.432  12.484  0.0762 -0.1743  0.0041
  643TMC3    C1 9515   3.152   1.024   0.216 -0.1085 -0.3734 -0.6377
  643TMC3    C2 9516   3.051   1.105   0.171 -0.4930  0.2589  0.5086
  643TMC3    C3 9517   2.954   1.047   0.096 -0.0211  0.0019 -0.0925
  643TMC3    C4 9518   3.146   0.893   0.189  0.9788 -0.0227 -0.0839
  643TMC3    C5 9519   3.038   0.840   0.122  0.9689  0.3305  0.2683
  643TMC3    C6 9520   2.934   0.917   0.085 -0.8112 -0.0076  0.1158
  643TMC3     C 9521   3.243   1.070   0.323 -0.2245 -0.8264 -0.2249
  643TMC3     O 9522   3.236   1.186   0.346 -0.6312 -0.6858 -0.2523
  643TMC3     H 9523   3.055   1.213   0.179  2.2160  0.2549 -0.7477
  643TMC3    H1 9524   3.231   0.827   0.201  0.9458 -0.0295  0.1030
  643TMC3    H2 9525   2.847   0.878   0.032 -0.2248  2.1543 -2.4412
  643TMC3    C7 9526   3.038   0.693   0.119  0.2825 -0.2615 -0.2626
  643TMC3    C8 9527   2.852   1.129   0.017  0.2429  0.5533 -0.6532
  643TMC3    O1 9528   3.076   0.640   0.223  0.2156 -0.3326 -0.5445
  643TMC3    O2 9529   2.743   1.074  17.694  0.2585 -0.2261  0.4072
  644MPD2     C 9530   3.314   1.515  10.217  0.0042 -0.4860  0.1165
  644MPD2    C1 9531   3.330   1.511  10.082  0.4047 -0.9550 -0.0493
  644MPD2    C2 9532   3.292   1.612   9.994 -0.2171 -0.6369 -0.3337
  644MPD2    C3 9533   3.276   1.741  10.042  0.2571 -0.8396  0.4113
  644MPD2    C4 9534   3.251   1.752  10.179 -0.3939  0.2294  0.7146
  644MPD2    C5 9535   3.271   1.641  10.265  0.0621  0.0173 -0.0601
  644MPD2     H 9536   3.300   1.599   9.887 -2.2207 -1.0663 -0.4301
  644MPD2    H1 9537   3.223   1.842  10.231 -0.7154 -0.0383  1.0052
  644MPD2    H2 9538   3.328   1.427  10.278 -2.9372 -0.0458  1.4531
  644MPD2    H3 9539   3.254   1.654  10.371 -2.4563 -0.3599 -0.4178
  644MPD2     N 9540   3.264   1.848   9.952  0.2132  1.2287 -0.0131
  644MPD2    H5 9541   3.299   1.825   9.859  0.0552  0.1667  0.1962
  644MPD2    N1 9542   3.379   1.386  10.038  0.2130  0.6277  0.2689
  644MPD2    H7 9543   3.380   1.314  10.110  1.1219  2.7237  2.3261
  645TMC3    C1 9544   3.210   2.075   9.880 -0.5666  0.2581  0.1705
  645TMC3    C2 9545   3.189   2.209   9.912  0.0697  0.2891  0.5393
  645TMC3    C3 9546   3.210   2.297   9.805 -0.7724  0.5790 -0.3446
  645TMC3    C4 9547   3.229   2.025   9.752  0.6359 -0.2356  0.2657
  645TMC3    C5 9548   3.246   2.116   9.653  0.7460 -0.3222 -0.3337
  645TMC3    C6 9549   3.249   2.249   9.681 -0.1134  0.3905  0.5801
  645TMC3     C 9550   3.221   1.975   9.983  0.3469  0.0311  0.0510
  645TMC3     O 9551   3.186   2.013  10.093 -0.0460  0.4334  0.2775
  645TMC3     H 9552   3.157   2.245  10.010 -2.3748 -1.2837  0.3149
  645TMC3    H1 9553   3.236   1.922   9.719  0.0667 -1.0566  2.6703
  645TMC3    H2 9554   3.268   2.320   9.602 -1.8848  1.2464  0.9095
  645TMC3    C7 9555   3.317   2.065   9.537  0.0489 -1.0121  0.9015
  645TMC3    C8 9556   3.168   2.442   9.833  0.0376  1.0781 -0.3110
  645TMC3    O1 9557   3.290   1.948   9.512  0.1792 -0.9008  0.4558
  645TMC3    O2 9558   3.083   2.464   9.921 -0.2969  0.5202  0.7209
  646MPD2     C 9559   2.361   0.924  14.657 -0.3932  0.3371 -0.0450
  646MPD2    C1 9560   2.252   0.854  14.712  0.6409 -0.1337 -0.0722
  646MPD2    C2 9561   2.124   0.880  14.666 -0.3769 -0.6517 -1.3476
  646MPD2    C3 9562   2.101   0.955  14.559 -0.6969  0.9650 -0.3734
  646MPD2    C4 9563   2.206   1.030  14.514 -0.1353  0.4029 -0.4300
  646MPD2    C5 9564   2.335   1.013  14.560  0.2567 -0.8653  0.0028
  646MPD2     H 9565   2.032   0.853  14.716 -0.3648  2.2029  0.2492
  646MPD2    H1 9566   2.183   1.107  14.442  0.7444 -0.6033 -1.7882
  646MPD2    H2 9567   2.461   0.916  14.696 -0.3162  0.1494 -0.2818
  646MPD2    H3 9568   2.418   1.071  14.523  0.5633 -2.3856 -1.6843
  646MPD2     N 9569   1.973   0.965  14.500  0.2521  1.0201  0.3086
  646MPD2    H5 9570   1.899   0.927  14.559  2.1075 -0.4343  1.6942
  646MPD2    N1 9571   2.273   0.766  14.823  0.1375 -0.1230  0.7512
  646MPD2    H7 9572   2.367   0.759  14.860  0.3838  0.1266  0.1723
  647TMC3    C1 9573   2.235   0.597  14.974  0.2761 -0.8049 -0.2001
  647TMC3    C2 9574   2.140   0.527  15.044  0.0785  0.1567 -0.2115
  647TMC3    C3 9575   2.176   0.421  15.118 -0.3051  0.9512 -0.5047
  647TMC3    C4 9576   2.367   0.548  14.963 -0.1672  0.4752 -0.0017
  647TMC3    C5 9577   2.396   0.433  15.030 -0.2115 -0.4124 -0.3725
  647TMC3    C6 9578   2.305   0.365  15.107  0.1650  0.6597 -0.7873
  647TMC3     C 9579   2.178   0.680  14.876 -0.3894 -0.2376 -0.2408
  647TMC3     O 9580   2.055   0.675  14.859 -0.3955  0.1632  0.3086
  647TMC3     H 9581   2.038   0.562  15.057 -0.0623 -0.3753  0.1061
  647TMC3    H1 9582   2.438   0.617  14.918  1.2525 -0.0657  1.3917
  647TMC3    H2 9583   2.329   0.268  15.150 -0.2056  0.8706 -0.1023
  647TMC3    C7 9584   2.519   0.372  15.010 -0.4172  0.3170  0.7705
  647TMC3    C8 9585   2.077   0.324  15.156  0.4496  0.0723  0.0217
  647TMC3    O1 9586   2.626   0.436  15.017  0.0994 -0.2871 -0.1360
  647TMC3    O2 9587   1.973   0.323  15.089  0.2740 -0.3106 -0.3207
  648TMC3    C1 9588   1.588   3.355  15.945  0.6871  0.4591 -0.1997
  648TMC3    C2 9589   1.561   3.226  15.908  0.0889 -0.0557 -0.0890
  648TMC3    C3 9590   1.494   3.217  15.791 -0.3659 -0.2956 -0.6661
  648TMC3    C4 9591   1.514   3.457  15.892 -0.3516  0.1037 -0.1743
  648TMC3    C5 9592   1.439   3.438  15.784 -0.6183  0.4639 -0.3254
  648TMC3    C6 9593   1.423   3.320  15.731 -0.1940 -0.5431  0.3146
  648TMC3     C 9594   1.595   3.378  16.091  0.0589  0.1010  0.1356
  648TMC3     O 9595   1.560   3.487  16.138 -0.1618 -0.0049  0.1451
  648TMC3     H 9596   1.601   3.136  15.955 -0.0100 -0.5707 -0.9955
  648TMC3    H1 9597   1.511   3.559  15.928  0.2201  0.4712 -1.1666
  648TMC3    H2 9598   1.357   3.306  15.646  0.9759  1.2117 -0.8626
  648TMC3    C7 9599   1.345   3.536  15.749  0.7264 -0.1654 -1.3380
  648TMC3    C8 9600   1.465   3.083  15.740 -0.4523 -0.2225  0.1827
  648TMC3    O1 9601   1.297   3.525  15.634 -0.4841 -0.2079 -0.2161
  648TMC3    O2 9602   1.356   3.059  15.685  0.1045 -0.0308 -0.1639
  649TMC3    C1 9603   0.281   4.116  12.630  0.4126  0.5082  0.4469
  649TMC3    C2 9604   0.409   4.131  12.587  0.1803 -0.0197 -0.4375
  649TMC3    C3 9605   0.508   4.123  12.687 -0.5342  0.1213 -0.1073
  649TMC3    C4 9606   0.245   4.089  12.759 -0.4046  0.5399  0.2634
  649TMC3    C5 9607   0.346   4.066  12.847 -0.1843 -0.3726  0.0106
  649TMC3    C6 9608   0.478   4.096  12.814 -0.0365  0.3353 -0.5779
  649TMC3     C 9609   0.174   4.182  12.560  0.1549  0.5185 -0.2654
  649TMC3     O 9610   0.092   4.234  12.630 -0.0270 -0.6336 -0.0498
  649TMC3     H 9611   0.422   4.163  12.484  2.2642 -2.8924 -1.0685
  649TMC3    H1 9612   0.142   4.080  12.793 -0.6081 -1.4487 -0.9207
  649TMC3    H2 9613   0.562   4.090  12.883  0.1683  0.4376 -0.8163
  649TMC3    C7 9614   0.306   4.030  12.984 -0.7956  0.3564  0.5353
  649TMC3    C8 9615   0.644   4.147  12.658  0.0479 -0.0579  0.5324
  649TMC3    O1 9616   0.186   4.010  13.003  0.8783  0.2484 -0.0483
  649TMC3    O2 9617   0.720   4.142  12.755 -0.0840  0.4156  0.6328
  650TMC3    C1 9618   2.858   1.107  12.579  0.4626 -0.2113  0.4614
  650TMC3    C2 9619   2.859   1.240  12.557  0.1820  0.1183 -0.0277
  650TMC3    C3 9620   2.782   1.295  12.457  0.2297  0.6070  0.3172
  650TMC3    C4 9621   2.806   1.030  12.483  0.2337  0.4036  0.1809
  650TMC3    C5 9622   2.739   1.082  12.372  0.0360 -0.9666 -0.2448
  650TMC3    C6 9623   2.718   1.213  12.367 -0.0065  0.1553 -0.7496
  650TMC3     C 9624   2.968   1.055  12.657 -0.1905 -0.4960  0.2444
  650TMC3     O 9625   3.073   1.117  12.660 -0.3536 -0.2540 -0.1038
  650TMC3     H 9626   2.913   1.305  12.625 -1.5096  0.3233  1.1100
  650TMC3    H1 9627   2.835   0.925  12.487  1.9365  0.8331 -0.7823
  650TMC3    H2 9628   2.668   1.268  12.288 -0.8673  1.5949  0.7918
  650TMC3    C7 9629   2.687   0.993  12.267  0.4965  0.3400 -0.5853
  650TMC3    C8 9630   2.758   1.438  12.461 -0.3302 -0.6381  0.1493
  650TMC3    O1 9631   2.709   0.876  12.294 -0.3097 -0.5398 -0.6775
  650TMC3    O2 9632   2.733   1.492  12.355 -0.6232 -0.6451 -0.3846
  651MPD2     C 9633   2.191   2.675  10.716  0.5998  0.3120  0.0171
  651MPD2    C1 9634   2.138   2.804  10.707 -0.3443  0.3602  0.1137
  651MPD2    C2 9635   2.212   2.913  10.739  0.2387 -0.6795  0.9557
  651MPD2    C3 9636   2.344   2.904  10.770 -0.0818 -0.4286  0.3389
  651MPD2    C4 9637   2.406   2.780  10.763  0.5834 -0.1069  0.0579
  651MPD2    C5 9638   2.327   2.664  10.739 -0.6795  0.0545  0.7767
  651MPD2     H 9639   2.162   3.009  10.731  1.7173  0.2607  2.9408
  651MPD2    H1 9640   2.513   2.769  10.769  0.9982  3.2157 -1.1109
  651MPD2    H2 9641   2.132   2.584  10.720  0.6309  0.1462 -2.8825
  651MPD2    H3 9642   2.362   2.561  10.743  1.1233  0.7356  2.4767
  651MPD2     N 9643   2.417   3.019  10.785 -0.3223 -0.6259  0.1081
  651MPD2    H5 9644   2.365   3.106  10.790 -0.0274 -0.4800  0.7141
  651MPD2    N1 9645   2.002   2.825  10.697 -0.1623  0.3365 -0.0553
  651MPD2    H7 9646   1.974   2.922  10.691 -1.9705 -0.2403 -0.8415
  652TMC3    C1 9647   2.696   3.358  10.742 -0.2676  0.1638  0.1548
  652TMC3    C2 9648   2.681   3.221  10.744 -0.7211 -0.4530  0.0435
  652TMC3    C3 9649   2.575   3.170  10.818  0.3221 -0.4556 -0.1276
  652TMC3    C4 9650   2.624   3.435  10.824  0.2366  0.1678 -0.1092
  652TMC3    C5 9651   2.529   3.377  10.897 -0.8744  0.1549 -0.5939
  652TMC3    C6 9652   2.484   3.247  10.888  0.0028 -0.6499  0.0301
  652TMC3     C 9653   2.813   3.416  10.681 -0.5326 -0.0006 -0.5914
  652TMC3     O 9654   2.800   3.534  10.650 -0.3027 -0.7255  0.2560
  652TMC3     H 9655   2.740   3.155  10.681 -0.2940  0.1643 -0.2072
  652TMC3    H1 9656   2.636   3.543  10.817 -0.6988  0.2138 -0.9590
  652TMC3    H2 9657   2.411   3.209  10.958  1.2740 -0.4971  1.4500
  652TMC3    C7 9658   2.521   3.450  11.031 -0.2309 -0.1454  0.3808
  652TMC3    C8 9659   2.551   3.030  10.809  0.1012 -0.1709  0.2002
  652TMC3    O1 9660   2.424   3.437  11.103 -0.0975 -0.2029  0.0932
  652TMC3    O2 9661   2.641   2.951  10.797 -0.3368  0.0460  0.0463
  653MPD2     C 9662   0.703   3.043   0.175  0.1297 -0.4586  0.0853
  653MPD2    C1 9663   0.645   3.110   0.067 -0.0650 -0.3907 -0.4916
  653MPD2    C2 9664   0.571   3.036  17.670  0.5084  0.7977  0.9243
  653MPD2    C3 9665   0.539   2.907  17.695  1.6244 -0.0618  0.1946
  653MPD2    C4 9666   0.594   2.846   0.106  0.6229  0.4754 -0.2211
  653MPD2    C5 9667   0.659   2.913   0.202 -0.2639 -0.3934 -0.5399
  653MPD2     H 9668   0.517   3.081  17.587  0.7042 -2.1183 -0.7759
  653MPD2    H1 9669   0.568   2.746   0.139 -2.3595  1.3990  0.2529
  653MPD2    H2 9670   0.769   3.093   0.244 -1.6670  1.9038  0.0844
  653MPD2    H3 9671   0.677   2.872   0.301 -0.4050  0.3374 -0.2027
  653MPD2     N 9672   0.453   2.833  17.609 -0.0450  0.5626 -0.5648
  653MPD2    H5 9673   0.410   2.887  17.535  1.9757  1.2941 -1.1941
  653MPD2    N1 9674   0.671   3.246   0.053  0.0387 -0.5644 -0.1242
  653MPD2    H7 9675   0.716   3.282   0.137  0.8805 -1.8594 -0.0295
  654TMC3    C1 9676   0.338   2.659  17.505  0.0431  0.3235  0.2525
  654TMC3    C2 9677   0.236   2.743  17.469  0.2924 -0.3341 -0.3280
  654TMC3    C3 9678   0.167   2.716  17.352 -0.7272 -0.3879 -0.0486
  654TMC3    C4 9679   0.370   2.547  17.435 -0.2992  0.4208 -0.3182
  654TMC3    C5 9680   0.299   2.524  17.319  0.4399  0.3933  0.0904
  654TMC3    C6 9681   0.199   2.607  17.277  0.3093 -0.4412 -0.2341
  654TMC3     C 9682   0.433   2.695  17.609  0.1435 -0.2107  0.2405
  654TMC3     O 9683   0.483   2.610  17.680 -0.2133 -0.4954  0.3396
  654TMC3     H 9684   0.212   2.828  17.532  3.2799  0.7194 -0.6264
  654TMC3    H1 9685   0.458   2.494  17.471 -1.2115 -0.9535 -0.1435
  654TMC3    H2 9686   0.159   2.584  17.179  1.2567 -1.5715 -0.3557
  654TMC3    C7 9687   0.332   2.416  17.228 -0.5867 -0.2128  0.2660
  654TMC3    C8 9688   0.051   2.787  17.332 -0.2261 -0.0071 -0.3075
  654TMC3    O1 9689   0.289   2.419  17.114 -0.5042  0.6275 -0.0400
  654TMC3    O2 9690   0.000   2.841  17.431  0.1605 -0.4325  0.4172
  655MPD2     C 9691   1.890   3.589  15.728  0.5276  0.6335 -0.5124
  655MPD2    C1 9692   1.786   3.657  15.668  0.6265  0.4883  0.0935
  655MPD2    C2 9693   1.773   3.644  15.531 -0.0675  0.0441 -0.5587
  655MPD2    C3 9694   1.837   3.542  15.462  0.4182  0.0658  0.4190
  655MPD2    C4 9695   1.934   3.468  15.529 -0.4736 -0.3188 -0.1036
  655MPD2    C5 9696   1.970   3.500  15.659 -0.2417  0.1765 -0.3106
  655MPD2     H 9697   1.716   3.715  15.473  0.9970  0.7658 -0.7134
  655MPD2    H1 9698   1.996   3.391  15.485  1.0911  1.2436 -0.6444
  655MPD2    H2 9699   1.908   3.605  15.833 -1.7477 -0.3197  0.0109
  655MPD2    H3 9700   2.052   3.454  15.712  0.8669  2.1615 -0.3188
  655MPD2     N 9701   1.804   3.499  15.329 -0.0003  0.6066  0.0331
  655MPD2    H5 9702   1.859   3.423  15.290  0.5993 -0.3246  2.6853
  655MPD2    N1 9703   1.710   3.764  15.738  0.1380 -0.0250 -0.0126
  655MPD2    H7 9704   1.655   3.825  15.677 -0.3445 -2.9079 -2.4488
  656TMC3    C1 9705   1.613   3.891  15.921 -0.6693 -0.4547  0.8743
  656TMC3    C2 9706   1.540   3.858  16.032  0.3253  0.2447 -0.2778
  656TMC3    C3 9707   1.419   3.919  16.058 -0.6041  0.3140  0.2121
  656TMC3    C4 9708   1.556   3.978  15.837 -0.3511  1.1949  0.1793
  656TMC3    C5 9709   1.436   4.044  15.861  0.9892  0.4420  0.2246
  656TMC3    C6 9710   1.361   4.011  15.972 -0.1108  0.0777  0.2645
  656TMC3     C 9711   1.703   3.786  15.876  0.1364 -0.0481 -0.0805
  656TMC3     O 9712   1.744   3.706  15.964  0.3659  0.1762  0.1353
  656TMC3     H 9713   1.574   3.779  16.097 -1.2359  0.0794  0.3392
  656TMC3    H1 9714   1.619   4.013  15.757 -0.6062  3.0453  0.7872
  656TMC3    H2 9715   1.266   4.057  15.994  0.1126  0.8407 -0.3655
  656TMC3    C7 9716   1.383   4.131  15.754 -0.6060  0.9117  0.0777
  656TMC3    C8 9717   1.343   3.861  16.163  0.5911 -0.1799 -0.4747
  656TMC3    O1 9718   1.446   4.134  15.647  0.3280 -0.2101 -0.0166
  656TMC3    O2 9719   1.369   3.746  16.192  0.2194  0.1648  0.0042
  657TMC3    C1 9720   0.586   3.169  14.907  0.1501 -0.2670 -0.2598
  657TMC3    C2 9721   0.631   3.237  15.019  0.8266  0.3284  0.5301
  657TMC3    C3 9722   0.612   3.371  15.018  0.1397  0.2299  0.0736
  657TMC3    C4 9723   0.507   3.224  14.808  0.6922 -1.1014 -0.3181
  657TMC3    C5 9724   0.501   3.357  14.810  0.3340  0.3057 -0.8286
  657TMC3    C6 9725   0.554   3.432  14.910 -0.1562 -0.5678 -0.3729
  657TMC3     C 9726   0.622   3.027  14.890  0.2737 -0.2704  0.0191
  657TMC3     O 9727   0.568   2.964  14.795 -0.0619 -0.0115 -0.5300
  657TMC3     H 9728   0.672   3.184  15.104 -0.6073 -0.7433  0.5659
  657TMC3    H1 9729   0.460   3.161  14.734 -0.8878 -1.2947  0.8650
  657TMC3    H2 9730   0.551   3.540  14.904 -1.3906 -0.5354  0.6408
  657TMC3    C7 9731   0.424   3.424  14.704 -0.6417  0.7974 -0.3352
  657TMC3    C8 9732   0.679   3.455  15.120 -0.0783 -0.2657  0.0752
  657TMC3    O1 9733   0.352   3.515  14.736  0.3276  0.2852 -0.2580
  657TMC3    O2 9734   0.648   3.574  15.119 -0.4214  0.7337  0.4516
  658MPD2     C 9735   2.037   2.947  15.111  0.2229  0.5146 -0.0452
  658MPD2    C1 9736   1.958   3.015  15.020  0.1633 -1.0113 -0.1210
  658MPD2    C2 9737   1.990   3.004  14.884 -0.1424  0.3971 -0.6856
  658MPD2    C3 9738   2.085   2.908  14.843  0.1388  0.2595  0.2535
  658MPD2    C4 9739   2.153   2.836  14.936  0.3365  0.1508  0.2738
  658MPD2    C5 9740   2.137   2.859  15.067  0.4566  0.0891 -0.2440
  658MPD2     H 9741   1.934   3.057  14.809 -2.1363 -1.2110 -0.3421
  658MPD2    H1 9742   2.223   2.762  14.899  0.7933  0.8461 -0.2531
  658MPD2    H2 9743   2.015   2.944  15.217  0.2260  2.5755  0.0152
  658MPD2    H3 9744   2.187   2.800  15.143 -1.7275  1.2985  2.1411
  658MPD2     N 9745   2.103   2.882  14.707 -0.9273 -0.5856  0.5478
  658MPD2    H5 9746   2.048   2.937  14.643 -0.7522  0.3294  1.1863
  658MPD2    N1 9747   1.860   3.098  15.070  0.1402  0.0713 -0.9401
  658MPD2    H7 9748   1.859   3.122  15.168  1.7118  1.7055 -1.3319
  659TMC3    C1 9749   1.679   3.248  15.049 -0.1831 -0.0543 -0.0516
  659TMC3    C2 9750   1.743   3.344  15.133 -0.1178 -0.9059  0.0354
  659TMC3    C3 9751   1.691   3.470  15.133 -0.5436 -0.0727  0.1154
  659TMC3    C4 9752   1.567   3.279  14.978  0.8440 -0.6623 -0.9941
  659TMC3    C5 9753   1.514   3.402  14.984 -0.2475  0.1710 -1.3901
  659TMC3    C6 9754   1.574   3.500  15.062 -0.1266 -0.5463 -0.7614
  659TMC3     C 9755   1.753   3.137  14.990  0.4910  0.1926  0.5274
  659TMC3     O 9756   1.711   3.106  14.881  0.3636  0.4299  0.7320
  659TMC3     H 9757   1.839   3.321  15.177  1.1547  2.4948 -0.9975
  659TMC3    H1 9758   1.520   3.192  14.934 -1.2697 -0.6702  1.2692
  659TMC3    H2 9759   1.540   3.603  15.068  0.2275 -0.3316 -2.4493
  659TMC3    C7 9760   1.388   3.433  14.916  0.5033  0.3366 -0.3714
  659TMC3    C8 9761   1.704   3.554  15.251 -0.2361  0.2307 -0.0308
  659TMC3    O1 9762   1.327   3.530  14.963  0.6281  0.1828  0.1327
  659TMC3    O2 9763   1.634   3.650  15.276 -0.0186 -0.3066  0.2391
  660MPD2     C 9764   0.463   2.173  12.826  0.5148 -0.1426  0.0213
  660MPD2    C1 9765   0.331   2.157  12.792  0.0768  0.4469  0.0697
  660MPD2    C2 9766   0.242   2.092  12.880 -0.1248 -0.2106 -0.4561
  660MPD2    C3 9767   0.291   2.055  13.005  0.0155  0.8886  0.6347
  660MPD2    C4 9768   0.422   2.084  13.041  0.7400  0.0387 -0.0155
  660MPD2    C5 9769   0.504   2.134  12.947 -0.4982  0.4405 -0.3783
  660MPD2     H 9770   0.147   2.053  12.844 -0.4078  1.3271 -1.3878
  660MPD2    H1 9771   0.463   2.059  13.138  0.5079 -1.8861 -0.4066
  660MPD2    H2 9772   0.526   2.223  12.753  1.4027  0.5001  1.2330
  660MPD2    H3 9773   0.607   2.149  12.977 -1.2225  0.0385  2.3100
  660MPD2     N 9774   0.204   1.980  13.086 -0.1326 -0.2638 -0.4228
  660MPD2    H5 9775   0.249   1.944  13.170  0.1320 -0.1426 -0.5138
  660MPD2    N1 9776   0.291   2.206  12.670  0.2050  0.8617 -0.6263
  660MPD2    H7 9777   0.367   2.253  12.622 -0.3139  2.8056  0.4298
  661TMC3    C1 9778   0.166   2.289  12.491  0.4633  0.5923 -0.4912
  661TMC3    C2 9779   0.257   2.259  12.392 -0.2247 -0.4639  0.9590
  661TMC3    C3 9780   0.213   2.274  12.262  0.1626 -0.1705  0.5221
  661TMC3    C4 9781   0.046   2.334  12.464 -0.4482  0.3808  0.1219
  661TMC3    C5 9782   0.014   2.358  12.331 -0.3167  0.5978  0.6056
  661TMC3    C6 9783   0.095   2.335  12.222  0.1964  0.6049 -0.3943
  661TMC3     C 9784   0.163   2.217  12.615 -0.8130  0.4058 -0.6182
  661TMC3     O 9785   0.057   2.209  12.679 -0.4577  0.1827  0.4599
  661TMC3     H 9786   0.351   2.207  12.408 -1.0136 -2.0832  0.3815
  661TMC3    H1 9787   4.697   2.363  12.539 -1.3581 -0.9409 -0.2461
  661TMC3    H2 9788   0.060   2.362  12.123  3.3840 -0.3196 -1.7863
  661TMC3    C7 9789   4.613   2.416  12.314 -0.1125 -0.1246  0.5907
  661TMC3    C8 9790   0.277   2.216  12.147  0.0994 -0.1394  0.1237
  661TMC3    O1 9791   4.558   2.472  12.411 -0.0622  0.0712  0.9380
  661TMC3    O2 9792   0.227   2.246  12.043 -0.5224  0.2296 -0.1655
  662MPD2     C 9793   0.474   1.686  17.470  0.5714  0.3628  0.3404
  662MPD2    C1 9794   0.502   1.622  17.587  0.5991  0.0130 -0.5804
  662MPD2    C2 9795   0.409   1.641  17.689  0.0377 -0.3599 -0.1280
  662MPD2    C3 9796   0.315   1.743  17.684 -0.3290  0.2710  0.2669
  662MPD2    C4 9797   0.310   1.814  17.570  0.3403  0.4832  0.1211
  662MPD2    C5 9798   0.387   1.791  17.460  0.9117  0.7501 -1.1041
  662MPD2     H 9799   0.415   1.588   0.085 -1.8697 -0.7823 -0.2460
  662MPD2    H1 9800   0.240   1.897  17.556 -0.5214 -0.0730  1.1470
  662MPD2    H2 9801   0.545   1.688  17.388 -0.7360 -1.8581 -0.8364
  662MPD2    H3 9802   0.379   1.849  17.369 -2.1990  0.7514 -0.8064
  662MPD2     N 9803   0.223   1.778   0.090  0.5614  0.5069 -0.2668
  662MPD2    H5 9804   0.170   1.864   0.079 -1.1237 -0.6641 -1.2247
  662MPD2    N1 9805   0.609   1.523  17.598  0.0597 -0.4926  0.4092
  662MPD2    H7 9806   0.625   1.486  17.691  0.5108 -0.4389  0.3495
  663TMC3    C1 9807   0.764   1.359  17.521 -0.1931  0.4659 -0.2835
  663TMC3    C2 9808   0.777   1.302  17.644 -0.2154 -0.0607  0.2920
  663TMC3    C3 9809   0.805   1.167  17.660 -0.1957 -0.5205 -0.1808
  663TMC3    C4 9810   0.806   1.295  17.414 -0.0481  0.0417  0.3528
  663TMC3    C5 9811   0.845   1.161  17.423  0.4298  0.1253  0.5607
  663TMC3    C6 9812   0.851   1.100  17.542  0.0395  0.3284 -0.0871
  663TMC3     C 9813   0.692   1.483  17.499 -0.0924 -0.3465  0.2939
  663TMC3     O 9814   0.710   1.532  17.390 -0.1374 -0.2311  0.6082
  663TMC3     H 9815   0.720   1.347   0.027  0.6571  1.8321 -0.1508
  663TMC3    H1 9816   0.789   1.332  17.314 -1.5994 -0.8593  0.2831
  663TMC3    H2 9817   0.868   0.993  17.541 -0.5418  0.2394 -1.0329
  663TMC3    C7 9818   0.792   1.078  17.312 -0.1041  0.1140 -0.1265
  663TMC3    C8 9819   0.684   1.100   0.004  0.4673  0.0713  0.3604
  663TMC3    O1 9820   0.803   1.125  17.203 -0.0991  0.1013  0.1061
  663TMC3    O2 9821   0.671   0.995  17.640 -0.0266 -0.1681  0.2156
  664MPD2     C 9822   2.816   4.547   0.222  0.4645 -0.6883 -0.2762
  664MPD2    C1 9823   2.947   4.563   0.245  0.3575  0.3921 -0.0602
  664MPD2    C2 9824   3.001   4.505   0.357 -0.6253  0.2810 -0.3577
  664MPD2    C3 9825   2.917   4.450   0.455  0.2178 -0.9172  0.5993
  664MPD2    C4 9826   2.783   4.436   0.427  0.4496  0.2818  0.8395
  664MPD2    C5 9827   2.736   4.474   0.306 -0.1187 -0.2022  0.4165
  664MPD2     H 9828   3.099   4.542   0.382 -0.1703 -1.5922  0.6411
  664MPD2    H1 9829   2.714   4.381   0.490 -0.0788  0.6381  0.5711
  664MPD2    H2 9830   2.774   4.567   0.125  0.0829 -2.5051 -0.4799
  664MPD2    H3 9831   2.634   4.452   0.277 -0.9981  1.5504  2.1776
  664MPD2     N 9832   2.981   4.406   0.577  0.0706  0.3990  0.4103
  664MPD2    H5 9833   3.083   4.410   0.573  0.2090  1.6864  4.6147
  664MPD2    N1 9834   3.028   4.647   0.170  0.0113 -0.4290 -0.4412
  664MPD2    H7 9835   3.126   4.641   0.194 -0.0337 -1.2556 -0.4523
  665TMC3    C1 9836   3.007   4.281   0.782  0.0554  0.3619 -0.5762
  665TMC3    C2 9837   2.952   4.228   0.892 -0.2863 -0.0349  0.0453
  665TMC3    C3 9838   3.041   4.170   0.985  0.5843 -0.4030  0.1582
  665TMC3    C4 9839   3.139   4.304   0.776  0.6727  0.2609  0.4305
  665TMC3    C5 9840   3.221   4.241   0.868  0.0882  0.6123 -0.3486
  665TMC3    C6 9841   3.173   4.165   0.973  0.2328  0.1474  0.4916
  665TMC3     C 9842   2.911   4.346   0.690  0.1971 -0.6355 -0.4936
  665TMC3     O 9843   2.792   4.345   0.718 -0.7453  0.4729  0.3940
  665TMC3     H 9844   2.846   4.210   0.903 -0.0897 -0.5166  1.1965
  665TMC3    H1 9845   3.184   4.368   0.701 -0.7330 -1.0754 -1.5780
  665TMC3    H2 9846   3.236   4.132   1.055  1.2776  1.4843  0.2229
  665TMC3    C7 9847   3.357   4.304   0.878 -0.6554 -0.5688 -0.4331
  665TMC3    C8 9848   2.991   4.135   1.119  0.0868  0.2398 -0.0526
  665TMC3    O1 9849   3.451   4.222   0.877  0.1069 -0.0413 -0.4843
  665TMC3    O2 9850   3.049   4.042   1.169  0.3724 -0.5482  0.5008
  666TMC3    C1 9851   2.784   4.525  10.167  0.6566 -0.8079  0.3727
  666TMC3    C2 9852   2.821   4.440  10.266 -1.0337 -0.1314  0.0617
  666TMC3    C3 9853   2.883   4.492  10.376 -0.0802 -0.2469 -0.3447
  666TMC3    C4 9854   2.814   4.656  10.165 -0.0967 -0.4112 -0.6140
  666TMC3    C5 9855   2.876   4.706  10.273 -0.4133  0.3912 -0.1607
  666TMC3    C6 9856   2.904   4.628  10.386  0.4620 -0.3140 -0.2207
  666TMC3     C 9857   2.739   4.470  10.044  0.4300  0.2320  0.0702
  666TMC3     O 9858   2.777   4.522   9.939  0.2707  0.3331  0.2026
  666TMC3     H 9859   2.832   4.335  10.244 -3.2131 -0.1696 -0.9176
  666TMC3    H1 9860   2.789   4.720  10.081  0.0905 -0.7329 -0.9129
  666TMC3    H2 9861   2.964   4.674  10.463  0.1965 -0.4153  0.0481
  666TMC3    C7 9862   2.815   0.103  10.329 -0.7207 -0.3015  0.0810
  666TMC3    C8 9863   2.967   4.406  10.447 -0.6331 -0.1774  0.1016
  666TMC3    O1 9864   2.796   0.123  10.447 -0.0992 -0.2261 -0.1898
  666TMC3    O2 9865   2.928   4.296  10.469  0.1482  0.2541 -1.0791
  667MPD2     C 9866   4.321   4.695  14.803 -0.1181 -0.5772 -0.0053
  667MPD2    C1 9867   4.187   0.017  14.822 -0.6733  0.5366  0.8799
  667MPD2    C2 9868   4.076   4.657  14.787  0.1913 -0.7340  0.4579
  667MPD2    C3 9869   4.090   4.544  14.719  0.9105  0.4651  0.3661
  667MPD2    C4 9870   4.218   4.506  14.692 -0.7446  0.0275  0.2692
  667MPD2    C5 9871   4.330   4.574  14.740  0.6940  0.4530 -0.5047
  667MPD2     H 9872   3.977   4.688  14.821  0.3159  0.2754 -0.1111
  667MPD2    H1 9873   4.252   4.414  14.647  2.8860  2.1910 -1.4039
  667MPD2    H2 9874   4.405   0.029  14.838  1.0352 -2.1581 -0.1803
  667MPD2    H3 9875   4.429   4.538  14.716  1.1459  0.7569  0.9182
  667MPD2     N 9876   3.978   4.462  14.686  0.2658  0.1263 -0.1295
  667MPD2    H5 9877   3.993   4.379  14.630  1.1476 -0.4969  1.0312
  667MPD2    N1 9878   4.167   0.140  14.897 -0.3522 -0.0983  0.1051
  667MPD2    H7 9879   4.075   0.168  14.929  0.2495  0.6474  1.1790
  668TMC3    C1 9880   4.206   0.346  14.994 -0.8226  0.4418 -0.0772
  668TMC3    C2 9881   4.272   0.468  14.987 -0.9443  0.4104 -0.4136
  668TMC3    C3 9882   4.212   0.569  15.054  0.1135 -0.1472  0.1147
  668TMC3    C4 9883   4.089   0.334  15.062 -1.1899 -0.4332 -0.4750
  668TMC3    C5 9884   4.040   0.436  15.136  0.7896 -0.0501  1.0625
  668TMC3    C6 9885   4.102   0.558  15.144 -0.0741  0.3958 -0.0790
  668TMC3     C 9886   4.264   0.231  14.921  0.5796  0.3399  0.6230
  668TMC3     O 9887   4.379   0.237  14.872 -0.0888  0.2160  0.0233
  668TMC3     H 9888   4.363   0.483  14.930 -0.5011  1.2443  0.5153
  668TMC3    H1 9889   4.030   0.244  15.073  0.1719 -1.3396 -0.5582
  668TMC3    H2 9890   4.077   0.636  15.214  0.2055 -2.6983  3.5219
  668TMC3    C7 9891   3.904   0.423  15.187 -0.0621  0.3593 -0.2213
  668TMC3    C8 9892   4.271   0.701  15.048  0.5430 -0.2501  0.8298
  668TMC3    O1 9893   3.857   0.311  15.203 -0.1385  0.3892 -0.3265
  668TMC3    O2 9894   4.267   0.767  15.151 -0.4883  0.1889 -0.0474
  669TMC3    C1 9895   2.191   4.477  14.501 -0.2749  0.3999  0.3038
  669TMC3    C2 9896   2.069   4.492  14.437 -0.5758  0.2834 -0.2599
  669TMC3    C3 9897   2.059   4.599  14.344 -0.0257 -0.0976 -0.5049
  669TMC3    C4 9898   2.295   4.562  14.481 -0.4902 -0.2832 -0.3780
  669TMC3    C5 9899   2.281   4.651  14.373 -0.4649 -0.1767 -0.0389
  669TMC3    C6 9900   2.164   4.672  14.308  0.0540 -0.5197 -0.2734
  669TMC3     C 9901   2.180   4.394  14.623 -0.0040 -0.7722  0.0438
  669TMC3     O 9902   2.073   4.340  14.634 -0.4332  0.6265  0.4260
  669TMC3     H 9903   1.978   4.442  14.470 -0.8584  0.5610 -0.6260
  669TMC3    H1 9904   2.391   4.553  14.532 -0.3998 -0.0738 -0.5129
  669TMC3    H2 9905   2.161   0.030  14.237  0.3234 -0.5068 -0.2720
  669TMC3    C7 9906   2.388   0.026  14.360  0.0129 -0.0202  0.7855
  669TMC3    C8 9907   1.931   4.626  14.278 -0.0552 -0.4754 -0.1019
  669TMC3    O1 9908   2.473   0.020  14.447  0.6358 -0.5499 -0.3927
  669TMC3    O2 9909   1.855   4.533  14.277 -0.0960  0.2180 -0.0315
  670MPD2     C 9910   0.006   2.732  13.587 -0.2577  0.0526 -0.3547
  670MPD2    C1 9911   0.132   2.679  13.583 -0.2975 -0.5423  0.3877
  670MPD2    C2 9912   0.209   2.676  13.704  0.6477 -0.1070  0.5861
  670MPD2    C3 9913   0.160   2.732  13.821 -0.0106 -0.1446  0.3458
  670MPD2    C4 9914   0.033   2.792  13.815 -0.2027 -0.0991 -0.0135
  670MPD2    C5 9915   4.680   2.790  13.702 -0.1525  0.2173 -0.3441
  670MPD2     H 9916   0.302   2.620  13.703  1.2209  0.8019  2.8247
  670MPD2    H1 9917   4.712   2.841  13.901 -1.3308  0.3510 -0.8586
  670MPD2    H2 9918   4.654   2.723  13.510  2.6317  0.1968 -3.2618
  670MPD2    H3 9919   4.575   2.816  13.705  0.0747  0.9054  2.0117
  670MPD2     N 9920   0.209   2.691  13.947  1.2695 -0.1581 -0.1128
  670MPD2    H5 9921   0.159   2.724  14.029  0.7158 -1.2776  0.0052
  670MPD2    N1 9922   0.179   2.616  13.469 -0.3132 -0.1723  0.3112
  670MPD2    H7 9923   0.273   2.580  13.479 -1.0394 -1.0620  3.9073
  671TMC3    C1 9924   0.322   2.581  14.114 -0.2313 -0.2318 -0.2681
  671TMC3    C2 9925   0.440   2.533  14.157 -0.3440 -0.0124 -0.8673
  671TMC3    C3 9926   0.431   2.430  14.244  0.3897  0.3507 -0.2912
  671TMC3    C4 9927   0.205   2.529  14.160 -0.1680 -0.2733 -0.1306
  671TMC3    C5 9928   0.201   2.432  14.257 -0.1236  0.1682  0.0734
  671TMC3    C6 9929   0.315   2.385  14.308 -0.0178 -0.5028 -0.2634
  671TMC3     C 9930   0.322   2.624  13.976 -0.9232  0.2837  0.2861
  671TMC3     O 9931   0.407   2.579  13.904 -0.3192  0.1262  0.5640
  671TMC3     H 9932   0.527   2.563  14.099 -0.7315 -0.5181 -1.7249
  671TMC3    H1 9933   0.114   2.575  14.122 -1.5381 -1.4199  1.7904
  671TMC3    H2 9934   0.323   2.301  14.375 -2.5618 -1.5425 -1.2540
  671TMC3    C7 9935   0.076   2.370  14.278  0.6576 -0.7198  0.6456
  671TMC3    C8 9936   0.546   2.343  14.248 -0.7816 -1.0620 -0.3809
  671TMC3    O1 9937   4.721   2.412  14.195 -0.0019  0.3419 -0.6609
  671TMC3    O2 9938   0.525   2.221  14.251 -0.2182 -0.0101 -0.0291
  672MPD2     C 9939   0.523   2.586   1.247 -0.1074  0.2666 -0.1999
  672MPD2    C1 9940   0.624   2.591   1.152  0.4727 -0.3075 -0.6033
  672MPD2    C2 9941   0.734   2.668   1.171 -0.7602  0.7458  0.1091
  672MPD2    C3 9942   0.736   2.748   1.284 -0.5314 -0.4366 -0.2954
  672MPD2    C4 9943   0.629   2.754   1.371 -0.3062 -0.5433 -1.0013
  672MPD2    C5 9944   0.523   2.675   1.350  0.2341 -0.3539  0.2010
  672MPD2     H 9945   0.812   2.668   1.095 -0.3280  0.3954  0.5485
  672MPD2    H1 9946   0.627   2.827   1.452  1.2055  0.5060 -1.9291
  672MPD2    H2 9947   0.432   2.530   1.230 -0.3571 -0.1520  2.4858
  672MPD2    H3 9948   0.436   2.670   1.414 -0.9198 -0.0417 -1.3463
  672MPD2     N 9949   0.842   2.833   1.316  0.3498 -0.3356  0.5715
  672MPD2    H5 9950   0.830   2.887   1.401 -0.1979 -0.0533  0.3160
  672MPD2    N1 9951   0.619   2.516   1.033  0.0370  0.0856  0.3564
  672MPD2    H7 9952   0.697   2.522   0.969 -1.4789  0.9699 -1.3957
  673TMC3    C1 9953   0.538   2.393   0.853  0.4538 -0.3732 -1.0480
  673TMC3    C2 9954   0.663   2.342   0.833  0.3921 -0.4371  0.0625
  673TMC3    C3 9955   0.704   2.311   0.707 -0.4293 -0.3841  0.5052
  673TMC3    C4 9956   0.460   2.429   0.747  0.1704 -0.0131 -0.1733
  673TMC3    C5 9957   0.504   2.400   0.623 -0.5342 -0.0454 -0.3256
  673TMC3    C6 9958   0.623   2.337   0.604 -0.2997  0.1327  0.2161
  673TMC3     C 9959   0.506   2.461   0.981 -0.2780 -0.4234  0.0054
  673TMC3     O 9960   0.393   2.500   1.009 -0.2742  0.3780 -0.1411
  673TMC3     H 9961   0.724   2.312   0.917  0.6631  1.3587  0.5149
  673TMC3    H1 9962   0.357   2.460   0.763 -0.1055 -1.1638  0.3308
  673TMC3    H2 9963   0.652   2.316   0.502  0.7187 -1.0601  0.7472
  673TMC3    C7 9964   0.444   2.457   0.509  0.1882  0.9323 -0.0318
  673TMC3    C8 9965   0.800   2.208   0.682  0.6455 -0.0909 -0.3755
  673TMC3    O1 9966   0.450   2.397   0.402  0.0180  0.1036  0.6029
  673TMC3    O2 9967   0.766   2.125   0.598 -0.9063  0.5143  0.0923
  674MPD2     C 9968   0.124   2.447  17.678 -0.5010 -0.1844 -0.3646
  674MPD2    C1 9969   0.136   2.400   0.108  0.2006  0.3184 -0.0896
  674MPD2    C2 9970   0.074   2.466   0.215 -0.6717  0.0195 -0.2519
  674MPD2    C3 9971   0.002   2.571   0.184  0.7979  0.0218 -0.0095
  674MPD2    C4 9972   4.701   2.614   0.058  0.2306 -0.5465  0.2799
  674MPD2    C5 9973   0.042   2.549  17.655  0.6869  0.2277 -0.3161
  674MPD2     H 9974   0.100   2.443   0.318 -0.7846  1.0636  0.0155
  674MPD2    H1 9975   4.645   2.705   0.039  0.7360  0.0645  1.6798
  674MPD2    H2 9976   0.176   2.407  17.592  0.5345  1.5610 -0.5473
  674MPD2    H3 9977   0.026   2.587  17.555  2.7114 -0.0209 -0.7326
  674MPD2     N 9978   4.673   2.640   0.295 -0.3732  0.2920 -0.1603
  674MPD2    H5 9979   4.699   2.591   0.380  0.7204  1.1891  0.0140
  674MPD2    N1 9980   0.230   2.294   0.122  0.2049  0.4456  0.0236
  674MPD2    H7 9981   0.273   2.259   0.037  0.1000  1.4690 -0.4520
  675TMC3    C1 9982   0.335   2.117   0.242 -0.1527  0.7979 -0.3770
  675TMC3    C2 9983   0.326   2.048   0.357  0.1068  0.4913 -0.5132
  675TMC3    C3 9984   0.435   2.016   0.433 -0.6580  0.0063  0.2472
  675TMC3    C4 9985   0.454   2.144   0.188  0.0857 -0.2558 -0.2800
  675TMC3    C5 9986   0.565   2.107   0.260  0.5027 -0.3321  1.1548
  675TMC3    C6 9987   0.557   2.038   0.383  0.3995 -0.7924 -0.0467
  675TMC3     C 9988   0.241   2.230   0.246 -0.4424  0.2022 -0.6040
  675TMC3     O 9989   0.166   2.234   0.345  0.8297  0.2983 -0.1791
  675TMC3     H 9990   0.229   2.029   0.403 -0.0349  0.4228 -0.8442
  675TMC3    H1 9991   0.464   2.211   0.103  1.1365  0.3553  0.3286
  675TMC3    H2 9992   0.642   1.993   0.432  1.2302  0.6693 -0.1393
  675TMC3    C7 9993   0.689   2.142   0.196 -0.8730  0.3051 -0.2606
  675TMC3    C8 9994   0.409   1.977   0.568  0.9563 -0.4310 -0.1010
  675TMC3    O1 9995   0.698   2.167   0.075  0.7202  0.5902 -0.2303
  675TMC3    O2 9996   0.304   1.921   0.581 -0.5341 -0.3081  0.3799
  676MPD2     C 9997   2.808   0.866  11.343 -0.3939 -0.0013  0.0901
  676MPD2    C1 9998   2.862   0.779  11.437  0.3555 -0.1483  0.0766
  676MPD2    C2 9999   2.902   0.652  11.395 -0.5269 -0.0818  0.0816
  676MPD2    C310000   2.888   0.606  11.262 -0.4340 -0.8000  0.5889
  676MPD2    C410001   2.839   0.694  11.173 -0.3458  0.1833 -0.4953
  676MPD2    C510002   2.795   0.819  11.213  0.2646 -1.1348 -0.6116
  676MPD2     H10003   2.929   0.585  11.476  2.4970  1.0911  0.0348
  676MPD2    H110004   2.841   0.673  11.067  0.3439  1.0165 -0.6499
  676MPD2    H210005   2.781   0.969  11.361 -0.2912 -0.1797  1.2560
  676MPD2    H310006   2.774   0.888  11.133  1.3082  0.6016  0.6010
  676MPD2     N10007   2.931   0.486  11.209 -0.3199 -0.0457 -0.0256
  676MPD2    H510008   2.942   0.478  11.108 -2.9171  1.4057 -0.4051
  676MPD2    N110009   2.880   0.809  11.573 -1.1049 -0.7095  0.3027
  676MPD2    H710010   2.920   0.737  11.633 -0.5648 -0.1967  0.5650
  677TMC3    C110011   2.870   0.913  11.766 -0.3319 -0.0276  0.0833
  677TMC3    C210012   2.887   0.788  11.810  0.0466  0.0527  0.4962
  677TMC3    C310013   2.930   0.774  11.940 -0.0685 -0.3590 -0.9788
  677TMC3    C410014   2.897   1.025  11.842  0.1036  0.3703 -0.5363
  677TMC3    C510015   2.932   1.001  11.972 -0.2982 -0.5492 -0.2346
  677TMC3    C610016   2.940   0.876  12.028 -0.4616  0.2978 -0.0787
  677TMC3     C10017   2.854   0.931  11.632  0.5146  0.0009 -0.2111
  677TMC3     O10018   2.826   1.039  11.584 -0.6718  0.4068 -0.5638
  677TMC3     H10019   2.839   0.699  11.771 -0.5424  0.8513 -0.6157
  677TMC3    H110020   2.878   1.126  11.806  0.8860  0.0458 -1.8944
  677TMC3    H210021   2.978   0.859  12.128 -1.8851  2.1691  0.7829
  677TMC3    C710022   2.984   1.105  12.060  0.5173 -0.5852 -0.0202
  677TMC3    C810023   2.928   0.629  11.977 -0.0554 -0.6983  0.1024
  677TMC3    O110024   3.003   1.080  12.179  0.0621  0.0740  0.9441
  677TMC3    O210025   2.841   0.576  12.048 -0.7045 -0.7960  0.0079
  678MPD2     C10026   4.181   1.198   1.678  0.9341  0.0532 -0.6755
  678MPD2    C110027   4.285   1.105   1.663 -0.0158 -0.0755  0.1039
  678MPD2    C210028   4.261   0.976   1.629  0.6435  0.1085 -0.2640
  678MPD2    C310029   4.128   0.934   1.614  0.3887 -0.0521 -0.1368
  678MPD2    C410030   4.029   1.033   1.620  1.0114  0.3490  0.1170
  678MPD2    C510031   4.056   1.161   1.650  0.3633  0.4360 -0.1993
  678MPD2     H10032   4.347   0.913   1.610 -0.1599 -1.8263  2.4268
  678MPD2    H110033   3.926   1.013   1.592  0.9940  0.6878 -0.0598
  678MPD2    H210034   4.195   1.301   1.711 -0.2756  0.2555 -0.8068
  678MPD2    H310035   3.977   1.234   1.662 -1.2064 -1.3537  0.4482
  678MPD2     N10036   4.114   0.808   1.563  0.5661 -0.5812 -0.2801
  678MPD2    H510037   4.195   0.748   1.552  0.8522 -0.1405 -0.5719
  678MPD2    N110038   4.423   1.147   1.654  0.4126  0.2339 -0.7714
  678MPD2    H710039   4.495   1.077   1.642 -0.1890 -0.3724 -0.8085
  679TMC3    C110040   0.108   1.226   1.664  0.1197  0.1818 -0.0404
  679TMC3    C210041   4.696   1.217   1.697  0.1221 -0.1904 -0.4473
  679TMC3    C310042   4.610   1.296   1.625 -0.2614  0.5519  0.0899
  679TMC3    C410043   0.159   1.337   1.592  0.0881  0.6590  0.1068
  679TMC3    C510044   0.066   1.407   1.525 -0.1937  0.0188 -0.1429
  679TMC3    C610045   4.654   1.392   1.536  0.4258  0.6240 -0.0024
  679TMC3     C10046   0.203   1.142   1.733  0.6765 -0.3386 -0.0553
  679TMC3     O10047   0.315   1.186   1.744 -0.2725 -0.5880 -0.0387
  679TMC3     H10048   4.654   1.146   1.767  1.8632  0.8344  1.6247
  679TMC3    H110049   0.266   1.348   1.580  0.4205 -1.6796  1.0230
  679TMC3    H210050   4.588   1.447   1.469  0.3169  0.7866  0.2388
  679TMC3    C710051   0.119   1.477   1.417 -0.5598  0.7265  0.9593
  679TMC3    C810052   4.462   1.281   1.655  0.5398  1.0263  0.1974
  679TMC3    O110053   0.212   1.423   1.358 -0.2678  0.3741  0.1814
  679TMC3    O210054   4.402   1.388   1.652  0.6933 -0.0962 -0.1211
  680MPD2     C10055   4.544   0.041  13.582  0.4230 -0.9012  0.0547
  680MPD2    C110056   4.592   4.695  13.685  0.0912  0.2532  0.0245
  680MPD2    C210057   4.614   0.041  13.803  0.1215 -0.0052  0.6718
  680MPD2    C310058   4.573   0.169  13.817  0.5703 -0.5749  0.1783
  680MPD2    C410059   4.541   0.241  13.712 -0.2832  0.0150 -0.5299
  680MPD2    C510060   4.524   0.177  13.588 -0.0476  1.1138  0.2546
  680MPD2     H10061   4.643   4.716  13.896  2.4793 -0.4081 -0.2728
  680MPD2    H110062   4.493   0.338  13.724 -0.3782 -0.0080 -0.7208
  680MPD2    H210063   4.545   0.001  13.481  1.5858 -0.5353 -0.0691
  680MPD2    H310064   4.482   0.232  13.504 -2.3371 -1.3657 -0.2014
  680MPD2     N10065   4.587   0.251  13.934 -0.0660 -0.0389  0.3612
  680MPD2    H510066   4.581   0.352  13.926  0.1112 -0.0090  0.6218
  680MPD2    N110067   4.615   4.555  13.679 -0.0461 -0.0833  0.1603
  680MPD2    H710068   4.638   4.505  13.764 -2.0059 -0.9928  0.1765
  681TMC3    C110069   4.573   4.337  13.621 -0.1491  0.0762 -0.0897
  681TMC3    C210070   4.480   4.254  13.571  0.8728  0.1874 -0.2139
  681TMC3    C310071   4.504   4.125  13.539  0.0010 -0.7611 -0.0482
  681TMC3    C410072   4.702   4.294  13.639  0.2991 -0.1144 -0.0563
  681TMC3    C510073   0.001   4.163  13.605 -0.5992  0.0745  0.0277
  681TMC3    C610074   4.626   4.076  13.557  0.2114  0.0181  0.6754
  681TMC3     C10075   4.549   4.475  13.587  0.1071 -0.7794 -0.4642
  681TMC3     O10076   4.470   4.503  13.498  0.6084 -0.5294  0.2188
  681TMC3     H10077   4.379   4.287  13.552  0.3760  0.6995  3.3099
  681TMC3    H110078   0.060   4.362  13.661  0.3185 -0.8604  2.1871
  681TMC3    H210079   4.641   3.972  13.531 -1.7011 -0.2550  0.6937
  681TMC3    C710080   0.140   4.120  13.588 -0.6839  0.0490  0.0740
  681TMC3    C810081   4.403   4.041  13.586 -0.0657  0.1322 -0.2986
  681TMC3    O110082   0.225   4.168  13.663 -0.2241 -0.1903 -0.2381
  681TMC3    O210083   4.288   4.062  13.552  0.1207  0.1244 -0.2628
  682MPD2     C10084   1.954   0.946  10.973 -0.0491  0.1402  0.1571
  682MPD2    C110085   2.001   0.826  11.013 -0.3946  0.0092 -0.6506
  682MPD2    C210086   1.966   0.771  11.135 -0.0086 -0.3309 -0.0349
  682MPD2    C310087   1.882   0.847  11.216  0.2017 -0.0500 -0.5939
  682MPD2    C410088   1.836   0.967  11.171  0.4402 -0.6668  0.0278
  682MPD2    C510089   1.868   1.014  11.050 -0.2262 -0.2086 -0.2626
  682MPD2     H10090   1.984   0.666  11.156  0.5837 -0.0253  0.9994
  682MPD2    H110091   1.765   1.024  11.229  0.7374 -0.7022  0.4274
  682MPD2    H210092   1.982   0.996  10.881  1.3224 -1.0607 -0.0895
  682MPD2    H310093   1.824   1.108  11.017 -1.8743 -0.6434  0.6696
  682MPD2     N10094   1.849   0.799  11.346  0.3988 -0.2826 -0.3354
  682MPD2    H510095   1.767   0.845  11.385  0.2663  0.3798 -1.3829
  682MPD2    N110096   2.063   0.741  10.922 -0.2890 -0.0235  0.5760
  682MPD2    H710097   2.089   0.649  10.955  4.1452  1.4499  1.1087
  683TMC3    C110098   1.831   0.733  11.765  0.0371 -0.5363 -0.0146
  683TMC3    C210099   1.860   0.602  11.814  0.9675  0.6270 -0.6555
  683TMC3    C310100   1.906   0.506  11.728 -0.1255 -0.3393  0.3254
  683TMC3    C410101   1.846   0.764  11.630 -0.1266  0.1776 -0.1740
  683TMC3    C510102   1.868   0.661  11.541  0.1989  0.4301  0.5840
  683TMC3    C610103   1.908   0.534  11.588  0.2723 -0.1397  0.6273
  683TMC3     C10104   1.788   0.833  11.857 -0.3953  0.6871  0.0889
  683TMC3     O10105   1.788   0.951  11.820 -0.0757  0.5324 -0.0558
  683TMC3     H10106   1.858   0.572  11.918 -0.2274 -0.2595 -0.9301
  683TMC3    H110107   1.845   0.870  11.606  3.4476  0.5371  1.2283
  683TMC3    H210108   1.942   0.468  11.510 -3.4200 -1.7959  0.4076
  683TMC3    C710109   1.917   0.698  11.409 -0.5746  0.1334 -0.6272
  683TMC3    C810110   1.990   0.401  11.784 -1.1137 -0.1580  0.7642
  683TMC3    O110111   2.019   0.642  11.381  0.1007 -0.0223 -0.6071
  683TMC3    O210112   1.988   0.374  11.900  0.3019  0.1324  0.2398
  684MPD2     C10113   4.306   0.849  16.030  0.9045  0.2809  0.2476
  684MPD2    C110114   4.434   0.808  16.056 -0.2477 -0.1254 -0.3557
  684MPD2    C210115   4.531   0.898  16.084  0.6634 -0.1024 -0.3172
  684MPD2    C310116   4.508   1.032  16.073 -0.2665 -0.2769 -0.1532
  684MPD2    C410117   4.379   1.076  16.033 -0.2789 -0.2638  0.0150
  684MPD2    C510118   4.278   0.985  16.015  0.0676 -0.1040 -0.3555
  684MPD2     H10119   4.630   0.864  16.113 -0.0986 -1.4528  0.6508
  684MPD2    H110120   4.353   1.181  16.027  2.0221  0.2037 -1.6425
  684MPD2    H210121   4.220   0.784  16.022 -0.4769  1.8877  1.9691
  684MPD2    H310122   4.181   1.021  15.986  0.9934  2.7172  0.0922
  684MPD2     N10123   4.601   1.141  16.097 -0.0938 -0.1735  0.7698
  684MPD2    H510124   4.572   1.234  16.068 -1.0261 -0.9442 -0.7388
  684MPD2    N110125   4.466   0.669  16.072  0.4562 -0.1267  0.1282
  684MPD2    H710126   4.555   0.659  16.120  0.3695 -2.1590 -0.1236
  685TMC3    C110127   4.446   0.431  16.059 -0.4643 -0.2191 -0.5946
  685TMC3    C210128   4.391   0.330  15.994 -0.1347  0.8553 -0.2980
  685TMC3    C310129   4.435   0.205  16.031 -0.6211 -0.5212 -0.4856
  685TMC3    C410130   4.545   0.417  16.155  0.4614  0.3965 -0.3024
  685TMC3    C510131   4.587   0.292  16.186 -0.2102  0.4499 -0.4063
  685TMC3    C610132   4.535   0.184  16.120 -0.5142 -0.3698  0.4058
  685TMC3     C10133   4.391   0.565  16.033 -0.5622 -0.0119  0.3013
  685TMC3     O10134   4.276   0.574  15.997  0.2520  0.3426 -0.3374
  685TMC3     H10135   4.318   0.343  15.915 -2.9819 -2.3325  1.8148
  685TMC3    H110136   4.584   0.504  16.207  1.2480 -1.1594  1.6765
  685TMC3    H210137   4.569   0.083  16.138  0.8884  0.0058 -0.2086
  685TMC3    C710138   4.695   0.265  16.284  0.4625 -0.1814  0.1024
  685TMC3    C810139   4.362   0.099  15.975  0.5009 -0.9448  0.0949
  685TMC3    O110140   0.019   0.149  16.284 -0.5777  0.3028 -0.3238
  685TMC3    O210141   4.326   0.113  15.862  0.1507 -0.2935 -0.2511
  686MPD2     C10142   1.519   0.671  15.722 -0.2373  0.4655  0.3843
  686MPD2    C110143   1.477   0.543  15.698  0.0567  0.0530  0.5936
  686MPD2    C210144   1.559   0.455  15.631 -0.2900 -0.4097  0.5715
  686MPD2    C310145   1.685   0.494  15.604 -0.0515  0.1260  0.4653
  686MPD2    C410146   1.731   0.623  15.629 -0.1272  0.2843 -0.5655
  686MPD2    C510147   1.643   0.716  15.683 -0.7398 -0.2252  0.7754
  686MPD2     H10148   1.535   0.349  15.628 -1.0592 -0.3262  3.9172
  686MPD2    H110149   1.828   0.651  15.589 -0.1269  0.1900 -0.6291
  686MPD2    H210150   1.457   0.744  15.773 -1.6036 -0.8298  0.5660
  686MPD2    H310151   1.667   0.820  15.700 -0.9435  0.1361 -1.1810
  686MPD2     N10152   1.773   0.400  15.539 -0.3348 -0.4943 -0.3758
  686MPD2    H510153   1.874   0.404  15.545 -0.3072 -0.7554 -0.7387
  686MPD2    N110154   1.347   0.508  15.754  0.2635  0.1978  0.4039
  686MPD2    H710155   1.295   0.585  15.794 -2.5091 -1.9995  1.0392
  687TMC3    C110156   1.799   0.181  15.457  0.4472 -0.1900  0.1769
  687TMC3    C210157   1.721   0.087  15.404  0.0250  0.0780  0.0087
  687TMC3    C310158   1.702   4.690  15.459 -0.0941  0.0219 -0.3191
  687TMC3    C410159   1.868   0.154  15.567 -0.0790  0.4422 -1.1763
  687TMC3    C510160   1.866   0.023  15.614  0.0953  1.0317 -0.0531
  687TMC3    C610161   1.785   4.649  15.561  0.3383 -0.4401  0.4154
  687TMC3     C10162   1.725   0.300  15.466  0.6733 -0.7911  0.3927
  687TMC3     O10163   1.620   0.308  15.403  0.0055  0.5290  0.4830
  687TMC3     H10164   1.687   0.115  15.305 -1.8239 -0.3555  0.5174
  687TMC3    H110165   1.917   0.234  15.622  0.4770 -0.6869 -0.0251
  687TMC3    H210166   1.768   4.558  15.616 -0.7508 -1.9952 -2.4646
  687TMC3    C710167   1.970   4.705  15.705 -0.2833 -0.4747 -0.3971
  687TMC3    C810168   1.562   4.651  15.482 -0.5335  0.6146 -0.7931
  687TMC3    O110169   2.030   0.075  15.754 -0.3332 -0.2329 -0.7161
  687TMC3    O210170   1.533   4.546  15.536 -0.0026  0.3226 -0.0282
  688MPD2     C10171   0.808   3.981  17.354 -0.6377  0.2467 -0.0819
  688MPD2    C110172   0.808   3.848  17.336 -0.8603 -0.6431  0.4261
  688MPD2    C210173   0.902   3.789  17.240 -0.1316 -0.4508 -0.5969
  688MPD2    C310174   0.986   3.874  17.166 -0.0219  0.6221 -0.0682
  688MPD2    C410175   0.983   4.009  17.193 -0.5133 -0.4637 -0.0987
  688MPD2    C510176   0.900   4.063  17.286  0.5823 -0.4094 -0.0790
  688MPD2     H10177   0.910   3.682  17.230  0.9056 -0.3508 -0.7546
  688MPD2    H110178   1.052   4.079  17.147 -0.3179 -1.7681 -1.8031
  688MPD2    H210179   0.734   4.036  17.412  0.3686  1.7750 -0.2355
  688MPD2    H310180   0.887   4.171  17.285  0.0975 -0.4748 -1.8383
  688MPD2     N10181   1.084   3.828  17.073 -0.1427  0.2030  0.1758
  688MPD2    H510182   1.135   3.903  17.026 -2.3496  1.7632  0.2264
  688MPD2    N110183   0.737   3.754  17.427  0.0865 -0.2441  0.7545
  688MPD2    H710184   0.764   3.657  17.421  1.5247  0.2826 -1.1516
  689TMC3    C110185   0.600   3.698  17.622  0.8588 -0.0124 -0.1508
  689TMC3    C210186   0.568   3.727   0.053 -0.2157  0.1696 -0.1443
  689TMC3    C310187   0.598   3.632   0.158 -0.9035  0.6335 -0.2716
  689TMC3    C410188   0.617   3.567  17.593 -0.1861  0.1298 -0.1371
  689TMC3    C510189   0.631   3.466  17.694 -0.1783 -0.4229 -0.0132
  689TMC3    C610190   0.633   3.502   0.130  0.9528  0.6271 -0.1075
  689TMC3     C10191   0.640   3.796  17.518 -0.2801  0.7573  0.2801
  689TMC3     O10192   0.585   3.903  17.522 -0.1242  0.0848 -0.5747
  689TMC3     H10193   0.557   3.832   0.077 -1.3154 -0.1503  0.7866
  689TMC3    H110194   0.602   3.543  17.489  1.1697  0.3194 -0.3642
  689TMC3    H210195   0.642   3.430   0.210  1.6251  1.2819  0.3983
  689TMC3    C710196   0.619   3.327  17.654 -0.0091 -0.6073  0.3876
  689TMC3    C810197   0.598   3.682   0.297  0.2466 -0.1473 -0.0211
  689TMC3    O110198   0.561   3.301  17.549  0.6658 -0.4379  0.2543
  689TMC3    O210199   0.620   3.593   0.384  0.5240 -0.6956 -0.3872
  690MPD2     C10200   3.014   0.880  16.118 -0.1866  0.2786  1.1526
  690MPD2    C110201   2.993   0.885  15.981  0.1540  0.0366  0.0508
  690MPD2    C210202   3.082   0.958  15.901  0.8930 -0.7674  0.6704
  690MPD2    C310203   3.181   1.033  15.957 -0.1132  0.0885  0.0397
  690MPD2    C410204   3.207   1.021  16.094 -0.0158  0.0923 -0.2444
  690MPD2    C510205   3.119   0.945  16.177 -0.0692  0.1411  0.4266
  690MPD2     H10206   3.056   0.956  15.796 -1.9301  0.6930  1.3335
  690MPD2    H110207   3.289   1.072  16.144 -0.3834  0.5871 -0.1482
  690MPD2    H210208   2.941   0.842  16.188 -0.1590  0.9515  1.5499
  690MPD2    H310209   3.142   0.939  16.283  0.2114  1.6583  0.4463
  690MPD2     N10210   3.257   1.119  15.874  0.2049  0.7203  0.1758
  690MPD2    H510211   3.235   1.114  15.775  0.7356 -0.0852  0.0987
  690MPD2    N110212   2.882   0.833  15.918 -0.2263  0.1078  0.5237
  690MPD2    H710213   2.878   0.841  15.817  0.7462 -3.0521  0.2485
  691TMC3    C110214   2.699   0.711  15.871 -0.1351  0.1674 -0.4301
  691TMC3    C210215   2.568   0.701  15.886 -0.4458 -0.7919 -0.2297
  691TMC3    C310216   2.507   0.601  15.817  0.5666 -0.5135 -0.0354
  691TMC3    C410217   2.772   0.639  15.779 -0.4440 -0.0404 -0.1820
  691TMC3    C510218   2.710   0.532  15.722  0.1034 -0.2656 -0.2315
  691TMC3    C610219   2.572   0.513  15.729 -0.5096 -0.2999 -0.3130
  691TMC3     C10220   2.772   0.776  15.973 -0.4519 -0.3620 -0.2931
  691TMC3     O10221   2.744   0.772  16.090 -0.2236 -0.0932 -0.3001
  691TMC3     H10222   2.520   0.734  15.978  0.5608  0.2982 -0.1104
  691TMC3    H110223   2.880   0.635  15.787 -0.3470  3.0337 -0.1077
  691TMC3    H210224   2.523   0.428  15.682 -2.3206  1.1917 -1.0893
  691TMC3    C710225   2.789   0.411  15.723  0.7611  1.0887  0.0314
  691TMC3    C810226   2.361   0.585  15.811  0.0444 -0.3762  0.3036
  691TMC3    O110227   2.852   0.390  15.826 -0.8370  0.4512 -0.0561
  691TMC3    O210228   2.313   0.486  15.756 -0.4158 -0.8487  0.0941
  692TMC3    C110229   4.358   2.314  15.797 -0.4348  0.0328 -0.0309
  692TMC3    C210230   4.482   2.312  15.851 -0.6777  0.2683  0.3766
  692TMC3    C310231   4.575   2.253  15.771 -0.7102  0.4015 -0.2087
  692TMC3    C410232   4.322   2.235  15.696 -0.2093  0.5941 -0.3319
  692TMC3    C510233   4.413   2.138  15.657  0.2743 -0.2417  0.3222
  692TMC3    C610234   4.539   2.168  15.668  0.3986 -0.0611  0.5823
  692TMC3     C10235   4.254   2.383  15.877  0.3372  1.4680 -0.4473
  692TMC3     O10236   4.285   2.401  15.992 -0.2205  0.5344 -0.5034
  692TMC3     H10237   4.515   2.381  15.929  1.3124  2.3346 -2.2986
  692TMC3    H110238   4.222   2.217  15.660  0.2509 -0.1623 -1.2545
  692TMC3    H210239   4.620   2.098  15.652  0.0658 -0.5734  1.1666
  692TMC3    C710240   4.379   2.014  15.720  0.6641 -0.4455 -0.5682
  692TMC3    C810241   4.696   2.198  15.833 -0.4031 -0.2099 -0.2760
  692TMC3    O110242   4.262   2.025  15.759 -0.7488  0.2178 -0.3537
  692TMC3    O210243   0.068   2.175  15.760  0.1723  0.3198 -0.5067
  693MPD2     C10244   4.529   0.380  10.982 -0.5985 -0.2003  0.4287
  693MPD2    C110245   4.452   0.292  10.911 -0.8157 -0.0185  0.5203
  693MPD2    C210246   4.506   0.173  10.868 -0.0186  0.2024 -0.1366
  693MPD2    C310247   4.629   0.129  10.919 -0.2572 -0.4998  0.7480
  693MPD2    C410248   4.707   0.222  10.990  0.4130 -0.0189  0.4607
  693MPD2    C510249   4.650   0.339  11.024 -0.5011  0.3870  0.1084
  693MPD2     H10250   4.445   0.104  10.811  3.9715 -1.2825 -2.6619
  693MPD2    H110251   0.082   0.204  11.031  0.6274  0.8960  0.3545
  693MPD2    H210252   4.468   0.464  11.015  0.6010  0.9812 -0.3162
  693MPD2    H310253   4.706   0.411  11.083  1.2131 -0.2047 -0.7959
  693MPD2     N10254   4.681   4.724  10.905 -0.1379 -0.1052  0.0288
  693MPD2    H510255   0.043   4.713  10.957 -0.1021 -0.0885 -0.0265
  693MPD2    N110256   4.316   0.332  10.875 -0.0701 -0.3920  0.3263
  693MPD2    H710257   4.283   0.413  10.925 -0.7689  0.7194 -1.9591
  694TMC3    C110258   4.087   0.269  10.855 -0.6216 -0.6630  0.4831
  694TMC3    C210259   4.007   0.190  10.782  0.0579 -0.2857 -0.1783
  694TMC3    C310260   3.924   0.097  10.848 -0.7224 -0.0880  0.0381
  694TMC3    C410261   4.086   0.259  10.983 -0.2611  0.0363  0.3317
  694TMC3    C510262   4.014   0.158  11.049  0.1358  0.9558 -0.3003
  694TMC3    C610263   3.925   0.080  10.980 -0.2492 -0.0086 -0.3660
  694TMC3     C10264   4.224   0.253  10.808  0.9362  0.4610 -0.0629
  694TMC3     O10265   4.241   0.163  10.726  0.1747  0.0680  0.4259
  694TMC3     H10266   3.999   0.202  10.674  0.7686 -0.3758 -0.2413
  694TMC3    H110267   4.152   0.312  11.051 -1.1874 -0.0405  1.3054
  694TMC3    H210268   3.876   0.000  11.035  0.2301 -0.7317 -0.9926
  694TMC3    C710269   3.998   0.172  11.195 -0.0898 -0.3757 -0.2834
  694TMC3    C810270   3.857   4.714  10.773 -0.1456  0.4398  0.2915
  694TMC3    O110271   4.029   0.276  11.250 -0.0195 -0.4753  0.7514
  694TMC3    O210272   3.781   4.638  10.832  0.3816 -0.3530  0.0080
  695MPD2     C10273   0.439   1.607  13.650 -0.2650 -0.5205 -0.1074
  695MPD2    C110274   0.428   1.665  13.775 -0.5777 -0.2806  0.0517
  695MPD2    C210275   0.317   1.744  13.798 -0.8019 -0.0038 -0.1669
  695MPD2    C310276   0.216   1.765  13.706 -0.1206 -0.2938  0.4533
  695MPD2    C410277   0.237   1.708  13.579  0.3168 -0.1064  0.1317
  695MPD2    C510278   0.350   1.641  13.550  0.3541  0.6350  0.4809
  695MPD2     H10279   0.305   1.792  13.894  1.1742 -2.6749  1.3782
  695MPD2    H110280   0.170   1.728  13.496 -0.3552  0.8464  0.9015
  695MPD2    H210281   0.513   1.535  13.618 -2.4278 -2.4050 -0.8555
  695MPD2    H310282   0.373   1.599  13.453 -1.4256 -2.4833  1.4217
  695MPD2     N10283   0.100   1.839  13.738 -0.6542  1.0228  0.3205
  695MPD2    H510284   0.090   1.870  13.835 -2.7225 -0.5895  0.6426
  695MPD2    N110285   0.533   1.668  13.877  0.7651  0.6006  0.4631
  695MPD2    H710286   0.519   1.736  13.951 -3.7433  1.0762 -0.8191
  696TMC3    C110287   4.595   1.916  13.726  0.2761 -0.2580 -0.3310
  696TMC3    C210288   4.572   1.889  13.861  0.3202  0.1748  0.6037
  696TMC3    C310289   4.455   1.947  13.916 -0.5027 -0.7888 -0.2113
  696TMC3    C410290   4.504   1.986  13.651  0.0718  0.7602 -0.2836
  696TMC3    C510291   4.389   2.035  13.708  0.2109  0.4317  0.4360
  696TMC3    C610292   4.370   2.013  13.841  0.6188  0.4387  0.5042
  696TMC3     C10293   4.721   1.872  13.659  0.3674 -0.3625  0.8486
  696TMC3     O10294   4.711   1.857  13.539 -0.4435  0.8787 -0.2605
  696TMC3     H10295   4.638   1.827  13.920  2.4022  0.1196 -1.7918
  696TMC3    H110296   4.522   2.002  13.546 -1.7418  0.1428 -0.6917
  696TMC3    H210297   4.285   2.049  13.898 -1.7831 -2.0450 -1.4666
  696TMC3    C710298   4.357   2.172  13.669 -0.2848  0.0114 -0.1419
  696TMC3    C810299   4.479   2.018  14.035 -0.7191 -0.7778 -0.5272
  696TMC3    O110300   4.327   2.187  13.554  0.0681 -0.6722  0.9014
  696TMC3    O210301   4.463   2.139  14.040 -0.5733  0.3466 -0.6056
  697MPD2     C10302   4.190   3.812  15.727  0.0732  0.0324  0.4687
  697MPD2    C110303   4.249   3.751  15.620  0.1308  0.8038  0.3252
  697MPD2    C210304   4.285   3.829  15.507 -0.3758 -0.3630  0.3077
  697MPD2    C310305   4.294   3.967  15.523  0.1107 -0.4338 -0.9951
  697MPD2    C410306   4.246   4.022  15.638  0.2081  0.0423 -0.3554
  697MPD2    C510307   4.195   3.946  15.742 -0.5231 -0.1620  0.1198
  697MPD2     H10308   4.315   3.772  15.420  0.7055  0.4456  0.1541
  697MPD2    H110309   4.239   4.129  15.658 -0.7276 -0.0601 -0.1680
  697MPD2    H210310   4.144   3.761  15.811 -0.5902 -2.2377 -1.2762
  697MPD2    H310311   4.164   3.980  15.840 -2.1932 -1.1788 -0.0531
  697MPD2     N10312   4.335   4.036  15.405  0.3004  0.5433  0.4323
  697MPD2    H510313   4.351   3.976  15.325  0.2747 -0.0776  0.8997
  697MPD2    N110314   4.270   3.610  15.628 -0.5235 -0.0063 -0.0413
  697MPD2    H710315   4.220   3.550  15.692 -1.0113  1.2515  0.7588
  698TMC3    C110316   4.421   4.194  15.272  0.4854 -0.0341  0.4150
  698TMC3    C210317   4.546   4.252  15.279  1.1192 -1.0555 -0.3535
  698TMC3    C310318   4.640   4.226  15.191 -0.2650  0.3383  0.0637
  698TMC3    C410319   4.389   4.111  15.166  0.1470  0.1111  0.6866
  698TMC3    C510320   4.496   4.075  15.086  0.4655 -0.3242 -0.2457
  698TMC3    C610321   4.627   4.134  15.093  0.3088  0.3620  0.2709
  698TMC3     C10322   4.366   4.170  15.401  0.0004 -0.3170 -0.3164
  698TMC3     O10323   4.367   4.252  15.495  0.5765 -0.5357  0.4710
  698TMC3     H10324   4.565   4.324  15.358  0.6643 -1.6448  0.2961
  698TMC3    H110325   4.288   4.073  15.158  0.7325 -1.4255  0.6243
  698TMC3    H210326   4.704   4.114  15.019  0.1116 -1.3721  0.5184
  698TMC3    C710327   4.450   4.000  14.974  0.9431 -0.1574  0.4188
  698TMC3    C810328   0.050   4.239  15.248 -0.5446  0.5069  0.3132
  698TMC3    O110329   4.334   4.020  14.936  0.1409 -0.3809  0.0642
  698TMC3    O210330   0.060   4.268  15.365  0.3212 -0.0719 -0.0097
  699TMC3    C110331   0.012   1.888  13.181 -0.7084  0.5024  0.0141
  699TMC3    C210332   0.080   1.772  13.217 -0.3982  0.4843 -0.4173
  699TMC3    C310333   0.013   1.669  13.260 -0.7595  0.2324 -0.1606
  699TMC3    C410334   4.596   1.909  13.205  0.2847 -0.0318  0.2377
  699TMC3    C510335   4.539   1.798  13.252 -0.1211 -0.1492 -0.1329
  699TMC3    C610336   4.599   1.676  13.280 -0.2383  0.0332  0.1932
  699TMC3     C10337   0.066   1.984  13.090 -0.3095 -0.2378 -0.0313
  699TMC3     O10338   4.719   2.061  13.029 -0.1144 -0.3041 -1.0012
  699TMC3     H10339   0.186   1.755  13.201 -0.6702 -0.4775 -1.1759
  699TMC3    H110340   4.546   1.997  13.169  0.3550  0.4920  1.4168
  699TMC3    H210341   4.540   1.589  13.307  0.2132  0.2010  1.7491
  699TMC3    C710342   4.394   1.807  13.276 -0.3726  0.8843 -0.3587
  699TMC3    C810343   0.088   1.549  13.293  0.2010 -0.6923 -0.4026
  699TMC3    O110344   4.340   1.700  13.302 -0.1407  0.4398  0.0445
  699TMC3    O210345   0.208   1.541  13.261  0.2943 -0.3450  0.3755
  700TMC3    C110346   3.625   4.198  17.094  0.2828 -0.3725 -0.1023
  700TMC3    C210347   3.573   4.082  17.128 -0.4569  0.1703  0.9236
  700TMC3    C310348   3.584   4.052  17.262  0.6804 -0.2824  0.0967
  700TMC3    C410349   3.690   4.283  17.177 -0.0370 -0.2164 -0.4269
  700TMC3    C510350   3.693   4.253  17.310 -0.6441  0.0949 -0.4559
  700TMC3    C610351   3.630   4.138  17.351  0.6081 -0.1119 -0.7032
  700TMC3     C10352   3.641   4.214  16.949  0.6831  0.3679 -0.4047
  700TMC3     O10353   3.604   4.126  16.878 -0.0856  0.2201  0.0130
  700TMC3     H10354   3.516   4.018  17.062  0.2182 -1.2351  1.6759
  700TMC3    H110355   3.753   4.365  17.143 -0.8202  0.3332 -0.5548
  700TMC3    H210356   3.640   4.119  17.457  0.7552 -0.3049 -0.7509
  700TMC3    C710357   3.718   4.358  17.410 -0.0018  0.2295 -0.2983
  700TMC3    C810358   3.569   3.908  17.315 -0.8802 -0.2845  0.5962
  700TMC3    O110359   3.713   4.318  17.524  0.4612  0.0665  0.3896
  700TMC3    O210360   3.604   3.885  17.431  0.1678  0.7484  0.4164
  701TMC3    C110361   3.359   3.263  15.391 -0.0499  0.6904 -0.1314
  701TMC3    C210362   3.394   3.182  15.285  0.7517 -0.1613 -0.8691
  701TMC3    C310363   3.514   3.214  15.222 -0.0377 -0.3014 -0.4834
  701TMC3    C410364   3.437   3.368  15.430 -0.6922 -0.0787 -0.3523
  701TMC3    C510365   3.552   3.388  15.364 -0.0320 -0.2160 -0.3478
  701TMC3    C610366   3.594   3.315  15.259 -0.3296 -0.0029 -0.4886
  701TMC3     C10367   3.260   3.227  15.491  0.5961  0.1908 -0.4052
  701TMC3     O10368   3.249   3.293  15.595 -0.5637  0.6265 -0.6265
  701TMC3     H10369   3.333   3.095  15.265  0.2505 -0.2781  1.1970
  701TMC3    H110370   3.397   3.442  15.498  1.5058 -0.2279  1.0958
  701TMC3    H210371   3.685   3.340  15.206 -1.0301 -0.0176 -1.7111
  701TMC3    C710372   3.643   3.490  15.420 -0.4008  0.4247 -0.1777
  701TMC3    C810373   3.538   3.150  15.093 -0.3792  0.1048 -0.2874
  701TMC3    O110374   3.719   3.561  15.356 -0.2590 -0.2210 -0.3205
  701TMC3    O210375   3.606   3.218  15.017 -0.2090 -0.4958 -0.1721
  702MPD2     C10376   3.260   0.119  10.668  0.2175  0.8728 -0.0919
  702MPD2    C110377   3.161   0.201  10.721 -0.1788 -0.1642 -0.1544
  702MPD2    C210378   3.100   0.303  10.650  0.0219 -0.1881  0.2502
  702MPD2    C310379   3.151   0.334  10.530  1.4177 -0.3708  0.0502
  702MPD2    C410380   3.244   0.251  10.479  0.6009 -0.6332 -0.4394
  702MPD2    C510381   3.304   0.150  10.543  0.6132  0.4992  0.1687
  702MPD2     H10382   3.028   0.372  10.693  0.9882  2.1162 -1.8669
  702MPD2    H110383   3.285   0.279  10.383 -3.2629 -2.8498 -2.7256
  702MPD2    H210384   3.297   0.030  10.716  1.0383  0.4707 -1.4678
  702MPD2    H310385   3.380   0.088  10.497  0.4049 -1.4347  2.4645
  702MPD2     N10386   3.099   0.449  10.460 -0.5295 -0.1730  0.2282
  702MPD2    H510387   3.012   0.488  10.494  0.0838 -1.0687  2.7889
  702MPD2    N110388   3.120   0.191  10.851 -0.2020 -0.0775  0.0344
  702MPD2    H710389   3.052   0.257  10.887  2.4918  2.3396  0.7084
  703TMC3    C110390   3.064   0.617  10.298 -0.9562 -0.6729  0.3847
  703TMC3    C210391   2.934   0.614  10.356  0.1066 -0.5458 -0.8512
  703TMC3    C310392   2.876   0.709  10.436 -0.0914 -1.2213 -0.1645
  703TMC3    C410393   3.133   0.738  10.315  0.4711  0.2499  0.5825
  703TMC3    C510394   3.083   0.830  10.401  0.1471 -0.0409 -0.3829
  703TMC3    C610395   2.957   0.819  10.463 -0.7070  0.4262 -0.7621
  703TMC3     C10396   3.153   0.513  10.350  0.8647 -0.6835 -0.0108
  703TMC3     O10397   3.273   0.515  10.307 -0.0232  0.0250 -0.7055
  703TMC3     H10398   2.878   0.524  10.338  0.2438 -0.1279 -3.4607
  703TMC3    H110399   3.233   0.750  10.274  0.6464 -2.8434  0.1220
  703TMC3    H210400   2.916   0.907  10.510  0.7932  0.4312  0.5305
  703TMC3    C710401   3.180   0.925  10.459  0.2424  0.2487 -0.5295
  703TMC3    C810402   2.822   0.644  10.552 -0.2130 -0.4875  0.2788
  703TMC3    O110403   3.276   0.953  10.391 -0.4594 -0.7166  0.4280
  703TMC3    O210404   2.848   0.523  10.569  0.5428 -0.1705 -0.6885
  704TMC3    C110405   0.513   3.599  12.003  0.2873 -0.5127 -0.2787
  704TMC3    C210406   0.633   3.655  12.038 -0.3189  0.3072 -0.0260
  704TMC3    C310407   0.685   3.615  12.157  0.4328  0.3516  0.3075
  704TMC3    C410408   0.431   3.536  12.087  0.0104 -0.1731  0.0466
  704TMC3    C510409   0.482   3.521  12.217  0.6884  0.1340 -1.2538
  704TMC3    C610410   0.609   3.548  12.245 -0.2616  0.2624  0.1395
  704TMC3     C10411   0.514   3.531  11.876 -0.2583 -0.2997 -0.4505
  704TMC3     O10412   0.414   3.482  11.826  0.5919 -0.1474 -0.0274
  704TMC3     H10413   0.691   3.724  11.978 -0.9305  2.0125  1.3523
  704TMC3    H110414   0.337   3.494  12.054  1.1383 -1.0314 -2.1436
  704TMC3    H210415   0.654   3.519  12.340 -1.0024  1.1314  0.7529
  704TMC3    C710416   0.405   3.441  12.319 -0.2110  0.2188  0.2953
  704TMC3    C810417   0.826   3.573  12.135  0.2421  0.2463 -0.3973
  704TMC3    O110418   0.282   3.444  12.329  0.0894  0.0031  0.1221
  704TMC3    O210419   0.862   3.567  12.015 -0.2689  0.0876 -0.3561
  705MPD2     C10420   0.389   1.241  16.430 -0.4606 -0.7722  0.4936
  705MPD2    C110421   0.405   1.364  16.487 -1.2380  0.4183  0.6275
  705MPD2    C210422   0.295   1.413  16.557 -0.1475 -0.2455  0.1657
  705MPD2    C310423   0.170   1.351  16.548 -0.0642 -0.2910  0.6244
  705MPD2    C410424   0.160   1.237  16.478  0.1635  0.2902  0.2435
  705MPD2    C510425   0.274   1.174  16.427 -0.7583  0.3313  0.3929
  705MPD2     H10426   0.309   1.503  16.616  0.9413 -0.9804  1.0390
  705MPD2    H110427   0.069   1.179  16.473  1.5194 -1.6997 -1.3606
  705MPD2    H210428   0.469   1.188  16.380 -0.6416 -1.0249  0.4767
  705MPD2    H310429   0.264   1.084  16.367  2.8634 -1.0384  1.8375
  705MPD2     N10430   0.050   1.401  16.618  0.4434  0.2076  0.0324
  705MPD2    H510431   4.693   1.340  16.617  1.3394 -0.9704 -0.5273
  705MPD2    N110432   0.528   1.441  16.480 -0.5954 -0.1979 -0.0908
  705MPD2    H710433   0.520   1.538  16.510 -0.8291 -0.5677  1.0432
  706TMC3    C110434   0.931   1.606  16.367  0.4063 -0.1355 -0.0606
  706TMC3    C210435   0.914   1.718  16.445 -0.0697 -0.1167  1.2751
  706TMC3    C310436   0.822   1.706  16.545  0.1585  0.2424 -0.3681
  706TMC3    C410437   0.860   1.489  16.381 -0.2527  0.0017  0.5944
  706TMC3    C510438   0.753   1.494  16.457  0.8451 -0.4110 -0.3986
  706TMC3    C610439   0.745   1.592  16.551 -0.3086  0.2037 -0.1357
  706TMC3     C10440   1.050   1.603  16.281 -0.3438 -0.3149  0.2022
  706TMC3     O10441   1.143   1.662  16.325 -0.0680 -0.3056  0.2949
  706TMC3     H10442   0.982   1.802  16.432 -1.0833  0.0579 -2.9896
  706TMC3    H110443   0.873   1.410  16.308 -2.6828 -1.4861  1.7567
  706TMC3    H210444   0.676   1.594  16.635  1.7049  0.8146  1.5202
  706TMC3    C710445   0.650   1.392  16.449 -0.5220 -0.8099  0.2271
  706TMC3    C810446   0.771   1.831  16.588  0.2460  0.0123  0.3139
  706TMC3    O110447   0.685   1.280  16.415 -0.0909  0.4619  0.2310
  706TMC3    O210448   0.733   1.843  16.706  0.5239  0.3504 -0.2622
  707TMC3    C110449   3.549   0.286   1.936 -0.0506  0.0621  0.0035
  707TMC3    C210450   3.584   0.164   1.968 -0.1531  0.4852 -0.5112
  707TMC3    C310451   3.661   0.147   2.079 -0.3399  0.5763 -0.0007
  707TMC3    C410452   3.578   0.396   2.015 -1.0643 -0.0964 -0.1011
  707TMC3    C510453   3.657   0.379   2.126  0.0558  1.1154  0.2583
  707TMC3    C610454   3.703   0.249   2.157  0.5134  0.0012  1.0596
  707TMC3     C10455   3.465   0.292   1.818  0.0013  0.5649 -0.1438
  707TMC3     O10456   3.478   0.208   1.731  0.3311  0.0307 -0.5110
  707TMC3     H10457   3.566   0.086   1.895  1.2383  0.1103 -0.4541
  707TMC3    H110458   3.543   0.494   1.983  0.1281  0.9699  1.8910
  707TMC3    H210459   3.776   0.226   2.233  0.7409 -1.9591  0.2586
  707TMC3    C710460   3.696   0.498   2.187 -0.0595 -0.5053  0.2611
  707TMC3    C810461   3.719   0.011   2.099  0.0405  0.3523 -0.2849
  707TMC3    O110462   3.623   0.594   2.172 -0.0739 -0.0830  0.1622
  707TMC3    O210463   3.825   0.011   2.157 -0.0070 -0.5125  0.6972
  708MPD2     C10464   3.574   0.032  13.917  0.0629 -0.4077  0.2314
  708MPD2    C110465   3.503   0.008  14.038 -0.1939  0.0427  0.1918
  708MPD2    C210466   3.568   0.046  14.155  0.0710  0.8980  0.6772
  708MPD2    C310467   3.689   0.106  14.157  0.1407 -0.1900 -0.2181
  708MPD2    C410468   3.760   0.120  14.042  0.3073  0.5147 -0.1749
  708MPD2    C510469   3.706   0.070  13.924  0.0349 -0.2602 -0.4583
  708MPD2     H10470   3.511   0.045  14.247 -0.9617  1.3149  0.0535
  708MPD2    H110471   3.860   0.159  14.033  0.6477 -0.5637 -1.0945
  708MPD2    H210472   3.538   4.716  13.823 -3.0745 -0.9820  1.6673
  708MPD2    H310473   3.768   0.059  13.835  1.1554  0.6190  0.2149
  708MPD2     N10474   3.749   0.129  14.286  0.2890  0.1589  0.1614
  708MPD2    H510475   3.695   0.097  14.366  2.0219 -1.8695  0.5161
  708MPD2    N110476   3.368   4.700  14.023 -0.5243 -0.2372 -0.0167
  708MPD2    H710477   3.329   4.688  13.930  1.8919  0.8889 -1.1556
  709TMC3    C110478   3.144   4.688  14.095  0.3372  0.0709  0.3775
  709TMC3    C210479   3.114   0.045  13.992 -0.4319 -1.0571  0.0068
  709TMC3    C310480   2.999   0.125  14.015 -0.4189  0.0060 -0.1740
  709TMC3    C410481   3.075   4.682  14.210  0.0643 -0.0307  0.1511
  709TMC3    C510482   2.977   0.049  14.237 -0.3960 -0.1600  0.4990
  709TMC3    C610483   2.938   0.127  14.138 -0.0626  0.2070  0.4190
  709TMC3     C10484   3.283   4.696  14.126 -0.3576 -0.5555 -0.3019
  709TMC3     O10485   3.299   4.718  14.244 -0.2447 -0.6018 -0.0226
  709TMC3     H10486   3.163   0.057  13.896 -1.0848 -1.4247 -0.3693
  709TMC3    H110487   3.112   4.611  14.284  1.9242  0.2062 -0.5520
  709TMC3    H210488   2.843   0.176  14.158  1.0070  0.8149  4.0180
  709TMC3    C710489   2.983   0.105  14.367  0.0658 -0.3472  0.9368
  709TMC3    C810490   2.928   0.157  13.894 -0.3122 -0.3131 -0.1739
  709TMC3    O110491   2.882   0.164  14.405  0.1152  0.1761 -0.0150
  709TMC3    O210492   3.002   0.203  13.805 -0.5846  0.3233  0.2595
  710TMC3    C110493   4.665   1.510   0.558 -0.4492 -0.0180  0.2416
  710TMC3    C210494   0.025   1.431   0.480 -0.1648  0.1588 -0.1490
  710TMC3    C310495   0.146   1.393   0.537  0.3118  0.4119 -0.2224
  710TMC3    C410496   4.703   1.557   0.682  0.7599 -0.1665  0.3366
  710TMC3    C510497   0.113   1.521   0.725  0.0761 -0.4427  0.4685
  710TMC3    C610498   0.194   1.437   0.652  0.5746 -0.0010 -0.0006
  710TMC3     C10499   4.552   1.578   0.491 -0.7560 -0.1548 -0.0815
  710TMC3     O10500   4.530   1.544   0.378 -0.1844 -0.6329  0.3144
  710TMC3     H10501   4.724   1.407   0.378  1.8739 -0.3625 -0.5286
  710TMC3    H110502   4.636   1.594   0.759  0.2680  0.5187 -0.4238
  710TMC3    H210503   0.288   1.398   0.691 -0.2910 -0.8549  1.2145
  710TMC3    C710504   0.137   1.529   0.869  0.2518  0.2167 -0.3340
  710TMC3    C810505   0.252   1.334   0.461 -0.0842  0.8594 -0.6818
  710TMC3    O110506   0.213   1.449   0.927  0.1573  0.2908  0.0582
  710TMC3    O210507   0.368   1.370   0.473 -0.1758 -0.3926  0.1031
  711TMC3    C110508   4.169   2.327  15.181 -0.2305 -0.1581  0.4196
  711TMC3    C210509   4.245   2.444  15.194 -0.9010 -0.1743  0.7891
  711TMC3    C310510   4.368   2.436  15.250  0.1833  0.2230 -0.4928
  711TMC3    C410511   4.220   2.206  15.226 -0.4178 -0.0564 -0.1115
  711TMC3    C510512   4.345   2.203  15.284 -0.5745  0.2642 -0.3978
  711TMC3    C610513   4.421   2.317  15.289  0.5167 -0.0472 -0.1694
  711TMC3     C10514   4.043   2.323  15.107 -0.3937  0.7050 -0.4929
  711TMC3     O10515   3.976   2.222  15.088  0.3004 -0.1103 -0.1268
  711TMC3     H10516   4.207   2.544  15.180  2.7577  0.7929 -2.2404
  711TMC3    H110517   4.147   2.131  15.253 -1.5097  0.8468 -0.5473
  711TMC3    H210518   4.521   2.314  15.330  0.5054  0.3846 -0.1044
  711TMC3    C710519   4.405   2.078  15.326 -0.2199 -0.7031 -0.4886
  711TMC3    C810520   4.384   2.551  15.335 -0.0248 -0.4948  1.1261
  711TMC3    O110521   4.525   2.085  15.356 -0.3439 -0.4939 -0.1187
  711TMC3    O210522   4.284   2.603  15.387  0.4939 -0.5483  0.3905
  712MPD2     C10523   0.944   3.296  13.655 -0.1411 -0.2632  0.7243
  712MPD2    C110524   0.825   3.370  13.631 -0.6733  0.1599  0.1955
  712MPD2    C210525   0.789   3.480  13.708  0.7457  0.0169  0.2490
  712MPD2    C310526   0.881   3.540  13.793 -0.4134  0.5581  0.8840
  712MPD2    C410527   0.998   3.475  13.813 -0.2964  0.0341 -0.1673
  712MPD2    C510528   1.031   3.360  13.748 -0.1910  0.0312  0.3196
  712MPD2     H10529   0.699   3.536  13.684 -0.0455 -1.1720  0.4679
  712MPD2    H110530   1.073   3.516  13.879  0.8255  0.3440 -1.6135
  712MPD2    H210531   0.978   3.205  13.608 -1.2374  1.5510 -3.6273
  712MPD2    H310532   1.127   3.313  13.765  0.7008  0.8380 -2.5664
  712MPD2     N10533   0.865   3.664  13.856 -0.3608  0.1409 -0.0974
  712MPD2    H510534   0.927   3.692  13.932  1.0795 -0.3117 -1.1027
  712MPD2    N110535   0.742   3.332  13.531 -0.4075 -0.5910 -0.5351
  712MPD2    H710536   0.647   3.369  13.531 -0.1806 -0.0277 -1.3938
  713TMC3    C110537   0.810   3.886  13.894  0.0018  0.5869 -0.3492
  713TMC3    C210538   0.921   3.877  13.975 -0.2534 -0.0438  0.2170
  713TMC3    C310539   0.971   3.994  14.021  0.1272  0.1595 -0.0486
  713TMC3    C410540   0.746   4.002  13.858  0.1660  0.1380 -0.2192
  713TMC3    C510541   0.798   4.118  13.907  0.3374 -0.0718 -0.2210
  713TMC3    C610542   0.910   4.115  13.991 -0.8221  0.3017 -0.2808
  713TMC3     C10543   0.783   3.768  13.809 -1.1524  0.7081  0.1968
  713TMC3     O10544   0.725   3.779  13.702 -0.1187 -0.3094  0.4370
  713TMC3     H10545   0.955   3.789  14.028 -0.5514 -0.2078  0.1348
  713TMC3    H110546   0.687   4.006  13.767 -2.7377  1.6409  1.7113
  713TMC3    H210547   0.947   4.200  14.047 -3.2395  0.0507  1.6962
  713TMC3    C710548   0.739   4.245  13.883 -0.4456 -0.2553 -0.4393
  713TMC3    C810549   1.087   4.000  14.103 -0.6622  0.5873  0.7204
  713TMC3    O110550   0.779   4.314  13.971 -0.2435  0.3212  0.4264
  713TMC3    O210551   1.104   4.093  14.181 -0.1757  0.1316  0.6204
  714MPD2     C10552   3.374   1.783   1.311 -0.2345 -0.0326  0.2082
  714MPD2    C110553   3.446   1.753   1.201 -0.0018 -0.3284 -0.0537
  714MPD2    C210554   3.400   1.801   1.078 -0.0717 -0.4565 -0.7645
  714MPD2    C310555   3.294   1.889   1.066 -1.0082 -0.4580 -0.0177
  714MPD2    C410556   3.225   1.928   1.180 -0.3253  0.1801  0.8989
  714MPD2    C510557   3.268   1.870   1.294 -0.4661  0.1468  0.3777
  714MPD2     H10558   3.446   1.774   0.984 -0.2906  2.4219 -1.6983
  714MPD2    H110559   3.154   2.010   1.184 -0.2532  0.1794  2.1497
  714MPD2    H210560   3.394   1.766   1.416  0.5742 -0.8010 -0.0712
  714MPD2    H310561   3.208   1.893   1.381 -3.6183  0.0230 -1.7750
  714MPD2     N10562   3.260   1.938   0.939  0.8965 -0.2119 -0.1903
  714MPD2    H510563   3.286   1.898   0.850  2.4584 -1.6327  0.9175
  714MPD2    N110564   3.564   1.681   1.227  0.2898  0.5077 -0.0411
  714MPD2    H710565   3.594   1.686   1.324 -0.5081  1.2608  0.1622
  715TMC3    C110566   3.756   1.553   1.192 -0.1996  0.4647 -0.2282
  715TMC3    C210567   3.780   1.429   1.151 -0.3198 -0.6012 -0.5343
  715TMC3    C310568   3.861   1.352   1.232 -1.1829  0.4003  0.2203
  715TMC3    C410569   3.831   1.611   1.287 -0.3451 -0.1819 -0.0665
  715TMC3    C510570   3.923   1.535   1.358 -0.3968 -0.4808 -0.4034
  715TMC3    C610571   3.931   1.400   1.345 -0.0195  0.3423  0.4050
  715TMC3     C10572   3.638   1.612   1.132  0.4575 -0.2508 -0.7903
  715TMC3     O10573   3.600   1.578   1.022  0.6447  0.5811  0.4726
  715TMC3     H10574   3.729   1.385   1.066 -0.1767  0.3767 -1.1174
  715TMC3    H110575   3.814   1.713   1.321  0.2391 -0.0774 -0.0829
  715TMC3    H210576   3.977   1.351   1.430 -0.1712  0.8484  0.7783
  715TMC3    C710577   3.964   1.599   1.484  0.2951  0.5970  1.0514
  715TMC3    C810578   3.884   1.218   1.183  0.3919 -0.2158  1.0883
  715TMC3    O110579   4.009   1.712   1.472  0.1338  0.0798  0.0274
  715TMC3    O210580   3.808   1.173   1.097 -0.0094 -0.6059 -0.0229
  716MPD2     C10581   3.554   0.828  10.135  0.0149 -0.7486  0.0546
  716MPD2    C110582   3.610   0.748  10.040  0.4310 -0.2837 -0.6186
  716MPD2    C210583   3.699   0.652  10.078 -0.1048  0.4716  0.2048
  716MPD2    C310584   3.750   0.637  10.201  0.0778  0.4003 -0.0896
  716MPD2    C410585   3.697   0.718  10.300  0.5127  0.0854  0.1868
  716MPD2    C510586   3.596   0.804  10.267  0.2043  0.4986 -0.3036
  716MPD2     H10587   3.745   0.598   9.996 -0.7295 -0.9758  0.8029
  716MPD2    H110588   3.718   0.725  10.406 -0.3744 -3.6168  0.6394
  716MPD2    H210589   3.482   0.908  10.120  0.0043 -1.2439 -2.5137
  716MPD2    H310590   3.548   0.859  10.347 -0.6319  1.9746 -1.8140
  716MPD2     N10591   3.844   0.530  10.223 -0.3637 -0.2684  0.8925
  716MPD2    H510592   3.882   0.494  10.136  3.1117  0.2721  2.1878
  716MPD2    N110593   3.558   0.765   9.909  0.8722  0.2992  0.6850
  716MPD2    H710594   3.486   0.835   9.891  1.1997  0.9468  1.9317
  717TMC3    C110595   3.999   0.407  10.322 -0.3006 -0.3184 -0.2728
  717TMC3    C210596   3.993   0.320  10.216 -0.0504 -0.1398 -0.3145
  717TMC3    C310597   4.092   0.236  10.204  0.0114 -0.0628 -0.4060
  717TMC3    C410598   4.103   0.403  10.410  0.2432 -0.0920 -0.2824
  717TMC3    C510599   4.202   0.316  10.389 -0.2126 -0.4202  0.1787
  717TMC3    C610600   4.212   0.228  10.279 -0.3552  0.4859 -0.1041
  717TMC3     C10601   3.909   0.516  10.338  0.2503  0.2968 -0.3783
  717TMC3     O10602   3.905   0.585  10.444 -0.2701 -0.4754 -0.9722
  717TMC3     H10603   3.897   0.294  10.172  0.0301  0.5990 -0.9259
  717TMC3    H110604   4.105   0.474  10.491 -2.6449  0.0434 -0.3148
  717TMC3    H210605   4.298   0.165  10.255  0.3779  0.9222  1.3992
  717TMC3    C710606   4.328   0.355  10.449 -0.6572  0.6286 -0.5622
  717TMC3    C810607   4.079   0.171  10.079 -0.3198  1.3492  0.7612
  717TMC3    O110608   4.410   0.262  10.454 -0.1650 -0.4208  0.1136
  717TMC3    O210609   4.040   0.239   9.988 -0.3431 -0.0578 -0.0522
  718MPD2     C10610   2.391   4.329  13.091  0.7384  0.0007 -0.9647
  718MPD2    C110611   2.409   4.243  12.988  0.4837  0.0462 -0.6836
  718MPD2    C210612   2.419   4.111  13.023 -0.0022 -0.3464  0.1984
  718MPD2    C310613   2.415   4.067  13.154  0.7848 -0.8594 -0.0971
  718MPD2    C410614   2.393   4.153  13.253  0.4484  0.4958 -0.0259
  718MPD2    C510615   2.378   4.281  13.219 -0.6287  0.5572 -0.3640
  718MPD2     H10616   2.445   4.037  12.948 -3.3749 -0.7240 -0.5651
  718MPD2    H110617   2.387   4.120  13.356 -0.2793  1.4199  0.2385
  718MPD2    H210618   2.405   4.436  13.084  0.2967  0.0744 -0.7271
  718MPD2    H310619   2.367   4.353  13.299  0.5193 -0.7623  0.9847
  718MPD2     N10620   2.449   3.930  13.181  0.2919  0.1001 -0.0863
  718MPD2    H510621   2.437   3.903  13.278  0.5870  0.6452  0.1021
  718MPD2    N110622   2.429   4.286  12.858 -1.1440 -0.0161 -0.3498
  718MPD2    H710623   2.416   4.385  12.840 -0.2384 -0.0983 -1.5225
  719TMC3    C110624   2.470   4.286  12.626 -0.0549  0.1450  0.3630
  719TMC3    C210625   2.450   4.196  12.531 -0.5902 -0.4768 -0.5347
  719TMC3    C310626   2.529   4.205  12.423 -0.0775 -0.0009  0.4994
  719TMC3    C410627   2.553   4.399  12.614  0.3599  0.1687  0.5138
  719TMC3    C510628   2.634   4.403  12.503 -0.5833  0.3365  0.4064
  719TMC3    C610629   2.617   4.303  12.411 -0.8005 -0.2177  0.2734
  719TMC3     C10630   2.465   4.211  12.752  0.1225  0.3140  0.1099
  719TMC3     O10631   2.480   4.092  12.735  0.2843 -0.3121 -0.5122
  719TMC3     H10632   2.366   4.128  12.543 -1.3888  0.8480  1.4328
  719TMC3    H110633   2.581   4.458  12.700 -0.4124  0.5083  0.5281
  719TMC3    H210634   2.681   4.295  12.324  0.0681 -0.9182  0.9857
  719TMC3    C710635   2.749   4.500  12.492 -0.3267  0.3031 -0.0948
  719TMC3    C810636   2.568   4.071  12.381  0.0134  0.4102 -0.6093
  719TMC3    O110637   2.823   4.470  12.403 -0.1767  0.2950 -0.5212
  719TMC3    O210638   2.606   4.043  12.270  0.1351 -0.3002  0.2979
  720MPD2     C10639   0.927   0.358  13.791 -0.0467  0.3616  0.8844
  720MPD2    C110640   1.029   0.450  13.775  0.0999  0.1348 -0.5055
  720MPD2    C210641   1.134   0.456  13.873 -0.2440  0.3613 -0.8108
  720MPD2    C310642   1.119   0.387  13.991 -0.1018 -0.3083  0.1532
  720MPD2    C410643   1.012   0.300  14.007  0.0174  0.0970 -0.2891
  720MPD2    C510644   0.918   0.289  13.911  0.7302 -0.1621 -0.3189
  720MPD2     H10645   1.229   0.507  13.861 -0.9160  1.7978 -0.1030
  720MPD2    H110646   0.992   0.236  14.092  1.7027 -2.8870 -2.1615
  720MPD2    H210647   0.836   0.347  13.733 -0.4196 -0.5171  1.6406
  720MPD2    H310648   0.835   0.223  13.935  1.6126 -2.0440 -2.4741
  720MPD2     N10649   1.216   0.396  14.092  0.3689 -0.2409  1.1116
  720MPD2    H510650   1.187   0.371  14.186  2.3497 -0.2258  1.7340
  720MPD2    N110651   1.008   0.544  13.665  0.1579 -0.3363  0.2004
  720MPD2    H710652   0.940   0.513  13.596  1.7845  2.1663 -2.4807
  721TMC3    C110653   1.357   0.500  14.229  0.4337  0.6574 -0.0181
  721TMC3    C210654   1.266   0.581  14.292 -0.2107 -0.2654  0.2483
  721TMC3    C310655   1.318   0.656  14.392  0.0179 -0.1462 -0.4837
  721TMC3    C410656   1.492   0.515  14.246  0.1583 -0.4367 -0.1352
  721TMC3    C510657   1.537   0.590  14.350  0.0328 -0.2186 -0.1894
  721TMC3    C610658   1.454   0.668  14.421 -0.3730 -0.4131  0.2988
  721TMC3     C10659   1.324   0.484  14.097  0.2770 -0.1786 -0.2215
  721TMC3     O10660   1.387   0.536  14.010 -0.1833  0.7603  0.1359
  721TMC3     H10661   1.165   0.595  14.257 -0.0487  1.9658  0.6635
  721TMC3    H110662   1.561   0.453  14.191  1.3383  1.0218 -0.3126
  721TMC3    H210663   1.486   0.742  14.493 -2.1806  0.4688  0.2077
  721TMC3    C710664   1.666   0.652  14.314  0.3558 -0.3292  0.7269
  721TMC3    C810665   1.227   0.755  14.433  0.8307  0.7582 -0.5941
  721TMC3    O110666   1.663   0.709  14.206  0.4411 -0.4281 -0.2933
  721TMC3    O210667   1.162   0.805  14.342  0.2070 -0.1347  0.0734
  722MPD2     C10668   4.484   4.040  13.233  0.0722 -0.9401  0.8214
  722MPD2    C110669   4.433   4.163  13.204 -0.7515 -0.5037  0.7960
  722MPD2    C210670   4.303   4.167  13.153 -0.7558  0.3563  0.0941
  722MPD2    C310671   4.233   4.053  13.130 -0.2445 -0.7382  0.2059
  722MPD2    C410672   4.293   3.931  13.152  0.7112  0.7525 -0.1098
  722MPD2    C510673   4.419   3.926  13.195 -0.4718 -0.5484  0.9535
  722MPD2     H10674   4.262   4.264  13.130  1.1822  0.7705 -1.6678
  722MPD2    H110675   4.252   3.834  13.126  4.4201 -1.6280  2.7422
  722MPD2    H210676   4.586   4.031  13.267  0.4756  1.9807  0.4311
  722MPD2    H310677   4.457   3.826  13.209  2.0414  0.2506 -0.1004
  722MPD2     N10678   4.097   4.046  13.088 -0.5274  1.0108 -0.4746
  722MPD2    H510679   4.063   3.952  13.068 -0.7064  0.2615  3.1726
  722MPD2    N110680   4.501   4.290  13.224  0.7060  0.7998  0.3727
  722MPD2    H710681   4.462   4.378  13.191  0.4344  0.2028 -0.8747
  723TMC3    C110682   3.875   4.124  13.039 -0.2822 -0.0873 -0.0351
  723TMC3    C210683   3.848   4.032  12.946 -0.2240  0.1348 -0.4968
  723TMC3    C310684   3.721   4.033  12.888 -0.2410 -0.0823 -0.0764
  723TMC3    C410685   3.788   4.217  13.088  0.3496  0.4916 -0.3446
  723TMC3    C510686   3.661   4.214  13.030  0.3544 -0.7199 -0.0739
  723TMC3    C610687   3.628   4.124  12.934 -0.4997  0.0551 -0.4116
  723TMC3     C10688   4.011   4.158  13.087  0.5056  0.4024 -1.5330
  723TMC3     O10689   4.034   4.264  13.146 -0.3574 -0.6808 -0.0995
  723TMC3     H10690   3.935   3.979  12.908  1.2028  1.3139  1.0912
  723TMC3    H110691   3.815   4.279  13.173  0.4656  0.3411 -0.2719
  723TMC3    H210692   3.532   4.122  12.884 -0.8256  0.1333  0.2120
  723TMC3    C710693   3.555   4.302  13.078  0.3358  0.1364 -0.0614
  723TMC3    C810694   3.700   3.989  12.752 -0.4338 -0.7042 -0.3010
  723TMC3    O110695   3.446   4.269  13.033  0.0831 -0.6631  0.3267
  723TMC3    O210696   3.613   4.047  12.691 -0.1156  0.3694 -0.7330
  724TMC3    C110697   0.299   2.133  10.286 -0.5601 -0.2867 -0.0880
  724TMC3    C210698   0.215   2.227  10.230  0.0627  0.4049 -0.6949
  724TMC3    C310699   0.283   2.320  10.155 -0.2314 -0.3950  0.0566
  724TMC3    C410700   0.437   2.136  10.278  0.7267  0.2441 -0.8116
  724TMC3    C510701   0.488   2.223  10.195  0.6927 -0.1765 -0.1526
  724TMC3    C610702   0.415   2.315  10.128  0.1966 -0.4729  0.2451
  724TMC3     C10703   0.239   2.029  10.371 -0.1229 -0.0666 -0.2146
  724TMC3     O10704   0.308   1.968  10.453 -0.3430  0.3737 -0.2559
  724TMC3     H10705   0.115   2.246  10.266  0.5328  0.1492  0.7482
  724TMC3    H110706   0.497   2.052  10.313  1.1255 -0.2402 -2.6994
  724TMC3    H210707   0.462   2.389  10.065 -0.9544  0.1022  0.0495
  724TMC3    C710708   0.622   2.276  10.225 -0.3980 -0.0970  0.4822
  724TMC3    C810709   0.194   2.408  10.078  0.1540  0.2088 -0.5944
  724TMC3    O110710   0.659   2.371  10.160 -0.5281  0.0090 -0.4898
  724TMC3    O210711   0.078   2.374  10.076 -0.0320  0.7609 -0.3877
  725TMC3    C110712   1.184   0.752  13.088 -0.0698 -0.0585 -0.0657
  725TMC3    C210713   1.110   0.822  12.995 -0.0636  0.6280  0.1245
  725TMC3    C310714   1.016   0.744  12.929  0.6426  0.0827  0.2131
  725TMC3    C410715   1.172   0.618  13.117 -0.2580 -0.6115 -0.0278
  725TMC3    C510716   1.072   0.549  13.052 -0.4427 -0.9654 -0.1225
  725TMC3    C610717   0.994   0.608  12.951  0.5772 -0.0902  0.4685
  725TMC3     C10718   1.305   0.816  13.127  0.7708  0.0432 -0.1150
  725TMC3     O10719   1.332   0.912  13.055 -0.2448 -0.0977  0.5201
  725TMC3     H10720   1.119   0.930  13.002  2.6409  0.2926  1.8924
  725TMC3    H110721   1.235   0.577  13.194  2.1064 -0.1141 -1.7188
  725TMC3    H210722   0.915   0.557  12.897 -0.2114 -1.3164  2.8047
  725TMC3    C710723   1.083   0.408  13.026  0.3957 -0.0560 -0.1523
  725TMC3    C810724   0.992   0.801  12.797 -0.2250  0.3711 -0.4026
  725TMC3    O110725   1.002   0.358  12.948 -0.7102 -0.0438  0.1944
  725TMC3    O210726   0.902   0.745  12.733 -0.0123 -0.0948 -0.2782
  726MPD2     C10727   4.444   2.362  10.894  0.0697  0.2152 -0.1987
  726MPD2    C110728   4.407   2.493  10.873  0.0845 -0.7704 -0.2666
  726MPD2    C210729   4.272   2.533  10.891  0.2640 -0.8039  0.2552
  726MPD2    C310730   4.187   2.433  10.942 -0.6112 -0.4280  0.2513
  726MPD2    C410731   4.225   2.301  10.972 -0.0226 -0.1433 -0.3381
  726MPD2    C510732   4.360   2.266  10.946  0.1782 -0.5231  0.1035
  726MPD2     H10733   4.250   2.637  10.871  0.9770 -0.7898 -0.4323
  726MPD2    H110734   4.156   2.234  11.020 -2.6258  2.3238 -0.6213
  726MPD2    H210735   4.548   2.331  10.891  0.6960  2.4556 -1.2595
  726MPD2    H310736   4.388   2.167  10.980 -1.6719 -0.6127  1.3387
  726MPD2     N10737   4.051   2.462  10.979 -0.1812  0.2523 -0.4976
  726MPD2    H510738   3.995   2.389  11.020  0.2866  0.0263 -0.2609
  726MPD2    N110739   4.498   2.592  10.827 -0.3525  0.1120  0.7341
  726MPD2    H710740   4.455   2.684  10.826  1.5476  1.0015 -0.1889
  727TMC3    C110741   4.690   2.700  10.738  0.0981  0.0233  0.0719
  727TMC3    C210742   0.105   2.714  10.748 -1.0387  0.6664 -0.4273
  727TMC3    C310743   0.173   2.797  10.666 -0.0811 -0.3813  0.1603
  727TMC3    C410744   4.621   2.768  10.639 -0.7681 -1.0623  0.0809
  727TMC3    C510745   4.697   2.849  10.557  0.0986 -0.1308 -0.1062
  727TMC3    C610746   0.108   2.876  10.585 -0.6772 -0.7636 -0.2522
  727TMC3     C10747   4.633   2.581  10.796  0.1430  0.0153  0.3571
  727TMC3     O10748   4.702   2.483  10.792  0.2209  0.2516 -0.0053
  727TMC3     H10749   0.142   2.649  10.827  0.0108  0.1119 -1.3876
  727TMC3    H110750   4.515   2.758  10.619 -0.6370 -0.9961 -0.6304
  727TMC3    H210751   0.160   2.951  10.526 -0.3670 -0.9624 -0.2319
  727TMC3    C710752   4.628   2.919  10.457 -0.4647 -0.1067 -0.6340
  727TMC3    C810753   0.292   2.856  10.709  0.1971 -0.6231  0.0193
  727TMC3    O110754   4.529   2.862  10.415 -0.3797  0.4656  0.7479
  727TMC3    O210755   0.340   2.950  10.650 -0.6949 -0.1984 -0.5022
  728TMC3    C110756   3.395   1.293  15.810 -0.7793 -0.1461  0.0496
  728TMC3    C210757   3.447   1.417  15.856 -0.0350  0.5676 -0.2170
  728TMC3    C310758   3.485   1.502  15.759 -0.6805 -0.3016  0.1702
  728TMC3    C410759   3.387   1.259  15.678  0.0814 -0.5109  0.0748
  728TMC3    C510760   3.412   1.357  15.588  0.1762 -0.3865  0.4614
  728TMC3    C610761   3.466   1.474  15.627 -0.0009 -0.3124 -0.1942
  728TMC3     C10762   3.354   1.204  15.920  0.0473 -0.1946  0.8677
  728TMC3     O10763   3.395   1.236  16.030 -0.0759  0.9159 -0.1261
  728TMC3     H10764   3.451   1.443  15.961 -1.8074 -0.3829  0.0864
  728TMC3    H110765   3.369   1.157  15.647  0.0206 -1.0170  1.7705
  728TMC3    H210766   3.514   1.547  15.563  0.1628 -1.5180 -1.4514
  728TMC3    C710767   3.424   1.321  15.447 -0.2542  0.4243  0.7346
  728TMC3    C810768   3.493   1.643  15.794 -0.5796 -0.2263 -0.1155
  728TMC3    O110769   3.443   1.202  15.423  0.1423 -0.3636  0.2712
  728TMC3    O210770   3.433   1.720  15.720 -0.0731  0.2427  0.6792
  729MPD2     C10771   1.161   1.806  16.676  0.5670  0.3304  0.1472
  729MPD2    C110772   1.131   1.941  16.666 -1.3303 -0.0736  0.4387
  729MPD2    C210773   1.044   1.994  16.763 -0.5877  0.3479 -0.0845
  729MPD2    C310774   0.993   1.915  16.866  0.7182  0.2435 -0.0503
  729MPD2    C410775   1.026   1.779  16.870  0.2268  0.2626 -0.5217
  729MPD2    C510776   1.106   1.732  16.775  0.5961 -0.1776  0.5369
  729MPD2     H10777   1.035   2.101  16.752 -3.1644  0.2020  0.6936
  729MPD2    H110778   0.989   1.714  16.949  1.7693 -1.7087 -1.4498
  729MPD2    H210779   1.226   1.755  16.607 -0.0881 -0.1835 -0.0824
  729MPD2    H310780   1.130   1.627  16.781 -0.9813 -0.6046 -0.7625
  729MPD2     N10781   0.921   1.977  16.970  0.3049  0.1210  0.2261
  729MPD2    H510782   0.907   1.932  17.059 -0.5937  0.7451  0.3963
  729MPD2    N110783   1.208   2.020  16.575 -0.5035  0.0655  0.3583
  729MPD2    H710784   1.276   1.976  16.514 -0.1380  3.0430 -1.3516
  730TMC3    C110785   0.846   2.161  17.087  0.0469  0.8019  0.4087
  730TMC3    C210786   0.935   2.127  17.185 -0.6936  0.4431 -0.1163
  730TMC3    C310787   0.937   2.200  17.304 -0.9515  0.2773  0.1800
  730TMC3    C410788   0.773   2.272  17.103  0.1535  0.4276 -0.9436
  730TMC3    C510789   0.776   2.343  17.222  0.4286 -0.3250  0.0659
  730TMC3    C610790   0.853   2.305  17.329  1.3617 -0.2163 -0.4149
  730TMC3     C10791   0.858   2.102  16.959  0.1898  0.0657 -0.0852
  730TMC3     O10792   0.827   2.165  16.858 -0.3845  0.1076 -0.3389
  730TMC3     H10793   1.017   2.057  17.178  1.3820  2.7250  1.1751
  730TMC3    H110794   0.704   2.312  17.030  0.4071  3.1203  0.2822
  730TMC3    H210795   0.851   2.359  17.423 -0.2211 -3.4512  1.3919
  730TMC3    C710796   0.734   2.484  17.213  0.4748  0.4157 -0.5821
  730TMC3    C810797   1.056   2.188  17.379 -0.0171 -0.1138 -0.0821
  730TMC3    O110798   0.718   2.526  17.102  0.0390  0.3298  0.0514
  730TMC3    O210799   1.033   2.120  17.477 -0.0088  0.0147  0.3752
  731MPD2     C10800   0.654   0.590  11.855  0.4181  0.3011 -0.3533
  731MPD2    C110801   0.707   0.477  11.906 -0.2971 -0.8640  0.1139
  731MPD2    C210802   0.687   0.444  12.037  0.4557  0.3132 -0.8708
  731MPD2    C310803   0.610   0.526  12.119 -0.1238 -0.7564  0.4464
  731MPD2    C410804   0.556   0.638  12.068 -0.1745 -0.2360 -0.0047
  731MPD2    C510805   0.580   0.670  11.939 -0.3770 -0.3516  0.1015
  731MPD2     H10806   0.720   0.345  12.065 -0.0936  0.3201 -0.2051
  731MPD2    H110807   0.491   0.702  12.125 -0.4226  1.5152 -2.3067
  731MPD2    H210808   0.654   0.611  11.748  1.0511 -0.2748 -0.4674
  731MPD2    H310809   0.533   0.758  11.899  1.1997  1.0376  1.2740
  731MPD2     N10810   0.588   0.464  12.246 -0.0212 -0.6662  0.9048
  731MPD2    H510811   0.635   0.378  12.272  1.9727  0.9568  2.7169
  731MPD2    N110812   0.783   0.387  11.828  0.1557  0.1720  0.1634
  731MPD2    H710813   0.817   0.304  11.877 -0.6978 -0.9674 -1.1785
  732TMC3    C110814   0.866   0.271  11.649  0.1905 -0.5294  0.2414
  732TMC3    C210815   0.774   0.169  11.663  0.1688 -0.6842 -0.4978
  732TMC3    C310816   0.815   0.037  11.674  0.5200 -0.2082 -0.2727
  732TMC3    C410817   0.998   0.250  11.659  0.0918  0.6007 -0.4486
  732TMC3    C510818   1.032   0.114  11.673  1.3532 -0.3779  0.3096
  732TMC3    C610819   0.950   0.010  11.680 -0.3903 -0.4661 -0.8292
  732TMC3     C10820   0.822   0.399  11.696  0.2045  0.1138  0.1976
  732TMC3     O10821   0.818   0.491  11.618  0.7905 -0.1278 -0.0297
  732TMC3     H10822   0.669   0.196  11.655 -0.0315 -0.3860  3.2227
  732TMC3    H110823   1.078   0.322  11.647 -1.4361  1.9173 -2.7500
  732TMC3    H210824   0.991   4.634  11.682 -0.8991 -0.7059 -2.3721
  732TMC3    C710825   1.163   0.097  11.733 -0.0493  0.2793  0.3973
  732TMC3    C810826   0.715   4.656  11.699  0.6394  0.3727 -0.7472
  732TMC3    O110827   1.254   0.165  11.678 -0.0973 -0.6583 -0.1352
  732TMC3    O210828   0.733   4.542  11.666 -0.0630 -0.5626  0.0549
  733TMC3    C110829   2.281   3.567  13.100 -1.5872  0.1582  0.3037
  733TMC3    C210830   2.356   3.662  13.168 -0.3612  0.6713 -0.5478
  733TMC3    C310831   2.480   3.699  13.134 -0.2273  0.4142 -0.2798
  733TMC3    C410832   2.345   3.490  13.008 -0.5096  0.4263  0.1748
  733TMC3    C510833   2.480   3.509  12.986 -0.3459 -0.2751 -0.1968
  733TMC3    C610834   2.547   3.615  13.050 -0.8688  0.4301  0.5520
  733TMC3     C10835   2.133   3.568  13.106 -0.7150  0.8725  0.1678
  733TMC3     O10836   2.079   3.671  13.143  0.2813  0.0361  0.0785
  733TMC3     H10837   2.302   3.728  13.235 -1.2521 -0.4102 -0.1962
  733TMC3    H110838   2.292   3.427  12.937  0.2898  0.4052 -0.4069
  733TMC3    H210839   2.652   3.633  13.030 -0.3888 -2.6347  0.3232
  733TMC3    C710840   2.510   3.513  12.844 -0.6513  0.5489  0.2760
  733TMC3    C810841   2.493   3.834  13.088 -0.1703  0.4603 -0.8158
  733TMC3    O110842   2.495   3.413  12.775 -0.2192 -0.3811  0.3237
  733TMC3    O210843   2.536   3.849  12.973 -1.0327 -0.3622  0.0887
  734MPD2     C10844   4.503   1.557  12.256  0.5223  0.1032 -0.2408
  734MPD2    C110845   4.374   1.547  12.210 -0.6630  0.5356  0.4229
  734MPD2    C210846   4.357   1.543  12.075 -0.2554  0.0873  0.0597
  734MPD2    C310847   4.462   1.556  11.987 -0.3610  0.1620  0.2645
  734MPD2    C410848   4.592   1.548  12.033 -0.3707  0.5612 -0.6469
  734MPD2    C510849   4.613   1.560  12.170 -0.3438 -0.2780 -0.2690
  734MPD2     H10850   4.264   1.530  12.021  0.5633 -0.8471 -1.1148
  734MPD2    H110851   4.676   1.545  11.966  0.9779 -1.3113  1.1523
  734MPD2    H210852   4.515   1.549  12.363 -0.1410  0.4608 -0.1376
  734MPD2    H310853   4.714   1.558  12.210 -0.5158  0.4060  0.2031
  734MPD2     N10854   4.433   1.554  11.852  0.1887  0.2885  0.5686
  734MPD2    H510855   4.336   1.578  11.832 -0.5647 -1.2786  2.3577
  734MPD2    N110856   4.264   1.518  12.297 -0.6976 -0.0856  0.0109
  734MPD2    H710857   4.286   1.488  12.391 -1.0555 -1.1426 -0.2422
  735TMC3    C110858   4.045   1.424  12.360  0.0693 -0.0739 -0.1947
  735TMC3    C210859   3.912   1.414  12.316  0.7620 -0.4984 -0.0287
  735TMC3    C310860   3.876   1.284  12.284  0.1756 -0.3307 -0.1984
  735TMC3    C410861   4.108   1.313  12.409 -0.2473  0.6865 -0.1983
  735TMC3    C510862   4.048   1.192  12.408  0.1899  0.0939 -0.0896
  735TMC3    C610863   3.938   1.169  12.326  0.1662  0.2241  0.2245
  735TMC3     C10864   4.127   1.508  12.266 -0.0893  0.5804 -0.4059
  735TMC3     O10865   4.066   1.537  12.162 -0.2424 -0.5119 -0.1523
  735TMC3     H10866   3.857   1.501  12.283  0.5072 -1.2430 -1.5600
  735TMC3    H110867   4.206   1.330  12.453 -0.4375  0.1945  0.4232
  735TMC3    H210868   3.908   1.072  12.288 -0.6621  0.6995 -0.3289
  735TMC3    C710869   4.132   1.082  12.451  0.1511 -0.2236  0.6032
  735TMC3    C810870   3.810   1.271  12.154 -0.2318 -1.4476  0.5442
  735TMC3    O110871   4.249   1.102  12.479 -0.3637  0.1257 -0.0314
  735TMC3    O210872   3.741   1.168  12.140  0.4080 -0.2605 -0.3786
  736MPD2     C10873   4.037   0.720  12.497  0.3703  0.9861  0.7991
  736MPD2    C110874   4.119   0.828  12.464 -0.3490 -0.0366  0.1705
  736MPD2    C210875   4.247   0.799  12.436  0.1935  0.4030 -0.5379
  736MPD2    C310876   4.300   0.671  12.433 -1.1856 -0.5691  0.4956
  736MPD2    C410877   4.219   0.574  12.477  0.5002  0.5801  0.7122
  736MPD2    C510878   4.090   0.600  12.505 -0.4251  0.5609  0.9093
  736MPD2     H10879   4.310   0.882  12.407  1.2111 -0.3540 -0.4690
  736MPD2    H110880   4.260   0.474  12.471 -0.9185  0.0585 -0.1403
  736MPD2    H210881   3.936   0.716  12.536  0.2386  0.5343  0.4109
  736MPD2    H310882   4.030   0.518  12.542  1.7926 -0.8245  1.5008
  736MPD2     N10883   4.433   0.635  12.386 -0.3776 -0.9133 -0.4295
  736MPD2    H510884   4.458   0.538  12.405  0.8042 -0.9083 -2.0218
  736MPD2    N110885   4.063   0.964  12.451  0.6269 -0.7136  0.1027
  736MPD2    H710886   3.963   0.968  12.465  0.5557  0.2826 -0.6922
  737TMC3    C110887   4.639   0.661  12.271  0.0968  0.5315 -0.1746
  737TMC3    C210888   0.020   0.744  12.233 -0.5788  1.4839  0.0728
  737TMC3    C310889   0.121   0.694  12.159  0.7381  0.9096  0.0126
  737TMC3    C410890   4.625   0.527  12.232 -0.2584  0.2955  0.0230
  737TMC3    C510891   4.723   0.493  12.132  0.1722  0.6075 -1.4199
  737TMC3    C610892   0.106   0.573  12.098  0.0357  0.0582 -0.4255
  737TMC3     C10893   4.531   0.722  12.340 -0.2652  0.2427  0.0095
  737TMC3     O10894   4.536   0.844  12.343  0.1855  0.4836 -0.7163
  737TMC3     H10895   0.040   0.848  12.258 -0.5700  0.7620  2.9731
  737TMC3    H110896   4.538   0.467  12.258  1.6906 -1.7709  1.7769
  737TMC3    H210897   0.183   0.533  12.033  0.4008  0.4421 -0.2295
  737TMC3    C710898   4.723   0.351  12.095 -0.1587  0.3644 -0.8391
  737TMC3    C810899   0.216   0.786  12.107 -0.0805  0.3517  0.8953
  737TMC3    O110900   4.638   0.286  12.156  0.0710 -0.2732 -1.1027
  737TMC3    O210901   0.245   0.883  12.170 -0.2116 -0.7028 -0.5132
  738MPD2     C10902   0.334   4.308  15.299 -0.4780  0.5169 -0.4485
  738MPD2    C110903   0.286   4.268  15.175 -0.2904 -0.6280 -0.1294
  738MPD2    C210904   0.375   4.251  15.069 -0.2909 -0.4631  0.2047
  738MPD2    C310905   0.508   4.277  15.077  0.6344  0.1457 -0.2414
  738MPD2    C410906   0.559   4.308  15.204  0.7307 -0.3922 -0.3405
  738MPD2    C510907   0.473   4.317  15.309 -0.1697 -1.1632 -0.8529
  738MPD2     H10908   0.335   4.228  14.971 -0.6191 -0.6538  0.3808
  738MPD2    H110909   0.664   4.312  15.230 -0.2179  1.9003  3.1525
  738MPD2    H210910   0.269   4.315  15.386 -0.3420 -2.0009 -0.1379
  738MPD2    H310911   0.512   4.324  15.410  1.4723 -1.8025 -1.4431
  738MPD2     N10912   0.601   4.289  14.968 -1.1159  0.1516 -0.1647
  738MPD2    H510913   0.694   4.319  14.993 -1.2688  0.9295 -0.5048
  738MPD2    N110914   0.151   4.232  15.154 -0.3127 -0.4308  0.4495
  738MPD2    H710915   0.133   4.205  15.058  0.5276 -0.0498  0.1790
  739TMC3    C110916   0.663   4.293  14.734 -0.4132  0.0737  0.4725
  739TMC3    C210917   0.612   4.356  14.629 -0.4104  0.8980  0.6488
  739TMC3    C310918   0.701   4.438  14.565  0.7387 -1.2143  0.1240
  739TMC3    C410919   0.790   4.325  14.786 -0.2002 -0.3657 -0.0317
  739TMC3    C510920   0.871   4.404  14.706 -0.1168  0.5318 -0.5934
  739TMC3    C610921   0.832   4.462  14.598 -0.0365 -0.1237  0.4705
  739TMC3     C10922   0.563   4.266  14.836  0.3935  0.4762  0.1262
  739TMC3     O10923   0.458   4.238  14.776 -0.2550 -0.2823 -0.0551
  739TMC3     H10924   0.509   4.342  14.599  0.3202  0.3753 -1.6497
  739TMC3    H110925   0.833   4.289  14.878  0.6529 -1.1837 -0.7538
  739TMC3    H210926   0.891   4.535  14.544  1.3794 -1.5595  0.0923
  739TMC3    C710927   1.002   4.436  14.764  0.3585  0.3571 -0.6931
  739TMC3    C810928   0.627   4.530  14.482 -0.2713  0.8762  0.5961
  739TMC3    O110929   1.055   4.346  14.832 -0.3471 -0.0224  0.0500
  739TMC3    O210930   0.520   4.574  14.527  0.3833  0.5595 -0.3695
  740TMC3    C110931   0.660   1.035  14.407 -0.0272 -0.2476 -0.6687
  740TMC3    C210932   0.694   0.931  14.491  0.1408  0.0026  0.4740
  740TMC3    C310933   0.790   0.837  14.451 -0.1900 -0.1144 -0.6856
  740TMC3    C410934   0.729   1.057  14.290  0.1628  0.0095  0.9648
  740TMC3    C510935   0.818   0.961  14.256 -0.1506 -0.4810  0.1522
  740TMC3    C610936   0.853   0.846  14.330 -0.1922 -0.2724  0.0905
  740TMC3     C10937   0.563   1.132  14.462 -0.0756 -0.4273 -0.8579
  740TMC3     O10938   0.573   1.244  14.419  0.0345  0.5963 -0.7661
  740TMC3     H10939   0.672   0.925  14.597 -0.0737  0.6924  0.4670
  740TMC3    H110940   0.707   1.146  14.232 -0.3101  0.7122  2.2389
  740TMC3    H210941   0.940   0.783  14.317 -0.8729 -0.8627 -1.6392
  740TMC3    C710942   0.896   0.971  14.131 -1.0479 -0.6045 -0.9540
  740TMC3    C810943   0.837   0.746  14.558  0.4340  0.3070 -0.2511
  740TMC3    O110944   1.000   0.910  14.139  0.6576 -0.1285 -0.7296
  740TMC3    O210945   0.798   0.765  14.671  0.2584 -0.2635 -0.4348
  741TMC3    C110946   0.660   0.258  14.489  0.0910  0.1858  0.6152
  741TMC3    C210947   0.521   0.278  14.513  0.6422  0.0930 -0.6615
  741TMC3    C310948   0.459   0.209  14.613 -0.1904  0.1505  0.5010
  741TMC3    C410949   0.728   0.172  14.568 -0.0872  0.0077 -0.0514
  741TMC3    C510950   0.671   0.120  14.683  0.2480  0.4567  0.5682
  741TMC3    C610951   0.533   0.138  14.703 -0.0381  0.1405  0.4802
  741TMC3     C10952   0.734   0.328  14.385  0.7048  0.4135 -0.0477
  741TMC3     O10953   0.839   0.273  14.351 -0.6158  0.1437  0.8130
  741TMC3     H10954   0.459   0.334  14.444 -1.2866  1.0218  1.8465
  741TMC3    H110955   0.832   0.152  14.546 -0.0049  2.5791 -2.0241
  741TMC3    H210956   0.479   0.090  14.784 -0.5326 -0.6298 -0.3144
  741TMC3    C710957   0.759   0.052  14.775  0.3851 -0.0132 -0.1322
  741TMC3    C810958   0.322   0.175  14.594 -0.0614 -0.0024 -0.4681
  741TMC3    O110959   0.874   0.030  14.740 -0.7881 -0.1666 -0.2057
  741TMC3    O210960   0.254   0.253  14.533 -0.2408  0.8508  0.7999
  742TMC3    C110961   0.020   3.940  15.471  0.8208 -0.4289  0.1947
  742TMC3    C210962   4.676   3.871  15.378 -0.2215 -0.3926  0.0459
  742TMC3    C310963   0.024   3.833  15.267 -0.5092  1.0313 -1.0045
  742TMC3    C410964   0.152   3.968  15.465 -0.0519 -0.1926 -0.2428
  742TMC3    C510965   0.210   3.939  15.339 -0.5048  0.2261  0.4479
  742TMC3    C610966   0.150   3.877  15.237 -0.8080 -0.0335 -0.0782
  742TMC3     C10967   4.674   3.999  15.585  0.1952 -0.1410 -0.3319
  742TMC3     O10968   4.602   3.918  15.648  0.3256 -0.5498  0.2700
  742TMC3     H10969   4.568   3.874  15.378 -0.1897  0.7703 -0.3552
  742TMC3    H110970   0.209   4.017  15.543 -0.9914  0.5101  0.0091
  742TMC3    H210971   0.204   3.842  15.149 -1.3387  0.6250 -0.6706
  742TMC3    C710972   0.352   3.949  15.319  0.2553  0.9185 -0.2678
  742TMC3    C810973   4.682   3.757  15.170  0.2058 -0.5582  0.0086
  742TMC3    O110974   0.395   3.942  15.204 -0.7598 -0.5012  0.0947
  742TMC3    O210975   0.007   3.770  15.055  0.1276  1.2124  0.2217
  743MPD2     C10976   3.306   3.403   1.890 -0.2654 -0.1717  0.5759
  743MPD2    C110977   3.383   3.503   1.825  0.0933 -0.5010 -0.5319
  743MPD2    C210978   3.511   3.468   1.781 -0.9667  0.3756  0.2314
  743MPD2    C310979   3.570   3.347   1.825  0.7646 -0.3103  0.0097
  743MPD2    C410980   3.492   3.259   1.900  0.1414 -0.0734 -0.4272
  743MPD2    C510981   3.367   3.287   1.933  0.0897  0.5754  0.6674
  743MPD2     H10982   3.575   3.539   1.729 -0.0801  0.5902  1.6189
  743MPD2    H110983   3.523   3.159   1.931  0.4235  0.1934  0.1471
  743MPD2    H210984   3.200   3.411   1.910 -0.6532  1.3089 -2.0545
  743MPD2    H310985   3.310   3.218   1.994  0.7162 -1.4892 -1.0837
  743MPD2     N10986   3.709   3.331   1.799  0.3628  0.0415  0.1089
  743MPD2    H510987   3.754   3.406   1.747  0.3893  0.3465  0.5710
  743MPD2    N110988   3.325   3.629   1.790  0.0728 -0.7198  0.1741
  743MPD2    H710989   3.226   3.643   1.808  0.1572 -0.5011  0.4618
  744TMC3    C110990   3.325   3.862   1.761  0.9771  0.5388 -0.4916
  744TMC3    C210991   3.395   3.971   1.823 -0.3181 -0.0926 -0.2171
  744TMC3    C310992   3.322   4.080   1.841 -0.0917  0.2151 -0.1662
  744TMC3    C410993   3.197   3.868   1.718  0.0241  0.3249  0.2734
  744TMC3    C510994   3.133   3.985   1.739  0.3692  0.5500  0.0913
  744TMC3    C610995   3.189   4.090   1.806 -0.7580 -0.3704  0.3952
  744TMC3     C10996   3.400   3.736   1.755 -0.8149 -0.9213  0.1621
  744TMC3     O10997   3.523   3.750   1.751  0.2255  0.8918  0.0872
  744TMC3     H10998   3.501   3.959   1.842 -0.0263 -0.7212 -2.2052
  744TMC3    H110999   3.142   3.783   1.677  0.5004  0.5877 -0.9114
  744TMC3    H211000   3.150   4.191   1.793 -0.0318 -0.3289 -1.5214
  744TMC3    C711001   3.036   4.011   1.633 -0.3670  0.3958 -0.3227
  744TMC3    C811002   3.392   4.194   1.887 -0.2257  0.4341 -0.5304
  744TMC3    O111003   3.012   3.917   1.559  0.0778  0.2590 -0.1848
  744TMC3    O211004   3.358   4.301   1.831 -0.0385  0.3589 -0.5656
  745TMC3    C111005   0.661   3.273  13.330 -0.3182  0.1805 -0.8572
  745TMC3    C211006   0.533   3.241  13.377 -0.4002 -0.6967 -0.2531
  745TMC3    C311007   0.419   3.317  13.351  0.1366  0.1732 -0.0843
  745TMC3    C411008   0.670   3.388  13.249  0.2794 -0.1031 -0.5858
  745TMC3    C511009   0.550   3.452  13.207 -0.5208 -0.6543  0.6946
  745TMC3    C611010   0.426   3.422  13.266  0.2572  0.0362  0.1495
  745TMC3     C11011   0.779   3.264  13.421  0.2297 -0.0033 -0.0835
  745TMC3     O11012   0.891   3.238  13.373  0.5615 -0.3777 -0.2083
  745TMC3     H11013   0.530   3.164  13.453  1.0916 -1.1106 -0.6056
  745TMC3    H111014   0.769   3.425  13.225  1.3700 -2.4883  0.2295
  745TMC3    H211015   0.336   3.475  13.238 -0.6733 -0.5463  2.0769
  745TMC3    C711016   0.551   3.545  13.101 -0.2260 -0.4925  0.0437
  745TMC3    C811017   0.355   3.356  13.473 -0.3867 -0.3243 -0.2732
  745TMC3    O111018   0.439   3.581  13.071  0.4667  0.0863 -0.2586
  745TMC3    O211019   0.366   3.281  13.565  0.2702 -0.4550  0.7176
  746TMC3    C111020   2.958   0.249  11.215  0.5928  0.0857  0.9044
  746TMC3    C211021   3.045   0.239  11.108  0.4225  0.6028  0.7374
  746TMC3    C311022   3.043   0.113  11.048 -0.6215 -0.0143 -0.3657
  746TMC3    C411023   2.877   0.149  11.264  0.6116 -0.3471 -0.1019
  746TMC3    C511024   2.883   0.029  11.203  0.0661 -0.8169 -0.4309
  746TMC3    C611025   2.961   0.019  11.091 -0.2946 -0.1926 -0.3944
  746TMC3     C11026   2.956   0.375  11.286 -0.2450 -0.1584  0.4384
  746TMC3     O11027   2.937   0.362  11.408  0.4185 -0.1273  0.2019
  746TMC3     H11028   3.108   0.320  11.075  0.8765  0.2915  0.8378
  746TMC3    H111029   2.800   0.165  11.339 -0.1755  0.1702 -1.0123
  746TMC3    H211030   2.949   4.656  11.028  2.5721 -1.8797  1.4109
  746TMC3    C711031   2.766   4.667  11.197  0.4421  0.5233 -0.2211
  746TMC3    C811032   3.129   0.083  10.937 -0.5817 -0.2874 -0.2531
  746TMC3    O111033   2.721   4.650  11.082 -0.5675  0.2073  0.5847
  746TMC3    O211034   3.178   4.693  10.922 -0.6696  0.2237  0.0608
  747TMC3    C111035   0.343   4.685  11.173 -0.1724  0.6407 -0.8791
  747TMC3    C211036   0.244   4.675  11.268  0.2909 -0.3117  0.0522
  747TMC3    C311037   0.267   0.006  11.396  0.0959 -0.4070 -0.1242
  747TMC3    C411038   0.457   0.027  11.195 -0.1120  0.0088  0.9720
  747TMC3    C511039   0.474   0.082  11.322  0.2502 -0.9862 -0.1818
  747TMC3    C611040   0.384   0.075  11.421 -0.3445 -0.2165  0.3180
  747TMC3     C11041   0.310   4.652  11.042 -0.4273  1.0227 -0.0822
  747TMC3     O11042   0.196   4.677  11.009  1.1348 -0.2193  0.0321
  747TMC3     H11043   0.151   4.623  11.251 -0.3942  1.1475 -0.6029
  747TMC3    H111044   0.526   0.046  11.114 -1.7089 -0.7256 -0.5798
  747TMC3    H211045   0.407   0.119  11.518  3.7590 -1.9452  0.1128
  747TMC3    C711046   0.579   0.181  11.328 -0.4093  0.3054 -0.2541
  747TMC3    C811047   0.177   4.694  11.508  1.4326  0.0044  0.7821
  747TMC3    O111048   0.563   0.277  11.396 -0.0307  0.2138  0.3161
  747TMC3    O211049   0.100   4.601  11.481 -0.1210  0.1697  0.0263
  748MPD2     C11050   2.733   1.351   1.745  0.3255 -0.1365 -0.3155
  748MPD2    C111051   2.796   1.243   1.688  0.1440  0.0602 -0.3442
  748MPD2    C211052   2.821   1.244   1.556 -0.0093 -0.7025 -0.2287
  748MPD2    C311053   2.763   1.335   1.477  0.3485 -0.6756  0.5269
  748MPD2    C411054   2.688   1.438   1.533 -1.5705  0.4820  0.6295
  748MPD2    C511055   2.680   1.448   1.671 -0.3171 -0.9499 -0.0152
  748MPD2     H11056   2.881   1.166   1.510  1.3772 -0.2843  0.8704
  748MPD2    H111057   2.633   1.510   1.474  0.8311  1.4495 -0.4082
  748MPD2    H211058   2.739   1.354   1.853  1.5088  0.4984 -0.4044
  748MPD2    H311059   2.627   1.526   1.726 -1.3054 -1.3064 -0.4594
  748MPD2     N11060   2.780   1.314   1.336 -0.0007  0.3858  0.2241
  748MPD2    H511061   2.842   1.237   1.315 -0.7302 -0.1114 -0.1216
  748MPD2    N111062   2.843   1.151   1.778 -0.0169 -0.0338 -0.5515
  748MPD2    H711063   2.822   1.182   1.872 -0.0858 -2.9906  0.4219
  749TMC3    C111064   2.764   1.344   1.107  0.5852 -0.3892  0.0653
  749TMC3    C211065   2.753   1.207   1.090  0.5902 -0.3944 -0.4865
  749TMC3    C311066   2.771   1.164   0.964 -1.1170  0.0049 -0.1419
  749TMC3    C411067   2.786   1.434   1.007  1.0477  0.5683  0.5487
  749TMC3    C511068   2.798   1.380   0.881  0.7649  1.1971  1.1775
  749TMC3    C611069   2.788   1.247   0.858  0.9362 -1.5232 -0.8220
  749TMC3     C11070   2.748   1.410   1.238 -0.1979  0.3620 -0.5619
  749TMC3     O11071   2.696   1.520   1.247 -0.0279  0.5771 -0.6264
  749TMC3     H11072   2.736   1.133   1.167  1.5859 -1.2009 -1.0342
  749TMC3    H111073   2.799   1.538   1.032  2.6388  0.6910 -0.8096
  749TMC3    H211074   2.816   1.202   0.764  0.9791 -3.0763 -0.0553
  749TMC3    C711075   2.828   1.474   0.772  0.8750  0.1163  0.1555
  749TMC3    C811076   2.789   1.022   0.928 -0.3032  0.2281  0.4281
  749TMC3    O111077   2.873   1.585   0.807  0.0924 -0.4780  0.2216
  749TMC3    O211078   2.779   0.994   0.812 -0.3306 -0.0944 -0.5336
  750MPD2     C11079   3.111   2.360  11.602 -0.6236 -0.0419  0.8104
  750MPD2    C111080   2.983   2.307  11.606  0.1281  0.3871  0.2005
  750MPD2    C211081   2.937   2.223  11.508 -0.1539  0.2640 -0.1342
  750MPD2    C311082   3.022   2.185  11.403 -0.3554 -0.4520  0.3382
  750MPD2    C411083   3.151   2.237  11.400 -0.4417 -0.3046  0.7157
  750MPD2    C511084   3.190   2.321  11.500  0.4902 -0.7237 -0.0558
  750MPD2     H11085   2.834   2.191  11.503  0.1776 -0.4994 -2.3022
  750MPD2    H111086   3.221   2.216  11.319 -1.9967  0.4367 -0.8220
  750MPD2    H211087   3.146   2.432  11.675  2.1356  0.9873 -1.5182
  750MPD2    H311088   3.289   2.363  11.494  0.4074 -0.5772 -0.3857
  750MPD2     N11089   2.982   2.102  11.296 -0.1964 -0.2520 -0.0153
  750MPD2    H511090   3.051   2.089  11.222  0.7088 -0.9700  0.9539
  750MPD2    N111091   2.900   2.345  11.711 -0.9100 -0.1410  0.7226
  750MPD2    H711092   2.916   2.435  11.757  4.3247 -0.0218 -1.4479
  751TMC3    C111093   2.859   1.961  11.154 -0.4242 -0.0838  0.5508
  751TMC3    C211094   2.740   1.885  11.140  0.4004  0.3304  0.3296
  751TMC3    C311095   2.744   1.788  11.041 -0.1371  0.1784  0.0159
  751TMC3    C411096   2.964   1.948  11.064 -0.0904  0.1810 -0.0239
  751TMC3    C511097   2.955   1.857  10.956 -0.2302 -0.3839  0.0365
  751TMC3    C611098   2.848   1.768  10.951  0.4905 -0.1183 -0.3164
  751TMC3     C11099   2.861   2.041  11.276  0.1725 -0.9140  0.2489
  751TMC3     O11100   2.761   2.052  11.341  0.0081 -0.0953 -0.6486
  751TMC3     H11101   2.658   1.894  11.210  0.1494  0.5063  0.0137
  751TMC3    H111102   3.048   2.015  11.069 -0.9575  1.2198  0.4932
  751TMC3    H211103   2.837   1.687  10.880 -0.4244  0.6944 -1.1045
  751TMC3    C711104   3.079   1.826  10.891 -0.9098  0.4871  0.5898
  751TMC3    C811105   2.634   1.704  11.023 -0.1410  0.5175  0.3507
  751TMC3    O111106   3.163   1.914  10.893  0.9020  0.0733  0.3499
  751TMC3    O211107   2.646   1.602  10.952 -0.4128 -0.0941  0.1787
  752TMC3    C111108   1.826   1.659  17.225 -0.1662  0.0671 -0.4449
  752TMC3    C211109   1.880   1.543  17.272 -0.4543  0.5312  0.3114
  752TMC3    C311110   1.835   1.498  17.392  0.1740 -0.6989  0.9283
  752TMC3    C411111   1.729   1.721  17.294  0.2322  0.5050 -0.0059
  752TMC3    C511112   1.691   1.678  17.416  0.3521 -0.7163 -0.4484
  752TMC3    C611113   1.749   1.564  17.471  0.0060  0.3840 -0.5405
  752TMC3     C11114   1.888   1.725  17.106 -0.1065 -0.4657 -0.2364
  752TMC3     O11115   1.999   1.682  17.070  0.2014 -0.5360 -0.7943
  752TMC3     H11116   1.959   1.494  17.215 -0.3470  1.9871 -0.8241
  752TMC3    H111117   1.679   1.809  17.255  0.1859 -0.3069 -1.7675
  752TMC3    H211118   1.719   1.524  17.567 -0.9877  0.6590 -0.7408
  752TMC3    C711119   1.604   1.761  17.494 -0.3346 -0.5921 -0.5413
  752TMC3    C811120   1.876   1.367  17.442  0.0560  0.5891  0.4044
  752TMC3    O111121   1.565   1.862  17.436 -0.3056  0.3630 -0.0752
  752TMC3    O211122   1.827   1.334  17.550  0.3365  0.4487  0.1238
  753TMC3    C111123   3.869   3.758  13.264 -0.8326  0.4440 -0.0541
  753TMC3    C211124   3.915   3.669  13.356  0.3655  0.6208  0.3105
  753TMC3    C311125   3.963   3.552  13.320 -0.3087 -0.1905 -1.2971
  753TMC3    C411126   3.865   3.728  13.131 -0.3357 -0.5624  0.0413
  753TMC3    C511127   3.910   3.598  13.099 -0.4402  0.3505 -0.8020
  753TMC3    C611128   3.960   3.509  13.190 -0.4339 -0.3913 -0.1087
  753TMC3     C11129   3.817   3.889  13.306  0.0302  0.3803  0.1545
  753TMC3     O11130   3.709   3.914  13.256 -0.6101  0.0599 -0.7885
  753TMC3     H11131   3.897   3.695  13.460 -0.0669  1.3339  0.0611
  753TMC3    H111132   3.823   3.794  13.056  0.2871  0.1282  0.3002
  753TMC3    H211133   4.028   3.428  13.166 -0.2403 -0.5279  0.9082
  753TMC3    C711134   3.935   3.583  12.957 -0.3226  0.6844 -1.3731
  753TMC3    C811135   4.017   3.454  13.416 -0.7849  0.1170  0.0038
  753TMC3    O111136   3.908   3.676  12.890  0.4249  0.1370 -0.0200
  753TMC3    O211137   4.062   3.348  13.373  0.1884 -0.0168 -0.1653
  754MPD2     C11138   2.373   1.521  12.561  0.8302 -0.2783 -0.1136
  754MPD2    C111139   2.332   1.398  12.603 -0.7861  0.2413  0.2145
  754MPD2    C211140   2.270   1.395  12.730  0.0402 -0.0421 -0.6125
  754MPD2    C311141   2.233   1.507  12.801 -0.1433  0.5066  0.0884
  754MPD2    C411142   2.288   1.625  12.758  0.4047 -0.0946  0.0450
  754MPD2    C511143   2.359   1.630  12.638 -0.9331 -0.0021 -0.4720
  754MPD2     H11144   2.221   1.302  12.756  0.4979 -0.4427 -1.1794
  754MPD2    H111145   2.278   1.719  12.810  1.8544  0.9670 -1.6158
  754MPD2    H211146   2.436   1.523  12.473  0.8912 -0.8473 -0.0870
  754MPD2    H311147   2.406   1.723  12.609 -0.2560  0.3435  1.7299
  754MPD2     N11148   2.145   1.505  12.910 -0.0920 -0.7900  0.2530
  754MPD2    H511149   2.127   1.597  12.949 -0.1274 -0.5702 -0.2727
  754MPD2    N111150   2.360   1.292  12.510 -0.6940  0.1231  0.4906
  754MPD2    H711151   2.381   1.319  12.414  0.8233 -1.0366  0.4924
  755MPD2     C11152   1.359   1.998  13.237 -0.2314  0.8705  0.6927
  755MPD2    C111153   1.497   2.021  13.228 -0.5706 -0.8007  0.8683
  755MPD2    C211154   1.580   1.913  13.187 -0.6026  0.5263 -0.4849
  755MPD2    C311155   1.526   1.798  13.134  0.0665  0.1582  0.4320
  755MPD2    C411156   1.393   1.790  13.117  0.7955 -0.3620 -0.1076
  755MPD2    C511157   1.308   1.884  13.175  0.0564 -0.3630  0.2521
  755MPD2     H11158   1.688   1.926  13.179 -0.3100 -0.1876  2.1935
  755MPD2    H111159   1.336   1.704  13.083 -1.8403  1.0010  0.8301
  755MPD2    H211160   1.282   2.066  13.272 -0.6924  0.8222 -0.2275
  755MPD2    H311161   1.201   1.872  13.170 -0.1709  2.5777 -1.5435
  755MPD2     N11162   1.608   1.681  13.110 -0.3702 -0.3783  0.1989
  755MPD2    H511163   1.564   1.602  13.064  1.6917  0.1775 -2.6912
  755MPD2    N111164   1.560   2.138  13.274  0.1072  0.0679  0.2395
  755MPD2    H711165   1.661   2.141  13.263  0.1531 -1.0430  0.3983
  756MPD2     C11166   3.155   3.401   9.618  0.5983 -0.7510 -0.0490
  756MPD2    C111167   3.117   3.335   9.732 -0.1045  0.6400 -0.6262
  756MPD2    C211168   3.021   3.236   9.722 -0.8309 -0.1373 -0.2613
  756MPD2    C311169   2.970   3.197   9.598 -0.1610  0.0174 -0.8297
  756MPD2    C411170   3.009   3.259   9.486  0.0072  0.4094 -0.0544
  756MPD2    C511171   3.098   3.363   9.497  0.4132 -0.1473  0.0607
  756MPD2     H11172   2.986   3.185   9.811  0.8567 -1.5376 -0.3969
  756MPD2    H111173   2.964   3.235   9.391 -2.2212 -1.7554  1.5190
  756MPD2    H211174   3.220   3.487   9.623 -2.3145  1.2967  2.1188
  756MPD2    H311175   3.130   3.413   9.406  2.0010  0.0631  0.7218
  756MPD2     N11176   2.868   3.099   9.603 -0.8435 -0.2409 -0.1885
  756MPD2    H511177   2.869   3.056   9.695 -0.2889  1.4214  0.5980
  756MPD2    N111178   3.179   3.366   9.862 -0.7300 -0.0113 -0.4938
  756MPD2    H711179   3.134   3.312   9.936 -1.0515 -0.2671 -0.8733
  757MPD2     C11180   2.700   2.381  10.229 -0.2988 -0.7306  0.1711
  757MPD2    C111181   2.732   2.303  10.119  0.0469 -0.7114 -0.8514
  757MPD2    C211182   2.736   2.367   9.993  0.2171 -0.4092 -0.5827
  757MPD2    C311183   2.716   2.505   9.985  0.2376  0.7055  0.2010
  757MPD2    C411184   2.686   2.574  10.101 -0.0125 -0.3674 -0.1402
  757MPD2    C511185   2.669   2.511  10.224  0.3609 -0.1577  0.1505
  757MPD2     H11186   2.752   2.319   9.897  2.5997 -0.6377 -0.0707
  757MPD2    H111187   2.649   2.675  10.097 -1.1921 -0.7095  2.1266
  757MPD2    H211188   2.703   2.337  10.328 -1.2793 -1.6061 -0.1844
  757MPD2    H311189   2.668   2.576  10.310 -0.9540 -0.4573  0.3501
  757MPD2     N11190   2.708   2.558   9.853  0.1888  0.2594  0.5372
  757MPD2    H511191   2.709   2.490   9.778  1.5891 -1.3054  1.9984
  757MPD2    N111192   2.777   2.168  10.137  0.7426 -0.3564 -0.3273
  757MPD2    H711193   2.759   2.125  10.227  0.9838  2.1093  0.8909
  758MPD2     C11194   2.224   1.343  15.830 -0.3881  0.4586 -0.2685
  758MPD2    C111195   2.306   1.284  15.917 -0.4705  0.8780  0.4510
  758MPD2    C211196   2.387   1.356  15.994  0.1657 -0.1749 -0.3517
  758MPD2    C311197   2.397   1.493  15.983  0.1900 -0.3677  0.1589
  758MPD2    C411198   2.310   1.556  15.897 -0.6873 -0.1699 -0.1566
  758MPD2    C511199   2.232   1.482  15.822  0.2657 -0.2144  0.6874
  758MPD2     H11200   2.453   1.305  16.064  0.4217  3.2023  1.8490
  758MPD2    H111201   2.320   1.663  15.880 -1.2092  0.2157  1.9964
  758MPD2    H211202   2.148   1.288  15.775  0.6809  0.4545 -1.7345
  758MPD2    H311203   2.159   1.539  15.765  0.3245 -1.1288 -0.2932
  758MPD2     N11204   2.491   1.574  16.056  0.6543  0.2177  0.4834
  758MPD2    H511205   2.500   1.670  16.022 -0.2213 -0.2277 -1.0458
  758MPD2    N111206   2.302   1.141  15.927  0.5036  0.2260 -0.3383
  758MPD2    H711207   2.225   1.106  15.871  1.7732 -0.1251 -1.8680
  759MPD2     C11208   2.181   0.095   9.445  0.0930  0.0206 -0.5565
  759MPD2    C111209   2.131   0.141   9.571 -0.5644 -0.1224 -0.6044
  759MPD2    C211210   2.193   0.247   9.631 -0.6283 -0.0313 -0.4527
  759MPD2    C311211   2.307   0.305   9.582 -0.0452 -0.5640  0.1778
  759MPD2    C411212   2.354   0.260   9.459 -0.1989 -0.1690  0.2036
  759MPD2    C511213   2.284   0.163   9.391  0.3912  0.1489  0.9988
  759MPD2     H11214   2.148   0.278   9.724  1.2598  1.0997  0.0756
  759MPD2    H111215   2.445   0.302   9.418 -0.4604 -1.5695 -1.8017
  759MPD2    H211216   2.131   0.017   9.390  1.5367 -0.2390 -1.5088
  759MPD2    H311217   2.312   0.129   9.292  0.3073  0.6457  0.7994
  759MPD2     N11218   2.369   0.407   9.651  0.0929 -0.2580  0.6068
  759MPD2    H511219   2.323   0.440   9.735 -1.3933 -1.9248  0.4331
  759MPD2    N111220   2.026   0.073   9.642 -0.4591  0.6640 -0.2205
  759MPD2    H711221   2.000   0.123   9.727 -0.1668  1.2793 -0.4984
  760MPD2     C11222   0.974   1.966  12.296  0.1163  0.8059  0.4465
  760MPD2    C111223   1.107   2.006  12.301 -0.0202 -0.0154 -0.3523
  760MPD2    C211224   1.203   1.921  12.344  0.2860  0.3807 -0.0786
  760MPD2    C311225   1.168   1.789  12.392  0.1994  0.8117  0.1293
  760MPD2    C411226   1.037   1.752  12.378 -0.0173  0.6881  0.3676
  760MPD2    C511227   0.938   1.836  12.332 -0.3642  0.8759  0.3211
  760MPD2     H11228   1.306   1.954  12.337 -0.6634  3.0150 -1.6774
  760MPD2    H111229   1.001   1.658  12.418  1.0215  0.2691  0.3033
  760MPD2    H211230   0.899   2.033  12.256  1.7484  1.8001 -0.9443
  760MPD2    H311231   0.832   1.813  12.329  0.1218 -1.7249  2.3799
  760MPD2     N11232   1.261   1.697  12.437  0.4181  0.2757 -0.3380
  760MPD2    H511233   1.216   1.609  12.460  0.4450  0.4392  0.3408
  760MPD2    N111234   1.145   2.135  12.251 -0.6034  0.2997  0.2069
  760MPD2    H711235   1.238   2.167  12.275 -1.2422  1.1351  1.5920
  761MPD2     C11236   2.142   1.601  11.126  0.1538  0.1545  0.2968
  761MPD2    C111237   2.250   1.519  11.100  0.6512 -0.6688 -0.1408
  761MPD2    C211238   2.376   1.564  11.077 -0.4565  0.8956 -0.1808
  761MPD2    C311239   2.396   1.701  11.086  0.4379 -0.0247 -0.1597
  761MPD2    C411240   2.283   1.781  11.108 -0.1846 -0.6138 -0.6713
  761MPD2    C511241   2.161   1.733  11.142  0.0855  0.0578 -0.2104
  761MPD2     H11242   2.457   1.492  11.065 -0.6244  0.4856  1.1709
  761MPD2    H111243   2.297   1.888  11.101  1.1156 -0.8545 -1.7308
  761MPD2    H211244   2.053   1.554  11.166 -0.3271  0.4796 -0.4014
  761MPD2    H311245   2.076   1.788  11.181  0.3005  1.3255 -1.5052
  761MPD2     N11246   2.523   1.761  11.069  0.5366 -0.2387  0.0621
  761MPD2    H511247   2.524   1.860  11.091 -2.4099 -0.1611 -0.0784
  761MPD2    N111248   2.216   1.380  11.102 -0.5809 -0.1596 -0.2519
  761MPD2    H711249   2.121   1.353  11.126  0.5043 -2.3451  1.6064
  762MPD2     C11250   2.500   0.594  10.936  0.6365  0.0040  0.4516
  762MPD2    C111251   2.508   0.727  10.906  0.7110  0.0129  0.4638
  762MPD2    C211252   2.590   0.772  10.808 -0.3899 -0.8506 -0.3801
  762MPD2    C311253   2.661   0.680  10.735 -1.0257 -0.0505 -0.9069
  762MPD2    C411254   2.635   0.544  10.751 -0.0433  0.2690  0.1162
  762MPD2    C511255   2.560   0.504  10.857  0.0786  0.2191  0.1993
  762MPD2     H11256   2.593   0.877  10.781  3.7059 -0.8529 -0.0170
  762MPD2    H111257   2.676   0.466  10.688 -3.5121 -0.0235 -1.7894
  762MPD2    H211258   2.445   0.542  11.013  1.0912  0.4326  1.0656
  762MPD2    H311259   2.525   0.404  10.880 -1.6584  0.4059 -1.6292
  762MPD2     N11260   2.729   0.720  10.615  0.1722 -0.7968 -0.0857
  762MPD2    H511261   2.724   0.817  10.588 -2.8451 -0.8220  0.4246
  762MPD2    N111262   2.433   0.825  10.973  0.3277 -0.3031  0.1658
  762MPD2    H711263   2.423   0.916  10.928 -2.3505 -0.9609 -0.5650
  763MPD2     C11264   4.011   1.690  16.377  0.2408 -0.0273  0.0010
  763MPD2    C111265   4.133   1.689  16.313  0.2105 -0.0050  0.0127
  763MPD2    C211266   4.227   1.757  16.380 -0.1115  0.0842 -0.6854
  763MPD2    C311267   4.210   1.809  16.504  0.0417 -0.4126  0.5239
  763MPD2    C411268   4.077   1.820  16.553  0.5033  0.2914  0.4258
  763MPD2    C511269   3.979   1.752  16.489  0.1319 -0.5561 -0.7954
  763MPD2     H11270   4.327   1.762  16.337  0.6653 -1.8606  0.8852
  763MPD2    H111271   4.047   1.864  16.648  1.6427  1.0820  0.4210
  763MPD2    H211272   3.921   1.664  16.322  0.5366  0.1196 -0.5577
  763MPD2    H311273   3.875   1.764  16.514  0.0840 -2.1650 -0.1797
  763MPD2     N11274   4.310   1.848  16.585 -0.3660 -0.0122  0.7890
  763MPD2    H511275   4.290   1.915  16.659  0.0435  1.3943 -0.3838
  763MPD2    N111276   4.164   1.644  16.180  0.2208  0.4577  0.6381
  763MPD2    H711277   4.257   1.664  16.146 -0.3746  2.0679 -0.0597
  764MPD2     C11278   2.831   3.414  17.261  0.5076  0.6966 -0.6452
  764MPD2    C111279   2.754   3.322  17.192 -0.8608 -0.4809 -0.1542
  764MPD2    C211280   2.783   3.188  17.220  0.6467  0.3623 -0.3324
  764MPD2    C311281   2.868   3.156  17.321  1.1142 -0.1537  0.0768
  764MPD2    C411282   2.936   3.250  17.392  0.6652 -0.3236 -0.0875
  764MPD2    C511283   2.912   3.384  17.361 -0.5891 -0.5070  0.1840
  764MPD2     H11284   2.740   3.113  17.155  2.3252 -1.8682  1.1757
  764MPD2    H111285   2.998   3.220  17.476 -0.6623 -0.9476  0.6662
  764MPD2    H211286   2.828   3.521  17.242  1.3641  0.8317 -0.0437
  764MPD2    H311287   2.932   3.454  17.441 -0.0670  0.2507 -0.6096
  764MPD2     N11288   2.878   3.018  17.347 -0.2862  0.0465 -0.1622
  764MPD2    H511289   2.814   2.955  17.300 -0.6754 -0.0711  0.5326
  764MPD2    N111290   2.660   3.348  17.096  0.1317 -0.1399 -0.0314
  764MPD2    H711291   2.622   3.263  17.055  0.5019  0.7154 -2.1805
  765MPD2     C11292   1.888   0.698  15.952  0.1495  0.0144 -0.8889
  765MPD2    C111293   1.953   0.821  15.925  0.0214 -0.3037  0.0268
  765MPD2    C211294   2.090   0.816  15.890 -0.6183  0.5087 -0.3951
  765MPD2    C311295   2.146   0.690  15.880 -0.5745 -0.0718  0.0459
  765MPD2    C411296   2.075   0.571  15.890  0.2225  0.0990  0.5488
  765MPD2    C511297   1.947   0.577  15.926  0.0918  0.0100  0.2635
  765MPD2     H11298   2.147   0.906  15.873 -0.2632  0.9647  3.2235
  765MPD2    H111299   2.115   0.470  15.881 -0.5426 -0.3972  2.5727
  765MPD2    H211300   1.788   0.692  15.993  0.9519  1.0361  1.2174
  765MPD2    H311301   1.878   0.494  15.936 -0.0851  0.4955  3.1506
  765MPD2     N11302   2.290   0.688  15.875  0.1844  0.6990  0.6320
  765MPD2    H511303   2.349   0.764  15.908 -1.2969  1.3841  1.7090
  765MPD2    N111304   1.876   0.944  15.933 -0.4305  0.0429  0.0220
  765MPD2    H711305   1.777   0.934  15.950 -0.9748  0.1075 -3.1124
  766MPD2     C11306   1.480   1.067  15.446  0.6060 -1.0537  0.4189
  766MPD2    C111307   1.609   1.089  15.498 -0.6148  0.3422  0.7001
  766MPD2    C211308   1.720   1.060  15.427 -0.4027 -0.2307 -0.1802
  766MPD2    C311309   1.703   1.015  15.294  0.5665  0.4603  0.5404
  766MPD2    C411310   1.582   0.986  15.247  0.4608 -0.1958  0.5192
  766MPD2    C511311   1.467   1.024  15.319  0.1920 -0.5737  0.2883
  766MPD2     H11312   1.817   1.078  15.472 -1.8703 -0.5354  3.0818
  766MPD2    H111313   1.568   0.946  15.147  2.4111 -3.0637  1.4005
  766MPD2    H211314   1.388   1.105  15.489 -0.1079 -1.5716 -0.6520
  766MPD2    H311315   1.375   1.015  15.262  2.0352  1.7067 -3.0029
  766MPD2     N11316   1.808   1.014  15.203  0.1915  0.0207 -0.1151
  766MPD2    H511317   1.792   0.985  15.107 -3.3927 -0.1114  0.5325
  766MPD2    N111318   1.628   1.154  15.620 -0.1726 -0.1782 -0.4071
  766MPD2    H711319   1.723   1.169  15.652 -0.0273  0.4433 -1.1225
  767MPD2     C11320   1.392   1.228  15.036 -0.1554  0.3631  0.1126
  767MPD2    C111321   1.517   1.270  15.013  0.5306  0.0025 -1.1919
  767MPD2    C211322   1.571   1.229  14.889  0.7850 -0.6762 -0.4423
  767MPD2    C311323   1.497   1.161  14.792 -0.2020  0.0168  0.1167
  767MPD2    C411324   1.364   1.129  14.821 -0.2459  0.4154  0.5935
  767MPD2    C511325   1.314   1.155  14.947  0.0583 -0.0699 -0.0033
  767MPD2     H11326   1.677   1.244  14.876  0.7567 -0.3983 -0.3457
  767MPD2    H111327   1.300   1.062  14.765  1.1424 -1.9398  1.8414
  767MPD2    H211328   1.344   1.250  15.131 -0.0688 -1.1703  0.5268
  767MPD2    H311329   1.222   1.107  14.980 -2.2463  2.8628 -2.2347
  767MPD2     N11330   1.561   1.125  14.670 -0.3345  0.9197  0.0067
  767MPD2    H511331   1.660   1.148  14.681 -0.0276 -0.6723  0.5112
  767MPD2    N111332   1.578   1.353  15.111  0.9000  0.3323  0.0853
  767MPD2    H711333   1.523   1.373  15.195  1.7792 -0.5835  0.8833
  768MPD2     C11334   2.791   4.394  10.813  0.2037 -0.9745 -0.2989
  768MPD2    C111335   2.727   4.318  10.903 -0.5075 -0.3885 -0.5492
  768MPD2    C211336   2.792   4.301  11.023 -0.1136  0.0272  1.0998
  768MPD2    C311337   2.923   4.346  11.046  0.0402  0.2019 -0.2062
  768MPD2    C411338   2.990   4.413  10.947  0.6260  0.8454  0.1761
  768MPD2    C511339   2.915   4.444  10.838 -0.3711  0.1341 -0.0206
  768MPD2     H11340   2.736   4.271  11.111  0.3609  2.5131  2.2462
  768MPD2    H111341   3.093   4.447  10.949  1.5365 -1.9593 -0.1389
  768MPD2    H211342   2.747   4.431  10.721 -2.0871 -0.1054  1.1396
  768MPD2    H311343   2.965   4.501  10.761  0.9152 -1.1602 -0.1677
  768MPD2     N11344   2.979   4.336  11.176 -0.0807 -0.4040 -0.5666
  768MPD2    H511345   3.058   4.397  11.196 -0.8566  0.3001  0.3146
  768MPD2    N111346   2.589   4.276  10.887 -0.7183  0.1872  0.1419
  768MPD2    H711347   2.546   4.237  10.971 -0.2887 -0.3650  0.1111
  769MPD2     C11348   3.443   2.822  14.723  0.7914  0.4384 -0.3054
  769MPD2    C111349   3.353   2.799  14.825 -0.0041 -0.2426 -0.1301
  769MPD2    C211350   3.372   2.864  14.946  0.2675  0.4198 -0.1683
  769MPD2    C311351   3.464   2.968  14.949  0.4281 -0.6468  0.1665
  769MPD2    C411352   3.544   2.996  14.842 -0.3828 -0.1588 -0.0974
  769MPD2    C511353   3.536   2.925  14.730 -0.3563  1.1757  0.5316
  769MPD2     H11354   3.300   2.842  15.024  1.8167 -1.0639  0.8410
  769MPD2    H111355   3.618   3.076  14.844 -0.6007 -0.0452  4.0905
  769MPD2    H211356   3.444   2.751  14.641 -3.3426 -1.8505  1.5882
  769MPD2    H311357   3.601   2.943  14.645 -0.1748  0.0891  0.4406
  769MPD2     N11358   3.467   3.037  15.072  0.0596  0.7834  0.6597
  769MPD2    H511359   3.408   3.007  15.149  1.2596  0.1692  1.3408
  769MPD2    N111360   3.264   2.695  14.802  0.2700  0.1176  0.0263
  769MPD2    H711361   3.267   2.638  14.718 -1.1750  1.6557 -1.0831
  770MPD2     C11362   3.062   1.710  15.135  0.0837  0.0034  0.2762
  770MPD2    C111363   2.967   1.723  15.036 -0.4083 -0.1700 -0.0813
  770MPD2    C211364   2.944   1.838  14.964 -0.0416 -0.9012  0.0731
  770MPD2    C311365   3.013   1.952  14.995  0.5529 -0.3190 -0.2657
  770MPD2    C411366   3.108   1.944  15.098 -0.5845 -0.1644 -0.1408
  770MPD2    C511367   3.130   1.824  15.155  0.0000  0.3444 -0.3470
  770MPD2     H11368   2.861   1.842  14.894  1.5028 -2.2608 -1.8534
  770MPD2    H111369   3.178   2.024  15.123 -0.3478 -0.8479  1.3862
  770MPD2    H211370   3.091   1.613  15.174  1.4160  0.7006  1.0116
  770MPD2    H311371   3.216   1.824  15.221 -0.9111 -2.0306  0.8263
  770MPD2     N11372   2.983   2.077  14.932  0.1355  0.5541  0.4035
  770MPD2    H511373   2.909   2.071  14.863  0.1120  0.4351  0.4391
  770MPD2    N111374   2.907   1.599  15.001 -0.2624 -0.2294 -0.5009
  770MPD2    H711375   2.946   1.518  15.049  0.6942 -0.4475 -1.6551
  771MPD2     C11376   4.264   0.368  13.879  1.0047  0.5910  0.2087
  771MPD2    C111377   4.198   0.484  13.884 -0.5242  0.6288  0.4405
  771MPD2    C211378   4.066   0.478  13.852 -0.0469 -0.1851 -0.1689
  771MPD2    C311379   3.997   0.364  13.803 -0.0547  0.0731  0.3468
  771MPD2    C411380   4.073   0.251  13.793  0.0723  0.5481  0.2106
  771MPD2    C511381   4.206   0.252  13.835  0.3289  0.6359  0.3144
  771MPD2     H11382   4.008   0.569  13.864 -0.6150 -0.7304  1.1819
  771MPD2    H111383   4.034   0.153  13.769 -1.6170  1.6901 -1.7224
  771MPD2    H211384   4.362   0.357  13.923  0.5103  1.3334  1.5130
  771MPD2    H311385   4.265   0.162  13.852 -1.6091 -0.3718  1.7571
  771MPD2     N11386   3.860   0.373  13.766  0.1441  0.1237 -0.4429
  771MPD2    H511387   3.816   0.462  13.787  1.2625  0.7913 -0.9705
  771MPD2    N111388   4.260   0.603  13.921 -0.6118  0.2615 -0.9441
  771MPD2    H711389   4.194   0.680  13.917 -0.3904  0.5512  1.0129
  772MPD2     C11390   4.123   1.262  14.138 -0.7721  0.2180  0.0853
  772MPD2    C111391   4.078   1.146  14.075  0.1081  0.9310  0.1572
  772MPD2    C211392   3.945   1.117  14.097  0.5953  0.2526 -1.0261
  772MPD2    C311393   3.865   1.198  14.177 -0.5245 -0.6158 -0.0163
  772MPD2    C411394   3.919   1.308  14.246 -0.1429  0.1879 -0.3189
  772MPD2    C511395   4.049   1.330  14.225 -0.1015 -0.5706  0.0407
  772MPD2     H11396   3.900   1.033  14.046 -1.7355  0.5790  0.5171
  772MPD2    H111397   3.852   1.374  14.300  0.5723  1.8444 -1.4614
  772MPD2    H211398   4.224   1.301  14.146 -0.0504 -1.9591  1.7595
  772MPD2    H311399   4.097   1.411  14.278 -1.2049 -0.6062  1.1105
  772MPD2     N11400   3.723   1.188  14.184  0.1565 -0.4715 -0.4456
  772MPD2    H511401   3.669   1.259  14.232  0.5016  0.6684 -1.7380
  772MPD2    N111402   4.167   1.059  13.996  0.4258 -0.0677 -0.5624
  772MPD2    H711403   4.125   0.978  13.952  2.3827 -0.7532 -1.1657
  773MPD2     C11404   3.500   2.016   0.019 -0.4471 -0.1179  1.0232
  773MPD2    C111405   3.428   1.903  17.684  0.4264  0.1351  0.4260
  773MPD2    C211406   3.452   1.790   0.067 -0.3103 -0.6850 -0.6718
  773MPD2    C311407   3.532   1.786   0.176  0.8692  0.3610  0.3021
  773MPD2    C411408   3.610   1.898   0.192 -0.4805  0.1111  0.6319
  773MPD2    C511409   3.588   2.014   0.120  0.4399 -0.6170  0.8116
  773MPD2     H11410   3.401   1.697   0.048 -0.0881 -0.8720 -0.3433
  773MPD2    H111411   3.679   1.896   0.275 -1.0574  0.9307  1.1307
  773MPD2    H211412   3.506   2.105  17.656 -1.3333 -1.8268 -1.5902
  773MPD2    H311413   3.641   2.106   0.141 -0.1699  0.0203 -0.4825
  773MPD2     N11414   3.561   1.657   0.231 -0.0432  0.4980  0.0627
  773MPD2    H511415   3.506   1.581   0.193 -0.0292  2.0811 -3.0866
  773MPD2    N111416   3.339   1.900  17.574  0.0711  0.1459  0.5692
  773MPD2    H711417   3.277   1.821  17.557  1.0531 -0.5963  0.4732
  774MPD2     C11418   2.109   0.730  13.394  0.1442 -0.1961 -0.6299
  774MPD2    C111419   2.202   0.824  13.421 -0.1038  0.5464 -0.2801
  774MPD2    C211420   2.261   0.898  13.318 -0.1075 -0.0321 -0.4589
  774MPD2    C311421   2.231   0.872  13.185 -0.6942 -0.0341 -0.4937
  774MPD2    C411422   2.128   0.786  13.162  0.2012 -0.5557  0.9872
  774MPD2    C511423   2.072   0.720  13.264 -0.2533 -0.5017 -0.0319
  774MPD2     H11424   2.336   0.974  13.335  0.5140 -1.3094  2.5617
  774MPD2    H111425   2.080   0.764  13.067 -1.7517 -0.9515  2.0647
  774MPD2    H211426   2.053   0.666  13.461 -0.9891  1.5800  0.0863
  774MPD2    H311427   1.987   0.655  13.242 -0.4720 -0.4568  0.6856
  774MPD2     N11428   2.298   0.945  13.087 -0.2398  0.0050  0.6213
  774MPD2    H511429   2.359   1.019  13.123  0.4420 -0.4193  0.3379
  774MPD2    N111430   2.233   0.845  13.556  0.5147  0.5675 -0.6386
  774MPD2    H711431   2.161   0.807  13.617  0.2125 -1.3591 -2.1840
  775MPD2     C11432   3.679   2.843  15.376  0.1293 -0.9778 -0.8554
  775MPD2    C111433   3.667   2.944  15.464 -0.3847 -0.1853  0.1719
  775MPD2    C211434   3.767   3.046  15.463 -0.3993 -0.2459 -0.4224
  775MPD2    C311435   3.877   3.028  15.380 -0.4313 -0.3593 -0.3958
  775MPD2    C411436   3.882   2.928  15.289 -0.3823  0.0992  0.4389
  775MPD2    C511437   3.784   2.839  15.292 -0.3424  0.1376 -0.1544
  775MPD2     H11438   3.762   3.136  15.523  2.0972  0.0934 -0.7196
  775MPD2    H111439   3.971   2.915  15.229  0.0244 -2.1184  1.5476
  775MPD2    H211440   3.602   2.767  15.365 -3.0408  2.3276 -1.6229
  775MPD2    H311441   3.800   2.753  15.228  0.7098  0.4344 -0.2937
  775MPD2     N11442   4.006   3.105  15.387 -0.2592 -0.4856 -0.0797
  775MPD2    H511443   4.078   3.065  15.328 -1.2931  1.0807 -2.3839
  775MPD2    N111444   3.554   2.948  15.559 -0.1640  0.1304 -0.2328
  775MPD2    H711445   3.486   2.873  15.562  0.0665 -0.1127 -1.0589
  776MPD2     C11446   2.519   2.451  11.148  0.8328  0.1566  0.1205
  776MPD2    C111447   2.566   2.538  11.245 -0.2544  0.1046 -0.1068
  776MPD2    C211448   2.659   2.638  11.208 -0.7465 -0.5088  0.4451
  776MPD2    C311449   2.700   2.656  11.073  0.8998 -0.5623 -0.3328
  776MPD2    C411450   2.646   2.573  10.977 -0.0423  0.2011 -0.1563
  776MPD2    C511451   2.560   2.475  11.025 -0.5641 -0.3527 -0.1254
  776MPD2     H11452   2.697   2.701  11.288  1.0289  1.6098 -2.0506
  776MPD2    H111453   2.661   2.584  10.870  0.3719 -0.4370 -0.1631
  776MPD2    H211454   2.468   2.363  11.187  2.3151 -0.7473  0.0132
  776MPD2    H311455   2.511   2.407  10.955  1.6797 -2.4198  0.3098
  776MPD2     N11456   2.780   2.761  11.030 -0.2262 -0.4973 -1.1960
  776MPD2    H511457   2.806   2.754  10.932 -0.7063 -2.7216 -1.1677
  776MPD2    N111458   2.548   2.503  11.381  0.2976 -0.1908  0.0342
  776MPD2    H711459   2.497   2.417  11.399  0.0825 -0.5594 -2.3148
  777MPD2     C11460   3.624   4.680   1.095  0.3071  0.4665  0.0228
  777MPD2    C111461   3.491   4.707   1.112  0.7548  0.2334 -0.2678
  777MPD2    C211462   3.395   4.630   1.046  0.1650  0.2581  0.0621
  777MPD2    C311463   3.431   4.516   0.978  0.2186  0.5832 -0.6319
  777MPD2    C411464   3.567   4.489   0.969 -0.4935 -0.0459 -0.1451
  777MPD2    C511465   3.663   4.577   1.016 -0.9858 -0.5864  0.5083
  777MPD2     H11466   3.287   4.636   1.052 -0.1742 -2.5085 -3.4577
  777MPD2    H111467   3.615   4.399   0.932  1.6159  0.4123  1.4402
  777MPD2    H211468   3.696   0.024   1.141 -1.1200  3.7894 -2.6775
  777MPD2    H311469   3.768   4.551   1.015 -1.3902 -2.2578  1.0999
  777MPD2     N11470   3.330   4.432   0.925 -0.1313  0.0472  0.8917
  777MPD2    H511471   3.236   4.468   0.928  0.1521  0.6162  2.9009
  777MPD2    N111472   3.457   0.087   1.197 -0.1001  0.7539  0.1414
  777MPD2    H711473   3.531   0.147   1.232 -1.0011  0.7194  2.0994
  778MPD2     C11474   4.388   0.968  14.979 -0.2512 -0.1737 -0.6890
  778MPD2    C111475   4.416   0.846  14.916 -0.4599  0.1808  0.4627
  778MPD2    C211476   4.496   0.859  14.801 -0.0234  1.3142 -1.3901
  778MPD2    C311477   4.549   0.985  14.758  0.7319  0.5545 -0.3368
  778MPD2    C411478   4.516   1.104  14.828 -0.8963 -0.5048 -0.3025
  778MPD2    C511479   4.436   1.088  14.939  0.7859 -0.4044 -0.3817
  778MPD2     H11480   4.527   0.774  14.741 -0.9488  0.4054 -0.6151
  778MPD2    H111481   4.545   1.204  14.798 -0.7677 -1.1173 -2.2342
  778MPD2    H211482   4.317   0.973  15.060  2.2029 -0.4709  1.5002
  778MPD2    H311483   4.417   1.175  15.000 -0.1830 -0.8288 -0.0796
  778MPD2     N11484   4.647   0.980  14.652 -0.3714 -0.6962  0.0990
  778MPD2    H511485   4.668   0.891  14.608 -0.1625 -0.0862 -1.0470
  778MPD2    N111486   4.350   0.723  14.936 -0.1907 -0.1699  0.2523
  778MPD2    H711487   4.351   0.650  14.866 -2.7354 -0.8153  0.9102
  779MPD2     C11488   3.836   4.299  14.303  0.4965  0.0524 -0.3166
  779MPD2    C111489   3.966   4.262  14.317  0.1984  0.1621 -0.5967
  779MPD2    C211490   4.068   4.361  14.313  0.7245  0.3236  0.4294
  779MPD2    C311491   4.042   4.490  14.275 -0.0459 -0.2043  0.2131
  779MPD2    C411492   3.908   4.518  14.247  0.1394 -0.3626  0.0191
  779MPD2    C511493   3.803   4.429  14.266 -0.4032  0.7481  0.3812
  779MPD2     H11494   4.169   4.331  14.339  1.1136  3.7200  2.8620
  779MPD2    H111495   3.886   4.617  14.206  1.9145  0.3183  0.7234
  779MPD2    H211496   3.749   4.235  14.313 -0.0246  0.7022 -0.6629
  779MPD2    H311497   3.701   4.459  14.245 -0.4044  1.7405  1.8377
  779MPD2     N11498   4.154   4.581  14.261  0.2841  0.2153  0.2069
  779MPD2    H511499   4.245   4.547  14.289  0.5596  0.0813 -0.8612
  779MPD2    N111500   4.012   4.125  14.334  0.3055  0.0767 -1.1351
  779MPD2    H711501   4.111   4.106  14.338  0.4199  1.0821  0.5796
  780MPD2     C11502   2.475   3.971   0.650 -0.1192 -0.0332  0.4238
  780MPD2    C111503   2.589   3.960   0.712  0.1178  0.9539  0.1952
  780MPD2    C211504   2.703   3.993   0.635  0.3627  0.2878  0.0461
  780MPD2    C311505   2.705   4.045   0.506  0.1214 -0.4404  0.2173
  780MPD2    C411506   2.583   4.057   0.450  0.1990  0.5072  0.5052
  780MPD2    C511507   2.470   4.024   0.521 -0.5415  0.2391 -0.1666
  780MPD2     H11508   2.799   3.969   0.679 -0.1093  4.3915  3.2835
  780MPD2    H111509   2.569   4.105   0.355  0.5228 -2.7681 -1.1995
  780MPD2    H211510   2.381   3.940   0.694 -2.1811  2.2088 -2.4019
  780MPD2    H311511   2.372   4.042   0.480 -0.1319  3.2220  0.2255
  780MPD2     N11512   2.827   4.064   0.428 -0.1149 -0.0208  0.0188
  780MPD2    H511513   2.911   4.031   0.473  0.8511 -0.3431 -2.0073
  780MPD2    N111514   2.598   3.903   0.843 -0.0049  0.0861 -0.1902
  780MPD2    H711515   2.508   3.888   0.886  0.2523 -1.8400 -0.3457
  781MPD2     C11516   0.874   0.661  12.219  0.1825 -0.5249  0.2167
  781MPD2    C111517   0.852   0.782  12.154  0.9908 -0.0355  0.6124
  781MPD2    C211518   0.910   0.807  12.032 -0.1387 -0.5380 -0.0777
  781MPD2    C311519   0.968   0.704  11.960 -0.1942 -0.0027 -1.1499
  781MPD2    C411520   0.999   0.589  12.030  0.1463 -0.2589 -0.2791
  781MPD2    C511521   0.955   0.565  12.157  0.3797 -0.2576 -0.7343
  781MPD2     H11522   0.876   0.905  12.001  0.8608  0.0194  0.6068
  781MPD2    H111523   1.055   0.511  11.979  0.2913 -0.3281 -0.0188
  781MPD2    H211524   0.838   0.638  12.318  1.0445  0.4610  0.7529
  781MPD2    H311525   0.976   0.471  12.206 -1.0948 -1.0967 -1.7412
  781MPD2     N11526   1.016   0.722  11.825  0.5004  0.2620 -0.3190
  781MPD2    H511527   1.064   0.644  11.781 -0.1535 -0.6300  0.5492
  781MPD2    N111528   0.772   0.886  12.213  0.2467  0.2120 -0.4508
  781MPD2    H711529   0.743   0.965  12.158 -0.5933 -0.1567 -0.5281
  782MPD2     C11530   3.392   2.403  10.390 -0.4884 -0.3605  0.4967
  782MPD2    C111531   3.465   2.311  10.463  0.2944  1.1817 -0.4507
  782MPD2    C211532   3.502   2.338  10.589  0.5309  0.8294  0.1597
  782MPD2    C311533   3.481   2.457  10.656  0.1429  0.7813 -0.7332
  782MPD2    C411534   3.416   2.557  10.580  0.5574 -0.3481 -0.1139
  782MPD2    C511535   3.381   2.529  10.452  0.1530 -0.2816 -0.0017
  782MPD2     H11536   3.569   2.265  10.633 -0.1599  0.6109  0.8535
  782MPD2    H111537   3.387   2.651  10.624  4.3541  0.9560 -0.3896
  782MPD2    H211538   3.358   2.393  10.288  1.3678 -1.4424 -0.0289
  782MPD2    H311539   3.336   2.606  10.391  0.4984  0.1470  0.2859
  782MPD2     N11540   3.522   2.474  10.791  0.1506 -0.0460  0.0734
  782MPD2    H511541   3.569   2.395  10.833 -3.0069 -1.1513  1.5724
  782MPD2    N111542   3.511   2.187  10.410 -0.5056  0.2504  0.0399
  782MPD2    H711543   3.561   2.122  10.470 -2.2733  0.5801  1.9041
  783MPD2     C11544   3.201   1.503  10.741  0.1137  0.3988 -0.2250
  783MPD2    C111545   3.193   1.641  10.762 -0.1745 -0.0371 -0.0616
  783MPD2    C211546   3.282   1.716  10.686 -0.1526  0.2232  0.1521
  783MPD2    C311547   3.372   1.667  10.597 -0.4000  0.3539  0.1173
  783MPD2    C411548   3.377   1.528  10.574  0.0741 -0.0104 -0.1825
  783MPD2    C511549   3.281   1.454  10.636 -0.0485 -0.7284  0.1961
  783MPD2     H11550   3.277   1.824  10.690 -2.4072  0.0578  1.6556
  783MPD2    H111551   3.429   1.470  10.498 -0.5631 -1.0917  0.1924
  783MPD2    H211552   3.150   1.427  10.800 -0.0695  0.3153 -0.4931
  783MPD2    H311553   3.281   1.352  10.599 -0.2163 -0.8468  0.5257
  783MPD2     N11554   3.461   1.754  10.528 -0.3058 -0.2676 -1.3781
  783MPD2    H511555   3.457   1.854  10.545 -2.2877 -0.4851 -0.4971
  783MPD2    N111556   3.090   1.698  10.842  0.0194 -0.1106  0.3302
  783MPD2    H711557   3.021   1.629  10.874  0.7591 -1.1702 -0.3469
  784MPD2     C11558   1.248   1.982   0.767  0.2440 -0.6641 -0.1441
  784MPD2    C111559   1.254   2.102   0.832  0.5305  0.3786 -0.6567
  784MPD2    C211560   1.136   2.176   0.823  0.2012  0.9269 -0.1588
  784MPD2    C311561   1.024   2.143   0.758  0.2300 -0.3529  0.6919
  784MPD2    C411562   1.021   2.017   0.701  0.8768 -0.2435  0.3023
  784MPD2    C511563   1.127   1.944   0.713 -0.1180  0.4234 -0.2795
  784MPD2     H11564   1.155   2.281   0.842 -1.0218  1.1812 -0.3523
  784MPD2    H111565   0.936   1.973   0.651  1.4214  0.2449 -1.0602
  784MPD2    H211566   1.332   1.915   0.760  2.1050  1.8646 -2.1308
  784MPD2    H311567   1.130   1.846   0.666 -1.2000 -0.3260  1.1829
  784MPD2     N11568   0.914   2.232   0.750  0.7723  0.5626 -0.5882
  784MPD2    H511569   0.917   2.321   0.798  1.2589  0.1739  0.1163
  784MPD2    N111570   1.372   2.159   0.881 -0.2169 -0.1370  0.4152
  784MPD2    H711571   1.366   2.238   0.945 -1.6116 -0.5209  0.7586
  785MPD2     C11572   3.189   2.884   8.631  1.0450  0.0665 -0.4142
  785MPD2    C111573   3.315   2.878   8.657  0.0993 -1.3367 -0.7482
  785MPD2    C211574   3.400   2.837   8.556 -0.0263 -0.1724  0.3643
  785MPD2    C311575   3.357   2.788   8.434  0.1113 -0.4047  0.3084
  785MPD2    C411576   3.219   2.802   8.414 -0.0463  0.0045  0.1870
  785MPD2    C511577   3.140   2.845   8.510 -0.1409 -0.0242  0.1544
  785MPD2     H11578   3.506   2.842   8.579  0.5532  0.1913 -2.4224
  785MPD2    H111579   3.165   2.780   8.322  1.2515  0.1979 -0.6223
  785MPD2    H211580   3.116   2.915   8.706  0.9526 -1.1617 -0.0071
  785MPD2    H311581   3.033   2.862   8.498 -0.0840 -0.6755 -1.2573
  785MPD2     N11582   3.447   2.737   8.337  0.4221  0.2645  0.2467
  785MPD2    H511583   3.545   2.745   8.363  0.0883 -0.5244  1.7905
  785MPD2    N111584   3.369   2.917   8.781 -0.4017 -0.1604  0.0930
  785MPD2    H711585   3.469   2.913   8.793 -0.5851 -1.5953  1.1763
  786MPD2     C11586   4.305   3.457  14.977 -0.7228  0.0288 -0.4078
  786MPD2    C111587   4.424   3.502  14.914  0.6483 -0.3444  0.1580
  786MPD2    C211588   4.515   3.581  14.988 -0.0397 -1.5704  0.0104
  786MPD2    C311589   4.489   3.612  15.117 -0.4198  0.2180 -0.6237
  786MPD2    C411590   4.373   3.572  15.170 -0.6318 -0.1442 -0.2276
  786MPD2    C511591   4.282   3.497  15.109 -0.7108  0.0730 -0.0934
  786MPD2     H11592   4.606   3.606  14.936  1.5328 -1.9185  2.6031
  786MPD2    H111593   4.354   3.598  15.274 -0.7490  1.4057 -0.6403
  786MPD2    H211594   4.225   3.395  14.937 -0.1155  0.1478 -1.8102
  786MPD2    H311595   4.188   3.472  15.156  0.4311 -1.1409  1.5160
  786MPD2     N11596   4.574   3.678  15.209  0.6151 -0.4524  0.1507
  786MPD2    H511597   4.541   3.679  15.305  1.6416  1.7891  0.4859
  786MPD2    N111598   4.458   3.470  14.779  0.0063 -0.5404 -0.0694
  786MPD2    H711599   4.553   3.481  14.744  0.1430 -1.8698 -0.1389
  787MPD2     C11600   0.224   3.087  14.888 -0.5194  0.2324 -0.8105
  787MPD2    C111601   0.180   3.047  14.759  0.1598 -0.0627 -0.0396
  787MPD2    C211602   0.197   2.919  14.724 -0.1936  0.2351  0.2897
  787MPD2    C311603   0.254   2.823  14.810 -0.0351 -0.2277 -0.0396
  787MPD2    C411604   0.302   2.866  14.933 -0.4356  0.2759 -0.5929
  787MPD2    C511605   0.285   3.002  14.970  0.2218  0.1027  0.7898
  787MPD2     H11606   0.175   2.890  14.622  0.7283 -0.5495  0.3136
  787MPD2    H111607   0.348   2.799  15.004 -2.0050 -0.0105  0.1617
  787MPD2    H211608   0.212   3.190  14.921 -0.8455 -0.5027  1.3793
  787MPD2    H311609   0.323   3.040  15.064  2.0178  1.1822 -0.3731
  787MPD2     N11610   0.285   2.698  14.749  0.0776  0.6658  0.0868
  787MPD2    H511611   0.251   2.680  14.655 -1.6292  1.1504  0.6128
  787MPD2    N111612   0.104   3.139  14.679 -0.6055 -0.3379 -0.1926
  787MPD2    H711613   0.099   3.235  14.714  0.2021 -0.3872  0.0588
  788MPD2     C11614   1.886   1.351   1.281  0.0685  0.7138  0.0910
  788MPD2    C111615   1.960   1.276   1.194  0.2374 -0.2821 -0.2516
  788MPD2    C211616   1.995   1.330   1.072 -0.2705 -0.0480  0.4571
  788MPD2    C311617   1.960   1.461   1.035 -0.4510  0.9589  0.1233
  788MPD2    C411618   1.891   1.532   1.129 -0.0105  0.0766 -0.6498
  788MPD2    C511619   1.852   1.478   1.249 -0.2144 -0.1849 -0.1177
  788MPD2     H11620   2.040   1.263   1.000  0.7742  1.2068 -0.0522
  788MPD2    H111621   1.864   1.633   1.101  1.8057  1.4018  2.2947
  788MPD2    H211622   1.860   1.297   1.372  0.4156 -0.9282 -0.7745
  788MPD2    H311623   1.783   1.536   1.309  0.6882  1.0045 -0.2171
  788MPD2     N11624   1.967   1.514   0.905 -0.0392 -0.0588  0.0850
  788MPD2    H511625   1.933   1.609   0.892 -1.5529 -0.9073 -2.1112
  788MPD2    N111626   1.993   1.143   1.226 -0.0608 -0.0398 -0.6745
  788MPD2    H711627   1.945   1.110   1.309 -2.1497  1.1888 -1.3971
  789MPD2     C11628   2.299   1.116  16.313  0.1261  0.6307  0.1021
  789MPD2    C111629   2.182   1.057  16.334  0.3615 -0.1117  0.3878
  789MPD2    C211630   2.086   1.124  16.408 -0.4804 -0.9197  0.0055
  789MPD2    C311631   2.109   1.252  16.454 -0.5991 -0.1165  0.3419
  789MPD2    C411632   2.223   1.317  16.414  0.8466  0.3095 -0.5746
  789MPD2    C511633   2.317   1.248  16.348  0.0525  0.3912  0.3726
  789MPD2     H11634   1.990   1.077  16.428 -1.5973  1.7142  0.8854
  789MPD2    H111635   2.229   1.424  16.429 -0.4607  0.3461 -0.3122
  789MPD2    H211636   2.377   1.067  16.256  1.7796  2.8239  0.4683
  789MPD2    H311637   2.416   1.288  16.331  0.4558 -0.5640  0.4788
  789MPD2     N11638   2.002   1.329  16.508 -0.7939 -0.5667  0.2602
  789MPD2    H511639   2.027   1.427  16.515 -1.3621 -0.3877 -0.2758
  789MPD2    N111640   2.159   0.923  16.283 -0.0375 -0.6440  0.6165
  789MPD2    H711641   2.239   0.880  16.236  0.1695 -0.3847  0.7301
  790MPD2     C11642   2.963   3.309  13.520 -0.3784 -0.7405 -0.0245
  790MPD2    C111643   3.016   3.190  13.465  0.7990 -0.1347  0.3530
  790MPD2    C211644   2.985   3.155  13.338  0.6592 -0.4663  0.2326
  790MPD2    C311645   2.905   3.224  13.256 -0.0393  0.2695 -0.5388
  790MPD2    C411646   2.862   3.348  13.310  0.3762  0.6602 -0.6945
  790MPD2    C511647   2.884   3.385  13.440 -0.1807 -0.4525  0.2455
  790MPD2     H11648   3.024   3.061  13.300 -0.0416 -0.1291 -1.2954
  790MPD2    H111649   2.794   3.414  13.259  0.4518  0.4982 -1.0040
  790MPD2    H211650   2.973   3.341  13.622 -0.3262 -1.5106  0.2134
  790MPD2    H311651   2.841   3.479  13.473 -1.8953 -1.6353  1.3739
  790MPD2     N11652   2.883   3.186  13.123  0.5240  0.2204 -0.1897
  790MPD2    H511653   2.941   3.110  13.089  0.9633  0.2180  0.5451
  790MPD2    N111654   3.098   3.109  13.553 -0.3376  0.1937 -0.4425
  790MPD2    H711655   3.105   3.138  13.651 -2.0770 -0.5744 -0.0847
  791MPD2     C11656   2.203   3.259  12.674 -0.0813  0.4220  0.1092
  791MPD2    C111657   2.251   3.140  12.724 -0.1786  0.8016 -0.1656
  791MPD2    C211658   2.175   3.030  12.741 -0.1453  0.1062 -0.2077
  791MPD2    C311659   2.042   3.043  12.707  0.9587 -0.1265 -0.8717
  791MPD2    C411660   1.985   3.160  12.664  0.1265 -0.1411 -0.2341
  791MPD2    C511661   2.068   3.270  12.653  0.3049  0.2118  0.3573
  791MPD2     H11662   2.200   2.937  12.792  1.2634 -0.3354 -1.6977
  791MPD2    H111663   1.880   3.171  12.640  0.2762  0.4810 -0.5847
  791MPD2    H211664   2.272   3.341  12.652 -0.7819  1.5533  2.1189
  791MPD2    H311665   2.024   3.357  12.605 -2.0662 -1.2470 -0.1424
  791MPD2     N11666   1.966   2.922  12.717 -0.6107  0.0431  1.0599
  791MPD2    H511667   2.009   2.836  12.748  0.9278  1.4268  2.8136
  791MPD2    N111668   2.383   3.134  12.762 -0.3580  0.2331 -0.5595
  791MPD2    H711669   2.432   3.223  12.759 -1.2775  0.7833  0.8587
  792MPD2     C11670   3.440   2.753  11.385  0.2455  0.7830 -0.8199
  792MPD2    C111671   3.424   2.835  11.275  0.8511 -0.3899 -0.6182
  792MPD2    C211672   3.347   2.786  11.169 -0.1307 -0.1380  0.5223
  792MPD2    C311673   3.302   2.654  11.167  0.4461 -0.0980  0.2057
  792MPD2    C411674   3.329   2.572  11.272  0.2923 -0.4569 -0.6427
  792MPD2    C511675   3.395   2.621  11.381  0.5414  0.4871  0.2281
  792MPD2     H11676   3.317   2.833  11.076 -0.4086  2.0795  1.7341
  792MPD2    H111677   3.294   2.470  11.279 -0.5429 -0.1743 -0.7857
  792MPD2    H211678   3.500   2.781  11.471 -0.8523 -0.1897  0.2594
  792MPD2    H311679   3.419   2.554  11.463  0.5025 -1.8233 -1.6557
  792MPD2     N11680   3.231   2.597  11.060 -0.9819  0.4443 -0.0878
  792MPD2    H511681   3.200   2.502  11.074  0.5193  0.2124  1.7652
  792MPD2    N111682   3.480   2.969  11.271 -0.4409  0.3702 -0.2208
  792MPD2    H711683   3.530   2.996  11.355  2.2677 -3.6753 -0.4990
  793MPD2     C11684   2.959   2.970  10.170  0.8784  0.2181  0.5561
  793MPD2    C111685   3.062   2.998  10.258  0.7117 -0.2995 -0.6537
  793MPD2    C211686   3.092   2.899  10.355  0.8282 -0.2810 -0.1644
  793MPD2    C311687   3.026   2.780  10.364  0.1704 -0.4977  0.0521
  793MPD2    C411688   2.914   2.759  10.286  0.0078 -0.1782  0.0008
  793MPD2    C511689   2.886   2.857  10.189  0.0468  0.8324  0.1583
  793MPD2     H11690   3.164   2.929  10.430  2.5519 -0.1401 -1.8794
  793MPD2    H111691   2.841   2.681  10.307 -0.5290  0.5793  0.8976
  793MPD2    H211692   2.934   3.036  10.088  1.8163  1.1099  0.9830
  793MPD2    H311693   2.802   2.851  10.120  0.3440 -0.7841 -0.0581
  793MPD2     N11694   3.043   2.701  10.483 -0.0095  0.1050 -0.3000
  793MPD2    H511695   3.099   2.747  10.555 -0.7137 -0.2774  0.4992
  793MPD2    N111696   3.142   3.114  10.255  0.2065 -0.4772  0.6043
  793MPD2    H711697   3.212   3.116  10.328  0.2876  0.6642  0.4976
  794MPD2     C11698   2.915   2.442  17.128  0.2003  0.6344 -0.1188
  794MPD2    C111699   2.847   2.325  17.088  0.5475  0.4263  0.6670
  794MPD2    C211700   2.749   2.339  16.987  0.2296  0.1042 -0.1074
  794MPD2    C311701   2.703   2.465  16.949 -0.2419  0.0558 -0.4015
  794MPD2    C411702   2.767   2.577  17.000  0.3449 -0.2434  1.0150
  794MPD2    C511703   2.878   2.565  17.082 -0.0645  0.1100  0.0628
  794MPD2     H11704   2.714   2.247  16.943  1.8921 -1.1376  1.1711
  794MPD2    H111705   2.727   2.673  16.972 -2.2808 -1.1639  1.6121
  794MPD2    H211706   2.989   2.450  17.206  0.0137  1.1002  0.0123
  794MPD2    H311707   2.923   2.657  17.116 -2.8538  0.0470  3.8993
  794MPD2     N11708   2.612   2.493  16.846 -0.1544 -0.0370 -0.1133
  794MPD2    H511709   2.574   2.587  16.853 -0.2458  0.0392 -1.5680
  794MPD2    N111710   2.889   2.199  17.130  0.4681  0.1693 -0.5636
  794MPD2    H711711   2.858   2.119  17.076  1.3835  0.0505 -0.9242
  795MPD2     C11712   0.354   4.560  13.759  0.7880  0.1806  0.1681
  795MPD2    C111713   0.370   4.470  13.664  0.2027  0.0801  0.3390
  795MPD2    C211714   0.459   4.367  13.673  0.5240  0.7261 -0.5211
  795MPD2    C311715   0.541   4.353  13.786  0.0749 -0.6787 -0.1356
  795MPD2    C411716   0.527   4.445  13.875  0.3254  0.3746  0.0708
  795MPD2    C511717   0.430   4.543  13.870 -0.0705  0.2863 -0.1541
  795MPD2     H11718   0.476   4.306  13.586 -0.1978  1.4635 -1.1840
  795MPD2    H111719   0.569   4.431  13.974 -1.9052 -3.1273  0.5122
  795MPD2    H211720   0.279   4.637  13.752  2.1036  1.4925  0.5667
  795MPD2    H311721   0.417   4.605  13.958  1.4017  1.5663 -0.8351
  795MPD2     N11722   0.638   4.248  13.789  0.0260  0.5046  0.0764
  795MPD2    H511723   0.636   4.174  13.720  0.1558  0.1503  0.4528
  795MPD2    N111724   0.295   4.485  13.544 -0.1310 -0.1125  0.1455
  795MPD2    H711725   0.318   4.414  13.476  1.8124 -0.3907  1.0984
  796MPD2     C11726   4.532   1.784  16.135 -0.0044  0.3963 -0.9255
  796MPD2    C111727   4.611   1.728  16.037 -0.8811  0.3642 -0.1716
  796MPD2    C211728   4.596   1.774  15.903 -0.8029  0.2750  0.3338
  796MPD2    C311729   4.496   1.874  15.878  0.3018  0.4883 -0.0832
  796MPD2    C411730   4.416   1.919  15.978 -0.3738  0.7069 -0.4516
  796MPD2    C511731   4.439   1.878  16.109 -0.5853  0.0158  0.3614
  796MPD2     H11732   4.657   1.737  15.822 -1.0647  2.0043 -0.6624
  796MPD2    H111733   4.342   1.997  15.967 -0.7343  0.1878 -1.7090
  796MPD2    H211734   4.541   1.757  16.240 -1.7929 -1.6452 -1.2805
  796MPD2    H311735   4.372   1.903  16.190  0.4673 -1.0888  1.5783
  796MPD2     N11736   4.481   1.928  15.750  0.4336  0.1920 -0.2864
  796MPD2    H511737   4.559   1.920  15.685  0.0971 -1.9998 -0.4066
  796MPD2    N111738   4.706   1.629  16.077  0.2035 -0.5951  0.3027
  796MPD2    H711739   4.690   1.583  16.165 -1.7655  0.3109  0.4262
  797MPD2     C11740   0.961   0.542  17.256  0.7988  0.1734 -0.0469
  797MPD2    C111741   1.019   0.658  17.214  0.2421  0.4472  0.1731
  797MPD2    C211742   0.975   0.721  17.094  0.6562 -0.2270  0.4577
  797MPD2    C311743   0.884   0.665  17.008  0.5736 -0.1030  0.2141
  797MPD2    C411744   0.837   0.539  17.042 -0.2338 -0.0024  0.7776
  797MPD2    C511745   0.878   0.479  17.163  0.3958  0.3133  0.5631
  797MPD2     H11746   1.031   0.811  17.072 -0.6972  0.6475  0.5755
  797MPD2    H111747   0.770   0.492  16.971 -0.5058 -0.0103  1.0442
  797MPD2    H211748   0.980   0.502  17.355 -0.8533  2.2995  1.1201
  797MPD2    H311749   0.833   0.384  17.192 -0.7065  1.5015  2.7723
  797MPD2     N11750   0.835   0.736  16.897 -0.0243  0.2086  0.5733
  797MPD2    H511751   0.745   0.712  16.857  0.9307 -0.9459 -0.9214
  797MPD2    N111752   1.103   0.737  17.295 -0.6517 -1.0332  0.3404
  797MPD2    H711753   1.147   0.813  17.244 -1.6445 -1.2663 -0.8686
  798MPD2     C11754   0.939   1.406  16.981  1.2083  0.9490 -0.7925
  798MPD2    C111755   1.002   1.283  16.944  0.7798 -0.2325  0.1672
  798MPD2    C211756   1.077   1.214  17.035 -0.1097  0.0851 -0.1580
  798MPD2    C311757   1.101   1.263  17.162 -0.0887  0.2257 -0.5242
  798MPD2    C411758   1.046   1.386  17.198 -0.2476 -0.0874 -0.1406
  798MPD2    C511759   0.963   1.451  17.108 -0.3315 -0.2225 -0.1560
  798MPD2     H11760   1.114   1.116  17.009 -2.6629 -0.5705 -1.3617
  798MPD2    H111761   1.060   1.429  17.296  1.2986  0.2006 -0.4954
  798MPD2    H211762   0.885   1.462  16.906  0.6997 -0.6726 -1.6316
  798MPD2    H311763   0.917   1.545  17.139  0.4598 -1.2742  4.2932
  798MPD2     N11764   1.166   1.174  17.255  0.1684  0.8610 -0.2249
  798MPD2    H511765   1.211   1.089  17.223 -1.2111  0.4207 -0.9794
  798MPD2    N111766   0.973   1.208  16.826 -0.6784  0.1580 -0.4523
  798MPD2    H711767   0.977   1.107  16.829 -2.4442  0.1243  0.4657
  799MPD2     C11768   4.665   2.247  14.939  0.0707  0.2542 -0.6030
  799MPD2    C111769   0.033   2.266  14.840 -0.9736  0.3580  0.0831
  799MPD2    C211770   0.004   2.346  14.738 -0.2409  0.2533  0.1354
  799MPD2    C311771   4.606   2.412  14.726 -0.4140 -0.6172 -0.3593
  799MPD2    C411772   4.509   2.385  14.822 -0.3594 -0.1399  0.2855
  799MPD2    C511773   4.542   2.304  14.929 -0.1437 -0.1448  0.5286
  799MPD2     H11774   0.071   2.351  14.653  1.0241  1.3927  1.2076
  799MPD2    H111775   4.413   2.436  14.822 -0.1442  0.2747 -1.1480
  799MPD2    H211776   4.684   2.198  15.034  1.7249 -0.2317 -1.1901
  799MPD2    H311777   4.463   2.286  15.002  0.4391 -1.2641  0.8956
  799MPD2     N11778   4.568   2.500  14.627 -0.1452  0.3933 -0.1390
  799MPD2    H511779   4.478   2.544  14.639 -0.8279 -1.6000  2.0168
  799MPD2    N111780   0.157   2.194  14.837  0.2600 -0.3508 -0.7720
  799MPD2    H711781   0.195   2.196  14.743  0.3630  0.7269 -0.7070
  800MPD2     C11782   0.388   3.717  13.818 -0.0907  0.4566  0.3265
  800MPD2    C111783   0.419   3.583  13.821 -0.0180  0.2356 -0.6976
  800MPD2    C211784   0.397   3.516  13.707  0.5171  0.4975  0.3015
  800MPD2    C311785   0.338   3.567  13.591  0.5361  0.0643  0.0980
  800MPD2    C411786   0.305   3.701  13.601 -0.3907 -0.0229 -0.7534
  800MPD2    C511787   0.325   3.776  13.712  0.3069  0.1214 -0.1162
  800MPD2     H11788   0.431   3.414  13.700 -1.7627 -0.5141  3.6939
  800MPD2    H111789   0.266   3.750  13.512 -2.7809 -1.8265 -0.7170
  800MPD2    H211790   0.428   3.784  13.893 -2.3329 -0.5865  2.4527
  800MPD2    H311791   0.319   3.883  13.694 -1.4721 -0.1343 -1.0938
  800MPD2     N11792   0.331   3.493  13.474 -0.1310 -0.0593 -0.2241
  800MPD2    H511793   0.288   3.541  13.395  2.2433  1.5341 -0.5398
  800MPD2    N111794   0.494   3.536  13.928 -0.1371  0.1322  0.0840
  800MPD2    H711795   0.501   3.593  14.012  1.1869  1.1161 -0.7007
  801MPD2     C11796   0.579   3.743  14.580  0.1044 -0.2529 -0.3794
  801MPD2    C111797   0.500   3.700  14.482  0.5152 -0.1740  0.0393
  801MPD2    C211798   0.379   3.761  14.459 -0.0264  0.9862  0.3564
  801MPD2    C311799   0.341   3.865  14.545 -0.1028  0.5547  0.6177
  801MPD2    C411800   0.419   3.892  14.650  0.0476  1.1261 -0.1576
  801MPD2    C511801   0.539   3.840  14.669  0.4190 -0.2499 -0.6468
  801MPD2     H11802   0.323   3.744  14.368 -1.4231 -0.9528  1.5597
  801MPD2    H111803   0.395   3.975  14.717  1.4616  0.8886  0.6585
  801MPD2    H211804   0.680   3.704  14.576  1.0501  1.9805  1.2836
  801MPD2    H311805   0.596   3.879  14.752 -2.4473 -0.4526  1.4129
  801MPD2     N11806   0.222   3.934  14.537 -0.5484  0.4737  0.5376
  801MPD2    H511807   0.219   4.016  14.598  1.4264  0.6635  0.3590
  801MPD2    N111808   0.544   3.602  14.388 -0.4594 -0.2659  0.6428
  801MPD2    H711809   0.482   3.610  14.308  2.1096  0.3124 -1.2761
  802MPD2     C11810   4.573   4.585   0.590  0.7385  0.1709  0.4855
  802MPD2    C111811   4.575   4.604   0.456  0.2979  0.3257  0.3647
  802MPD2    C211812   4.686   4.669   0.393  0.1221 -1.0143  0.2704
  802MPD2    C311813   0.063   4.712   0.474  0.4743 -0.0963  0.1797
  802MPD2    C411814   0.053   4.693   0.612  0.3296  1.2174 -0.4285
  802MPD2    C511815   4.681   4.618   0.662  0.6559 -0.4161  0.1413
  802MPD2     H11816   4.685   4.694   0.288  1.0236 -1.0343  0.2506
  802MPD2    H111817   0.125   0.006   0.685  3.5032 -2.7927 -1.5464
  802MPD2    H211818   4.493   4.525   0.632 -0.8224  2.0981  0.2534
  802MPD2    H311819   4.683   4.590   0.767  2.2774  1.4032  0.5951
  802MPD2     N11820   0.162   0.071   0.415  0.4055  0.3229 -0.0934
  802MPD2    H511821   0.151   0.091   0.316 -0.7584 -1.9608 -0.4156
  802MPD2    N111822   4.467   4.562   0.367  0.0902  0.2132  0.4800
  802MPD2    H711823   4.457   4.597   0.272 -3.2657 -1.6784  0.1390
  803MPD2     C11824   0.986   2.881  11.687 -0.0521  0.1698 -0.2854
  803MPD2    C111825   1.062   2.863  11.802  0.4685 -0.1930 -0.3107
  803MPD2    C211826   1.008   2.795  11.911 -0.2269 -0.4541  0.0979
  803MPD2    C311827   0.888   2.727  11.897  0.3655 -0.7246 -0.4303
  803MPD2    C411828   0.805   2.749  11.791  1.0823 -0.1678  0.6764
  803MPD2    C511829   0.864   2.821  11.689 -0.7602  0.8484  0.1751
  803MPD2     H11830   1.068   2.783  12.001 -0.4752  1.4356  0.5107
  803MPD2    H111831   0.708   2.705  11.772  2.1923 -0.9092 -3.3220
  803MPD2    H211832   1.020   2.926  11.595  0.7295  1.1620  0.4845
  803MPD2    H311833   0.800   2.831  11.602  1.1147  0.1744 -1.2717
  803MPD2     N11834   0.825   2.653  12.002 -0.0125  0.4678  0.0174
  803MPD2    H511835   0.730   2.618  11.990  0.1044 -0.7440  2.6727
  803MPD2    N111836   1.192   2.916  11.810 -0.0704  0.3558  0.1128
  803MPD2    H711837   1.249   2.899  11.892 -0.0513  0.4786  0.1252
  804MPD2     C11838   0.544   4.325  17.136 -0.0944 -0.0106  0.7778
  804MPD2    C111839   0.561   4.244  17.247 -0.2810 -0.8418 -0.2998
  804MPD2    C211840   0.649   4.283  17.342 -0.6901 -0.4611 -0.2812
  804MPD2    C311841   0.705   4.410  17.342  0.4813 -0.3095  1.1465
  804MPD2    C411842   0.683   4.489  17.237 -0.7464 -0.4249 -0.4900
  804MPD2    C511843   0.599   4.448  17.137 -0.3024  0.6665 -0.6824
  804MPD2     H11844   0.661   4.208  17.419 -0.2541  1.1292  1.1940
  804MPD2    H111845   0.725   4.588  17.225  1.4950 -1.2257  0.7077
  804MPD2    H211846   0.488   4.296  17.048  2.7346  0.4822 -1.2137
  804MPD2    H311847   0.578   4.519  17.058  0.5188 -1.0096 -2.3891
  804MPD2     N11848   0.788   4.451  17.440  0.0219 -0.5328 -0.0694
  804MPD2    H511849   0.837   4.537  17.418 -0.8864 -0.1044 -0.4115
  804MPD2    N111850   0.494   4.121  17.267 -0.0671  0.1047 -0.4553
  804MPD2    H711851   0.503   4.074  17.356 -1.5840  0.0827 -0.3068
  805MPD2     C11852   4.465   2.631  15.614 -0.3994 -0.2636 -0.5875
  805MPD2    C111853   4.550   2.567  15.518 -0.6451 -0.2148 -0.4517
  805MPD2    C211854   4.680   2.522  15.561 -0.2282  0.0725 -0.0725
  805MPD2    C311855   4.711   2.545  15.699  0.6293 -0.2803  0.3724
  805MPD2    C411856   4.632   2.612  15.787 -0.3455 -0.6845  0.2657
  805MPD2    C511857   4.510   2.653  15.739 -0.6586 -0.6698 -0.2721
  805MPD2     H11858   0.023   2.481  15.486 -1.0433 -0.0569 -0.7355
  805MPD2    H111859   4.655   2.619  15.892 -0.7939 -0.0892  0.3222
  805MPD2    H211860   4.364   2.669  15.602  0.3004  1.5439 -0.5866
  805MPD2    H311861   4.448   2.706  15.810  0.6951 -0.1617  0.5379
  805MPD2     N11862   0.114   2.497  15.731  0.2259 -0.4308  0.5380
  805MPD2    H511863   0.170   2.476  15.649  1.1006 -0.4260  1.1374
  805MPD2    N111864   4.510   2.544  15.385 -0.1667  0.1266  0.4324
  805MPD2    H711865   4.582   2.504  15.325 -0.9235 -0.2030 -0.2536
  806MPD2     C11866   0.440   2.049   1.073 -0.0357 -0.2426  0.1362
  806MPD2    C111867   0.563   2.023   1.024 -0.2061  0.6648  0.8795
  806MPD2    C211868   0.581   2.017   0.888 -0.3416 -0.0237  0.5270
  806MPD2    C311869   0.477   2.011   0.806  0.5170  0.2329  0.0719
  806MPD2    C411870   0.350   2.009   0.861  0.1816  1.3003  0.7120
  806MPD2    C511871   0.333   2.042   0.992 -0.7728  0.3294 -0.2275
  806MPD2     H11872   0.678   1.992   0.846  0.0205 -0.2458  1.4959
  806MPD2    H111873   0.260   2.006   0.801 -0.4295  0.1203  1.7251
  806MPD2    H211874   0.433   2.066   1.180 -1.4379  2.1276 -0.3281
  806MPD2    H311875   0.232   2.053   1.030 -1.9183 -0.6228 -3.0175
  806MPD2     N11876   0.502   2.009   0.664 -0.1904  0.1110 -0.3313
  806MPD2    H511877   0.595   2.033   0.629 -0.4001  0.8182 -0.4108
  806MPD2    N111878   0.673   2.029   1.119 -0.4619 -0.1062 -0.0153
  806MPD2    H711879   0.654   2.066   1.212 -0.0871  0.9582 -0.3547
  807MPD2     C11880   0.860   2.013   1.825 -0.1000  0.1799  0.3899
  807MPD2    C111881   0.803   1.969   1.705  0.4021 -0.4242 -0.3497
  807MPD2    C211882   0.684   1.898   1.714  0.7484 -0.9506  0.2363
  807MPD2    C311883   0.627   1.866   1.843 -0.3837 -0.5323 -0.2925
  807MPD2    C411884   0.695   1.904   1.954  0.5616  0.0106  0.6377
  807MPD2    C511885   0.811   1.976   1.944 -0.3829  0.1293  0.1790
  807MPD2     H11886   0.636   1.856   1.627 -1.7763  0.4269  0.9646
  807MPD2    H111887   0.663   1.870   2.052  1.0639  0.6191  1.0155
  807MPD2    H211888   0.956   2.063   1.823 -0.3688  0.7668  2.0326
  807MPD2    H311889   0.861   2.020   2.029 -1.1324 -0.0291  0.7046
  807MPD2     N11890   0.499   1.805   1.853  0.2909 -0.2337  0.3788
  807MPD2    H511891   0.439   1.782   1.775 -0.5622 -1.3827  1.3705
  807MPD2    N111892   0.844   2.006   1.577 -0.4940 -0.0522  0.3639
  807MPD2    H711893   0.798   1.956   1.501 -0.3109  0.8469 -0.3376
  808MPD2     C11894   0.631   3.379   9.212 -0.6013  1.2102 -0.3919
  808MPD2    C111895   0.683   3.416   9.330 -0.1702  0.4931  0.1164
  808MPD2    C211896   0.790   3.502   9.341  0.3306  0.5859  0.3248
  808MPD2    C311897   0.855   3.542   9.224  0.2221  0.6424 -0.2170
  808MPD2    C411898   0.805   3.499   9.107 -0.1898  0.5736  0.0578
  808MPD2    C511899   0.690   3.418   9.097  0.4814  0.1148  0.2805
  808MPD2     H11900   0.816   3.530   9.442  2.1394 -1.5545  0.4591
  808MPD2    H111901   0.848   3.519   9.009  1.3894  1.0386  0.8441
  808MPD2    H211902   0.550   3.308   9.203  0.8968 -0.9452  3.0501
  808MPD2    H311903   0.663   3.382   8.998 -0.5012  3.6364 -0.7110
  808MPD2     N11904   0.961   3.634   9.224 -0.4948  0.2563 -0.5324
  808MPD2    H511905   1.011   3.655   9.138 -0.6508 -0.4702 -0.7973
  808MPD2    N111906   0.631   3.368   9.453  0.3155  0.1817 -0.1680
  808MPD2    H711907   0.673   3.405   9.538 -0.6224 -1.4731  1.0070
  809MPD2     C11908   1.687   3.427   8.824 -0.4668 -0.2656 -0.6451
  809MPD2    C111909   1.718   3.462   8.953 -0.5381 -0.1739 -0.0095
  809MPD2    C211910   1.622   3.528   9.026  0.3726 -0.6343  0.0884
  809MPD2    C311911   1.496   3.543   8.973 -0.2311 -0.6741  0.3642
  809MPD2    C411912   1.464   3.486   8.853  0.1421  1.6445  0.5875
  809MPD2    C511913   1.562   3.433   8.777  0.4098 -0.3349 -0.0582
  809MPD2     H11914   1.652   3.560   9.125 -0.1170  2.4310 -0.7780
  809MPD2    H111915   1.359   3.489   8.830  0.3233 -0.5156 -0.5603
  809MPD2    H211916   1.763   3.384   8.759  0.0391 -0.2005 -0.0937
  809MPD2    H311917   1.551   3.394   8.677 -1.4867  1.4140 -0.5143
  809MPD2     N11918   1.404   3.613   9.047 -0.1018  0.2149 -0.2198
  809MPD2    H511919   1.312   3.611   9.004 -0.9972 -1.0331  1.7782
  809MPD2    N111920   1.847   3.437   9.008  0.3361 -0.9680  0.7503
  809MPD2    H711921   1.862   3.476   9.101 -2.1191 -2.9324  1.9861
  810MPD2     C11922   0.574   3.572  10.330 -0.8920  0.0355  0.1593
  810MPD2    C111923   0.530   3.464  10.399 -0.1391  0.5920  0.7669
  810MPD2    C211924   0.550   3.458  10.538  0.2985  0.0588 -0.3803
  810MPD2    C311925   0.604   3.570  10.599 -0.2680  0.5237  0.4830
  810MPD2    C411926   0.638   3.676  10.522  0.2581  0.1903 -0.4308
  810MPD2    C511927   0.622   3.683  10.391 -0.2693 -0.4916 -0.9688
  810MPD2     H11928   0.531   3.363  10.587 -0.6531 -0.6341 -2.1108
  810MPD2    H111929   0.679   3.763  10.571 -2.5957  1.6161 -0.5677
  810MPD2    H211930   0.577   3.575  10.222  2.7707  1.7452  0.3310
  810MPD2    H311931   0.675   3.761  10.338  0.6425 -0.6296 -0.2619
  810MPD2     N11932   0.627   3.575  10.739 -0.6749  0.6114 -0.5237
  810MPD2    H511933   0.655   3.665  10.777  0.4152 -0.2019  0.6077
  810MPD2    N111934   0.468   3.363  10.327 -0.0769  0.2279 -0.3375
  810MPD2    H711935   0.451   3.378  10.228  0.6560 -0.6352 -0.5932
  811MPD2     C11936   4.512   3.215   9.835 -0.5520  0.4029 -0.8138
  811MPD2    C111937   4.615   3.289   9.892 -0.9969 -0.1037  1.0121
  811MPD2    C211938   4.626   3.424   9.877 -0.9767  0.6710 -0.1847
  811MPD2    C311939   4.533   3.487   9.803  0.5211  1.0785  0.2038
  811MPD2    C411940   4.422   3.420   9.755  0.1100  0.4203 -0.2490
  811MPD2    C511941   4.423   3.286   9.758 -0.0779  0.1612 -0.0548
  811MPD2     H11942   4.703   3.487   9.921 -1.1428 -0.4636  1.7164
  811MPD2    H111943   4.342   3.473   9.706  1.1002  1.7657 -0.4211
  811MPD2    H211944   4.511   3.107   9.846  1.8885  0.5646  1.0954
  811MPD2    H311945   4.345   3.236   9.703 -0.2643 -0.5992  0.8921
  811MPD2     N11946   4.551   3.624   9.783  0.2335 -0.1855 -0.1132
  811MPD2    H511947   4.638   3.670   9.810  1.3974 -1.3134 -1.9323
  811MPD2    N111948   4.715   3.216   9.964  0.3945 -0.1982 -0.0756
  811MPD2    H711949   4.688   3.120   9.986 -0.2688 -0.3474 -1.5439
  812MPD2     C11950   3.331   2.587  12.275 -0.1004  0.9133  0.9179
  812MPD2    C111951   3.435   2.675  12.292  0.1488 -0.0138  0.2611
  812MPD2    C211952   3.532   2.647  12.385  0.3195  0.4663  1.0000
  812MPD2    C311953   3.520   2.535  12.468  0.6518 -0.5389  0.2255
  812MPD2    C411954   3.417   2.453  12.450 -0.3539  0.5496  0.0515
  812MPD2    C511955   3.324   2.478  12.355  0.0445 -0.0595  0.3493
  812MPD2     H11956   3.622   2.705  12.396  1.0113 -0.2891 -0.7383
  812MPD2    H111957   3.406   2.360  12.504  0.7033  0.2505 -0.2351
  812MPD2    H211958   3.259   2.599  12.195  1.7585  0.9300 -0.7392
  812MPD2    H311959   3.239   2.412  12.351 -0.3642  0.4445  0.6903
  812MPD2     N11960   3.614   2.516  12.576  0.0174 -0.1338  0.1615
  812MPD2    H511961   3.670   2.600  12.579  0.4463 -0.3507 -1.4853
  812MPD2    N111962   3.436   2.787  12.203 -0.2939  0.9002 -0.0609
  812MPD2    H711963   3.364   2.799  12.133  0.6720  1.2882 -0.9915
  813MPD2     C11964   2.294   4.716  13.061 -0.2243 -0.2492  0.5395
  813MPD2    C111965   2.315   0.102  13.128 -0.6265 -0.1002  0.1600
  813MPD2    C211966   2.237   0.137  13.237 -0.7112 -0.5025  0.1788
  813MPD2    C311967   2.145   0.043  13.282  0.0840 -0.0093  0.4289
  813MPD2    C411968   2.122   4.649  13.215  0.7971 -0.1299  0.0080
  813MPD2    C511969   2.204   4.624  13.117 -0.4294 -0.0084  0.3557
  813MPD2     H11970   2.259   0.230  13.288 -1.9999  0.2429 -0.6139
  813MPD2    H111971   2.035   4.589  13.238 -0.1606  0.8584 -1.0526
  813MPD2    H211972   2.356   4.673  12.983  1.3419 -0.7177  2.0378
  813MPD2    H311973   2.182   4.535  13.059  0.5899  0.2169 -0.3600
  813MPD2     N11974   2.072   0.078  13.399  0.2584  0.0599  0.0381
  813MPD2    H511975   2.092   0.171  13.435 -1.4565  0.6070 -0.4083
  813MPD2    N111976   2.423   0.190  13.093  0.1895 -0.3368 -0.2713
  813MPD2    H711977   2.429   0.275  13.150 -0.8097  1.8362 -3.4199
  814MPD2     C11978   3.553   1.507  12.465  0.1553 -0.4307 -0.6554
  814MPD2    C111979   3.579   1.545  12.332  0.3068  0.6501 -0.4795
  814MPD2    C211980   3.640   1.670  12.316  0.3777 -0.5028 -0.2989
  814MPD2    C311981   3.686   1.749  12.422  0.4027 -0.0533 -0.2395
  814MPD2    C411982   3.653   1.717  12.547  0.2031  0.9636 -1.1090
  814MPD2    C511983   3.584   1.599  12.566  0.3741  0.6672 -0.1399
  814MPD2     H11984   3.658   1.698  12.212  1.0167 -2.2045 -0.6427
  814MPD2    H111985   3.691   1.775  12.631 -1.6928  1.5437 -0.6557
  814MPD2    H211986   3.521   1.407  12.489 -1.7050  0.1834 -0.5911
  814MPD2    H311987   3.551   1.577  12.666  1.8919 -1.4154 -0.0996
  814MPD2     N11988   3.749   1.874  12.407 -0.7305 -0.2452 -0.0844
  814MPD2    H511989   3.769   1.934  12.487 -1.0676  0.4239 -0.5025
  814MPD2    N111990   3.536   1.477  12.213 -0.1671 -0.8596  0.1531
  814MPD2    H711991   3.543   1.516  12.119 -2.5248  1.3623  0.9082
  815MPD2     C11992   4.022   0.386  11.804  0.2306  0.2163 -0.0465
  815MPD2    C111993   4.029   0.255  11.841  0.4699  0.3268  0.9195
  815MPD2    C211994   3.936   0.204  11.924 -0.0917 -0.3114 -0.0998
  815MPD2    C311995   3.832   0.277  11.964 -0.6037 -0.3973  0.1975
  815MPD2    C411996   3.811   0.407  11.916 -0.0398  0.1330 -0.2723
  815MPD2    C511997   3.917   0.465  11.841 -0.2203  0.4872 -0.1063
  815MPD2     H11998   3.931   0.100  11.953  1.5321 -1.3247 -3.3839
  815MPD2    H111999   3.732   0.472  11.951 -0.0160 -0.1165  0.2499
  815MPD2    H212000   4.097   0.428  11.738  0.7073  1.1673  1.1091
  815MPD2    H312001   3.919   0.570  11.816 -2.3747  0.4761 -0.3559
  815MPD2     N12002   3.744   0.204  12.049 -0.2491 -0.1288  0.1077
  815MPD2    H512003   3.762   0.106  12.068  0.0130 -0.0339  0.3494
  815MPD2    N112004   4.125   0.176  11.774 -0.9011  0.4942  0.0525
  815MPD2    H712005   4.172   0.211  11.691  1.0466 -1.3486  0.3529
  816MPD2     C12006   3.452   3.619  17.113 -0.8957 -0.4913  0.1108
  816MPD2    C112007   3.531   3.684  17.210 -0.2092 -0.0226 -0.3501
  816MPD2    C212008   3.620   3.604  17.285 -0.7716  0.3270 -0.5703
  816MPD2    C312009   3.621   3.465  17.267  0.4201 -0.1602 -0.3226
  816MPD2    C412010   3.543   3.403  17.169 -0.4248 -0.0805  0.6160
  816MPD2    C512011   3.462   3.481  17.088  0.1671 -0.5224 -0.0717
  816MPD2     H12012   3.693   3.652  17.348 -1.1171 -1.1052  0.9202
  816MPD2    H112013   3.532   3.297  17.151 -1.1697  0.1186 -0.0761
  816MPD2    H212014   3.387   3.661  17.037 -0.0392  0.8343  0.1151
  816MPD2    H312015   3.416   3.430  17.005 -0.6387  0.7852 -0.4215
  816MPD2     N12016   3.731   3.409  17.330 -0.3396 -0.1988  0.0099
  816MPD2    H512017   3.774   3.470  17.398  0.2012 -0.7853  0.1972
  816MPD2    N112018   3.528   3.824  17.218  0.1767  0.2098  0.2886
  816MPD2    H712019   3.472   3.867  17.145  3.2920  1.2202 -1.4813
  817MPD2     C12020   4.129   0.725  10.195 -0.6713  0.2467  0.4013
  817MPD2    C112021   4.126   0.721  10.057  0.2111  0.7222 -0.0870
  817MPD2    C212022   4.054   0.817   9.994  0.4271 -0.0247 -0.4961
  817MPD2    C312023   3.978   0.908  10.057  0.4608  0.3536 -0.1337
  817MPD2    C412024   3.974   0.906  10.191 -0.3232  0.3658  0.3874
  817MPD2    C512025   4.051   0.812  10.263 -0.0669 -0.5630  0.1089
  817MPD2     H12026   4.060   0.806   9.886  0.9922  1.0191 -0.5776
  817MPD2    H112027   3.915   0.976  10.248  0.2779  1.0599  0.1575
  817MPD2    H212028   4.193   0.663  10.255 -2.0747  0.5831  2.2450
  817MPD2    H312029   4.055   0.808  10.372 -0.1484  1.8012  0.1970
  817MPD2     N12030   3.894   0.994   9.980  0.1124  0.1845  0.0064
  817MPD2    H512031   3.901   0.987   9.879 -0.0888  1.4157 -0.0884
  817MPD2    N112032   4.185   0.620   9.978  0.0948 -0.3504 -0.3337
  817MPD2    H712033   4.173   0.624   9.877 -0.1910  1.0221 -0.2558
  818MPD2     C12034   2.564   0.541  10.237 -0.6050  0.2045 -0.1458
  818MPD2    C112035   2.566   0.461  10.348 -0.8243 -0.5663  0.7508
  818MPD2    C212036   2.633   0.340  10.341 -0.1007 -0.6202  0.1798
  818MPD2    C312037   2.708   0.311  10.223 -0.2201 -0.0712 -0.2186
  818MPD2    C412038   2.718   0.409  10.128 -0.7652  0.0180 -0.6915
  818MPD2    C512039   2.644   0.527  10.131  0.2510 -0.8568 -0.3504
  818MPD2     H12040   2.634   0.269  10.423 -0.6089 -1.6555 -0.7037
  818MPD2    H112041   2.769   0.390  10.035 -1.0676  2.2281 -1.2972
  818MPD2    H212042   2.491   0.619  10.220 -1.2419 -0.5022 -0.6875
  818MPD2    H312043   2.638   0.604  10.055  2.8038  0.5466  0.8616
  818MPD2     N12044   2.790   0.192  10.220  0.6892 -0.2913  0.5737
  818MPD2    H512045   2.843   0.174  10.135 -1.6009 -0.6054 -0.7710
  818MPD2    N112046   2.477   0.476  10.456  0.2051 -0.4388  0.4297
  818MPD2    H712047   2.470   0.397  10.519  1.6679  0.2427  1.4780
  819MPD2     C12048   0.438   1.702  16.053 -0.5591  0.5643 -0.9591
  819MPD2    C112049   0.488   1.725  15.928  0.0140  0.3966  0.1310
  819MPD2    C212050   0.623   1.767  15.914 -0.2788 -0.4348 -0.3753
  819MPD2    C312051   0.691   1.801  16.029 -0.1308 -1.1360 -0.1532
  819MPD2    C412052   0.634   1.786  16.150  0.5207 -0.0073  0.2597
  819MPD2    C512053   0.508   1.738  16.164  0.2202 -1.0942 -0.2550
  819MPD2     H12054   0.672   1.769  15.818  1.5489 -1.1360  0.5355
  819MPD2    H112055   0.681   1.802  16.247  0.4484  2.0419 -0.0533
  819MPD2    H212056   0.339   1.662  16.072 -0.6873  0.7428 -1.2368
  819MPD2    H312057   0.469   1.705  16.260  0.3269  0.7021  0.4095
  819MPD2     N12058   0.820   1.859  16.012 -0.4063  0.1748  0.4552
  819MPD2    H512059   0.850   1.869  15.915  0.5407  0.5376  0.7831
  819MPD2    N112060   0.403   1.694  15.814  0.5092 -0.4128  0.5967
  819MPD2    H712061   0.307   1.673  15.840 -0.4861  2.3847 -0.7474
  820MPD2     C12062   4.234   1.756  15.343  0.6995 -0.0127 -0.2107
  820MPD2    C112063   4.340   1.841  15.348  0.2059  0.0462  0.2302
  820MPD2    C212064   4.465   1.797  15.381  0.1424 -0.7450  0.8574
  820MPD2    C312065   4.484   1.660  15.415  0.1229  0.1831  0.2062
  820MPD2    C412066   4.379   1.572  15.386 -0.4933 -0.7179  0.8563
  820MPD2    C512067   4.258   1.618  15.347  0.4797  0.4840 -0.9109
  820MPD2     H12068   4.541   1.872  15.397 -0.9709 -0.0291  2.7508
  820MPD2    H112069   4.389   1.464  15.390  0.2591 -0.6866  0.0263
  820MPD2    H212070   4.134   1.786  15.312 -0.4973 -3.2218  0.6109
  820MPD2    H312071   4.179   1.545  15.333 -0.5830  1.4617  0.0461
  820MPD2     N12072   4.610   1.615  15.468 -0.1616 -0.6099 -0.3286
  820MPD2    H512073   4.632   1.516  15.474  0.0900 -0.5579 -0.4074
  820MPD2    N112074   4.310   1.975  15.327  0.4703  0.0261  0.4589
  820MPD2    H712075   4.214   1.996  15.301  0.5515 -0.2881 -0.0919
  821MPD2     C12076   0.630   3.735  12.895  0.0734 -0.4834  0.5741
  821MPD2    C112077   0.720   3.686  12.990 -0.2925  0.2547  0.5921
  821MPD2    C212078   0.856   3.719  12.993 -0.2312 -0.3770 -0.0722
  821MPD2    C312079   0.912   3.800  12.892 -0.1373  0.2923 -0.0473
  821MPD2    C412080   0.825   3.849  12.798  0.5841  0.0675 -0.6464
  821MPD2    C512081   0.692   3.805  12.795 -0.3091  0.0354 -0.5643
  821MPD2     H12082   0.924   3.673  13.063 -1.4934 -1.4660  0.4295
  821MPD2    H112083   0.870   3.914  12.724  1.2192 -0.4917 -0.7395
  821MPD2    H212084   0.527   3.703  12.881  0.4084 -1.8789  1.3989
  821MPD2    H312085   0.631   3.841  12.713 -1.4232 -0.0977  0.2043
  821MPD2     N12086   1.049   3.828  12.890  0.5744  0.4992 -0.0801
  821MPD2    H512087   1.089   3.895  12.826  1.6665 -0.3319 -0.2736
  821MPD2    N112088   0.677   3.597  13.082  0.0357  0.2339 -0.1542
  821MPD2    H712089   0.753   3.560  13.138 -0.1423  0.0622 -0.0211
  822MPD2     C12090   1.187   3.788  15.715  0.0014  0.1221  0.3229
  822MPD2    C112091   1.200   3.721  15.834 -0.0778 -0.3422 -0.7220
  822MPD2    C212092   1.130   3.771  15.947  0.2775  0.7398 -0.2564
  822MPD2    C312093   1.043   3.877  15.936 -0.1189 -0.0868 -0.1404
  822MPD2    C412094   1.024   3.937  15.814  0.5809  0.3839 -0.0017
  822MPD2    C512095   1.096   3.894  15.704  0.7754  0.5703  0.2754
  822MPD2     H12096   1.129   3.717  16.041  2.0468 -1.1852 -1.3313
  822MPD2    H112097   0.961   4.024  15.797 -0.4102 -0.4407 -0.5822
  822MPD2    H212098   1.244   3.761  15.626  0.6384 -0.4098  0.8943
  822MPD2    H312099   1.088   3.946  15.610  1.5064 -0.9755 -0.6447
  822MPD2     N12100   0.974   3.916  16.055 -0.1124 -0.3844 -0.5088
  822MPD2    H512101   0.985   3.861  16.139  0.1994  0.0220 -0.2788
  822MPD2    N112102   1.286   3.608  15.854  1.0436 -0.3937 -0.2784
  822MPD2    H712103   1.293   3.562  15.944  1.0752  3.0313  1.4723
  823MPD2     C12104   0.704   3.934  16.862 -0.1219 -0.0180 -0.0929
  823MPD2    C112105   0.751   3.861  16.756 -0.0685  0.0147  0.0117
  823MPD2    C212106   0.779   3.728  16.756  0.1726  0.5206  1.0936
  823MPD2    C312107   0.770   3.662  16.876 -0.3605  0.6039  0.1103
  823MPD2    C412108   0.727   3.733  16.986  0.2842 -0.0145  0.1971
  823MPD2    C512109   0.702   3.868  16.975 -0.7457  0.1790  0.2328
  823MPD2     H12110   0.817   3.678  16.668  2.0017  1.2037  1.4980
  823MPD2    H112111   0.713   3.697  17.088 -0.6038 -0.0045  0.0758
  823MPD2    H212112   0.687   4.041  16.866  0.5562  0.1241 -1.0381
  823MPD2    H312113   0.694   3.923  17.068 -0.7990 -0.7446  0.7716
  823MPD2     N12114   0.811   3.529  16.897 -0.4373 -0.4584  0.0440
  823MPD2    H512115   0.791   3.485  16.986  1.0963  0.0981  0.6676
  823MPD2    N112116   0.759   3.943  16.645  0.0525  0.5869  0.3613
  823MPD2    H712117   0.767   4.042  16.665  2.7363  0.2835  0.7592
  824MPD2     C12118   1.444   2.798  15.694  0.0943 -0.5922 -0.3507
  824MPD2    C112119   1.558   2.863  15.748 -0.2804 -0.4580 -0.0862
  824MPD2    C212120   1.667   2.787  15.785 -0.4584  0.2125  0.2128
  824MPD2    C312121   1.669   2.645  15.769 -0.1064  0.1343 -0.4062
  824MPD2    C412122   1.560   2.592  15.708 -0.3395 -0.5309  0.4132
  824MPD2    C512123   1.448   2.665  15.676  0.7927 -0.0915 -0.5675
  824MPD2     H12124   1.756   2.833  15.826 -0.5876  2.1065 -1.6521
  824MPD2    H112125   1.562   2.489  15.676  1.6237  0.1453 -1.5916
  824MPD2    H212126   1.359   2.852  15.654  0.4200 -0.5274 -0.9581
  824MPD2    H312127   1.365   2.617  15.625  0.6822  0.9557 -1.3691
  824MPD2     N12128   1.782   2.570  15.806  0.3226 -0.3161 -0.3649
  824MPD2    H512129   1.865   2.628  15.807  0.4104 -0.4182 -1.6266
  824MPD2    N112130   1.564   2.998  15.764  0.0296  0.1030 -0.2174
  824MPD2    H712131   1.654   3.035  15.795 -0.3251  1.9248 -1.3622
  825MPD2     C12132   2.415   2.386  15.381  0.6002  0.1000  0.6704
  825MPD2    C112133   2.370   2.474  15.470 -0.1281  0.3803 -0.3483
  825MPD2    C212134   2.398   2.607  15.438 -0.4655  0.1654  0.0375
  825MPD2    C312135   2.453   2.642  15.313  0.2216 -0.7249 -0.7772
  825MPD2    C412136   2.495   2.540  15.226 -0.0496  1.3161  0.3773
  825MPD2    C512137   2.479   2.411  15.265 -0.2873  0.1151  0.1961
  825MPD2     H12138   2.369   2.689  15.502  1.0619  0.4137  0.3973
  825MPD2    H112139   2.536   2.550  15.127  2.6369  1.7971  1.5430
  825MPD2    H212140   2.406   2.280  15.402 -0.5984  0.2338  0.8639
  825MPD2    H312141   2.524   2.333  15.203  0.0612 -0.5054  1.2328
  825MPD2     N12142   2.451   2.773  15.266  0.3792 -0.1172  0.1103
  825MPD2    H512143   2.454   2.781  15.164 -0.9428 -1.7302 -0.0672
  825MPD2    N112144   2.303   2.429  15.586  0.6007 -0.0631 -1.0605
  825MPD2    H712145   2.317   2.331  15.609  0.8278  0.8600  2.8940
  826MPD2     C12146   2.395   2.384  13.589 -0.2753 -0.3701 -0.1205
  826MPD2    C112147   2.261   2.388  13.552 -0.1967  0.0005  0.2019
  826MPD2    C212148   2.173   2.488  13.600 -0.8788 -0.2309 -0.4178
  826MPD2    C312149   2.215   2.592  13.670 -0.3719  0.0697  0.4233
  826MPD2    C412150   2.349   2.590  13.702 -0.5070 -0.6421 -0.0758
  826MPD2    C512151   2.437   2.498  13.655  0.1856 -0.7485  0.2842
  826MPD2     H12152   2.068   2.480  13.572 -1.2931  1.3525  0.6940
  826MPD2    H112153   2.381   2.663  13.776 -0.6374 -2.7317  2.0344
  826MPD2    H212154   2.459   2.297  13.576 -0.1218 -0.4689  1.3110
  826MPD2    H312155   2.540   2.497  13.688  0.8303 -2.4084 -1.7130
  826MPD2     N12156   2.134   2.689  13.741  0.1006  0.1642  0.5355
  826MPD2    H512157   2.193   2.756  13.790 -1.2647  0.8178  1.2859
  826MPD2    N112158   2.211   2.283  13.470  0.0102  0.1263 -0.2940
  826MPD2    H712159   2.110   2.286  13.457 -0.1853 -0.9093  0.9722
  827MPD2     C12160   3.229   4.361  10.177 -0.8758  0.4828  0.5581
  827MPD2    C112161   3.217   4.226  10.210 -0.0709  0.2664  0.0036
  827MPD2    C212162   3.128   4.151  10.131  0.2943 -0.5849 -0.0610
  827MPD2    C312163   3.058   4.208  10.028 -0.9376  0.3364  0.8382
  827MPD2    C412164   3.073   4.342  10.000  0.9824  0.0294  0.3893
  827MPD2    C512165   3.153   4.419  10.079 -0.1823  0.3873  0.0878
  827MPD2     H12166   3.102   4.049  10.156 -0.2249 -0.2156  0.9072
  827MPD2    H112167   3.006   4.392   9.931  1.2597  0.1714  0.2205
  827MPD2    H212168   3.294   4.422  10.239  2.4708  1.1721 -3.6867
  827MPD2    H312169   3.150   4.527  10.064 -0.1834  0.4426  0.5038
  827MPD2     N12170   2.957   4.130   9.960  0.2933  0.8860 -0.2840
  827MPD2    H512171   2.933   4.037   9.992 -1.3379  1.8581  1.3133
  827MPD2    N112172   3.295   4.186  10.324 -1.0687 -0.2654  0.8459
  827MPD2    H712173   3.368   4.243  10.363  0.0604 -0.4814 -0.9498
  828MPD2     C12174   1.469   3.615  12.649 -0.7722 -0.1318 -0.4036
  828MPD2    C112175   1.483   3.671  12.525 -0.2042  0.2241 -0.4781
  828MPD2    C212176   1.614   3.668  12.468 -0.3403  0.3376  0.7610
  828MPD2    C312177   1.719   3.594  12.528 -0.8609 -0.2438  0.0315
  828MPD2    C412178   1.698   3.533  12.646 -0.2434 -0.0203  0.7858
  828MPD2    C512179   1.570   3.542  12.703 -0.1036 -0.4361  0.4481
  828MPD2     H12180   1.627   3.714  12.371 -0.0773  0.5311  0.8887
  828MPD2    H112181   1.779   3.483  12.698  0.2721  1.6789  1.6176
  828MPD2    H212182   1.370   3.610  12.694 -0.8600 -0.2692 -0.6120
  828MPD2    H312183   1.550   3.477  12.787  1.1724 -0.2484  0.8899
  828MPD2     N12184   1.851   3.593  12.470  0.0639 -0.5831 -0.1342
  828MPD2    H512185   1.925   3.568  12.536  0.6841  0.0679 -0.5771
  828MPD2    N112186   1.392   3.749  12.460 -0.4124  0.6347  0.1104
  828MPD2    H712187   1.413   3.780  12.365  1.7608 -0.7472  0.1484
  829MPD2     C12188   1.466   4.024  11.664  0.0232 -0.8303 -0.0986
  829MPD2    C112189   1.330   4.033  11.670 -0.5151  0.2635 -0.5150
  829MPD2    C212190   1.272   3.999  11.788 -0.0430  0.1433  0.4722
  829MPD2    C312191   1.346   3.968  11.896 -0.1865  0.5624 -0.0981
  829MPD2    C412192   1.485   3.964  11.892 -0.6070 -0.3024 -0.4711
  829MPD2    C512193   1.543   4.001  11.775 -0.8850  0.7933  0.3944
  829MPD2     H12194   1.164   3.993  11.796 -0.0187 -0.9696 -0.0247
  829MPD2    H112195   1.548   3.951  11.979 -0.5513  0.4236 -0.4082
  829MPD2    H212196   1.517   4.053  11.573  1.0790  0.3901  0.8824
  829MPD2    H312197   1.650   4.013  11.766 -0.9401 -0.0827 -1.3693
  829MPD2     N12198   1.295   3.942  12.026  0.2013 -0.5947 -0.5773
  829MPD2    H512199   1.348   3.897  12.100 -0.2605 -1.3711 -0.7127
  829MPD2    N112200   1.259   4.078  11.555 -0.2558 -0.1753 -0.1996
  829MPD2    H712201   1.319   4.098  11.475  2.1578 -1.8512  1.2065
  830MPD2     C12202   1.103   1.929  15.443  0.8075  0.5227  0.5734
  830MPD2    C112203   1.173   2.005  15.534  0.1594  0.3340 -0.1126
  830MPD2    C212204   1.242   2.116  15.496 -0.1980 -0.0835 -0.2236
  830MPD2    C312205   1.245   2.160  15.362 -0.3206  0.0187 -0.1723
  830MPD2    C412206   1.166   2.081  15.272  0.5949 -0.2162  0.2160
  830MPD2    C512207   1.099   1.969  15.312 -0.5342 -0.1418  0.5952
  830MPD2     H12208   1.292   2.176  15.571 -0.5453 -1.1743  0.8746
  830MPD2    H112209   1.162   2.110  15.168  2.5351  0.0614  0.2092
  830MPD2    H212210   1.036   1.847  15.468  0.7034  0.5776  0.4730
  830MPD2    H312211   1.047   1.906  15.240  0.6414 -0.5610  0.1050
  830MPD2     N12212   1.288   2.290  15.321 -0.2438 -0.0730  0.3307
  830MPD2    H512213   1.271   2.318  15.225  1.0677  0.6599  0.3137
  830MPD2    N112214   1.167   1.961  15.671  0.2007  0.1674  0.0069
  830MPD2    H712215   1.116   1.876  15.692  1.4724 -0.5303  0.2570
  831MPD2     C12216   1.146   3.987  16.439  0.2282  1.0783 -0.2905
  831MPD2    C112217   1.174   3.902  16.338  0.0385 -0.4273 -0.2858
  831MPD2    C212218   1.128   3.771  16.340  0.6171 -0.2102 -0.0306
  831MPD2    C312219   1.080   3.727  16.463  0.2355 -0.5601  0.1027
  831MPD2    C412220   1.059   3.817  16.570 -0.1594  0.6541 -0.6469
  831MPD2    C512221   1.090   3.948  16.558 -0.3302  0.3297  0.2146
  831MPD2     H12222   1.136   3.699  16.260 -2.1896 -0.7139  0.1470
  831MPD2    H112223   1.015   3.783  16.663  0.9150 -1.7660 -1.0244
  831MPD2    H212224   1.165   4.093  16.430 -0.3667  1.1507 -0.6867
  831MPD2    H312225   1.062   4.021  16.633 -1.2180 -1.8216  1.9819
  831MPD2     N12226   1.049   3.596  16.489  0.3339  0.0220  0.5695
  831MPD2    H512227   0.981   3.571  16.560  0.6575 -0.9985  0.5213
  831MPD2    N112228   1.255   3.945  16.230 -0.2857 -0.3941 -0.3719
  831MPD2    H712229   1.262   4.043  16.205 -0.0456 -0.9092 -2.2996
  832MPD2     C12230   4.436   0.103  17.510  0.1494 -0.6798 -0.0892
  832MPD2    C112231   4.494   0.201  17.434 -0.3910 -0.0500  0.7620
  832MPD2    C212232   4.453   0.222  17.302 -0.1422  0.2797 -0.6857
  832MPD2    C312233   4.345   0.144  17.245 -0.2332  0.0788 -0.5558
  832MPD2    C412234   4.290   0.040  17.322  0.0847  0.2561 -0.2427
  832MPD2    C512235   4.343   0.023  17.449  0.4325 -0.4580  0.7690
  832MPD2     H12236   4.493   0.305  17.245  0.9847 -0.3386 -0.8086
  832MPD2    H112237   4.226   4.687  17.281  0.5144 -1.7486  2.8433
  832MPD2    H212238   4.468   0.092  17.613 -0.5922  0.4636  0.2662
  832MPD2    H312239   4.289   4.676  17.511  0.9815 -0.6010  1.0905
  832MPD2     N12240   4.295   0.168  17.119 -0.0287 -0.4487  0.1001
  832MPD2    H512241   4.225   0.101  17.089  1.3536 -2.4692  1.4442
  832MPD2    N112242   4.595   0.276  17.492 -0.3938 -0.4307  0.4264
  832MPD2    H712243   4.604   0.264  17.592  1.1742 -1.4991  0.1628
  833MPD2     C12244   1.451   1.577  12.848 -0.0994  0.0297  0.1199
  833MPD2    C112245   1.527   1.684  12.793 -0.2946 -0.3645  0.1043
  833MPD2    C212246   1.656   1.661  12.753 -0.1307  0.0708 -0.0843
  833MPD2    C312247   1.699   1.533  12.751 -0.2324  0.0730  0.1786
  833MPD2    C412248   1.620   1.426  12.802 -0.2597 -0.3460  0.6397
  833MPD2    C512249   1.495   1.448  12.849  0.2393  0.6992  0.1425
  833MPD2     H12250   1.720   1.741  12.717  0.9787 -1.5279 -1.6811
  833MPD2    H112251   1.657   1.324  12.799  1.9163  0.4893 -0.8761
  833MPD2    H212252   1.351   1.592  12.889  0.7547  2.3115  1.3773
  833MPD2    H312253   1.444   1.364  12.897  1.3330  0.5652  1.0803
  833MPD2     N12254   1.821   1.495  12.697  0.1324  0.2985 -0.5719
  833MPD2    H512255   1.834   1.394  12.687 -0.9185 -0.0224  1.3072
  833MPD2    N112256   1.472   1.813  12.806  0.0352  0.2264 -0.2876
  833MPD2    H712257   1.378   1.829  12.842  0.3771 -0.7901  1.0497
  834MPD2     C12258   1.645   0.810  12.200 -0.2500  0.6168 -0.7123
  834MPD2    C112259   1.722   0.858  12.093  0.1323 -0.6292  0.0460
  834MPD2    C212260   1.782   0.984  12.114  0.4846  1.3171 -0.2415
  834MPD2    C312261   1.768   1.052  12.235 -0.9239 -0.2800  0.0182
  834MPD2    C412262   1.674   1.007  12.324  0.3641  0.0268  0.3344
  834MPD2    C512263   1.621   0.883  12.307  0.1296  0.7381  0.0207
  834MPD2     H12264   1.843   1.033  12.040  0.0612  0.6213 -1.0556
  834MPD2    H112265   1.638   1.047  12.418 -1.8086 -1.0285 -0.0299
  834MPD2    H212266   1.595   0.714  12.198 -2.0246  1.5387 -0.6370
  834MPD2    H312267   1.556   0.841  12.382  2.7956  1.3046  2.6782
  834MPD2     N12268   1.849   1.159  12.264 -0.1520 -0.0288  0.0897
  834MPD2    H512269   1.899   1.194  12.183  3.2861 -0.2663  2.0712
  834MPD2    N112270   1.749   0.779  11.977  0.2083 -0.2756 -0.5582
  834MPD2    H712271   1.737   0.678  11.977  0.9166 -0.3629  0.2021
  835MPD2     C12272   2.662   3.894  10.873 -0.4109  0.6962  0.1109
  835MPD2    C112273   2.533   3.849  10.883 -0.1228  0.6057  0.0446
  835MPD2    C212274   2.455   3.851  11.001  0.3552  0.3172 -0.1533
  835MPD2    C312275   2.524   3.913  11.110  0.3550  0.1955  0.8008
  835MPD2    C412276   2.646   3.966  11.097 -0.0424  0.2252 -0.1103
  835MPD2    C512277   2.721   3.956  10.983  0.4601 -0.7660 -0.0265
  835MPD2     H12278   2.354   3.814  11.016 -0.3344  2.4252  0.4844
  835MPD2    H112279   2.692   4.009  11.186 -2.0206  0.3449  0.8587
  835MPD2    H212280   2.725   3.893  10.785 -1.3050  3.5450 -0.5711
  835MPD2    H312281   2.821   3.991  10.959 -0.2323  1.1730 -0.0966
  835MPD2     N12282   2.468   3.952  11.236  0.0317 -0.1237  0.5542
  835MPD2    H512283   2.529   3.998  11.303  0.6240 -1.0523  0.6508
  835MPD2    N112284   2.463   3.782  10.778 -0.3093 -0.2366 -0.4365
  835MPD2    H712285   2.372   3.746  10.804 -0.7208  0.3220 -1.0864
  836MPD2     C12286   1.879   4.393  11.319  0.2837  0.2080 -0.8101
  836MPD2    C112287   1.895   4.308  11.428 -0.3737 -0.2771 -0.8978
  836MPD2    C212288   1.799   4.315  11.526 -0.4298 -0.6984 -0.3846
  836MPD2    C312289   1.689   4.398  11.512  0.0221 -0.7180  0.1044
  836MPD2    C412290   1.668   4.463  11.392  0.6113  0.3816 -0.5575
  836MPD2    C512291   1.764   4.460  11.291  0.4099 -0.4667 -0.6594
  836MPD2     H12292   1.825   4.280  11.626  0.5203  1.1980  0.0217
  836MPD2    H112293   1.590   4.538  11.388  0.3963  0.2012  0.4285
  836MPD2    H212294   1.954   4.390  11.240  1.2351 -1.6035  0.1645
  836MPD2    H312295   1.746   4.530  11.211 -0.3603  2.1728  1.8041
  836MPD2     N12296   1.590   4.411  11.619  0.2616  0.3380  0.5013
  836MPD2    H512297   1.506   4.465  11.603  0.3943  1.0324  2.1948
  836MPD2    N112298   2.015   4.234  11.441  0.4124 -0.2266 -0.4135
  836MPD2    H712299   2.074   4.228  11.358 -2.9853  3.0047 -3.0055
  837MPD2     C12300   0.146   4.236  10.133  0.2355 -1.0616 -0.5280
  837MPD2    C112301   0.111   4.255   9.999  0.0921 -0.2119  0.3377
  837MPD2    C212302   0.148   4.375   9.944  0.0002 -0.3495  0.1470
  837MPD2    C312303   0.203   4.478  10.028  0.3324 -0.4193 -0.3304
  837MPD2    C412304   0.234   4.456  10.163 -0.1018 -0.2284 -0.2616
  837MPD2    C512305   0.197   4.333  10.212  0.3235  0.2846  0.0793
  837MPD2     H12306   0.118   4.384   9.841 -1.3223 -0.8229  0.4785
  837MPD2    H112307   0.249   4.543  10.226  0.1431 -0.9584  0.6942
  837MPD2    H212308   0.120   4.145  10.186 -0.4028  0.2728  1.4669
  837MPD2    H312309   0.210   4.316  10.318  3.4064 -0.2647 -0.3737
  837MPD2     N12310   0.214   4.604   9.959  0.2975 -0.4061 -0.2091
  837MPD2    H512311   0.208   4.598   9.858  0.2592  0.6488 -0.2666
  837MPD2    N112312   0.033   4.167   9.917  0.1879 -0.1203  0.0650
  837MPD2    H712313   0.025   4.197   9.821  0.7903  1.1605  0.4083
  838MPD2     C12314   2.946   1.586  11.245  0.1759  0.2133 -0.6818
  838MPD2    C112315   2.886   1.663  11.345 -0.0700  0.1011  0.3436
  838MPD2    C212316   2.753   1.634  11.366 -0.1651 -0.6696 -0.0608
  838MPD2    C312317   2.685   1.536  11.298  0.4729  0.1937 -0.0538
  838MPD2    C412318   2.745   1.463  11.199  0.9343 -0.4613 -0.1431
  838MPD2    C512319   2.876   1.492  11.174 -0.3108 -0.1386 -0.4779
  838MPD2     H12320   2.691   1.690  11.435  0.8065 -1.7367  1.6789
  838MPD2    H112321   2.700   1.379  11.147 -0.7717  0.4058 -0.0958
  838MPD2    H212322   3.046   1.609  11.208  0.8560 -1.6607 -0.0220
  838MPD2    H312323   2.926   1.434  11.098  2.1115 -1.3171  2.0037
  838MPD2     N12324   2.554   1.510  11.353  0.1466  0.6129 -0.2405
  838MPD2    H512325   2.527   1.564  11.434 -0.8103  0.9113 -0.7576
  838MPD2    N112326   2.964   1.753  11.425 -0.1309  0.2647  0.6349
  838MPD2    H712327   3.056   1.768  11.387  0.4136 -0.2826  1.7340
  839MPD2     C12328   3.073   1.356  12.197 -0.2236  0.6329 -0.6835
  839MPD2    C112329   3.063   1.340  12.063  0.1460  0.8518 -0.4526
  839MPD2    C212330   3.083   1.449  11.987  0.2726 -0.1571 -0.4730
  839MPD2    C312331   3.122   1.566  12.038  0.1462  0.1042  0.3126
  839MPD2    C412332   3.131   1.576  12.178 -0.0099  0.1908 -0.3191
  839MPD2    C512333   3.099   1.473  12.259  0.2676  0.0599  0.2350
  839MPD2     H12334   3.064   1.446  11.881 -1.5248 -0.7888 -0.1237
  839MPD2    H112335   3.155   1.665  12.234  0.8073  0.2449 -0.7505
  839MPD2    H212336   3.059   1.278  12.271 -1.0043  2.0359  0.6361
  839MPD2    H312337   3.109   1.478  12.367  2.6079 -1.8978  0.1041
  839MPD2     N12338   3.147   1.685  11.973  0.0269  0.3492 -0.3081
  839MPD2    H512339   3.162   1.768  12.029  1.0346  0.2145 -0.3839
  839MPD2    N112340   3.011   1.224  11.999  0.7909 -0.1849  0.5200
  839MPD2    H712341   3.023   1.219  11.898 -3.5126  2.5349 -0.1553
  840MPD2     C12342   3.877   4.402  10.347  0.1307  0.3145 -0.0167
  840MPD2    C112343   3.820   4.381  10.466 -0.8288  0.5586 -0.7051
  840MPD2    C212344   3.838   4.472  10.571 -0.7755  0.2685 -0.8410
  840MPD2    C312345   3.906   4.589  10.558  0.2974 -0.1499  0.0886
  840MPD2    C412346   3.959   4.612  10.435  0.0296 -0.1191 -0.3602
  840MPD2    C512347   3.943   4.517  10.336  0.1196  0.6241 -0.4207
  840MPD2     H12348   3.792   4.453  10.667 -0.0801 -0.4301 -0.6485
  840MPD2    H112349   4.017   4.702  10.421  0.0393  0.2656  2.2816
  840MPD2    H212350   3.874   4.347  10.254 -0.3210  2.8050 -1.4852
  840MPD2    H312351   3.996   4.538  10.244  1.6116  1.6182  0.6415
  840MPD2     N12352   3.923   4.695  10.652  0.3192 -0.4391 -0.1518
  840MPD2    H512353   3.999   0.032  10.626 -0.2606  0.1174 -0.5180
  840MPD2    N112354   3.740   4.268  10.473  0.2144  0.1204  0.2209
  840MPD2    H712355   3.734   4.211  10.389  1.0470 -1.7017  1.4108
  841MPD2     C12356   3.034   4.054  14.842 -0.2915  0.3820 -0.2144
  841MPD2    C112357   3.105   3.979  14.748  0.2199 -1.1198 -0.2103
  841MPD2    C212358   3.202   4.043  14.674 -0.2372 -0.3581 -0.6457
  841MPD2    C312359   3.241   4.177  14.697  0.8370  0.1281 -0.5590
  841MPD2    C412360   3.182   4.237  14.799 -0.4802  0.5414 -0.4488
  841MPD2    C512361   3.077   4.184  14.861  0.0296 -0.1333 -0.2496
  841MPD2     H12362   3.252   3.983  14.599 -0.4415 -1.2223 -0.0857
  841MPD2    H112363   3.207   4.338  14.830 -4.7053  0.6374  2.6450
  841MPD2    H212364   2.948   4.012  14.892 -0.6152  1.2678 -0.0356
  841MPD2    H312365   3.032   4.239  14.942 -1.3805 -0.5923 -0.7322
  841MPD2     N12366   3.339   4.229  14.612  0.9590  0.4234  0.7675
  841MPD2    H512367   3.362   4.173  14.530 -2.6723 -1.2214  0.8849
  841MPD2    N112368   3.094   3.840  14.736  0.2937  0.5511  0.5255
  841MPD2    H712369   3.158   3.791  14.674 -0.9416 -2.6920  1.8021
  842MPD2     C12370   3.692   0.498  17.359 -0.1227  0.3765 -0.1708
  842MPD2    C112371   3.604   0.403  17.321  0.0062  0.1931  0.1915
  842MPD2    C212372   3.542   0.318  17.418 -0.9821  0.5752 -0.1196
  842MPD2    C312373   3.580   0.323  17.552  0.1034 -0.0724  0.4827
  842MPD2    C412374   3.673   0.421  17.592  0.3938 -0.0264  0.3621
  842MPD2    C512375   3.729   0.502  17.494  0.7227 -0.1736  0.4333
  842MPD2     H12376   3.469   0.244  17.389  0.1459 -0.9744  1.0034
  842MPD2    H112377   3.714   0.421  17.692  0.2241  0.7439  0.4367
  842MPD2    H212378   3.745   0.561  17.289  1.4556 -1.9509 -1.0666
  842MPD2    H312379   3.806   0.573  17.522  3.7174 -2.7311 -1.2910
  842MPD2     N12380   3.524   0.250  17.658  0.4426  0.1675 -0.0367
  842MPD2    H512381   3.536   0.281   0.056  0.2996 -1.7464  0.6051
  842MPD2    N112382   3.571   0.402  17.187 -0.0087 -0.1132 -0.1011
  842MPD2    H712383   3.613   0.480  17.137 -1.6226  0.9560  0.2487
  843MPD2     C12384   0.871   0.175   0.538 -0.2916 -0.5889 -0.2657
  843MPD2    C112385   0.957   0.192   0.644 -0.8147  0.0762  0.2725
  843MPD2    C212386   1.068   0.271   0.628  0.0073 -0.4857 -0.7513
  843MPD2    C312387   1.090   0.341   0.509 -0.3802  0.4035  0.0592
  843MPD2    C412388   1.001   0.322   0.405  0.7114  0.0795 -0.0966
  843MPD2    C512389   0.888   0.250   0.421  0.2947 -0.0704 -0.0080
  843MPD2     H12390   1.143   0.276   0.706  0.0903 -2.6694 -0.6946
  843MPD2    H112391   1.016   0.370   0.309  1.6817 -0.7116 -0.3490
  843MPD2    H212392   0.779   0.118   0.541 -1.5580  1.3017 -3.3836
  843MPD2    H312393   0.820   0.241   0.337 -2.1259 -3.1252  2.2863
  843MPD2     N12394   1.200   0.421   0.488  0.5981 -0.0604 -0.3558
  843MPD2    H512395   1.195   0.452   0.392 -1.0310  1.8546  0.3353
  843MPD2    N112396   0.934   0.127   0.769  0.0723 -1.1157  0.3957
  843MPD2    H712397   0.848   0.074   0.779 -0.2596 -0.8227 -0.8553
  844MPD2     C12398   4.338   4.465  16.985 -0.1709 -0.0574  0.3736
  844MPD2    C112399   4.403   4.510  17.096  0.0325 -0.0716 -0.2665
  844MPD2    C212400   4.507   4.597  17.093  0.3478 -0.7491  0.7397
  844MPD2    C312401   4.540   4.660  16.972  0.5366 -0.4598 -0.3927
  844MPD2    C412402   4.479   4.613  16.860  0.0689  0.1130  1.6398
  844MPD2    C512403   4.382   4.518  16.865  0.3177  0.8923 -0.3019
  844MPD2     H12404   4.556   4.621  17.187 -1.2969  0.3524  1.3339
  844MPD2    H112405   4.490   4.645  16.756 -1.7594 -2.0832  0.7661
  844MPD2    H212406   4.272   4.379  16.980  1.2018 -1.0782 -0.2379
  844MPD2    H312407   4.331   4.485  16.774 -0.0391 -1.2105  0.6567
  844MPD2     N12408   4.625   0.047  16.970  0.4719  0.7912  0.6451
  844MPD2    H512409   4.662   0.074  17.061 -0.4368  0.2587  1.1761
  844MPD2    N112410   4.364   4.445  17.217  0.0683  0.2306 -0.4228
  844MPD2    H712411   4.273   4.402  17.205  0.0087  0.7911 -1.9897
  845MPD2     C12412   0.109   1.056  16.794 -0.0689 -0.2422 -0.6857
  845MPD2    C112413   0.123   1.007  16.923  0.1072  0.0891 -0.2831
  845MPD2    C212414   0.109   0.873  16.936 -0.6665  0.5951 -0.2282
  845MPD2    C312415   0.079   0.789  16.837  0.2718 -0.6475  0.6419
  845MPD2    C412416   0.060   0.837  16.709 -0.0397 -0.1801  0.1279
  845MPD2    C512417   0.062   0.973  16.694 -0.2406  0.3644 -0.5297
  845MPD2     H12418   0.121   0.827  17.034 -1.1424  0.7386 -0.1018
  845MPD2    H112419   0.046   0.766  16.628 -1.7258 -1.1551  1.2959
  845MPD2    H212420   0.121   1.161  16.771 -0.0077  0.0346  0.6378
  845MPD2    H312421   0.035   1.018  16.599 -0.8101  0.1475 -0.4650
  845MPD2     N12422   0.081   0.654  16.876  0.5731  0.0991 -0.2570
  845MPD2    H512423   0.111   0.628  16.970  2.1826 -1.9943 -1.3372
  845MPD2    N112424   0.173   1.088  17.035  0.1438  0.3391 -0.1928
  845MPD2    H712425   0.209   1.181  17.020  1.5738 -0.4347 -1.5629
  846MPD2     C12426   1.016   1.162  13.678  0.4025 -1.0691 -0.4774
  846MPD2    C112427   0.907   1.228  13.726 -0.2804  0.4425  0.2191
  846MPD2    C212428   0.849   1.193  13.845 -0.4336 -0.6820  0.0430
  846MPD2    C312429   0.902   1.085  13.914 -0.4096 -0.2670  0.1769
  846MPD2    C412430   1.006   1.010  13.859 -0.1078  0.4589 -0.1653
  846MPD2    C512431   1.068   1.057  13.746  0.6804  0.1008 -0.1587
  846MPD2     H12432   0.760   1.243  13.880  0.4574  0.6215  0.4573
  846MPD2    H112433   1.061   0.936  13.917 -0.1007 -0.2720 -1.0969
  846MPD2    H212434   1.071   1.170  13.585  0.1552 -0.9752 -0.6151
  846MPD2    H312435   1.157   1.004  13.713  1.7334  0.2153  2.4639
  846MPD2     N12436   0.847   1.060  14.040  0.3019  0.3027  0.5647
  846MPD2    H512437   0.753   1.094  14.055 -0.2397 -1.4371  1.0489
  846MPD2    N112438   0.859   1.334  13.652 -1.1732  0.0655 -0.1989
  846MPD2    H712439   0.788   1.391  13.697  0.0645 -0.2901  2.2013
  847MPD2     C12440   1.622   2.024  14.365  0.1478 -0.1531  0.4356
  847MPD2    C112441   1.610   2.008  14.499  0.0174  0.4580 -0.3254
  847MPD2    C212442   1.589   1.883  14.551  0.3391 -0.2003 -0.1756
  847MPD2    C312443   1.581   1.773  14.472  0.4793  0.5197  0.1897
  847MPD2    C412444   1.575   1.792  14.339 -0.2554  0.3567 -0.1647
  847MPD2    C512445   1.609   1.910  14.285  0.7279  0.1095  0.1484
  847MPD2     H12446   1.583   1.869  14.659  1.8571  0.7182  0.0187
  847MPD2    H112447   1.555   1.702  14.283 -0.6329 -0.6603  1.6149
  847MPD2    H212448   1.639   2.119  14.317 -0.4896 -0.1869  0.1527
  847MPD2    H312449   1.614   1.915  14.177 -0.1826 -2.1358  0.0031
  847MPD2     N12450   1.564   1.652  14.538  0.4252  0.2755 -0.5724
  847MPD2    H512451   1.575   1.651  14.639 -0.8447  0.6618 -0.4346
  847MPD2    N112452   1.614   2.117  14.596 -0.1458 -0.7093  0.5695
  847MPD2    H712453   1.612   2.099  14.696  1.2541 -1.6364  0.4275
  848MPD2     C12454   4.191   0.642  16.448  0.3327  0.9990 -0.5565
  848MPD2    C112455   4.159   0.650  16.578  0.7390  0.0553 -0.5814
  848MPD2    C212456   4.135   0.771  16.639 -0.1967 -0.2727 -0.5674
  848MPD2    C312457   4.151   0.884  16.560  0.3552  0.0674 -0.3877
  848MPD2    C412458   4.178   0.876  16.428  0.7584 -0.8126  0.1021
  848MPD2    C512459   4.202   0.755  16.375 -0.3962 -0.7247 -0.3217
  848MPD2     H12460   4.104   0.776  16.743 -1.3354  3.7100 -1.1226
  848MPD2    H112461   4.188   0.965  16.368 -2.3712  0.9918  2.2776
  848MPD2    H212462   4.216   0.551  16.394  1.6919 -0.3717  2.3656
  848MPD2    H312463   4.215   0.748  16.268  1.8858 -0.9843 -0.0356
  848MPD2     N12464   4.122   1.013  16.600 -1.0712 -1.1625 -0.0560
  848MPD2    H512465   4.092   1.085  16.535  2.5049 -0.6347 -1.1714
  848MPD2    N112466   4.141   0.534  16.655  0.2365 -0.3535  0.2690
  848MPD2    H712467   4.142   0.544  16.756  2.7712 -0.5673  0.2742
  849MPD2     C12468   3.098   0.233  14.619  0.1308  0.5033 -0.4624
  849MPD2    C112469   3.173   0.157  14.530 -0.3608 -0.2507  0.0373
  849MPD2    C212470   3.309   0.139  14.552 -0.4601 -0.2319  0.1819
  849MPD2    C312471   3.372   0.189  14.670  0.3393  0.7610 -0.1686
  849MPD2    C412472   3.289   0.260  14.760  0.2201 -0.2278  0.5827
  849MPD2    C512473   3.157   0.291  14.732  0.4960  0.0467 -0.4322
  849MPD2     H12474   3.363   0.071  14.487 -0.9793  2.0815 -2.6509
  849MPD2    H112475   3.327   0.309  14.849 -0.0199  1.2926 -0.1621
  849MPD2    H212476   2.994   0.254  14.596  0.5012  0.7986 -1.8479
  849MPD2    H312477   3.089   0.336  14.803  0.5700 -3.1586  1.6569
  849MPD2     N12478   3.507   0.169  14.704 -0.8139  0.2130 -0.4591
  849MPD2    H512479   3.549   0.217  14.783  1.7441  1.1195 -2.3620
  849MPD2    N112480   3.112   0.094  14.417  0.7505  0.6462  0.5138
  849MPD2    H712481   3.170   0.050  14.347  0.7244 -0.1492  0.9873
  850MPD2     C12482   0.988   3.313  14.632  0.2786 -0.1888 -0.2354
  850MPD2    C112483   1.017   3.425  14.704 -0.4155 -0.4486  0.0081
  850MPD2    C212484   1.146   3.447  14.758  0.2930 -0.0811 -0.0543
  850MPD2    C312485   1.234   3.341  14.749 -0.0439 -0.0327  0.8572
  850MPD2    C412486   1.202   3.231  14.672  0.1587 -0.0847 -0.1822
  850MPD2    C512487   1.083   3.216  14.609  0.0814 -0.3165 -0.4891
  850MPD2     H12488   1.159   3.542  14.807 -0.0471 -0.2380  0.3451
  850MPD2    H112489   1.278   3.154  14.660  0.3259  0.4079 -2.4258
  850MPD2    H212490   0.888   3.307  14.592 -0.3617 -1.5756  1.5811
  850MPD2    H312491   1.081   3.131  14.541 -0.2421  0.2836 -1.2282
  850MPD2     N12492   1.356   3.340  14.820  0.4210  0.9203  0.1963
  850MPD2    H512493   1.422   3.264  14.808 -0.0471  0.1457  2.5575
  850MPD2    N112494   0.903   3.502  14.734 -0.5021  0.0002  0.0336
  850MPD2    H712495   0.836   3.496  14.658  2.0628 -2.1088 -2.0785
  851MPD2     C12496   1.455   3.328  15.388  0.3506 -0.7312  0.0018
  851MPD2    C112497   1.350   3.284  15.314  0.1044  0.3960 -0.6714
  851MPD2    C212498   1.343   3.142  15.297  0.9358 -0.1022 -0.2320
  851MPD2    C312499   1.433   3.054  15.350 -0.2525 -0.7375 -0.8708
  851MPD2    C412500   1.544   3.101  15.413 -0.3397 -0.1013  0.1470
  851MPD2    C512501   1.551   3.238  15.433 -0.1111  0.1775  0.5646
  851MPD2     H12502   1.258   3.105  15.241 -0.1532  1.6173  0.2975
  851MPD2    H112503   1.626   3.041  15.451 -1.1190 -0.4965  1.1944
  851MPD2    H212504   1.476   3.433  15.398  0.7784 -0.9767  1.7727
  851MPD2    H312505   1.625   3.279  15.501 -0.8340  1.4788  0.5762
  851MPD2     N12506   1.421   2.919  15.319  0.1279  0.0290  0.5755
  851MPD2    H512507   1.346   2.891  15.257 -0.0620  1.5316  0.1215
  851MPD2    N112508   1.261   3.385  15.265  0.3120  0.0982  0.3280
  851MPD2    H712509   1.283   3.478  15.299 -0.5256  0.7581 -0.9608
  852MPD2     C12510   3.346   2.036   8.305  0.0155 -0.0877  0.6316
  852MPD2    C112511   3.404   2.125   8.392  0.7064  0.1035  0.3836
  852MPD2    C212512   3.389   2.105   8.524 -0.4820  0.8580  0.6320
  852MPD2    C312513   3.326   1.992   8.577 -0.1476  0.5537 -0.1068
  852MPD2    C412514   3.267   1.902   8.488 -0.0254  0.3825 -0.3453
  852MPD2    C512515   3.288   1.926   8.354 -0.3650 -0.1143 -0.9703
  852MPD2     H12516   3.430   2.174   8.596  0.7033 -0.3591  1.1210
  852MPD2    H112517   3.218   1.811   8.520  1.2333 -0.1266  0.1478
  852MPD2    H212518   3.351   2.038   8.197 -0.2922  0.5169  0.6283
  852MPD2    H312519   3.256   1.850   8.283  0.6741 -1.2794 -0.1937
  852MPD2     N12520   3.311   1.988   8.716 -0.6087  0.1948 -0.8392
  852MPD2    H512521   3.331   2.073   8.768 -2.7437  0.8400 -1.0981
  852MPD2    N112522   3.487   2.236   8.360  0.7656  0.2049 -0.9544
  852MPD2    H712523   3.506   2.302   8.434  0.3979 -2.0956  1.1907
  853MPD2     C12524   2.190   0.304  12.705 -0.0463 -0.8155 -0.1830
  853MPD2    C112525   2.307   0.377  12.691 -0.3314  0.5943  0.4193
  853MPD2    C212526   2.372   0.379  12.567 -0.4549 -0.1476  0.0375
  853MPD2    C312527   2.309   0.310  12.460  0.0237 -0.1001 -0.1983
  853MPD2    C412528   2.190   0.243  12.478  0.0976 -0.0922 -1.0369
  853MPD2    C512529   2.133   0.243  12.601 -0.0896 -0.1757  0.1779
  853MPD2     H12530   2.453   0.446  12.541 -0.2223 -0.8461 -1.0196
  853MPD2    H112531   2.143   0.205  12.388 -1.1130  0.3914 -0.6173
  853MPD2    H212532   2.140   0.292  12.801  0.7401  1.7168  0.5685
  853MPD2    H312533   2.033   0.203  12.612 -0.0096 -0.9945 -2.2052
  853MPD2     N12534   2.365   0.316  12.330 -0.5008 -0.2749  0.3381
  853MPD2    H512535   2.319   0.272  12.252 -1.9700  2.5823 -0.4142
  853MPD2    N112536   2.353   0.457  12.798 -0.1405 -0.8225 -0.6664
  853MPD2    H712537   2.300   0.453  12.884 -1.5402  1.4049 -1.4340
  854MPD2     C12538   4.518   0.847  12.989 -0.0951  0.7474 -0.0514
  854MPD2    C112539   4.635   0.921  12.972 -0.1922  1.0910  0.1824
  854MPD2    C212540   0.023   0.874  13.044  0.2740  0.0718 -0.5067
  854MPD2    C312541   0.023   0.761  13.117 -1.0565  0.7707  0.5746
  854MPD2    C412542   4.632   0.690  13.135 -0.1932 -0.1734 -0.2358
  854MPD2    C512543   4.521   0.731  13.072  0.2892  0.4802  0.6480
  854MPD2     H12544   0.118   0.926  13.035 -0.5842  1.2716 -2.7277
  854MPD2    H112545   4.627   0.603  13.199  2.9382 -0.1825  0.0043
  854MPD2    H212546   4.426   0.868  12.937 -0.8630 -1.2670  0.4879
  854MPD2    H312547   4.431   0.671  13.076 -0.6624  2.0309  2.2574
  854MPD2     N12548   0.134   0.718  13.197 -0.7492  0.4720 -0.3306
  854MPD2    H512549   0.131   0.636  13.256 -1.1209 -0.7196 -1.9952
  854MPD2    N112550   4.633   1.034  12.890 -0.5930  0.5818 -0.3271
  854MPD2    H712551   4.542   1.044  12.848 -1.7853  2.2018  2.6379
  855MPD2     C12552   0.177   0.845  13.931 -0.5278  0.0751  0.0194
  855MPD2    C112553   0.244   0.725  13.918  0.3046 -0.4048 -0.4382
  855MPD2    C212554   0.334   0.708  13.810 -0.6160 -0.2884  0.6988
  855MPD2    C312555   0.358   0.807  13.716  0.5088  0.1933  0.0928
  855MPD2    C412556   0.295   0.923  13.736  0.0307 -0.0635 -0.2431
  855MPD2    C512557   0.203   0.940  13.830  0.7147 -0.5652 -0.0630
  855MPD2     H12558   0.392   0.618  13.802 -0.4527 -0.1804  0.6760
  855MPD2    H112559   0.314   0.995  13.657 -0.7268 -0.0333 -0.3943
  855MPD2    H212560   0.115   0.877  14.013 -2.4543 -1.5561 -0.8249
  855MPD2    H312561   0.159   1.038  13.844 -2.4252 -2.2435  1.7134
  855MPD2     N12562   0.444   0.798  13.608 -0.2397  0.0097 -0.6940
  855MPD2    H512563   0.437   0.878  13.545 -1.9026 -0.3917 -1.0118
  855MPD2    N112564   0.227   0.615  14.003  0.1232  0.5998  0.3239
  855MPD2    H712565   0.299   0.544  13.996  1.9574  2.5509 -0.8247
  856MPD2     C12566   1.775   1.332  13.559 -0.2232 -0.1162  0.4201
  856MPD2    C112567   1.870   1.434  13.557  0.5831 -0.4959 -0.1605
  856MPD2    C212568   1.842   1.545  13.629 -0.4756 -0.2042  0.3269
  856MPD2    C312569   1.744   1.553  13.723  0.0362  0.3945  0.4688
  856MPD2    C412570   1.660   1.442  13.733  0.0050 -0.0855  1.2380
  856MPD2    C512571   1.676   1.332  13.648 -0.3144 -0.6223 -0.2422
  856MPD2     H12572   1.919   1.621  13.613 -0.6563 -0.3110 -1.0761
  856MPD2    H112573   1.586   1.443  13.812 -0.3809 -1.7576  0.8896
  856MPD2    H212574   1.774   1.245  13.495 -1.7705  0.4981 -0.3910
  856MPD2    H312575   1.599   1.259  13.663 -0.0793 -0.6901  0.6634
  856MPD2     N12576   1.739   1.672  13.803  0.1128 -0.0760 -1.0477
  856MPD2    H512577   1.653   1.675  13.857 -0.6004 -1.6713 -2.0619
  856MPD2    N112578   1.974   1.440  13.462  0.5887 -0.0265 -0.1488
  856MPD2    H712579   2.031   1.524  13.464  0.6004 -0.0278 -0.3942
  857MPD2     C12580   3.695   3.652  12.382 -0.5518  0.1995  0.0309
  857MPD2    C112581   3.710   3.584  12.498  0.2615  0.2870 -0.3434
  857MPD2    C212582   3.721   3.662  12.616  0.7241  0.4639  0.2778
  857MPD2    C312583   3.737   3.793  12.613 -0.1510 -0.6001  0.0456
  857MPD2    C412584   3.730   3.862  12.491 -0.1142 -0.4097  0.2151
  857MPD2    C512585   3.704   3.791  12.377  0.4261 -0.1901  0.2459
  857MPD2     H12586   3.719   3.622  12.717 -1.0935 -3.1446 -1.1938
  857MPD2    H112587   3.729   3.970  12.479  1.2658 -0.4250 -0.0673
  857MPD2    H212588   3.673   3.597  12.291  0.4948  2.7563 -1.7754
  857MPD2    H312589   3.711   3.832  12.277  0.3049  1.0589  0.7546
  857MPD2     N12590   3.750   3.863  12.734  0.5480  0.5704  0.1395
  857MPD2    H512591   3.791   3.814  12.813 -0.1690 -2.9621 -1.6731
  857MPD2    N112592   3.711   3.441  12.487  0.2871  0.3722  0.1657
  857MPD2    H712593   3.708   3.403  12.393 -0.8103  0.0634  0.3206
  858MPD2     C12594   0.071   2.116  17.162 -0.2182  0.0712  0.0435
  858MPD2    C112595   4.678   2.166  17.104 -0.3648  0.1258  0.1561
  858MPD2    C212596   4.595   2.247  17.184 -0.1887  0.4410  0.7210
  858MPD2    C312597   4.622   2.278  17.319 -0.4333 -0.2351 -0.6297
  858MPD2    C412598   0.016   2.224  17.371  0.1172  0.6481 -0.1233
  858MPD2    C512599   0.098   2.142  17.293 -0.5119  0.5870 -0.5580
  858MPD2     H12600   4.503   2.286  17.142  1.2251  1.8156 -1.1152
  858MPD2    H112601   0.050   2.234  17.474 -1.8342  2.2735  0.3583
  858MPD2    H212602   0.136   2.047  17.110 -1.6543 -1.6924  0.5993
  858MPD2    H312603   0.179   2.089  17.341 -1.7208 -0.4035  0.3934
  858MPD2     N12604   4.531   2.357  17.406  0.0341 -0.3471  0.0154
  858MPD2    H512605   4.543   2.368  17.506  1.3961 -0.3418 -0.1532
  858MPD2    N112606   4.658   2.119  16.970 -0.5832  0.1639 -0.1758
  858MPD2    H712607   0.002   2.055  16.931  1.2672  1.9701  0.1177
  859MPD2     C12608   3.352   4.316  15.817  0.2971  0.0195 -0.0651
  859MPD2    C112609   3.329   4.324  15.685 -0.1234  0.4973  0.7128
  859MPD2    C212610   3.338   4.198  15.624  0.3629  0.4693  0.4929
  859MPD2    C312611   3.357   4.076  15.689  0.0801  0.7109  0.6329
  859MPD2    C412612   3.388   4.079  15.819  0.3906 -0.2093  0.7667
  859MPD2    C512613   3.384   4.201  15.881  0.5206 -0.7272  0.1317
  859MPD2     H12614   3.334   4.194  15.516  1.0020  2.3402  0.4140
  859MPD2    H112615   3.411   3.993  15.881 -1.6761  0.2503  2.1732
  859MPD2    H212616   3.347   4.411  15.869 -0.8053  0.8356 -1.6503
  859MPD2    H312617   3.386   4.209  15.989 -1.2227  1.6110 -0.0155
  859MPD2     N12618   3.362   3.950  15.627  0.0764  0.1099 -0.2915
  859MPD2    H512619   3.364   3.868  15.686 -1.6728 -1.3835 -2.3029
  859MPD2    N112620   3.308   4.449  15.619 -0.5643  0.3934 -0.2831
  859MPD2    H712621   3.289   4.531  15.675 -0.7027  0.2802 -0.1639
  860MPD2     C12622   0.462   4.527  11.789 -0.3894 -0.2154  0.3379
  860MPD2    C112623   0.511   4.643  11.833 -0.4454 -0.3833  0.3076
  860MPD2    C212624   0.457   4.700  11.945  0.0235  0.4882  0.5820
  860MPD2    C312625   0.353   4.636  12.009 -0.3611  0.3224 -1.0489
  860MPD2    C412626   0.314   4.511  11.975  0.0212  0.2948 -0.1707
  860MPD2    C512627   0.370   4.458  11.861  0.2457  0.2185  0.4952
  860MPD2     H12628   0.488   0.075  11.978  3.1705  0.3022 -1.8239
  860MPD2    H112629   0.228   4.464  12.021 -0.6749  0.5641 -1.2060
  860MPD2    H212630   0.501   4.467  11.707  0.6791 -1.6736  1.9246
  860MPD2    H312631   0.344   4.358  11.829 -1.0312  0.2131  1.5671
  860MPD2     N12632   0.293   4.706  12.125 -0.0835  0.9694  0.3172
  860MPD2    H512633   0.316   0.079  12.138  1.9496  0.7880 -1.8926
  860MPD2    N112634   0.626   4.702  11.786 -0.7414 -0.2425 -0.1453
  860MPD2    H712635   0.647   0.070  11.822  0.4043 -0.2309 -0.8190
  861MPD2     C12636   4.128   3.414  11.231  0.3501  0.6091 -0.5611
  861MPD2    C112637   4.182   3.543  11.224  0.5863  0.1563  0.3223
  861MPD2    C212638   4.127   3.633  11.127  0.2665  0.1220  0.3801
  861MPD2    C312639   4.016   3.594  11.056  0.6560  0.4372  0.3262
  861MPD2    C412640   3.965   3.466  11.058  0.4065  1.1571 -0.4214
  861MPD2    C512641   4.020   3.382  11.152  0.0891 -0.7120  0.1083
  861MPD2     H12642   4.173   3.731  11.118  2.6528 -0.9149  1.3566
  861MPD2    H112643   3.879   3.435  10.998  1.3502 -1.0026 -0.6764
  861MPD2    H212644   4.158   3.340  11.304 -0.4761  1.2273  0.4137
  861MPD2    H312645   3.992   3.277  11.154  2.5127 -1.3835 -1.4794
  861MPD2     N12646   3.936   3.689  10.984  0.1385  0.3906  1.1731
  861MPD2    H512647   3.866   3.667  10.914  1.8629 -0.8262 -0.1639
  861MPD2    N112648   4.282   3.590  11.313  0.3851 -0.3868 -0.1475
  861MPD2    H712649   4.312   3.684  11.291  0.5228 -0.7066 -1.3559
  862MPD2     C12650   4.101   3.819  10.358  0.5408 -0.3668 -0.3772
  862MPD2    C112651   4.134   3.790  10.491 -0.4262  0.0853  0.4340
  862MPD2    C212652   4.183   3.667  10.522 -0.3080  0.2446  0.5448
  862MPD2    C312653   4.199   3.567  10.427  0.2221 -0.7340  0.1099
  862MPD2    C412654   4.172   3.592  10.291  0.1388 -0.3947 -1.0620
  862MPD2    C512655   4.124   3.720  10.267  0.4297  0.0271  0.5819
  862MPD2     H12656   4.192   3.644  10.628  1.1307  3.1972  1.0483
  862MPD2    H112657   4.184   3.517  10.214 -0.5716 -1.0535 -0.5206
  862MPD2    H212658   4.039   3.903  10.332 -0.0630 -0.0743  1.9481
  862MPD2    H312659   4.111   3.741  10.161 -3.0247  1.4253  1.2765
  862MPD2     N12660   4.237   3.433  10.458 -0.1395 -0.2043 -0.0562
  862MPD2    H512661   4.250   3.372  10.378 -0.2916 -1.5107  0.9254
  862MPD2    N112662   4.115   3.880  10.599  0.2176  0.1100 -0.3413
  862MPD2    H712663   4.150   3.841  10.686  1.2511 -0.3186 -0.9493
  863MPD2     C12664   2.639   1.201  16.583 -0.1196  0.6890  0.7057
  863MPD2    C112665   2.717   1.311  16.609 -0.3935 -1.2420  0.5555
  863MPD2    C212666   2.786   1.318  16.723  0.3233 -0.1212 -0.5002
  863MPD2    C312667   2.786   1.217  16.822  0.1286  0.0768  0.1279
  863MPD2    C412668   2.721   1.101  16.783 -0.3885 -0.5748  0.0171
  863MPD2    C512669   2.648   1.097  16.664 -0.3951  0.4618  0.3929
  863MPD2     H12670   2.830   1.412  16.754  0.4254 -0.1661 -0.5097
  863MPD2    H112671   2.705   1.018  16.851 -1.6711 -0.2819  0.0776
  863MPD2    H212672   2.583   1.199  16.490  1.5476 -0.2960 -0.2771
  863MPD2    H312673   2.588   1.011  16.635  0.2872  1.3533 -3.5627
  863MPD2     N12674   2.857   1.220  16.949 -0.0864  0.0874  0.0106
  863MPD2    H512675   2.847   1.133  16.999 -0.2598  0.1459  0.0763
  863MPD2    N112676   2.704   1.416  16.518 -0.2067 -0.0916  0.7781
  863MPD2    H712677   2.659   1.401  16.428 -0.8818  0.2567  1.0654
  864MPD2     C12678   2.914   2.987  16.654 -0.0186 -0.1082 -0.8585
  864MPD2    C112679   2.992   2.909  16.732 -0.6706  1.4578 -0.0775
  864MPD2    C212680   3.099   2.978  16.789  0.1359 -0.3724  0.1336
  864MPD2    C312681   3.124   3.114  16.773  0.2135 -0.4505  0.5713
  864MPD2    C412682   3.033   3.179  16.698  0.2631 -0.1327 -0.0845
  864MPD2    C512683   2.932   3.116  16.635 -0.2018  0.1019  0.0393
  864MPD2     H12684   3.178   2.916  16.830  0.3156  0.2553  0.7426
  864MPD2    H112685   3.038   3.286  16.680  0.2286  0.2124  2.0639
  864MPD2    H212686   2.823   2.945  16.614  0.3522 -0.6574 -1.1272
  864MPD2    H312687   2.870   3.175  16.570  1.2820 -2.1832 -3.4732
  864MPD2     N12688   3.245   3.176  16.824  0.4500  0.0229 -0.7976
  864MPD2    H512689   3.263   3.275  16.814 -0.6383  0.0940 -2.0564
  864MPD2    N112690   2.976   2.764  16.729  0.0767 -0.1071 -0.2563
  864MPD2    H712691   2.908   2.734  16.660  0.5851 -1.0525 -0.3401
  865MPD2     C12692   3.433   3.495  16.140  0.1309 -0.0816  0.4754
  865MPD2    C112693   3.443   3.361  16.162 -0.0939 -0.4426  0.3786
  865MPD2    C212694   3.475   3.317  16.287 -0.0491 -0.2530 -0.0981
  865MPD2    C312695   3.485   3.406  16.397 -0.6962 -0.2066  0.2639
  865MPD2    C412696   3.458   3.541  16.375 -0.3390 -0.3804  0.6971
  865MPD2    C512697   3.444   3.586  16.247 -0.2784  0.4118 -0.4735
  865MPD2     H12698   3.494   3.211  16.303  1.8399  0.1967  0.6362
  865MPD2    H112699   3.458   3.616  16.453 -0.5906  2.7115 -2.3262
  865MPD2    H212700   3.402   3.534  16.044  0.5416  0.0816  0.4092
  865MPD2    H312701   3.414   3.689  16.231  0.8277  0.8766  0.4704
  865MPD2     N12702   3.524   3.362  16.528  0.4761  0.3586  0.2619
  865MPD2    H512703   3.517   3.435  16.598 -2.9161  1.5329 -1.3020
  865MPD2    N112704   3.412   3.274  16.059 -0.0086 -0.3993  0.0563
  865MPD2    H712705   3.411   3.307  15.963 -1.4203 -0.8561 -0.0840
  866MPD2     C12706   0.288   4.093  11.661 -0.3878  0.1995  0.7490
  866MPD2    C112707   0.269   4.086  11.524  0.3431 -0.1476  0.3240
  866MPD2    C212708   0.144   4.107  11.476 -0.4591 -0.3111  0.9040
  866MPD2    C312709   0.032   4.122  11.553 -0.7143 -0.4758 -0.3814
  866MPD2    C412710   0.044   4.137  11.683 -0.2766  0.3135 -0.1949
  866MPD2    C512711   0.177   4.128  11.735  0.6707 -0.6637 -0.1921
  866MPD2     H12712   0.131   4.125  11.370  0.6043 -1.3048  0.6104
  866MPD2    H112713   4.681   4.172  11.736 -0.0165  0.2575  0.2693
  866MPD2    H212714   0.380   4.080  11.716 -0.0433 -0.7063 -0.0294
  866MPD2    H312715   0.186   4.135  11.843  0.7670 -0.1753 -0.2310
  866MPD2     N12716   4.631   4.146  11.497 -0.0319  0.4236  0.1108
  866MPD2    H512717   4.552   4.159  11.559 -0.4127  0.8110 -0.4688
  866MPD2    N112718   0.378   4.044  11.446  0.1989 -0.4878 -0.4433
  866MPD2    H712719   0.468   4.035  11.491 -0.1124  0.9886  0.4585
  867MPD2     C12720   1.977   2.949  16.517  0.5732 -0.5165 -0.0483
  867MPD2    C112721   2.072   2.907  16.607 -0.7662  0.4294 -0.2318
  867MPD2    C212722   2.124   3.009  16.696 -0.2943  0.7174  0.5785
  867MPD2    C312723   2.084   3.138  16.683 -0.4987 -0.2293 -0.1835
  867MPD2    C412724   1.998   3.175  16.582  0.2781 -0.9660 -0.9159
  867MPD2    C512725   1.943   3.082  16.501 -0.2953  0.2118 -0.3041
  867MPD2     H12726   2.203   2.979  16.763 -0.2809 -0.7845 -0.1078
  867MPD2    H112727   1.952   3.273  16.581 -0.2386 -1.2027 -0.4595
  867MPD2    H212728   1.936   2.875  16.449  1.9988 -1.4853  0.1533
  867MPD2    H312729   1.865   3.116  16.433  0.9769 -0.6634 -2.1921
  867MPD2     N12730   2.148   3.236  16.758 -0.4147 -0.6079  0.7552
  867MPD2    H512731   2.122   3.332  16.737  0.1492 -0.0904  2.4033
  867MPD2    N112732   2.133   2.780  16.589 -0.5214  0.0430  0.1988
  867MPD2    H712733   2.090   2.721  16.520 -2.0348 -1.2176  2.2231
  868MPD2     C12734   4.174   2.106  13.272 -0.1392  0.4369 -0.7571
  868MPD2    C112735   4.210   1.977  13.275  0.4723 -0.2047 -0.1536
  868MPD2    C212736   4.104   1.890  13.295 -0.4002  0.9242  0.1331
  868MPD2    C312737   3.967   1.920  13.303  0.6497  0.3274 -0.0866
  868MPD2    C412738   3.938   2.056  13.287  0.4869 -0.2649  0.3232
  868MPD2    C512739   4.043   2.144  13.268  0.2467  0.1991 -0.3064
  868MPD2     H12740   4.130   1.785  13.303 -0.4391  0.8613 -0.5410
  868MPD2    H112741   3.839   2.098  13.273  1.1145  1.6545  1.6124
  868MPD2    H212742   4.250   2.183  13.268 -1.0690  1.3694 -0.6215
  868MPD2    H312743   4.003   2.244  13.259  1.4045  0.8170  1.5225
  868MPD2     N12744   3.880   1.818  13.336 -0.5755  0.4318 -0.0957
  868MPD2    H512745   3.918   1.727  13.361 -0.5387 -0.0694 -2.0154
  868MPD2    N112746   4.344   1.938  13.271  0.2951 -0.2431 -0.0555
  868MPD2    H712747   4.417   2.008  13.264 -1.8416  2.1753  1.8331
  869MPD2     C12748   1.439   0.365   2.400  0.3449  0.0256  0.3130
  869MPD2    C112749   1.309   0.333   2.421  0.0997 -0.6562 -0.1467
  869MPD2    C212750   1.212   0.407   2.352 -0.5436  0.1214  0.7133
  869MPD2    C312751   1.251   0.488   2.248 -0.6014  0.3725  0.1838
  869MPD2    C412752   1.384   0.507   2.219 -0.4803  0.1178 -1.0004
  869MPD2    C512753   1.474   0.450   2.297  0.1617  0.0138  0.7132
  869MPD2     H12754   1.108   0.377   2.360 -0.2770 -0.7086  1.0887
  869MPD2    H112755   1.422   0.576   2.144 -0.7097  1.6205  0.2675
  869MPD2    H212756   1.519   0.329   2.464 -0.1064  2.5800  2.3268
  869MPD2    H312757   1.577   0.477   2.277 -0.1629  0.5093 -0.2499
  869MPD2     N12758   1.159   0.557   2.167  0.1737  0.0058 -0.0007
  869MPD2    H512759   1.194   0.604   2.085  3.3536 -1.0766  0.7510
  869MPD2    N112760   1.274   0.246   2.532  0.6031  0.0576  0.3183
  869MPD2    H712761   1.353   0.204   2.579 -0.8098 -1.8426  0.9727
  870MPD2     C12762   0.208   3.973   2.016 -0.5214 -0.3778  0.0840
  870MPD2    C112763   0.173   3.851   1.962  0.4611  0.0633  0.8773
  870MPD2    C212764   0.116   3.853   1.837  0.2494  0.1281 -0.5686
  870MPD2    C312765   0.067   3.972   1.781 -0.2051 -0.0855 -0.0442
  870MPD2    C412766   0.094   4.089   1.842  0.0316 -0.0816 -0.0108
  870MPD2    C512767   0.164   4.096   1.962  0.7831 -0.3159  0.5483
  870MPD2     H12768   0.086   3.765   1.783 -0.1725 -0.6105  0.8530
  870MPD2    H112769   0.057   4.180   1.797  2.4431  0.4290 -0.9756
  870MPD2    H212770   0.249   3.981   2.116 -0.6146  0.4691  0.0499
  870MPD2    H312771   0.171   4.194   2.008 -0.4794 -0.0683  0.1992
  870MPD2     N12772   4.716   3.960   1.662 -0.8428  0.3795 -0.3073
  870MPD2    H512773   4.700   3.863   1.636 -0.6053  0.8546 -2.2070
  870MPD2    N112774   0.223   3.726   2.011 -0.2325  0.6367 -0.1108
  870MPD2    H712775   0.293   3.732   2.084  0.1884  0.3014 -0.4913
  871MPD2     C12776   1.234   3.033  16.437  0.0825 -0.0764  0.6159
  871MPD2    C112777   1.167   2.956  16.530  0.3302 -0.1078  0.2304
  871MPD2    C212778   1.166   2.815  16.516  0.0498  0.5572  0.7540
  871MPD2    C312779   1.244   2.755  16.422  0.1958  0.2319  0.3698
  871MPD2    C412780   1.312   2.831  16.327 -0.8398 -0.5447 -0.9928
  871MPD2    C512781   1.305   2.970  16.338 -0.1919  0.3274  0.4681
  871MPD2     H12782   1.128   2.747  16.591  0.2844 -1.1359 -0.6801
  871MPD2    H112783   1.365   2.781  16.246 -1.3174 -2.3207 -0.1961
  871MPD2    H212784   1.250   3.139  16.448  1.2147 -0.0552 -1.4192
  871MPD2    H312785   1.358   3.026  16.262 -0.9259 -0.2357 -0.4503
  871MPD2     N12786   1.274   2.615  16.437  0.3347  0.0849  0.2784
  871MPD2    H512787   1.215   2.565  16.503 -0.2486  0.2395 -0.1314
  871MPD2    N112788   1.099   3.036  16.624 -0.2875 -0.2105 -0.8904
  871MPD2    H712789   1.132   3.131  16.633  0.2186 -0.3985 -0.7592
  872MPD2     C12790   2.167   0.650  14.325  0.5157 -0.0836  0.2801
  872MPD2    C112791   2.086   0.724  14.240 -0.2293 -0.7334  0.1467
  872MPD2    C212792   1.949   0.710  14.266  0.2980 -0.5593 -0.5262
  872MPD2    C312793   1.900   0.628  14.370 -0.0381  0.1322  0.2575
  872MPD2    C412794   1.988   0.563  14.456 -0.2027 -0.3539 -0.7891
  872MPD2    C512795   2.118   0.578  14.430  0.0999 -0.2637 -1.0125
  872MPD2     H12796   1.879   0.779  14.220 -0.1643 -1.6383 -1.4275
  872MPD2    H112797   1.968   0.501  14.542 -1.4887  0.7045 -0.3181
  872MPD2    H212798   2.275   0.661  14.326  0.4253  0.8390 -0.5469
  872MPD2    H312799   2.194   0.517  14.479 -0.4824 -0.5893 -0.5114
  872MPD2     N12800   1.764   0.606  14.386  0.2533  0.3112 -0.6371
  872MPD2    H512801   1.734   0.545  14.461 -1.9498  1.8536 -0.2560
  872MPD2    N112802   2.128   0.796  14.126  0.0640 -0.4264  1.0490
  872MPD2    H712803   2.048   0.825  14.070  0.5588  0.9520  1.0481
  873MPD2     C12804   4.441   0.339   1.859 -0.0120  0.3981  1.3290
  873MPD2    C112805   4.331   0.288   1.793  0.0706 -0.4821  0.8813
  873MPD2    C212806   4.286   0.164   1.817  0.6569  0.5166 -0.8138
  873MPD2    C312807   4.376   0.080   1.888  0.0315  0.2546  0.0526
  873MPD2    C412808   4.490   0.125   1.938 -0.0210 -0.2942  0.4556
  873MPD2    C512809   4.518   0.258   1.927 -0.5218 -0.3402  0.2694
  873MPD2     H12810   4.199   0.124   1.766 -0.4668  1.4114  0.3981
  873MPD2    H112811   4.554   0.067   2.004  0.4033 -1.1410 -0.6882
  873MPD2    H212812   4.465   0.440   1.829 -0.0331 -0.6414 -2.2300
  873MPD2    H312813   4.614   0.291   1.967  0.3524 -3.3669  0.7188
  873MPD2     N12814   4.337   4.668   1.884  0.1707 -0.7712  0.0471
  873MPD2    H512815   4.255   4.644   1.829  1.3295 -0.4083 -1.8447
  873MPD2    N112816   4.263   0.367   1.688 -0.1966 -0.1687  0.0353
  873MPD2    H712817   4.287   0.465   1.688  2.9181 -0.9442  1.8492
  874MPD2     C12818   3.355   0.925  16.554 -0.0027  0.1547  0.6989
  874MPD2    C112819   3.405   0.878  16.675  0.3770  0.3465  0.4072
  874MPD2    C212820   3.509   0.950  16.727 -0.1126  0.1705  0.5324
  874MPD2    C312821   3.545   1.074  16.679  0.4670  0.3274  0.1049
  874MPD2    C412822   3.477   1.122  16.567  0.6432 -0.5685 -0.6872
  874MPD2    C512823   3.380   1.050  16.510 -0.6914 -0.3407  0.3316
  874MPD2     H12824   3.577   0.904  16.799  1.4273 -0.6916 -1.4857
  874MPD2    H112825   3.504   1.213  16.515 -0.4481  0.1977  0.0880
  874MPD2    H212826   3.283   0.863  16.502  0.7277 -1.0773  1.1764
  874MPD2    H312827   3.324   1.093  16.427 -1.3720 -3.3611 -0.8073
  874MPD2     N12828   3.663   1.137  16.739  0.5556  0.7755 -0.2662
  874MPD2    H512829   3.720   1.072  16.793  0.1097  1.0409  0.5172
  874MPD2    N112830   3.351   0.752  16.720 -0.4797 -0.7206 -0.0618
  874MPD2    H712831   3.280   0.709  16.660  2.1245 -0.3038 -3.4385
  875MPD2     C12832   4.548   3.690  14.563  0.0663  0.2912  0.3982
  875MPD2    C112833   4.433   3.759  14.598 -0.8097  0.7625 -0.6355
  875MPD2    C212834   4.433   3.833  14.710 -0.5628  0.2589  0.6882
  875MPD2    C312835   4.546   3.850  14.785 -0.2295 -0.2285  1.6802
  875MPD2    C412836   4.668   3.792  14.739 -0.4237 -0.0689 -0.2088
  875MPD2    C512837   4.658   3.699  14.638 -0.0881  0.9045 -0.5318
  875MPD2     H12838   4.344   3.888  14.737 -1.8176 -0.9004 -1.0245
  875MPD2    H112839   0.031   3.807  14.802  1.0487  2.6456 -2.8803
  875MPD2    H212840   4.554   3.623  14.479  1.3682 -0.7739  1.3232
  875MPD2    H312841   0.023   3.652  14.599 -0.7913 -1.1898  0.4128
  875MPD2     N12842   4.554   3.928  14.905  0.5787  0.2043 -0.0533
  875MPD2    H512843   4.647   3.933  14.944  0.9003  1.1863 -0.9463
  875MPD2    N112844   4.311   3.767  14.521  0.1358  1.1535  0.2231
  875MPD2    H712845   4.236   3.827  14.553 -1.1058 -1.3410  1.9332
  876MPD2     C12846   3.704   0.520  16.577 -0.3005 -0.6876  0.2518
  876MPD2    C112847   3.595   0.486  16.498 -0.1243  0.1749 -0.0322
  876MPD2    C212848   3.531   0.367  16.522  0.3448  0.1708  0.0130
  876MPD2    C312849   3.581   0.284  16.628  0.0992 -0.4771 -0.0737
  876MPD2    C412850   3.684   0.325  16.711 -0.6108 -0.3136  0.3636
  876MPD2    C512851   3.739   0.446  16.687  0.4699 -0.0080 -0.1093
  876MPD2     H12852   3.439   0.338  16.472 -0.9284  0.9908  1.8533
  876MPD2    H112853   3.707   0.263  16.797 -0.2442 -2.9016 -1.5998
  876MPD2    H212854   3.752   0.617  16.567  0.6665 -0.9350  2.5097
  876MPD2    H312855   3.812   0.486  16.757 -1.2806  2.0140  0.5632
  876MPD2     N12856   3.531   0.150  16.642 -0.2269 -0.3459  0.2485
  876MPD2    H512857   3.469   0.129  16.565  1.1051 -2.8621 -0.1397
  876MPD2    N112858   3.548   0.579  16.407 -0.4639  0.0644  0.5103
  876MPD2    H712859   3.614   0.650  16.376 -1.6233  0.5676 -0.7971
  877MPD2     C12860   3.713   1.137  15.871 -0.1946  0.4251  0.3229
  877MPD2    C112861   3.686   1.006  15.821 -0.0867 -0.1000  0.2730
  877MPD2    C212862   3.708   0.981  15.694  0.1961 -0.4730  0.3566
  877MPD2    C312863   3.767   1.073  15.612 -0.0027 -0.0109  0.4108
  877MPD2    C412864   3.813   1.192  15.666  0.4160 -0.2211  0.9046
  877MPD2    C512865   3.771   1.223  15.786  0.9459 -0.1590  0.5635
  877MPD2     H12866   3.668   0.886  15.660  0.0931 -1.0966  2.2245
  877MPD2    H112867   3.856   1.275  15.611  1.6726 -2.0637 -0.9146
  877MPD2    H212868   3.676   1.165  15.970 -0.7598 -1.8528  0.7519
  877MPD2    H312869   3.788   1.325  15.819  1.7408 -0.0161 -0.2906
  877MPD2     N12870   3.772   1.057  15.466 -0.2242 -0.1000  0.0575
  877MPD2    H512871   3.834   1.118  15.415 -0.1095  0.1545  0.5057
  877MPD2    N112872   3.620   0.904  15.896 -0.0760  0.3642 -0.2207
  877MPD2    H712873   3.604   0.818  15.845 -1.2099  1.2288 -1.3504
  878MPD2     C12874   2.503   0.186  13.613 -0.5439  0.8941  0.4126
  878MPD2    C112875   2.626   0.237  13.584  0.6903  0.1108  0.2669
  878MPD2    C212876   2.735   0.223  13.675 -0.2373 -0.2925 -0.6823
  878MPD2    C312877   2.698   0.169  13.797 -0.3013  0.3232  0.1765
  878MPD2    C412878   2.574   0.119  13.828 -0.0265  0.7441 -0.0334
  878MPD2    C512879   2.476   0.134  13.735 -0.0927 -0.1071 -0.7365
  878MPD2     H12880   2.836   0.254  13.651 -0.8445  2.2652 -0.0132
  878MPD2    H112881   2.539   0.093  13.927  1.0015  2.1962  0.7212
  878MPD2    H212882   2.423   0.182  13.541 -1.0941  0.2551  1.0671
  878MPD2    H312883   2.380   0.085  13.746 -0.6152  0.9831 -0.4221
  878MPD2     N12884   2.789   0.157  13.906 -0.0098  0.0585  0.1644
  878MPD2    H512885   2.747   0.111  13.986 -0.5382 -0.2583 -0.2853
  878MPD2    N112886   2.644   0.288  13.455 -0.9313 -0.3758  0.1664
  878MPD2    H712887   2.559   0.296  13.401 -0.2212 -0.5659 -0.9826
  879MPD2     C12888   3.661   1.480  17.155  0.3388  0.0549  0.3741
  879MPD2    C112889   3.678   1.345  17.189 -0.7689 -0.0692  0.1227
  879MPD2    C212890   3.582   1.255  17.138 -0.3869  0.6032  0.6608
  879MPD2    C312891   3.480   1.297  17.053 -0.2849 -0.2738  0.1429
  879MPD2    C412892   3.478   1.429  17.012  0.2668  0.6255  0.3149
  879MPD2    C512893   3.567   1.519  17.067 -0.8384 -0.0179  0.1023
  879MPD2     H12894   3.600   1.151  17.163 -0.4744 -0.0009 -1.7497
  879MPD2    H112895   3.399   1.461  16.945  1.3750 -2.2479 -2.3777
  879MPD2    H212896   3.731   1.557  17.186 -0.9876  0.8996  1.2464
  879MPD2    H312897   3.576   1.624  17.042  0.3637 -0.3074 -0.7063
  879MPD2     N12898   3.377   1.213  17.013  0.4229  0.7925  0.2835
  879MPD2    H512899   3.316   1.244  16.938  0.1992  0.2266  0.2275
  879MPD2    N112900   3.776   1.311  17.279 -0.0825 -0.1838  0.1840
  879MPD2    H712901   3.849   1.374  17.311  0.6343  0.5377 -2.9090
  880MPD2     C12902   0.296   2.879   0.278  0.1789 -0.6832  0.5522
  880MPD2    C112903   0.348   2.917   0.401 -0.3198  0.0691 -0.0750
  880MPD2    C212904   0.409   2.817   0.474  1.0635  0.3036  0.5783
  880MPD2    C312905   0.403   2.687   0.439  0.4574  0.2393 -0.6950
  880MPD2    C412906   0.343   2.649   0.322 -1.0796  0.5556 -0.1982
  880MPD2    C512907   0.288   2.746   0.245 -0.2916  0.3915  0.2912
  880MPD2     H12908   0.466   2.832   0.565  2.9771  1.8353 -0.8766
  880MPD2    H112909   0.335   2.552   0.274  0.7910  1.1099 -1.6189
  880MPD2    H212910   0.260   2.948   0.202  0.0936 -1.9101 -0.5203
  880MPD2    H312911   0.242   2.729   0.149 -1.3308 -1.3728  1.1204
  880MPD2     N12912   0.444   2.595   0.526  0.6581  0.1101 -0.0948
  880MPD2    H512913   0.482   2.633   0.612 -0.9234  1.1666  0.1352
  880MPD2    N112914   0.353   3.062   0.425  0.1593  0.0845 -0.2808
  880MPD2    H712915   0.296   3.118   0.363 -1.6265 -1.8744 -0.4356
  881MPD2     C12916   0.097   3.957   0.106  0.3572 -0.4116  0.1085
  881MPD2    C112917   0.152   3.842   0.052 -0.0693 -0.2136  0.1098
  881MPD2    C212918   0.204   3.755   0.140 -0.3115 -0.3097  0.1193
  881MPD2    C312919   0.165   3.756   0.270 -0.5712  0.2695  0.2427
  881MPD2    C412920   0.087   3.866   0.317 -0.5129 -0.0952 -0.1392
  881MPD2    C512921   0.047   3.961   0.235  0.5879 -0.7658  0.3027
  881MPD2     H12922   0.268   3.675   0.104 -1.7421 -1.4793  0.2097
  881MPD2    H112923   0.061   3.875   0.422 -1.3481 -1.8322 -0.1929
  881MPD2    H212924   0.060   4.036   0.041  2.0698  1.4887  1.4357
  881MPD2    H312925   4.714   4.048   0.266 -0.3941 -1.2578 -0.1235
  881MPD2     N12926   0.206   3.661   0.372 -0.5184 -0.2356 -0.9005
  881MPD2    H512927   0.171   3.679   0.466  0.3187  2.1309 -1.0610
  881MPD2    N112928   0.204   3.851  17.616  0.3001 -0.0356 -0.1336
  881MPD2    H712929   0.175   3.928  17.556  3.2499  1.0322 -0.1780
  882MPD2     C12930   3.625   0.915  14.582  0.1080 -0.5596 -0.5583
  882MPD2    C112931   3.550   0.928  14.699 -0.3163  0.1873 -0.0759
  882MPD2    C212932   3.421   0.883  14.694 -0.1818 -0.6049  0.0101
  882MPD2    C312933   3.366   0.820  14.587 -0.3339 -0.3800  0.5503
  882MPD2    C412934   3.442   0.814  14.469 -0.1913  0.4554 -0.0728
  882MPD2    C512935   3.569   0.855  14.469 -0.6681  0.5328 -0.0359
  882MPD2     H12936   3.360   0.888  14.783 -0.1539  1.5260 -0.1059
  882MPD2    H112937   3.402   0.776  14.376  1.1746  2.3020 -1.4090
  882MPD2    H212938   3.723   0.962  14.577  1.0982 -2.3644  1.4221
  882MPD2    H312939   3.624   0.854  14.375 -1.9266 -0.0977 -0.7765
  882MPD2     N12940   3.238   0.761  14.587 -0.4568  0.1432  0.0348
  882MPD2    H512941   3.209   0.732  14.494  0.1506 -2.5995  0.6897
  882MPD2    N112942   3.611   0.989  14.809 -0.4472 -0.0661 -0.2046
  882MPD2    H712943   3.706   1.015  14.783  0.4041 -1.3220  1.7257
  883MPD2     C12944   0.259   0.787  16.287 -0.0015  0.0927  0.2084
  883MPD2    C112945   0.318   0.718  16.187 -0.2251 -0.3561 -0.3076
  883MPD2    C212946   0.447   0.672  16.201 -0.0709  0.5783 -0.0266
  883MPD2    C312947   0.521   0.686  16.318 -0.5201 -0.5274  0.6921
  883MPD2    C412948   0.468   0.771  16.413 -0.1698  0.3576  0.0749
  883MPD2    C512949   0.341   0.813  16.399  0.5463  0.1502 -0.2897
  883MPD2     H12950   0.478   0.611  16.116 -0.9230 -1.6189  1.2330
  883MPD2    H112951   0.524   0.809  16.497  1.8607 -2.9257  0.2094
  883MPD2    H212952   0.162   0.833  16.274  0.6586  1.5670  0.5176
  883MPD2    H312953   0.302   0.888  16.467 -2.3377 -1.5129 -0.1011
  883MPD2     N12954   0.647   0.623  16.336  0.0073  0.1736 -0.0641
  883MPD2    H512955   0.687   0.587  16.250 -3.6102 -3.0251 -0.3891
  883MPD2    N112956   0.255   0.697  16.063  0.2081 -0.4382  0.4912
  883MPD2    H712957   0.322   0.673  15.991  0.0661  0.7555 -0.0416
  884MPD2     C12958   2.418   1.214  15.404 -0.1902  0.0178 -0.4628
  884MPD2    C112959   2.397   1.298  15.300 -0.8753 -0.6558 -0.1590
  884MPD2    C212960   2.273   1.368  15.303 -0.5337  0.5129 -0.1534
  884MPD2    C312961   2.181   1.343  15.403  0.1092  0.1523 -0.0671
  884MPD2    C412962   2.204   1.252  15.503  1.1140 -0.2823 -0.1110
  884MPD2    C512963   2.324   1.190  15.504  0.0188 -0.1413 -0.0718
  884MPD2     H12964   2.253   1.447  15.232 -0.9494 -1.9455 -2.7421
  884MPD2    H112965   2.132   1.231  15.581  0.2192  0.1164 -0.8270
  884MPD2    H212966   2.502   1.146  15.408  0.9846  1.5203  0.1833
  884MPD2    H312967   2.342   1.115  15.581 -2.2899 -0.8305 -0.1979
  884MPD2     N12968   2.060   1.417  15.407  0.3469  0.1568  0.1369
  884MPD2    H512969   2.054   1.490  15.336  0.8961 -1.0763 -1.1763
  884MPD2    N112970   2.483   1.315  15.185 -0.4524 -0.0388 -0.3957
  884MPD2    H712971   2.460   1.388  15.119 -0.3591 -1.5153 -2.0475
  885MPD2     C12972   0.962   1.656   0.535 -0.2816 -0.5236  0.0786
  885MPD2    C112973   1.035   1.561   0.461  0.6774  0.0934 -0.0870
  885MPD2    C212974   1.047   1.574   0.325 -0.1582 -0.5296 -0.1936
  885MPD2    C312975   0.971   1.665   0.249  0.0358  0.4489 -0.1300
  885MPD2    C412976   0.900   1.751   0.318  0.7343  1.0054 -0.0791
  885MPD2    C512977   0.899   1.752   0.456  0.5437 -0.2834  0.9707
  885MPD2     H12978   1.120   1.510   0.277  0.3386  1.0886 -1.5742
  885MPD2    H112979   0.849   1.837   0.277  0.2327 -1.0546 -3.7539
  885MPD2    H212980   0.957   1.657   0.643 -0.9038 -0.9070  0.0566
  885MPD2    H312981   0.846   1.834   0.503 -0.6816 -0.5884  0.1132
  885MPD2     N12982   0.986   1.669   0.107 -0.1017  0.2163 -0.3884
  885MPD2    H512983   1.058   1.612   0.064 -0.3593  0.3355 -0.9739
  885MPD2    N112984   1.100   1.465   0.539  0.8879 -0.7672 -0.2083
  885MPD2    H712985   1.107   1.475   0.639 -1.0636 -0.9000 -0.0635
  886MPD2     C12986   2.010   4.549  15.317 -0.3385  0.4025 -0.7120
  886MPD2    C112987   2.117   4.608  15.381 -0.0834  0.0966  0.0254
  886MPD2    C212988   2.147   0.018  15.352 -0.0898 -0.0096  0.0259
  886MPD2    C312989   2.078   0.100  15.268 -0.9402 -0.3465 -0.3406
  886MPD2    C412990   1.978   0.033  15.196  0.0785 -0.4796 -0.0605
  886MPD2    C512991   1.949   4.623  15.221 -0.1145 -0.2968 -0.4611
  886MPD2     H12992   2.232   0.052  15.411  1.9832 -2.6682 -1.4124
  886MPD2    H112993   1.916   0.077  15.118  0.6200  0.1012 -0.1662
  886MPD2    H212994   2.003   4.441  15.321  1.1227  0.3111 -0.9673
  886MPD2    H312995   1.873   4.573  15.162  0.6099 -0.9405 -0.8418
  886MPD2     N12996   2.121   0.236  15.248 -0.2391 -0.0096 -0.0994
  886MPD2    H512997   2.208   0.258  15.296  0.1918 -0.4836 -0.6697
  886MPD2    N112998   2.213   4.538  15.454 -0.0897  0.7597 -0.4898
  886MPD2    H712999   2.286   4.590  15.501  0.8544 -0.1182 -0.9890
  887MPD2     C13000   2.864   4.635  15.620 -0.5533  0.0786  0.1756
  887MPD2    C113001   2.765   4.680  15.535  0.9187  0.2807 -0.1329
  887MPD2    C213002   2.729   0.091  15.546  0.4188 -0.2236  0.1637
  887MPD2    C313003   2.786   0.180  15.632  0.0443  0.3872 -0.3024
  887MPD2    C413004   2.893   0.134  15.711 -0.3378 -0.1504 -0.4637
  887MPD2    C513005   2.925   0.002  15.707  0.0161 -0.7445 -0.3367
  887MPD2     H13006   2.639   0.123  15.495  0.1981  0.1750  0.8043
  887MPD2    H113007   2.962   0.208  15.749 -0.1442  0.9680 -2.9480
  887MPD2    H213008   2.885   4.529  15.630 -4.4947 -0.4751  2.3657
  887MPD2    H313009   3.010   4.687  15.761 -0.0300 -2.2699 -1.3517
  887MPD2     N13010   2.744   0.316  15.634 -0.1611 -0.1927  0.0797
  887MPD2    H513011   2.676   0.351  15.568  1.1156  2.2190  0.0301
  887MPD2    N113012   2.678   4.594  15.459  0.3915 -0.4788  0.0768
  887MPD2    H713013   2.585   4.629  15.440  0.4272  0.2408  1.2029
  888MPD2     C13014   4.389   0.134  15.203  0.0309  0.1914 -1.0341
  888MPD2    C113015   4.336   0.230  15.282  0.0216 -0.0000  0.5319
  888MPD2    C213016   4.391   0.357  15.293  0.3081  0.2682 -0.3453
  888MPD2    C313017   4.498   0.394  15.216 -0.2798 -0.7050  0.2621
  888MPD2    C413018   4.560   0.295  15.140  0.1172  0.3199  0.0296
  888MPD2    C513019   4.512   0.164  15.142 -0.2097 -0.4130 -0.0591
  888MPD2     H13020   4.335   0.433  15.346  1.3722 -0.3082  1.5903
  888MPD2    H113021   4.655   0.307  15.090 -0.3847  1.6453 -0.5937
  888MPD2    H213022   4.361   0.029  15.206 -0.5758  0.3503 -1.1541
  888MPD2    H313023   4.579   0.090  15.100  0.9068  1.5070 -1.6421
  888MPD2     N13024   4.544   0.531  15.220  0.3412 -0.1077  0.0890
  888MPD2    H513025   4.499   0.600  15.280 -2.0231 -0.5030 -1.1986
  888MPD2    N113026   4.221   0.200  15.354  0.3720  0.0205  0.1801
  888MPD2    H713027   4.187   0.265  15.424  0.7945 -0.3859  0.7641
  889MPD2     C13028   3.372   4.515  13.127  0.6023 -0.0807  0.6496
  889MPD2    C113029   3.492   4.502  13.195  0.2553 -0.2329 -0.5061
  889MPD2    C213030   3.530   4.606  13.285  0.1815  0.4006 -0.5946
  889MPD2    C313031   3.432   4.688  13.335  0.9337 -0.5462  0.5348
  889MPD2    C413032   3.311   4.690  13.274  0.1113  0.1657  0.0398
  889MPD2    C513033   3.283   4.614  13.164 -0.5853  0.0102 -0.1902
  889MPD2     H13034   3.619   4.593  13.346  2.0711 -2.6716 -3.9980
  889MPD2    H113035   3.231   0.028  13.311  0.6074 -0.6675  2.4946
  889MPD2    H213036   3.344   4.459  13.038  0.6806  1.7391 -0.5202
  889MPD2    H313037   3.185   4.632  13.120 -0.7227 -0.5158 -0.1023
  889MPD2     N13038   3.461   0.047  13.442  0.1803 -0.6704 -0.1392
  889MPD2    H513039   3.552   0.028  13.483  0.1923  0.0451  0.1563
  889MPD2    N113040   3.593   4.412  13.151 -0.1204  0.1936  0.3962
  889MPD2    H713041   3.687   4.423  13.189 -0.9203 -1.1092  2.7296
  890MPD2     C13042   3.364   1.446  14.948 -0.0169  0.3504  0.0492
  890MPD2    C113043   3.388   1.563  15.015  0.1994 -0.1969 -0.2847
  890MPD2    C213044   3.401   1.549  15.154 -0.2318  0.0687 -0.5177
  890MPD2    C313045   3.415   1.428  15.225  0.5239  0.7075 -0.3345
  890MPD2    C413046   3.388   1.311  15.153 -0.7748  0.2048  0.1879
  890MPD2    C513047   3.363   1.317  15.016  0.0201 -0.0666  0.1306
  890MPD2     H13048   3.416   1.640  15.211 -0.8998  0.6084 -1.2076
  890MPD2    H113049   3.394   1.216  15.205 -0.9550 -0.4775 -1.0436
  890MPD2    H213050   3.354   1.454  14.840 -1.4551 -0.1571  0.1435
  890MPD2    H313051   3.350   1.223  14.964  1.1946 -0.3084  0.2727
  890MPD2     N13052   3.435   1.433  15.365 -0.1886  0.0254 -0.0679
  890MPD2    H513053   3.441   1.528  15.400  1.8357  0.0377 -0.4730
  890MPD2    N113054   3.398   1.681  14.937 -0.2937  0.5613  0.2446
  890MPD2    H713055   3.382   1.670  14.838 -2.4024  1.8760  0.4435
  891MPD2     C13056   1.046   4.348  16.660 -0.0323 -0.0475 -0.3111
  891MPD2    C113057   1.031   4.474  16.703 -0.9696  0.1097  0.0478
  891MPD2    C213058   1.142   4.552  16.745 -0.7689  0.7536  0.7180
  891MPD2    C313059   1.268   4.500  16.749  0.3447 -0.5585  0.8047
  891MPD2    C413060   1.283   4.369  16.703 -0.3311 -0.2584  0.0470
  891MPD2    C513061   1.168   4.294  16.663  0.7485 -0.1890 -0.3304
  891MPD2     H13062   1.132   4.653  16.784  0.0446  0.0747  2.6895
  891MPD2    H113063   1.382   4.326  16.718 -0.2952 -0.6466 -1.3690
  891MPD2    H213064   0.959   4.291  16.630  0.0586 -0.9985  1.2370
  891MPD2    H313065   1.181   4.190  16.636 -0.7915 -0.7068  0.9643
  891MPD2     N13066   1.375   4.582  16.801 -0.3783  0.8246  0.0390
  891MPD2    H513067   1.347   4.676  16.827 -1.6544  0.3971  0.1692
  891MPD2    N113068   0.904   4.527  16.681  0.3366 -0.6157 -0.3307
  891MPD2    H713069   0.832   4.476  16.631 -1.4091  3.0886 -1.5897
  892MPD2     C13070   2.455   0.801  15.248  0.1204  0.1839 -0.4460
  892MPD2    C113071   2.458   0.873  15.126  0.7797  0.1021 -0.2841
  892MPD2    C213072   2.557   0.842  15.033  0.1985 -0.3398  0.0903
  892MPD2    C313073   2.646   0.738  15.052 -0.7013 -0.5382 -0.2978
  892MPD2    C413074   2.640   0.674  15.167 -0.4441 -0.9427 -0.1653
  892MPD2    C513075   2.549   0.704  15.272 -0.3753  0.5434 -0.6271
  892MPD2     H13076   2.576   0.909  14.949 -0.2720  1.9415  1.7877
  892MPD2    H113077   2.717   0.599  15.179  1.7006  1.4133  0.8307
  892MPD2    H213078   2.380   0.828  15.322  0.1240  1.5399 -0.9472
  892MPD2    H313079   2.560   0.663  15.372  0.0360 -1.7014 -1.6044
  892MPD2     N13080   2.728   0.700  14.951 -0.5518 -0.4639  0.8499
  892MPD2    H513081   2.812   0.647  14.975  0.9987  0.4598 -2.6282
  892MPD2    N113082   2.358   0.971  15.096 -0.2668  0.0486 -0.1712
  892MPD2    H713083   2.287   0.972  15.168  1.4732  1.1437  1.5177
  893MPD2     C13084   0.601   3.604   2.547  0.2636 -0.5510  0.6631
  893MPD2    C113085   0.516   3.663   2.456 -0.2913  0.7989 -0.1716
  893MPD2    C213086   0.395   3.602   2.424  0.1637 -0.4014  0.1485
  893MPD2    C313087   0.359   3.475   2.469  0.1659 -1.1273  0.4927
  893MPD2    C413088   0.450   3.420   2.555 -0.3815 -0.3361 -0.1124
  893MPD2    C513089   0.564   3.482   2.592 -0.2260  0.1641 -0.2388
  893MPD2     H13090   0.320   3.650   2.364  1.2894 -0.7325 -1.5209
  893MPD2    H113091   0.428   3.323   2.598 -0.4877 -0.2165  0.1017
  893MPD2    H213092   0.692   3.650   2.584  0.5500 -0.2381 -0.4174
  893MPD2    H313093   0.630   3.431   2.661 -0.4628 -1.0940 -0.9321
  893MPD2     N13094   0.232   3.414   2.454 -0.8986 -0.7530  0.4439
  893MPD2    H513095   0.222   3.326   2.503 -0.6112 -1.7007 -1.1732
  893MPD2    N113096   0.548   3.794   2.412  0.2473  0.0549  0.0217
  893MPD2    H713097   0.626   3.840   2.457 -0.7923  0.3882  1.4587
  894MPD2     C13098   2.527   1.628   0.554 -0.3196 -0.5719 -0.0049
  894MPD2    C113099   2.554   1.664   0.686 -0.3595 -0.1517  0.8245
  894MPD2    C213100   2.635   1.775   0.708 -0.0966 -0.0128  0.3471
  894MPD2    C313101   2.697   1.839   0.600  0.0777 -0.5008  0.2541
  894MPD2    C413102   2.662   1.805   0.470 -0.0797  0.2030 -0.5074
  894MPD2    C513103   2.577   1.700   0.453  0.5594  0.2970 -0.2815
  894MPD2     H13104   2.665   1.805   0.808  0.4348 -0.3724  0.2976
  894MPD2    H113105   2.713   1.842   0.381  2.0918  0.5196  0.8583
  894MPD2    H213106   2.489   1.532   0.520 -2.3338  0.9329 -1.9778
  894MPD2    H313107   2.561   1.674   0.349  2.8894  0.6801 -0.7329
  894MPD2     N13108   2.802   1.921   0.636 -0.3663  0.2779  0.6570
  894MPD2    H513109   2.827   1.919   0.734 -2.7026 -1.6257  1.1943
  894MPD2    N113110   2.514   1.601   0.799 -0.4111 -0.2543  0.0631
  894MPD2    H713111   2.542   1.637   0.889  0.5842  0.1850 -0.4251
  895MPD2     C13112   1.334   4.486  13.549 -0.6966 -0.3484 -0.0315
  895MPD2    C113113   1.238   4.463  13.451  0.0943  0.3560 -0.1051
  895MPD2    C213114   1.229   4.339  13.389  0.1685  0.0296  0.5461
  895MPD2    C313115   1.322   4.235  13.410 -0.8299  0.5661  0.5654
  895MPD2    C413116   1.423   4.263  13.497 -0.5660 -0.3092 -0.5861
  895MPD2    C513117   1.424   4.388  13.558  0.1721 -0.1530 -0.5029
  895MPD2     H13118   1.167   4.348  13.300  0.9499 -1.5291 -0.1439
  895MPD2    H113119   1.498   4.191  13.526  1.3568  1.6653 -0.6572
  895MPD2    H213120   1.353   4.576  13.607  0.0535 -0.8740  0.5382
  895MPD2    H313121   1.508   4.390  13.627  2.1415 -2.5125 -2.8307
  895MPD2     N13122   1.331   4.106  13.343 -0.1836 -0.3871 -0.4640
  895MPD2    H513123   1.390   4.033  13.382 -3.1234 -2.6019 -0.0956
  895MPD2    N113124   1.141   4.562  13.418 -0.6645 -0.1597 -0.0309
  895MPD2    H713125   1.064   4.534  13.358 -0.7553  1.8053 -0.8237
  896MPD2     C13126   4.173   2.336   1.958  0.2992  0.3198 -0.4790
  896MPD2    C113127   4.187   2.362   1.824 -0.2185 -0.2042 -0.3754
  896MPD2    C213128   4.116   2.282   1.738 -0.4923 -0.6297  0.2740
  896MPD2    C313129   4.036   2.169   1.773 -0.5366 -0.1413  0.3017
  896MPD2    C413130   4.034   2.134   1.909  0.1078 -0.5256  0.0767
  896MPD2    C513131   4.101   2.223   1.996 -0.2442  0.1757 -0.0565
  896MPD2     H13132   4.110   2.304   1.632  2.2417  1.3464  0.5399
  896MPD2    H113133   3.969   2.053   1.940 -1.8590  1.2540  0.5826
  896MPD2    H213134   4.210   2.406   2.032 -0.7295  1.0885 -0.6843
  896MPD2    H313135   4.084   2.194   2.099  0.6390 -1.1098 -0.2784
  896MPD2     N13136   3.964   2.120   1.664  0.4050  0.7998  0.4737
  896MPD2    H513137   3.990   2.151   1.571 -2.4398 -0.2100 -0.6889
  896MPD2    N113138   4.256   2.475   1.787  0.1248 -0.2755 -0.1956
  896MPD2    H713139   4.316   2.522   1.853 -2.4439  1.5722  0.8356
  897MPD2     C13140   0.450   3.989  10.355  0.0876  0.4062 -0.5611
  897MPD2    C113141   0.517   4.055  10.455  0.3770  0.7212 -0.4879
  897MPD2    C213142   0.442   4.106  10.561  1.1916 -0.2253 -0.0762
  897MPD2    C313143   0.309   4.115  10.547  0.0475  0.7620 -0.3933
  897MPD2    C413144   0.244   4.066  10.435 -1.0196 -0.1226 -0.0969
  897MPD2    C513145   0.315   4.000  10.339  0.1413  0.8499  0.0890
  897MPD2     H13146   0.492   4.174  10.629  0.8033  0.9481 -0.9680
  897MPD2    H113147   0.136   4.074  10.429 -1.0221 -0.3278 -0.3202
  897MPD2    H213148   0.503   3.940  10.274 -1.3470  0.7980 -1.7418
  897MPD2    H313149   0.273   3.954  10.251  1.1332 -1.5746  0.8947
  897MPD2     N13150   0.239   4.197  10.643  0.7569 -0.1060  0.3784
  897MPD2    H513151   0.283   4.202  10.734  0.1868  0.8635  0.5995
  897MPD2    N113152   0.654   4.074  10.458 -0.2104  0.3023  0.3741
  897MPD2    H713153   0.693   4.116  10.542 -0.2367 -0.6408  0.8569
  898MPD2     C13154   2.177   0.672   0.525  0.7421 -0.3252  0.2584
  898MPD2    C113155   2.254   0.624   0.422  0.0509 -0.3978  0.4925
  898MPD2    C213156   2.256   0.692   0.298  0.1955 -0.0558 -0.6527
  898MPD2    C313157   2.206   0.821   0.289 -0.4908  0.3457  0.2998
  898MPD2    C413158   2.140   0.869   0.397 -0.9076 -1.1393 -0.5651
  898MPD2    C513159   2.119   0.796   0.515  0.2081  0.6474 -0.0187
  898MPD2     H13160   2.303   0.651   0.209 -1.1667 -1.5411 -0.6785
  898MPD2    H113161   2.092   0.966   0.389  2.0659  0.3820 -0.0231
  898MPD2    H213162   2.162   0.620   0.619 -0.1186  0.0841  0.3443
  898MPD2    H313163   2.050   0.832   0.592  1.7315  2.1397  0.6579
  898MPD2     N13164   2.221   0.889   0.161  0.7124 -0.1726 -0.3820
  898MPD2    H513165   2.270   0.839   0.088 -2.1278 -4.3601  0.6141
  898MPD2    N113166   2.329   0.501   0.432 -0.4023  0.8503 -0.7178
  898MPD2    H713167   2.394   0.478   0.358 -0.1772 -0.8629 -0.0008
  899MPD2     C13168   2.831   0.751  17.331 -0.4243 -0.7365  0.1035
  899MPD2    C113169   2.934   0.819  17.394  0.9412  0.8218  0.6913
  899MPD2    C213170   2.991   0.770  17.512  0.4042  0.1278  0.1879
  899MPD2    C313171   2.921   0.666  17.590 -0.8326 -0.1834 -0.6773
  899MPD2    C413172   2.823   0.595  17.517  0.0155 -0.2544 -0.0998
  899MPD2    C513173   2.782   0.638  17.390 -0.7855  0.6559 -0.6643
  899MPD2     H13174   3.071   0.823  17.562 -1.0547  0.6733  1.9461
  899MPD2    H113175   2.769   0.511  17.559 -0.1265  0.2409  0.7163
  899MPD2    H213176   2.789   0.798  17.243 -0.5334 -0.9489  0.0429
  899MPD2    H313177   2.709   0.577  17.337 -0.5629  1.2365 -1.6348
  899MPD2     N13178   2.965   0.623   0.022  0.4812 -0.0261  0.2677
  899MPD2    H513179   2.923   0.534   0.048 -0.4809 -0.1093 -1.5928
  899MPD2    N113180   2.975   0.941  17.336 -0.1180  0.5453 -0.0606
  899MPD2    H713181   2.911   0.975  17.265  0.2478  0.5158 -0.4016
  900MPD2     C13182   2.852   2.873  12.420 -0.9803  0.2373 -0.2316
  900MPD2    C113183   2.759   2.776  12.393  0.3005 -0.1967  0.2091
  900MPD2    C213184   2.627   2.818  12.369 -0.1816  0.2431 -0.0104
  900MPD2    C313185   2.583   2.944  12.386 -0.5616 -0.3140  0.1202
  900MPD2    C413186   2.673   3.043  12.427  0.3949  0.1399 -0.4541
  900MPD2    C513187   2.808   3.002  12.436  0.0340 -0.1072 -0.7877
  900MPD2     H13188   2.548   2.750  12.336  1.5298 -2.2735  1.1162
  900MPD2    H113189   2.645   3.143  12.460  0.5356 -1.2463  3.8161
  900MPD2    H213190   2.955   2.854  12.445 -0.8202 -0.4293 -1.4058
  900MPD2    H313191   2.880   3.079  12.463 -0.5659 -0.0605  0.6644
  900MPD2     N13192   2.446   2.964  12.362  0.3648 -0.1885  0.0576
  900MPD2    H513193   2.392   2.880  12.348 -0.2680 -0.1936  2.3939
  900MPD2    N113194   2.794   2.639  12.376 -0.0812  0.3408  0.8645
  900MPD2    H713195   2.895   2.624  12.372 -0.2219 -0.2073 -0.4633
  901MPD2     C13196   2.696   1.651  12.747 -0.7874 -0.0180  0.1586
  901MPD2    C113197   2.715   1.618  12.620 -0.2618  0.5041 -0.8816
  901MPD2    C213198   2.703   1.720  12.529 -0.2148 -0.2663 -0.0350
  901MPD2    C313199   2.661   1.850  12.555 -0.0626 -0.1145 -0.4533
  901MPD2    C413200   2.629   1.878  12.687 -0.0913 -0.1145  0.7217
  901MPD2    C513201   2.646   1.775  12.780  0.1164  0.5238 -0.6352
  901MPD2     H13202   2.721   1.703  12.424 -3.7475  0.3369 -0.7322
  901MPD2    H113203   2.597   1.977  12.720 -2.8743 -0.6203 -0.4319
  901MPD2    H213204   2.700   1.572  12.822 -1.0580 -0.9475 -0.8030
  901MPD2    H313205   2.602   1.792  12.878  0.0030 -0.4808 -0.5111
  901MPD2     N13206   2.679   1.952  12.456 -0.3053 -0.3069 -0.1291
  901MPD2    H513207   2.705   1.923  12.363 -1.8827 -0.3231 -0.5651
  901MPD2    N113208   2.751   1.488  12.587  0.1910  0.1641 -0.0105
  901MPD2    H713209   2.768   1.429  12.667 -0.5446  0.7385  0.5723
  902MPD2     C13210   1.293   0.168  13.224 -0.1536  0.3990  0.7040
  902MPD2    C113211   1.211   0.213  13.117  0.1845  0.4570 -0.1628
  902MPD2    C213212   1.191   0.127  13.009 -0.1329  0.3889  0.1906
  902MPD2    C313213   1.233   4.718  13.006 -0.3087 -1.1195  0.1119
  902MPD2    C413214   1.290   4.670  13.120 -0.4651  0.4796 -0.1176
  902MPD2    C513215   1.332   0.034  13.219  0.0069 -0.7617  0.5170
  902MPD2     H13216   1.134   0.156  12.921 -1.5722 -4.4475 -0.4713
  902MPD2    H113217   1.320   4.566  13.124  2.8089  1.5710  3.4694
  902MPD2    H213218   1.317   0.219  13.317 -0.4089  0.5286  0.6973
  902MPD2    H313219   1.382   0.009  13.312  2.0427 -1.9623 -0.8980
  902MPD2     N13220   1.223   4.634  12.902 -0.3626  0.3825 -0.6555
  902MPD2    H513221   1.256   4.538  12.912  0.4223  0.5921 -1.2853
  902MPD2    N113222   1.158   0.341  13.121 -0.0626  0.1880 -0.4517
  902MPD2    H713223   1.202   0.388  13.199 -2.1438  2.5481 -0.7207
  903MPD2     C13224   1.501   4.648  12.055 -0.2547 -0.0716 -0.0113
  903MPD2    C113225   1.381   4.644  12.113  0.4066 -0.1935  0.2094
  903MPD2    C213226   1.271   4.671  12.038  0.1416 -0.0476  0.2542
  903MPD2    C313227   1.285   4.708  11.907 -0.2395  0.1054 -0.1450
  903MPD2    C413228   1.412   4.721  11.848 -0.4817 -0.4849 -0.3955
  903MPD2    C513229   1.522   4.685  11.921  0.3554  0.8673  0.1546
  903MPD2     H13230   1.171   4.663  12.080  0.0834 -4.6900 -0.7220
  903MPD2    H113231   1.428   0.031  11.746  1.4567 -0.0544  0.0334
  903MPD2    H213232   1.597   4.627  12.102 -0.5711  0.1130  0.7308
  903MPD2    H313233   1.619   4.698  11.875  1.3512  0.3457  2.1101
  903MPD2     N13234   1.164   0.021  11.841 -0.3247  0.2340 -0.4393
  903MPD2    H513235   1.078   4.705  11.876  1.5114 -2.3439  1.0692
  903MPD2    N113236   1.372   4.613  12.250  0.3694 -0.3003 -0.3866
  903MPD2    H713237   1.464   4.603  12.293  0.1416 -0.6688  0.0028
  904MPD2     C13238   1.421   4.102  13.775  0.5414  0.2075  0.2918
  904MPD2    C113239   1.462   4.138  13.906  0.3610  0.0031 -0.7334
  904MPD2    C213240   1.581   4.088  13.954  0.3035 -0.5096  0.0189
  904MPD2    C313241   1.647   3.999  13.872  0.1796  0.3565  0.0031
  904MPD2    C413242   1.590   3.947  13.762 -0.4783  0.0866 -0.7159
  904MPD2    C513243   1.479   3.997  13.709 -0.0942  0.1946  0.6516
  904MPD2     H13244   1.612   4.116  14.053 -0.4911 -0.8472  0.3630
  904MPD2    H113245   1.641   3.874  13.700 -3.3394 -2.5400  0.0034
  904MPD2    H213246   1.336   4.143  13.721 -0.4473 -0.0732  1.6443
  904MPD2    H313247   1.418   3.958  13.628 -0.9070 -1.1680  1.8977
  904MPD2     N13248   1.772   3.952  13.928  0.1452  0.5516  0.3182
  904MPD2    H513249   1.813   4.010  14.001 -1.3032  1.6765  0.2317
  904MPD2    N113250   1.393   4.248  13.969  0.2530 -1.1585 -0.8473
  904MPD2    H713251   1.425   4.270  14.063  1.0415 -1.3481 -1.0727
  905MPD2     C13252   0.811   4.478  13.580 -0.3268  0.5198  0.0720
  905MPD2    C113253   0.902   4.396  13.632 -0.2232 -0.1451  0.9131
  905MPD2    C213254   0.925   4.270  13.576 -0.3969  0.0334 -0.5749
  905MPD2    C313255   0.852   4.229  13.460  0.1310  0.3404  0.3300
  905MPD2    C413256   0.762   4.319  13.407 -0.3616  0.2685  0.7183
  905MPD2    C513257   0.744   4.443  13.462  0.0137  0.5575 -0.4474
  905MPD2     H13258   0.995   4.197  13.615  0.0535  0.9215  0.2886
  905MPD2    H113259   0.703   4.283  13.323  1.7672 -1.5053 -0.0101
  905MPD2    H213260   0.804   4.582  13.611 -2.5865  0.7725 -1.2844
  905MPD2    H313261   0.679   4.512  13.410 -0.9524 -1.0552 -1.3637
  905MPD2     N13262   0.873   4.110  13.381  0.2726 -0.4754 -0.2749
  905MPD2    H513263   0.824   4.105  13.293 -1.8149 -2.7297  0.9981
  905MPD2    N113264   0.981   4.436  13.745  0.6838  0.1270 -0.0557
  905MPD2    H713265   1.052   4.370  13.775 -0.6437 -1.3551 -0.1925
  906MPD2     C13266   3.892   0.126  11.472  0.5223 -0.3379 -0.2582
  906MPD2    C113267   3.932   0.030  11.390  0.2466  0.3099  0.1031
  906MPD2    C213268   3.934   4.626  11.430 -0.0626 -0.0985 -0.2473
  906MPD2    C313269   3.887   4.590  11.557  0.1913 -0.3344 -0.5962
  906MPD2    C413270   3.834   4.694  11.633 -0.5023 -0.8273 -0.4394
  906MPD2    C513271   3.845   0.098  11.601 -0.9537  0.2285  0.3635
  906MPD2     H13272   3.969   4.546  11.365  0.6488  0.1933 -0.2155
  906MPD2    H113273   3.778   4.663  11.720  0.0912 -1.9270 -0.4510
  906MPD2    H213274   3.892   0.228  11.437  0.9390  0.1306  1.1026
  906MPD2    H313275   3.801   0.177  11.660 -0.2909 -1.1534  2.7243
  906MPD2     N13276   3.879   4.455  11.605 -0.2976  0.1004 -0.0176
  906MPD2    H513277   3.821   4.433  11.685 -1.5820  1.4242 -0.5842
  906MPD2    N113278   3.964   0.052  11.250 -0.0451 -0.0570  0.8809
  906MPD2    H713279   3.974   4.689  11.199 -0.5424  1.4215 -1.7752
  907MPD2     C13280   2.259   3.575  15.506 -0.1295 -0.7184  0.7370
  907MPD2    C113281   2.300   3.449  15.549 -0.0817 -0.2287  0.3663
  907MPD2    C213282   2.349   3.433  15.680  0.2286  0.2348 -0.2360
  907MPD2    C313283   2.358   3.534  15.773  0.5364 -0.6310  0.1558
  907MPD2    C413284   2.318   3.662  15.731  0.1986  0.3185 -0.2100
  907MPD2    C513285   2.272   3.676  15.604  0.2843  0.0198  0.0628
  907MPD2     H13286   2.372   3.332  15.713 -0.3299  0.9866  2.4567
  907MPD2    H113287   2.326   3.750  15.794  1.7290 -1.0925  1.5716
  907MPD2    H213288   2.228   3.604  15.406 -0.1944 -0.9162  0.7006
  907MPD2    H313289   2.243   3.777  15.580  2.0284  0.3168 -0.7938
  907MPD2     N13290   2.416   3.510  15.901  0.0944 -0.4003 -0.2444
  907MPD2    H513291   2.464   3.424  15.926  0.1971  0.2938  2.0001
  907MPD2    N113292   2.288   3.334  15.470  0.1114  0.3331  0.5681
  907MPD2    H713293   2.310   3.244  15.512  1.4167 -0.1257 -1.0916
  908MPD2     C13294   0.973   4.225   9.576  0.7811 -0.0785  0.4065
  908MPD2    C113295   0.879   4.136   9.637 -0.6877  0.4195 -0.1758
  908MPD2    C213296   0.858   4.138   9.771  0.0135  0.0897  0.4138
  908MPD2    C313297   0.926   4.228   9.851  0.2855  0.2944 -0.0147
  908MPD2    C413298   1.029   4.304   9.788  0.1683 -0.3615 -0.2199
  908MPD2    C513299   1.052   4.300   9.657 -0.3820  0.3333 -0.0819
  908MPD2     H13300   0.786   4.070   9.816  0.7816 -2.3039 -1.9701
  908MPD2    H113301   1.093   4.372   9.843 -0.4174  1.3629 -1.6898
  908MPD2    H213302   0.988   4.223   9.469 -0.7803 -0.3414  0.1922
  908MPD2    H313303   1.130   4.367   9.622 -0.3496 -0.7258 -2.0283
  908MPD2     N13304   0.907   4.232   9.992 -0.0528  0.1664 -0.4331
  908MPD2    H513305   0.849   4.156  10.027  0.7976  0.6805  2.0641
  908MPD2    N113306   0.806   4.039   9.570  0.3138 -0.1376 -0.3018
  908MPD2    H713307   0.738   3.995   9.631 -0.8685  2.5961  0.3335
  909MPD2     C13308   0.747   2.320  11.872 -0.2335  1.4175  0.0332
  909MPD2    C113309   0.696   2.408  11.784  0.2550 -0.3020  0.0659
  909MPD2    C213310   0.582   2.481  11.820  0.1521 -0.2181 -0.2561
  909MPD2    C313311   0.530   2.473  11.952 -0.3801 -0.1884 -0.0577
  909MPD2    C413312   0.582   2.384  12.038 -0.6006  0.2171  0.4028
  909MPD2    C513313   0.690   2.307  11.996  0.0976  0.1940  0.6186
  909MPD2     H13314   0.534   2.551  11.752  2.0593  0.6663 -0.6899
  909MPD2    H113315   0.542   2.357  12.135  1.2124 -0.5465  0.9256
  909MPD2    H213316   0.827   2.251  11.849 -0.5857  1.1764 -0.4489
  909MPD2    H313317   0.720   2.226  12.061 -0.5671  0.1113  0.8296
  909MPD2     N13318   0.437   2.571  11.986 -0.2090 -0.1768 -0.0034
  909MPD2    H513319   0.400   2.626  11.910  0.3444  1.7651  1.1342
  909MPD2    N113320   0.756   2.436  11.655 -0.0459 -0.8462  0.2017
  909MPD2    H713321   0.713   2.513  11.604  0.6041  0.4833  1.6790
  910MPD2     C13322   1.767   4.358  16.033  0.2639 -0.6801  0.0022
  910MPD2    C113323   1.832   4.258  15.971 -0.9787 -0.4692  0.7275
  910MPD2    C213324   1.810   4.230  15.840 -0.6514 -0.4280  0.0808
  910MPD2    C313325   1.724   4.310  15.761 -0.3909 -0.2033  0.0312
  910MPD2    C413326   1.659   4.416  15.822 -0.2185  0.2202  0.1987
  910MPD2    C513327   1.684   4.433  15.957  0.0771  0.5146  0.1318
  910MPD2     H13328   1.872   4.151  15.800 -0.5035 -0.6271  0.7128
  910MPD2    H113329   1.580   4.470  15.771  0.1406  0.7422  0.1935
  910MPD2    H213330   1.785   4.398  16.132 -4.1100 -0.7787  0.8403
  910MPD2    H313331   1.620   4.506  16.005 -1.4413 -0.1028 -0.9166
  910MPD2     N13332   1.703   4.289  15.622 -0.4087  0.3822 -0.1257
  910MPD2    H513333   1.634   4.346  15.576 -0.5577  0.1072 -0.2465
  910MPD2    N113334   1.922   4.171  16.032 -0.6702  0.2498 -0.3333
  910MPD2    H713335   1.953   4.091  15.978  2.1070  1.3656 -0.3994
  911MPD2     C13336   4.535   3.667  16.093  0.8071 -0.4480  1.1539
  911MPD2    C113337   4.553   3.697  16.229 -0.1268  0.1870  0.2560
  911MPD2    C213338   4.440   3.748  16.301 -0.7345  0.2269 -0.1418
  911MPD2    C313339   4.323   3.783  16.231  0.3726  0.3501  0.1597
  911MPD2    C413340   4.317   3.765  16.098  0.7641 -0.4594  0.2100
  911MPD2    C513341   4.416   3.700  16.031 -0.0663 -0.4076 -0.3431
  911MPD2     H13342   4.441   3.750  16.409  0.0180  3.4257 -0.1816
  911MPD2    H113343   4.223   3.792  16.050  2.4099 -0.2763 -2.8894
  911MPD2    H213344   4.600   3.602  16.036  0.8203 -0.4963  1.2232
  911MPD2    H313345   4.405   3.684  15.924  0.5559 -0.3930 -0.4106
  911MPD2     N13346   4.208   3.842  16.291 -0.2360  0.3430  0.0207
  911MPD2    H513347   4.130   3.873  16.233  0.0779  1.1689  0.0366
  911MPD2    N113348   4.681   3.689  16.294  0.4054 -0.1140 -0.7850
  911MPD2    H713349   0.029   3.653  16.233  0.4384  0.4759 -1.0984
  912MPD2     C13350   3.865   3.878  17.013  0.7013 -0.3582  0.1911
  912MPD2    C113351   3.934   3.988  16.980 -0.1274  0.1819 -0.2453
  912MPD2    C213352   3.990   4.059  17.082  0.3158 -0.8826 -0.3843
  912MPD2    C313353   3.979   4.016  17.216  0.1212 -0.0697  0.3226
  912MPD2    C413354   3.901   3.907  17.247 -0.0305 -0.2008  0.0381
  912MPD2    C513355   3.848   3.837  17.145  0.4830  0.3124  0.5447
  912MPD2     H13356   4.031   4.158  17.064  1.6568 -1.0388  1.6803
  912MPD2    H113357   3.898   3.863  17.346 -0.9239 -1.1165 -0.3902
  912MPD2    H213358   3.815   3.823  16.935  0.5887  0.5271 -0.3553
  912MPD2    H313359   3.783   3.755  17.173  0.8241 -0.2702 -0.3671
  912MPD2     N13360   4.034   4.089  17.324 -0.2921  0.3225 -0.5324
  912MPD2    H513361   4.009   4.065  17.420 -0.7150  1.8244 -0.2675
  912MPD2    N113362   3.961   4.003  16.841  0.5581  0.0164 -0.3923
  912MPD2    H713363   3.916   3.942  16.773  1.2310 -0.4406 -0.4326
  913MPD2     C13364   4.497   1.429  10.685  0.0343  0.0113  0.3814
  913MPD2    C113365   4.596   1.411  10.590 -0.6326  0.2631 -0.5951
  913MPD2    C213366   4.564   1.407  10.456  0.2558 -0.6603 -0.3204
  913MPD2    C313367   4.433   1.424  10.420 -0.1638  0.3465  0.3902
  913MPD2    C413368   4.340   1.444  10.511  0.6875  0.0515 -0.2004
  913MPD2    C513369   4.367   1.442  10.648 -0.3309 -0.0897  0.4120
  913MPD2     H13370   4.644   1.416  10.384  0.7627  0.3728  0.3674
  913MPD2    H113371   4.236   1.454  10.482  0.2854 -0.5096  1.0923
  913MPD2    H213372   4.522   1.442  10.789  0.8392 -1.4767  0.3867
  913MPD2    H313373   4.292   1.455  10.725  0.2654  3.0520  0.4377
  913MPD2     N13374   4.411   1.444  10.283 -0.3538  0.0502  0.0674
  913MPD2    H513375   4.323   1.490  10.259 -0.4880 -0.3834 -0.2856
  913MPD2    N113376   0.005   1.403  10.639  0.2306  0.0975  0.2075
  913MPD2    H713377   0.019   1.437  10.734 -0.7336 -0.1397  0.4307
  914MPD2     C13378   2.508   0.877  11.795  0.0914 -0.6150  0.4676
  914MPD2    C113379   2.484   1.011  11.822 -0.4015 -1.0749  0.0856
  914MPD2    C213380   2.525   1.062  11.942 -0.5051 -0.0444  0.1852
  914MPD2    C313381   2.595   0.988  12.038  0.6834 -0.6472  0.3517
  914MPD2    C413382   2.607   0.851  12.016  0.0865  0.5395 -0.0366
  914MPD2    C513383   2.564   0.803  11.892 -0.0557  0.9831 -0.1867
  914MPD2     H13384   2.504   1.167  11.962 -0.3265  0.4018 -2.0153
  914MPD2    H113385   2.649   0.771  12.075 -0.1235 -0.2719 -0.9785
  914MPD2    H213386   2.465   0.841  11.702  1.9316 -0.3018 -0.5162
  914MPD2    H313387   2.561   0.696  11.875  0.4651  1.3127 -2.3115
  914MPD2     N13388   2.627   1.055  12.159 -0.0114 -0.1436 -0.2175
  914MPD2    H513389   2.611   1.155  12.156  0.0154 -0.1398 -0.2347
  914MPD2    N113390   2.408   1.087  11.727 -0.3337  0.2091 -0.1252
  914MPD2    H713391   2.415   1.048  11.633 -2.6614 -1.1842  0.2523
  915MPD2     C13392   1.327   1.554  15.848 -0.5516 -0.3044  0.2943
  915MPD2    C113393   1.203   1.493  15.833  0.6663  0.2062  0.6445
  915MPD2    C213394   1.116   1.487  15.939 -1.2343 -0.2544 -0.0637
  915MPD2    C313395   1.140   1.549  16.053  0.4990 -0.1418  0.6574
  915MPD2    C413396   1.261   1.619  16.069  0.0742 -0.3213  0.4445
  915MPD2    C513397   1.354   1.612  15.967 -0.2917  0.2298  0.6033
  915MPD2     H13398   1.020   1.436  15.935 -0.7981 -1.2069  1.6101
  915MPD2    H113399   1.293   1.665  16.161  0.5802 -0.6949  0.4535
  915MPD2    H213400   1.400   1.548  15.769  0.1330 -2.2739  1.0573
  915MPD2    H313401   1.446   1.668  15.977  0.3173 -0.6521 -0.1813
  915MPD2     N13402   1.041   1.538  16.157 -0.0535  0.0035  0.1826
  915MPD2    H513403   0.956   1.487  16.135  0.9214 -0.6192 -2.1061
  915MPD2    N113404   1.185   1.439  15.703 -0.7553 -0.2530 -0.0915
  915MPD2    H713405   1.247   1.467  15.629 -1.7404  0.8347 -0.4993
  916MPD2     C13406   3.480   0.022  16.102  0.4746  0.0454 -0.0062
  916MPD2    C113407   3.496   4.616  16.151 -0.2839  0.0105 -0.4001
  916MPD2    C213408   3.570   4.527  16.077  0.5771  0.1585 -0.4090
  916MPD2    C313409   3.627   4.560  15.958 -0.1579  0.3044  0.1640
  916MPD2    C413410   3.604   4.684  15.907  0.2872 -0.1360 -0.3102
  916MPD2    C513411   3.531   0.050  15.979 -1.0813 -0.5775  0.5513
  916MPD2     H13412   3.593   4.426  16.108  2.8191  0.6690 -0.3855
  916MPD2    H113413   3.643   4.722  15.813  2.7268  1.6050  1.4058
  916MPD2    H213414   3.441   0.098  16.170  0.4573 -1.5549  1.7753
  916MPD2    H313415   3.507   0.145  15.935  0.8002 -0.1375  0.4531
  916MPD2     N13416   3.705   4.459  15.891 -0.1611 -0.0985  0.2620
  916MPD2    H513417   3.728   4.376  15.944  0.6979 -0.5866 -0.8667
  916MPD2    N113418   3.453   4.603  16.285 -0.1527 -0.6909 -0.1446
  916MPD2    H713419   3.404   4.679  16.332  0.4925  0.7145 -1.7639
  917MPD2     C13420   4.559   1.883  11.671 -0.2962  0.7342 -0.0979
  917MPD2    C113421   4.458   1.933  11.601 -0.6258  0.5738 -0.6708
  917MPD2    C213422   4.484   1.997  11.489 -0.0212 -0.5676  0.0579
  917MPD2    C313423   4.617   2.013  11.443 -0.5952  0.2122  0.3442
  917MPD2    C413424   4.724   1.949  11.510  0.0318  0.2921 -0.2391
  917MPD2    C513425   4.682   1.885  11.624 -0.1957 -0.0131 -0.0558
  917MPD2     H13426   4.399   2.044  11.441  1.0257  1.3870  0.1341
  917MPD2    H113427   0.105   1.961  11.489  0.1307 -1.4530 -0.7371
  917MPD2    H213428   4.542   1.846  11.771  3.4057  1.5856  0.8447
  917MPD2    H313429   0.027   1.831  11.687 -1.3065 -1.7164 -0.2811
  917MPD2     N13430   4.648   2.083  11.328  0.1965 -0.6891  0.9769
  917MPD2    H513431   0.017   2.070  11.291  0.3487 -1.0393  1.4843
  917MPD2    N113432   4.328   1.919  11.656 -0.6212  0.1591 -0.9040
  917MPD2    H713433   4.323   1.916  11.757 -2.4444 -0.6028 -1.0346
  918MPD2     C13434   4.340   2.478  12.234  0.2315  0.2152 -0.0956
  918MPD2    C113435   4.414   2.369  12.197  0.7238  0.1974  0.5391
  918MPD2    C213436   4.345   2.269  12.132 -0.2708  1.0686  0.3719
  918MPD2    C313437   4.212   2.285  12.095 -0.0195  0.3660  0.4941
  918MPD2    C413438   4.141   2.395  12.144 -0.6100 -0.3609 -0.6270
  918MPD2    C513439   4.208   2.492  12.209 -0.9634 -0.7654 -0.1330
  918MPD2     H13440   4.397   2.180  12.097  0.9624  2.5610 -1.6153
  918MPD2    H113441   4.033   2.402  12.133 -0.5233  2.8722  0.8225
  918MPD2    H213442   4.387   2.554  12.295  0.5648  0.1303 -0.2498
  918MPD2    H313443   4.152   2.575  12.252  0.0268  0.3485 -1.0142
  918MPD2     N13444   4.158   2.186  12.008  0.0294  1.2923  0.2797
  918MPD2    H513445   4.215   2.106  11.985 -0.6553  1.0188 -0.4266
  918MPD2    N113446   4.551   2.353  12.218  0.3660  0.5014 -0.5570
  918MPD2    H713447   4.595   2.271  12.178  0.6368  0.8284 -0.9333
  919MPD2     C13448   0.363   0.980  11.929  0.2834 -0.2080  0.1400
  919MPD2    C113449   0.273   0.882  11.883  0.1881 -0.0027 -0.4162
  919MPD2    C213450   0.247   0.887  11.746  0.0412  0.3120  0.4814
  919MPD2    C313451   0.300   0.978  11.659  0.1355 -0.0836  0.3070
  919MPD2    C413452   0.398   1.067  11.707 -0.6155 -0.4802 -0.5967
  919MPD2    C513453   0.422   1.066  11.838 -0.1347  0.0252 -0.0846
  919MPD2     H13454   0.173   0.815  11.712  1.3192 -2.0535  2.6949
  919MPD2    H113455   0.453   1.136  11.644  1.5008 -0.2954  1.4459
  919MPD2    H213456   0.396   0.979  12.032  0.1028  0.6980  0.2074
  919MPD2    H313457   0.479   1.144  11.887  0.1808  0.2952 -0.8779
  919MPD2     N13458   0.276   0.986  11.518 -0.0477 -0.0177  0.2876
  919MPD2    H513459   0.324   1.057  11.464 -0.0911  0.1115  0.4191
  919MPD2    N113460   0.225   0.780  11.969 -0.4580  0.9278 -0.2813
  919MPD2    H713461   0.179   0.700  11.927  2.1052  0.2384 -1.7536
  920MPD2     C13462   4.268   1.306  11.013  0.0092  0.0074  1.2748
  920MPD2    C113463   4.298   1.202  10.935  0.1390  0.7515 -0.7220
  920MPD2    C213464   4.423   1.144  10.936 -0.3841 -0.1799 -0.2261
  920MPD2    C313465   4.519   1.188  11.023 -0.3693  0.4332  0.2246
  920MPD2    C413466   4.491   1.300  11.099 -0.4682 -0.3296  0.2194
  920MPD2    C513467   4.365   1.358  11.099 -0.3089 -0.0971  0.7653
  920MPD2     H13468   4.459   1.065  10.871 -1.6651 -0.8487 -0.1256
  920MPD2    H113469   4.558   1.339  11.175  1.1431 -1.3040 -0.7129
  920MPD2    H213470   4.168   1.347  11.010  0.3233  0.4926 -2.7264
  920MPD2    H313471   4.343   1.436  11.170  1.0383 -0.5091  1.6340
  920MPD2     N13472   4.641   1.118  11.031  0.3961  0.2147  0.4785
  920MPD2    H513473   4.641   1.032  10.976  0.2800 -0.5078  1.6161
  920MPD2    N113474   4.207   1.149  10.848  0.9309  0.0115  0.5610
  920MPD2    H713475   4.252   1.090  10.780 -2.2157 -0.3124 -1.2258
  921MPD2     C13476   0.076   4.340  16.742 -0.1239  0.2664  0.1336
  921MPD2    C113477   0.203   4.302  16.765 -0.1850 -0.3425 -0.4949
  921MPD2    C213478   0.231   4.164  16.755 -0.4276 -0.2703  0.2747
  921MPD2    C313479   0.136   4.066  16.737 -0.0492  0.1404  0.3634
  921MPD2    C413480   0.010   4.107  16.713 -0.1765  0.1033 -0.0826
  921MPD2    C513481   4.703   4.243  16.712  0.1328  0.2804 -0.2174
  921MPD2     H13482   0.334   4.135  16.771 -0.5517 -1.0720 -0.3742
  921MPD2    H113483   4.653   4.035  16.709  0.4987 -0.6799  0.2850
  921MPD2    H213484   0.043   4.442  16.752 -0.1000  0.4373 -1.3947
  921MPD2    H313485   4.602   4.280  16.703 -0.0141  0.6110  2.7530
  921MPD2     N13486   0.159   3.928  16.721 -0.1349  0.4964 -0.4458
  921MPD2    H513487   0.079   3.868  16.710 -0.4274  0.8119 -0.0300
  921MPD2    N113488   0.298   4.404  16.774  0.1203  0.4663  0.8493
  921MPD2    H713489   0.262   4.499  16.772  1.0040  0.7737 -0.8138
  922MPD2     C13490   1.516   2.303  17.540 -0.7457  0.4315 -0.0568
  922MPD2    C113491   1.515   2.342  17.409  0.1665  0.2449 -0.0045
  922MPD2    C213492   1.399   2.322  17.336 -0.8512 -0.0221  0.4553
  922MPD2    C313493   1.297   2.239  17.377  0.1783 -0.0494 -0.5575
  922MPD2    C413494   1.321   2.179  17.496  0.6374 -0.2746 -0.1222
  922MPD2    C513495   1.425   2.213  17.580  0.3391  0.0388 -0.0377
  922MPD2     H13496   1.383   2.367  17.238  4.2459 -0.2185 -0.4594
  922MPD2    H113497   1.255   2.106  17.541 -0.5187 -0.0473 -1.4616
  922MPD2    H213498   1.592   2.321  17.615 -0.2510 -0.2208 -0.4031
  922MPD2    H313499   1.431   2.179  17.683  0.8754  0.3654  0.0371
  922MPD2     N13500   1.169   2.238  17.320 -0.3871  0.0643 -0.0919
  922MPD2    H513501   1.156   2.297  17.238 -0.3663 -0.5655 -0.5481
  922MPD2    N113502   1.613   2.428  17.364  0.0019  0.1911  0.0685
  922MPD2    H713503   1.589   2.454  17.269  0.1051  2.6429  0.7061
  923MPD2     C13504   3.886   4.503   9.828  0.3007  0.3532 -0.3655
  923MPD2    C113505   3.854   4.640   9.829 -0.9358  0.3551 -0.1205
  923MPD2    C213506   3.935   0.002   9.900 -0.2713  0.8939 -0.4920
  923MPD2    C313507   4.027   4.679   9.993  0.9716  0.4140 -0.4941
  923MPD2    C413508   4.058   4.545   9.995  0.1938 -0.7024 -0.4074
  923MPD2    C513509   3.984   4.457   9.920 -0.6717 -0.7449  0.2782
  923MPD2     H13510   3.903   0.105   9.900 -0.7830  0.7356 -1.2733
  923MPD2    H113511   4.138   4.514  10.060  0.6927  0.3499 -0.5176
  923MPD2    H213512   3.818   4.433   9.782  1.2353 -0.0899 -1.0633
  923MPD2    H313513   3.993   4.350   9.932  1.0194 -0.3877  2.3093
  923MPD2     N13514   4.098   0.037  10.087  0.1578 -0.2290  0.0672
  923MPD2    H513515   4.157   4.721  10.159  2.4163 -0.2470 -1.7991
  923MPD2    N113516   3.750   4.680   9.743 -0.1668 -0.1282 -0.6596
  923MPD2    H713517   3.712   4.602   9.690 -1.0419 -0.5808  0.6355
  924MPD2     C13518   2.697   2.753  16.104  1.3261  0.9095  0.3634
  924MPD2    C113519   2.685   2.821  16.223  0.0156 -0.1647 -0.5094
  924MPD2    C213520   2.679   2.956  16.221  0.0733 -0.1571 -0.2455
  924MPD2    C313521   2.682   3.025  16.103  0.1124  0.2373  0.6443
  924MPD2    C413522   2.683   2.961  15.987 -0.2454 -0.1764  0.3132
  924MPD2    C513523   2.695   2.826  15.988  0.2512  0.1993  0.2464
  924MPD2     H13524   2.694   3.006  16.317  1.9561 -0.1293 -0.5515
  924MPD2    H113525   2.676   3.012  15.892 -0.5099  0.3466  0.6137
  924MPD2    H213526   2.705   2.645  16.095 -1.7652  0.6518  0.6162
  924MPD2    H313527   2.692   2.778  15.891 -0.4663 -2.6810  1.6970
  924MPD2     N13528   2.681   3.169  16.102  0.1248 -0.1979 -0.2225
  924MPD2    H513529   2.672   3.212  16.011  1.1571  2.0266  0.7318
  924MPD2    N113530   2.681   2.755  16.346  0.3067  0.4019  0.2629
  924MPD2    H713531   2.741   2.673  16.342 -0.4446 -0.0532 -1.7706
  925MPD2     C13532   1.082   0.980  14.583  0.1027 -0.0457 -0.4612
  925MPD2    C113533   1.164   0.882  14.642 -0.2701  0.4578 -0.6843
  925MPD2    C213534   1.163   0.865  14.775 -0.5037  0.9702 -0.0589
  925MPD2    C313535   1.075   0.931  14.858 -0.3563  0.0934 -0.1136
  925MPD2    C413536   0.994   1.029  14.805  0.2320 -0.1679 -0.0343
  925MPD2    C513537   0.996   1.054  14.666  0.1633  0.4311  0.6731
  925MPD2     H13538   1.228   0.788  14.815 -1.2809  2.4861  4.0382
  925MPD2    H113539   0.928   1.095  14.860 -1.4211  0.8685 -3.2848
  925MPD2    H213540   1.089   0.998  14.476 -1.9846  0.3113 -0.5253
  925MPD2    H313541   0.928   1.128  14.625 -0.4739 -1.1827 -1.1599
  925MPD2     N13542   1.058   0.894  14.997  0.1224 -0.6215 -0.3690
  925MPD2    H513543   0.988   0.939  15.056  3.2760  0.2488  2.6898
  925MPD2    N113544   1.249   0.792  14.569  0.2226 -0.0375 -0.4514
  925MPD2    H713545   1.301   0.732  14.632 -2.2874 -0.6002  1.0602
  926MPD2     C13546   0.397   4.003  13.480  0.1841 -0.4231 -0.8345
  926MPD2    C113547   0.285   4.031  13.410 -0.2058  0.3340  0.4432
  926MPD2    C213548   0.290   4.021  13.272  0.3442 -0.2563 -0.4249
  926MPD2    C313549   0.405   3.991  13.207  0.0855 -0.3742  1.0179
  926MPD2    C413550   0.516   3.960  13.282  0.5520  0.0538  0.2877
  926MPD2    C513551   0.506   3.962  13.414 -0.1687 -1.0622 -0.3379
  926MPD2     H13552   0.210   4.063  13.213 -0.9097 -0.0024  1.4772
  926MPD2    H113553   0.604   3.911  13.244 -0.5569  0.5966 -2.9704
  926MPD2    H213554   0.410   4.014  13.586  0.4337 -1.0431 -0.8038
  926MPD2    H313555   0.596   3.932  13.467 -0.8579  0.7918  1.8648
  926MPD2     N13556   0.415   4.001  13.066  0.2380  0.5186 -0.2126
  926MPD2    H513557   0.505   3.978  13.026  0.5239 -0.9391  1.2635
  926MPD2    N113558   0.166   4.079  13.458  0.1084  0.8126 -0.3058
  926MPD2    H713559   0.095   4.089  13.386 -0.1187 -1.0817 -0.3431
  927MPD2     C13560   0.217   1.069   0.205  0.0899 -0.2591  0.7113
  927MPD2    C113561   0.280   1.170   0.279  0.9748 -0.0666  0.5622
  927MPD2    C213562   0.408   1.209   0.232 -0.7186  0.7103 -0.4368
  927MPD2    C313563   0.466   1.134   0.127 -0.0262  0.5577 -0.2652
  927MPD2    C413564   0.402   1.031   0.063  0.4247 -0.2436  0.2809
  927MPD2    C513565   0.271   0.998   0.103 -0.2099  0.7313 -0.0119
  927MPD2     H13566   0.458   1.300   0.262 -1.5523  1.3667 -1.0332
  927MPD2    H113567   0.442   0.985  17.670  0.6321 -0.3182  0.4095
  927MPD2    H213568   0.115   1.040   0.228 -0.4899  0.5455 -0.7939
  927MPD2    H313569   0.228   0.911   0.054 -1.4652  1.0213  0.5733
  927MPD2     N13570   0.601   1.164   0.097  0.2201 -0.2015  0.2945
  927MPD2    H513571   0.645   1.242   0.145  0.6573 -1.4051  1.8356
  927MPD2    N113572   0.203   1.241   0.373 -0.8178  0.3039  0.7825
  927MPD2    H713573   0.112   1.204   0.397 -0.6979 -0.3964  0.1749
  928MPD2     C13574   2.820   4.303   1.574  0.2128 -0.4433 -0.4985
  928MPD2    C113575   2.898   4.191   1.541  0.2396  0.4031  0.4701
  928MPD2    C213576   2.921   4.156   1.406  0.4648 -0.4261 -0.2081
  928MPD2    C313577   2.862   4.234   1.313  0.5193  0.4035  0.2309
  928MPD2    C413578   2.781   4.340   1.347  0.2713 -0.4248 -0.4158
  928MPD2    C513579   2.754   4.369   1.475 -0.0606  0.4496  0.1447
  928MPD2     H13580   3.002   4.087   1.382  1.6806  1.0493 -0.3300
  928MPD2    H113581   2.737   4.401   1.269 -0.0153 -0.0354  0.0501
  928MPD2    H213582   2.822   4.341   1.676  1.3369 -0.3664 -0.5500
  928MPD2    H313583   2.689   4.452   1.501  0.0737 -0.1392  2.3590
  928MPD2     N13584   2.902   4.228   1.174  0.0684  0.1481 -0.2491
  928MPD2    H513585   2.870   4.313   1.129  0.7758 -0.6815 -2.3299
  928MPD2    N113586   2.969   4.132   1.648 -0.3425  0.4289  0.1762
  928MPD2    H713587   2.969   4.174   1.740 -1.2331  0.9649 -0.0704
  929MPD2     C13588   3.389   4.377  10.740 -0.5025  0.0317 -0.1060
  929MPD2    C113589   3.271   4.303  10.748 -0.4866  0.3553 -0.3161
  929MPD2    C213590   3.171   4.313  10.651  0.2693 -0.4387  0.3727
  929MPD2    C313591   3.185   4.414  10.555 -0.2292 -0.8454 -0.4028
  929MPD2    C413592   3.294   4.499  10.564  0.3044 -0.2976  0.6644
  929MPD2    C513593   3.399   4.471  10.648 -0.0328  0.0306  0.3146
  929MPD2     H13594   3.074   4.266  10.662  0.4494 -0.6441  1.1144
  929MPD2    H113595   3.297   4.586  10.500  0.0019  0.0064  1.0626
  929MPD2    H213596   3.468   4.357  10.811 -1.8641 -3.2788  0.5001
  929MPD2    H313597   3.488   4.532  10.650 -0.5065  0.7577 -0.5925
  929MPD2     N13598   3.086   4.464  10.470 -0.0124  0.6802 -0.1965
  929MPD2    H513599   3.107   4.550  10.421  0.2758  0.5801 -0.2475
  929MPD2    N113600   3.265   4.227  10.868 -0.0490 -0.6390  0.1196
  929MPD2    H713601   3.346   4.227  10.928 -0.5053 -0.2886  0.7326
  930MPD2     C13602   0.018   2.065  14.474  0.1656  0.0605  0.5098
  930MPD2    C113603   4.715   2.151  14.375  0.3387  0.2022  0.2508
  930MPD2    C213604   4.646   2.117  14.268 -0.3415  0.5899  0.0376
  930MPD2    C313605   4.619   1.983  14.245 -0.2452 -0.0328  0.7820
  930MPD2    C413606   4.654   1.890  14.341  0.7617 -0.6626  1.1604
  930MPD2    C513607   4.700   1.930  14.463  0.9750 -0.0955 -0.1875
  930MPD2     H13608   4.623   2.194  14.194 -1.4353  1.3367  1.1460
  930MPD2    H113609   4.624   1.786  14.337  0.3898 -0.5260  0.4786
  930MPD2    H213610   0.074   2.096  14.562  0.3286 -0.8049  0.7136
  930MPD2    H313611   0.005   1.865  14.545  2.6947  0.9326  0.0164
  930MPD2     N13612   4.555   1.940  14.121 -0.1522  0.0600  0.5470
  930MPD2    H513613   4.560   1.840  14.106 -0.6987  0.3916 -1.8796
  930MPD2    N113614   0.075   2.265  14.376 -0.3171 -0.2373  0.0796
  930MPD2    H713615   0.146   2.275  14.448  2.3384 -1.9307 -2.3055
  931MPD2     C13616   0.059   1.836   1.056  0.4344 -0.0878 -0.0304
  931MPD2    C113617   0.086   1.698   1.039  0.4841  0.4695  0.8114
  931MPD2    C213618   0.099   1.624   1.156  0.4798  0.3387  0.1320
  931MPD2    C313619   0.067   1.673   1.277 -0.1614  0.6998 -0.8392
  931MPD2    C413620   0.017   1.804   1.288  1.0968  0.3167  0.7225
  931MPD2    C513621   0.043   1.886   1.182  0.1843  0.0126  0.7276
  931MPD2     H13622   0.150   1.528   1.153 -2.1391 -1.0443 -0.5573
  931MPD2    H113623   4.709   1.836   1.387 -3.7318  0.9257 -1.0465
  931MPD2    H213624   0.047   1.907   0.975  0.5806  0.2787  0.2705
  931MPD2    H313625   0.025   1.993   1.192  2.0848  0.4432 -0.4899
  931MPD2     N13626   0.045   1.592   1.389  0.9093 -0.2057  0.2136
  931MPD2    H513627   0.009   1.635   1.473  2.7157  2.9856 -0.6105
  931MPD2    N113628   0.095   1.651   0.910  0.4213  0.0007  0.3584
  931MPD2    H713629   0.066   1.719   0.839  1.9874  2.1212  1.7592
  932MPD2     C13630   2.164   0.160  11.580 -0.4292 -0.7215 -0.7208
  932MPD2    C113631   2.129   0.218  11.703 -0.4322 -0.6601  0.1504
  932MPD2    C213632   2.181   0.176  11.828  0.3483  0.1173 -0.1526
  932MPD2    C313633   2.266   0.072  11.827  0.1776  0.2525 -0.2483
  932MPD2    C413634   2.285   0.006  11.709  0.1581  0.1228  0.3560
  932MPD2    C513635   2.250   0.054  11.584 -0.3554  0.3068 -0.2668
  932MPD2     H13636   2.145   0.221  11.920  0.7253  2.1852 -1.0116
  932MPD2    H113637   2.342   4.638  11.715 -0.4766 -0.4153 -1.7103
  932MPD2    H213638   2.125   0.201  11.488  0.9205 -1.2147 -1.5197
  932MPD2    H313639   2.278   4.723  11.495  0.2789  2.2273 -1.2447
  932MPD2     N13640   2.311   0.004  11.939 -0.4681 -0.3036 -0.0364
  932MPD2    H513641   2.351   4.637  11.921 -1.1294 -0.1732 -2.1406
  932MPD2    N113642   2.054   0.336  11.687  0.3694 -0.4179 -0.4889
  932MPD2    H713643   2.044   0.368  11.591  1.1715  2.8971  0.5445
  933MPD2     C13644   3.703   4.215   2.091 -0.0078 -0.2763  0.2750
  933MPD2    C113645   3.589   4.265   2.028 -0.2824  0.1633  0.2905
  933MPD2    C213646   3.580   4.400   2.007 -0.3955  0.0178  0.3448
  933MPD2    C313647   3.670   4.488   2.056 -0.6520 -0.0970  0.4343
  933MPD2    C413648   3.782   4.443   2.119  0.3818  0.3722 -0.3145
  933MPD2    C513649   3.795   4.306   2.144 -0.4489  0.7274  0.7443
  933MPD2     H13650   3.495   4.444   1.956  1.1974  1.1599 -1.3342
  933MPD2    H113651   3.858   4.509   2.159  1.8946 -2.0767  0.8266
  933MPD2    H213652   3.709   4.108   2.112 -1.2397 -0.8230 -2.2417
  933MPD2    H313653   3.878   4.267   2.202  0.0323  2.5345  1.2590
  933MPD2     N13654   3.647   4.631   2.040  0.1846  0.4831 -0.6688
  933MPD2    H513655   3.566   4.661   1.988 -1.2109  0.5273  1.5374
  933MPD2    N113656   3.495   4.168   1.979 -0.0177 -0.0820 -0.3197
  933MPD2    H713657   3.503   4.074   2.018 -1.1137 -0.8082 -1.8281
  934MPD2     C13658   3.978   1.601   1.996 -0.5095  0.8328  0.6295
  934MPD2    C113659   4.052   1.669   1.900  0.2899 -0.0954 -0.6539
  934MPD2    C213660   4.030   1.642   1.765  0.3193  0.8244  0.1551
  934MPD2    C313661   3.931   1.560   1.726  0.1101 -0.7025  0.1254
  934MPD2    C413662   3.865   1.477   1.815 -1.1599  0.0663  0.2432
  934MPD2    C513663   3.889   1.506   1.946  0.5226  0.2826  0.2517
  934MPD2     H13664   4.091   1.701   1.698 -0.4881 -1.2147 -2.3656
  934MPD2    H113665   3.793   1.402   1.782 -1.0468 -0.1780  0.5617
  934MPD2    H213666   3.989   1.621   2.102  0.1776 -1.0215  0.9148
  934MPD2    H313667   3.836   1.448   2.021  2.5789  0.4508  1.8208
  934MPD2     N13668   3.907   1.529   1.590 -0.0560 -0.2385 -0.3367
  934MPD2    H513669   3.840   1.455   1.570 -1.3299  1.3959 -2.0646
  934MPD2    N113670   4.150   1.767   1.928 -0.1557 -0.3555  0.4061
  934MPD2    H713671   4.206   1.806   1.853 -1.9789  0.1841 -0.6682
  935MPD2     C13672   4.175   0.777   1.179  0.1108 -0.8322  0.2983
  935MPD2    C113673   4.048   0.809   1.123  0.0860 -0.3112  0.4816
  935MPD2    C213674   3.991   0.930   1.150  0.1530 -1.4292  0.1531
  935MPD2    C313675   4.054   1.030   1.221  0.8609  0.6178  0.1903
  935MPD2    C413676   4.176   0.995   1.279 -0.0591  0.3817  0.2155
  935MPD2    C513677   4.234   0.873   1.255  0.0286 -0.2212  0.1643
  935MPD2     H13678   3.897   0.954   1.101  0.7377 -0.7924 -0.6599
  935MPD2    H113679   4.233   1.059   1.346  0.7550 -0.9452  0.7823
  935MPD2    H213680   4.228   0.683   1.171 -0.4065 -1.3957  3.4858
  935MPD2    H313681   4.323   0.839   1.306 -1.6009  0.7526  3.6637
  935MPD2     N13682   4.000   1.165   1.239  0.2881  0.0366 -0.0179
  935MPD2    H513683   4.059   1.222   1.298  0.8223  1.4575 -1.9118
  935MPD2    N113684   3.983   0.717   1.036 -0.2548  0.1024  0.1504
  935MPD2    H713685   3.897   0.758   1.003 -0.3362  0.3597  0.6807
  936MPD2     C13686   2.587   3.584  12.554 -0.0837 -0.0298  0.4819
  936MPD2    C113687   2.572   3.669  12.662  0.0328 -0.5102  0.4379
  936MPD2    C213688   2.567   3.801  12.636 -0.7286 -0.6216 -0.0561
  936MPD2    C313689   2.584   3.850  12.506  0.3188 -1.4772 -0.4350
  936MPD2    C413690   2.610   3.764  12.400 -0.3228  0.0301  0.4233
  936MPD2    C513691   2.607   3.631  12.430  0.1304 -0.5832  0.0876
  936MPD2     H13692   2.544   3.863  12.723 -0.2321  0.7975 -0.9391
  936MPD2    H113693   2.633   3.801  12.301 -1.5862 -1.2479 -0.3522
  936MPD2    H213694   2.594   3.477  12.566 -2.5984 -0.3448 -0.8320
  936MPD2    H313695   2.623   3.555  12.355  1.6574  0.4262 -0.5965
  936MPD2     N13696   2.555   3.986  12.490  1.1735 -0.2787 -0.6480
  936MPD2    H513697   2.524   4.034  12.574 -0.3286 -1.5142 -0.4978
  936MPD2    N113698   2.539   3.637  12.796 -0.3293  0.1832  0.5109
  936MPD2    H713699   2.521   3.716  12.857 -0.6512  1.2887 -1.0020
  937MPD2     C13700   0.020   0.071  11.991 -0.5432  0.5850  0.6569
  937MPD2    C113701   0.095   0.180  11.946 -0.1730  0.7480 -0.4361
  937MPD2    C213702   0.146   0.168  11.817  0.2330 -0.1057 -0.1734
  937MPD2    C313703   0.133   0.051  11.740 -0.0584 -0.4852 -1.0223
  937MPD2    C413704   0.062   4.670  11.794  0.2839 -0.3747 -0.0990
  937MPD2    C513705   0.006   4.679  11.920 -0.0740 -0.3477 -0.4646
  937MPD2     H13706   0.193   0.253  11.769  0.8664  0.7769  1.9977
  937MPD2    H113707   0.033   4.579  11.743 -2.4984  0.9947 -0.9576
  937MPD2    H213708   4.697   0.074  12.089  0.2559 -2.5345  1.1269
  937MPD2    H313709   4.670   4.605  11.971  0.2429 -0.4277 -0.2028
  937MPD2     N13710   0.192   0.057  11.613 -0.0194 -0.7107 -0.6488
  937MPD2    H513711   0.240   0.145  11.593 -0.5496 -0.2600  0.0853
  937MPD2    N113712   0.088   0.315  12.000  0.0167 -0.2896 -0.4560
  937MPD2    H713713   0.154   0.379  11.958  0.9821 -0.9320  0.0885
  938MPD2     C13714   2.944   1.616   0.284  0.0852  0.3628  0.3972
  938MPD2    C113715   2.996   1.645   0.403  0.2998 -0.0492 -0.6004
  938MPD2    C213716   2.957   1.579   0.519  0.1440  0.5015 -0.3863
  938MPD2    C313717   2.848   1.495   0.523  0.1978  0.7973  0.2461
  938MPD2    C413718   2.800   1.458   0.394  0.1693  0.3050 -0.1714
  938MPD2    C513719   2.853   1.509   0.280  0.7816  0.2918 -0.2882
  938MPD2     H13720   3.015   1.594   0.609 -1.4785 -1.4687  0.9892
  938MPD2    H113721   2.725   1.380   0.390  0.8888 -0.4094  0.1116
  938MPD2    H213722   2.959   1.653   0.183 -2.5257 -0.8209 -0.4355
  938MPD2    H313723   2.806   1.492   0.184  0.0317  0.7384  0.0019
  938MPD2     N13724   2.806   1.432   0.644  0.6737  0.5259  0.4572
  938MPD2    H513725   2.748   1.349   0.636  1.0319  0.1033  2.3277
  938MPD2    N113726   3.102   1.732   0.418 -0.2382 -0.0618  0.1592
  938MPD2    H713727   3.137   1.744   0.512 -1.2271  1.7829  0.2886
  939MPD2     C13728   3.808   2.800   1.685 -0.1969  0.7031 -0.4427
  939MPD2    C113729   3.731   2.852   1.589  0.5191 -0.5210 -0.4554
  939MPD2    C213730   3.754   2.821   1.451  0.1387 -0.4201  0.4326
  939MPD2    C313731   3.854   2.733   1.412 -0.1530  0.1996 -0.8147
  939MPD2    C413732   3.931   2.680   1.518 -0.8612 -0.2856  0.3789
  939MPD2    C513733   3.911   2.723   1.646  0.3081 -0.4767  0.0966
  939MPD2     H13734   3.689   2.858   1.373 -0.5572  0.3225  1.3576
  939MPD2    H113735   4.017   2.617   1.497 -0.8793 -0.0180 -0.5190
  939MPD2    H213736   3.796   2.826   1.789  0.1096  1.7558 -0.6684
  939MPD2    H313737   3.973   2.666   1.714  3.0565  0.6690 -1.4439
  939MPD2     N13738   3.882   2.716   1.275 -0.3872 -0.3800  0.0773
  939MPD2    H513739   3.823   2.770   1.213  0.1815  1.1824  0.8959
  939MPD2    N113740   3.627   2.945   1.625  0.2666 -1.1034 -0.2444
  939MPD2    H713741   3.608   2.976   1.719 -1.0915 -1.4772 -0.3893
  940MPD2     C13742   3.669   3.223  13.246 -0.2905 -0.9833 -0.3078
  940MPD2    C113743   3.565   3.304  13.267 -0.1941 -0.4444  0.1241
  940MPD2    C213744   3.524   3.393  13.170 -0.4428  0.1497 -0.5168
  940MPD2    C313745   3.589   3.400  13.047  0.3623 -0.4602  0.5081
  940MPD2    C413746   3.702   3.313  13.027  0.7484  0.0447 -0.6189
  940MPD2    C513747   3.747   3.230  13.134  0.0070 -0.1686  0.0523
  940MPD2     H13748   3.443   3.460  13.195 -0.8315 -0.0149 -1.3532
  940MPD2    H113749   3.758   3.314  12.934  1.2587  0.0590 -0.3046
  940MPD2    H213750   3.702   3.150  13.318  0.5286 -0.5451 -0.2449
  940MPD2    H313751   3.830   3.160  13.137  0.8487  0.8501  0.4651
  940MPD2     N13752   3.557   3.486  12.937 -0.2346 -0.0330 -0.1101
  940MPD2    H513753   3.593   3.463  12.845 -0.8356  1.1185 -0.6303
  940MPD2    N113754   3.497   3.317  13.392 -0.1802  0.1618  0.0192
  940MPD2    H713755   3.419   3.382  13.396 -2.1673 -2.3225  2.1020
  941MPD2     C13756   2.384   3.159   9.447  0.3541  0.5363  0.6674
  941MPD2    C113757   2.369   3.153   9.588 -0.0183 -0.2909  0.2800
  941MPD2    C213758   2.259   3.094   9.653  0.1920  0.0611 -0.4406
  941MPD2    C313759   2.171   3.024   9.571  0.2379 -1.0133  0.1552
  941MPD2    C413760   2.191   3.015   9.435  0.6359 -0.7601 -0.1673
  941MPD2    C513761   2.295   3.081   9.373  0.7494 -0.4850  0.0637
  941MPD2     H13762   2.258   3.082   9.760 -0.4719 -0.9123 -0.5553
  941MPD2    H113763   2.123   2.953   9.379  0.2124  0.4695 -1.0069
  941MPD2    H213764   2.467   3.209   9.399  0.3367 -0.8089 -0.7434
  941MPD2    H313765   2.307   3.066   9.266 -1.4229 -2.9731  0.1742
  941MPD2     N13766   2.058   2.956   9.628  1.2152 -0.1732 -0.2479
  941MPD2    H513767   1.990   2.910   9.568 -0.2620  1.1267  0.4448
  941MPD2    N113768   2.457   3.224   9.680 -0.2507  0.2513  0.4853
  941MPD2    H713769   2.431   3.224   9.778  0.0249 -0.6330  0.5635
  942MPD2     C13770   2.147   4.482  10.004  0.7192 -0.0420 -0.3369
  942MPD2    C113771   2.187   4.460   9.874  0.6041 -0.5981 -0.4899
  942MPD2    C213772   2.276   4.557   9.822 -0.0768 -0.6292  0.3382
  942MPD2    C313773   2.337   4.657   9.894 -0.5248  0.2079 -0.4162
  942MPD2    C413774   2.301   4.674  10.024 -0.0119 -0.2859 -0.5669
  942MPD2    C513775   2.207   4.586  10.074  0.6554  0.3981 -0.3828
  942MPD2     H13776   2.309   4.536   9.721 -1.4642 -2.0232  0.1622
  942MPD2    H113777   2.346   0.024  10.089 -3.1455  0.0885  1.2029
  942MPD2    H213778   2.098   4.410  10.070 -0.5183  0.5006 -0.6646
  942MPD2    H313779   2.179   4.591  10.179 -1.6690  1.4995 -1.0430
  942MPD2     N13780   2.426   0.021   9.845  0.4356 -0.0049 -0.5654
  942MPD2    H513781   2.450   0.100   9.905  0.0196 -0.3224  0.0213
  942MPD2    N113782   2.127   4.361   9.790  0.0661  0.0953 -0.9900
  942MPD2    H713783   2.149   4.351   9.692 -0.3754  0.9073 -1.1734
  943MPD2     C13784   0.699   2.924   9.620  0.4695 -0.0655  0.4907
  943MPD2    C113785   0.695   2.806   9.696 -0.1887  0.5118  0.1565
  943MPD2    C213786   0.778   2.800   9.809 -0.5728  0.1561  0.3112
  943MPD2    C313787   0.851   2.909   9.852  0.7524  0.3053  0.0314
  943MPD2    C413788   0.837   3.022   9.779  0.9666 -0.0745 -0.5390
  943MPD2    C513789   0.769   3.033   9.661 -0.3850  0.6569 -0.8436
  943MPD2     H13790   0.771   2.716   9.876  0.4950 -0.8097 -0.7978
  943MPD2    H113791   0.886   3.110   9.819  0.1419  0.4984 -0.7909
  943MPD2    H213792   0.644   2.935   9.528  2.4843 -1.3235 -0.8732
  943MPD2    H313793   0.764   3.125   9.605  0.5677  0.5381 -1.1135
  943MPD2     N13794   0.937   2.911   9.964  0.5479  0.3864  0.7496
  943MPD2    H513795   1.001   2.986   9.990  0.4814  0.5817  0.3413
  943MPD2    N113796   0.610   2.701   9.657 -0.4291 -1.3352 -0.0487
  943MPD2    H713797   0.553   2.716   9.574  2.8908  0.4050 -1.9988
  944MPD2     C13798   0.697   1.547  10.938 -0.3906  0.0057 -0.1177
  944MPD2    C113799   0.723   1.675  10.877  0.1084 -0.4978 -0.4627
  944MPD2    C213800   0.703   1.796  10.941  0.2743 -0.1786 -0.2293
  944MPD2    C313801   0.650   1.794  11.066 -0.6455  0.3044  0.0715
  944MPD2    C413802   0.617   1.668  11.129  0.3576  0.5319  0.8227
  944MPD2    C513803   0.639   1.554  11.062  0.8394  0.0760  0.3454
  944MPD2     H13804   0.731   1.891  10.897  1.6998  0.1803  1.4099
  944MPD2    H113805   0.576   1.658  11.229  1.0374 -0.8956  0.9598
  944MPD2    H213806   0.719   1.447  10.903 -0.6580  0.1063 -0.5704
  944MPD2    H313807   0.604   1.466  11.115  1.2457 -0.9818 -1.1326
  944MPD2     N13808   0.629   1.920  11.127  0.4969 -0.2192 -0.8056
  944MPD2    H513809   0.671   2.002  11.084  2.4192  1.1769  3.6976
  944MPD2    N113810   0.788   1.671  10.753 -0.2693  0.4460  0.8536
  944MPD2    H713811   0.838   1.584  10.739 -2.1455 -0.1384 -2.3512
    1TCq1    O113812   4.160   2.248  14.731 -0.3069 -0.3690 -0.5417
    1TCq1    C113813   4.027   2.214  14.738 -0.7393  0.9016 -0.5753
    1TCq1    O213814   3.977   2.120  14.803 -0.2436 -0.1483 -0.8477
    1TCq1    C213815   3.953   2.310  14.678 -0.7601 -0.2204  0.8554
    1TCq1    C313816   3.834   2.281  14.624  0.6327 -0.5736 -0.2874
    1TCq1    C413817   3.758   2.376  14.558 -0.5277  0.0946 -0.5256
    1TCq1    C513818   3.804   2.505  14.546 -0.1105 -0.9421 -0.2437
    1TCq1    C613819   3.923   2.536  14.603 -0.1779 -0.5858  0.5907
    1TCq1    C713820   3.999   2.443  14.671 -0.0185  0.2356 -0.1361
    1TCq1    C813821   3.954   2.674  14.639  0.4716 -0.2636 -0.1743
    1TCq1    O413822   4.058   2.696  14.706 -0.1089 -0.2113  0.0281
    1TCq1    C913823   3.636   2.341  14.497 -1.1372 -0.5031 -0.7742
    1TCq1    O513824   3.612   2.213  14.480  0.8181 -0.0358 -0.1338
    1TCq1    O613825   3.575   2.434  14.436  0.7028 -0.3979  0.4100
    1TCq1    H113826   4.179   2.293  14.646  0.2515  1.2465  0.4418
    1TCq1    H213827   3.804   2.177  14.627 -2.1802  0.2041 -1.9831
    1TCq1    H313828   3.748   2.568  14.479  0.2163 -1.2190 -0.7807
    1TCq1    H413829   4.096   2.470  14.711  0.6868 -3.3411  0.5623
    2MPD2     C13830   3.856   3.158  14.624  0.4221  0.0634  0.7116
    2MPD2    C113831   3.822   3.114  14.498 -0.1830  0.2857  0.0953
    2MPD2    C213832   3.840   2.980  14.471 -0.3590 -0.4282 -0.2702
    2MPD2    C313833   3.885   2.901  14.574  0.6910 -0.3425 -0.0501
    2MPD2    C413834   3.911   2.945  14.701  0.2957  0.1320 -0.6878
    2MPD2    C513835   3.893   3.076  14.719 -0.2780 -0.0544  0.3470
    2MPD2     H13836   3.817   2.924  14.381 -2.0169 -1.6040  0.8862
    2MPD2    H113837   3.951   2.889  14.785  0.1818 -0.6920 -1.1834
    2MPD2    H213838   3.835   3.262  14.645 -0.5546 -0.4417  2.2282
    2MPD2    H313839   3.905   3.113  14.821  1.6422  0.9504 -0.2421
    2MPD2     N13840   3.889   2.763  14.556 -0.5846  0.4326  0.2968
    2MPD2    H513841   3.845   2.733  14.470 -0.3579  2.1503 -0.4040
    2MPD2    N113842   3.763   3.203  14.413  0.2047  0.4071  0.2930
    2MPD2    H713843   3.740   3.295  14.449 -2.7306 -0.2181  0.0274
    3TMC2    C113844   3.687   3.298  14.213 -0.8673  0.1863  0.0964
    3TMC2    C213845   3.638   3.405  14.295  0.3688 -0.3186  0.3376
    3TMC2    C313846   3.632   3.529  14.241  1.0959  0.0601  0.2973
    3TMC2    C413847   3.715   3.318  14.084 -0.0291 -0.3696  0.0334
    3TMC2    C513848   3.701   3.449  14.029 -0.1874  0.0974  0.4860
    3TMC2    C613849   3.652   3.548  14.105 -0.3404 -0.2176  0.3615
    3TMC2     C13850   3.736   3.177  14.279  0.5257 -0.1337  0.6433
    3TMC2     O13851   3.789   3.098  14.206  0.0928 -0.7539 -1.0324
    3TMC2     H13852   3.612   3.383  14.398  1.8794  1.9592  1.2042
    3TMC2    H113853   3.762   3.243  14.020 -0.4826 -0.9585  0.3896
    3TMC2    H213854   3.659   3.651  14.071  1.5242 -0.7026 -0.7088
    3TMC2    C713855   3.694   3.460  13.883  0.3521  0.2604  0.0875
    3TMC2    C813856   3.551   3.629  14.309  0.4474  0.0138  0.4456
    3TMC2    O113857   3.726   3.364  13.818 -0.1311  0.1817  0.0882
    3TMC2    O213858   3.473   3.706  14.252  0.0440 -0.2774  0.4617
    3TMC2    O513859   3.590   3.653  14.434 -0.2861 -0.0355  0.4072
    3TMC2    H513860   3.660   3.591  14.462 -1.3517 -2.3108 -1.9677
    4MPD2     C13861   2.478   4.393  13.786 -0.1978  0.0006  0.0868
    4MPD2    C113862   2.444   4.273  13.724  0.6909  0.1779 -0.4695
    4MPD2    C213863   2.545   4.188  13.680  1.1650 -0.0447 -0.5190
    4MPD2    C313864   2.684   4.220  13.710  0.3105  0.3516 -0.6278
    4MPD2    C413865   2.714   4.334  13.781 -0.2374 -0.3280 -0.4912
    4MPD2    C513866   2.609   4.418  13.817 -0.0550 -0.6173  0.0972
    4MPD2     H13867   2.522   4.098  13.624 -0.8880 -0.4066  0.9143
    4MPD2    H113868   2.811   4.367  13.817 -1.2760  2.1461  0.0785
    4MPD2    H213869   2.402   4.466  13.810  1.7192  2.0928 -0.2284
    4MPD2    H313870   2.633   4.506  13.877 -1.0240  0.5290 -1.1937
    4MPD2     N13871   2.790   4.140  13.655  0.2193 -0.0662 -0.6224
    4MPD2    H513872   2.766   4.060  13.596  0.8294 -0.3170 -0.5315
    4MPD2    N113873   2.304   4.247  13.719  0.6405 -0.1902 -0.1301
    4MPD2    H713874   2.249   4.329  13.743  1.5821  0.3959  0.0158
    5TCq2    C113875   2.922   4.170  13.662 -0.4203 -1.0537  0.5192
    5TCq2    O213876   2.987   4.245  13.732  0.1520  0.1490  0.1788
    5TCq2    C213877   3.005   4.082  13.587  0.5933  0.4140 -0.1907
    5TCq2    C313878   2.976   4.067  13.455 -0.5000 -0.2593 -0.8333
    5TCq2    C413879   3.060   4.004  13.367  0.7203 -0.4862  0.5288
    5TCq2    C513880   3.184   3.969  13.416  1.1055  0.2468 -0.3370
    5TCq2    C613881   3.213   3.996  13.548 -0.1477 -0.2026  0.1298
    5TCq2    C713882   3.122   4.047  13.638 -0.3327  0.7492  0.4223
    5TCq2    C813883   3.337   3.947  13.603  0.3784  0.0155  0.1916
    5TCq2    O413884   3.377   3.971  13.716 -0.2063 -0.3968  0.3487
    5TCq2    C913885   3.042   4.007  13.226  0.2958  0.2118 -0.3161
    5TCq2    O513886   3.147   3.986  13.171  0.1637 -0.1734  0.1676
    5TCq2    O613887   2.923   4.012  13.184  0.0335 -0.1484 -1.2509
    5TCq2    H213888   2.890   4.114  13.409 -1.4484 -0.5219  0.6528
    5TCq2    H313889   3.260   3.945  13.343  0.3168 -0.1287 -1.0329
    5TCq2    H413890   3.142   4.049  13.745  1.5863 -1.4299  0.1019
    6MPD1     C13891   1.187   0.574  12.629  0.0518  0.4024  0.2109
    6MPD1    C113892   1.185   0.437  12.605  0.5591 -0.0209 -0.5010
    6MPD1    C213893   1.274   0.353  12.668 -0.0344 -0.2589  0.6955
    6MPD1    C313894   1.353   0.405  12.772 -0.0404 -0.2676 -0.0337
    6MPD1    C413895   1.351   0.540  12.786 -0.5358 -0.2999  0.8205
    6MPD1    C513896   1.275   0.623  12.715 -0.0133 -0.2853 -0.2108
    6MPD1     H13897   1.280   0.248  12.643  0.0197 -0.0022 -0.3810
    6MPD1    H113898   1.421   0.591  12.852  0.3178  1.6367 -1.5942
    6MPD1    H213899   1.114   0.640  12.582  1.7024  1.7957 -0.4005
    6MPD1    H313900   1.288   0.729  12.727  0.1737 -0.1045 -2.0448
    6MPD1     N13901   1.449   0.332  12.837 -0.0870 -1.1331  0.8741
    6MPD1    H513902   1.498   0.373  12.917 -2.3859 -1.9456  2.7008
    6MPD1    N113903   1.098   0.391  12.502 -0.2196 -0.0306  0.4243
    6MPD1    H613904   1.016   0.451  12.501  0.6045  1.1435  4.6477
    6MPD1    H713905   1.073   0.293  12.507 -1.3717  0.0494 -3.4034
    7MPD2     C13906   1.637   0.084  13.585  0.0705  0.5274  0.7609
    7MPD2    C113907   1.662   0.004  13.474  0.1853 -0.1523  0.1921
    7MPD2    C213908   1.710   4.602  13.509  0.5718 -0.2769  0.0669
    7MPD2    C313909   1.727   4.561  13.644  0.4076 -1.0343 -0.4577
    7MPD2    C413910   1.715   4.650  13.748  0.6165 -0.1721  0.7162
    7MPD2    C513911   1.659   0.046  13.718 -0.1748  0.6793  0.0558
    7MPD2     H13912   1.746   4.539  13.429 -1.3028 -0.8616 -0.3108
    7MPD2    H113913   1.736   4.616  13.848  2.3693 -0.9813  0.0729
    7MPD2    H213914   1.585   0.177  13.565  1.5616  1.0913 -0.4899
    7MPD2    H313915   1.617   0.115  13.790 -0.1959 -1.0835  1.7450
    7MPD2     N13916   1.767   4.432  13.659 -0.5938  0.3221  0.3217
    7MPD2    H513917   1.763   4.367  13.582  2.8655  1.8241 -1.1143
    7MPD2    N113918   1.641   0.032  13.341 -0.7350 -0.1422 -0.5142
    7MPD2    H713919   1.649   4.675  13.281 -2.0045 -0.2921 -0.4814
    8TMC3    C113920   1.896   4.256  13.741  0.4200  0.1378  0.0307
    8TMC3    C213921   2.036   4.242  13.749  0.5970  0.0634 -0.2682
    8TMC3    C313922   2.102   4.157  13.664  0.2700 -0.7534  0.1655
    8TMC3    C413923   1.826   4.177  13.655  0.0688 -0.6687 -0.5135
    8TMC3    C513924   1.895   4.099  13.569 -0.0626  0.2201 -0.7763
    8TMC3    C613925   2.026   4.082  13.578  0.4180 -0.6730  0.0421
    8TMC3     C13926   1.846   4.386  13.767 -0.0335 -0.2655  1.1669
    8TMC3     O13927   1.902   4.451  13.854  0.5832 -0.3693 -0.1423
    8TMC3     H13928   2.084   4.314  13.815  0.8467  0.5267 -0.9503
    8TMC3    H113929   1.720   4.164  13.674 -0.0721 -0.3014 -1.0817
    8TMC3    H213930   2.085   4.008  13.526  0.9156  0.8791 -1.6028
    8TMC3    C713931   1.863   4.163  13.438 -0.1997  0.3388  0.0423
    8TMC3    C813932   2.245   4.144  13.646  0.6258  1.3464  0.1304
    8TMC3    O113933   1.774   4.243  13.449  0.1379 -0.7726 -0.0812
    8TMC3    O213934   2.301   4.054  13.580 -0.4361 -0.2277 -0.4968
    9TMC3    C113935   1.582   0.146  12.912  0.1656 -0.4751  0.3635
    9TMC3    C213936   1.647   0.035  12.876 -0.1366  0.1810  0.2155
    9TMC3    C313937   1.719   4.692  12.973 -0.0514 -1.5059  1.2771
    9TMC3    C413938   1.564   0.193  13.038  0.1741  0.2620 -0.2818
    9TMC3    C513939   1.633   0.122  13.132  0.0357 -0.2346 -0.4364
    9TMC3    C613940   1.712   0.011  13.099 -0.2774 -0.0178  0.3366
    9TMC3     C13941   1.490   0.201  12.814  0.2789  0.0774 -0.1989
    9TMC3     O13942   1.468   0.124  12.717 -0.0762  0.0382  0.1155
    9TMC3     H13943   1.650   0.011  12.770  3.7155 -0.1322  0.3776
    9TMC3    H113944   1.490   0.267  13.065 -1.0874 -0.8175 -0.8280
    9TMC3    H213945   1.783   4.699  13.173 -0.6729 -1.4645  0.0055
    9TMC3    C713946   1.628   0.151  13.274  0.3041 -0.2615 -0.2307
    9TMC3    C813947   1.809   4.589  12.947  0.1893 -0.0001  0.7086
    9TMC3    O113948   1.598   0.260  13.321 -0.1277  0.0815  0.8762
    9TMC3    O213949   1.868   4.595  12.839  0.2474  0.4442 -0.2027
   10MPD2     C13950   2.038   4.165  13.116  0.3222 -0.8185  0.6758
   10MPD2    C113951   1.964   4.208  13.214 -0.2980  0.5436 -0.1444
   10MPD2    C213952   1.882   4.323  13.186 -0.2068 -0.6854  0.0674
   10MPD2    C313953   1.893   4.397  13.068 -0.4161  0.2353 -0.0605
   10MPD2    C413954   1.993   4.357  12.980  0.2000 -0.3526  0.5007
   10MPD2    C513955   2.060   4.234  12.998  0.2391 -0.4452 -0.5873
   10MPD2     H13956   1.815   4.368  13.258  0.1272  0.3728 -0.2953
   10MPD2    H113957   2.015   4.420  12.895  1.5056 -1.9379 -0.3348
   10MPD2    H213958   2.081   4.065  13.111  0.2974 -0.8127  0.3304
   10MPD2    H313959   2.128   4.198  12.920 -1.3281  1.1965 -2.7138
   10MPD2     N13960   1.808   4.508  13.055 -0.1902 -0.2111 -0.5708
   10MPD2    H513961   1.733   4.511  13.123  1.2124  0.6147  0.9428
   10MPD2    N113962   1.949   4.136  13.336  0.2214  1.0525 -0.6948
   10MPD2    H713963   2.008   4.056  13.353 -0.7668  0.3268 -0.7167
   11MPD2     C13964   3.663   3.548  13.602 -0.1968 -0.0477 -0.0958
   11MPD2    C113965   3.600   3.611  13.705 -0.2492  0.5601  0.1741
   11MPD2    C213966   3.527   3.718  13.681 -0.6905  0.9473 -0.4341
   11MPD2    C313967   3.491   3.761  13.553  0.3773 -0.4368  0.7461
   11MPD2    C413968   3.538   3.685  13.448  0.9265 -0.2266  0.0337
   11MPD2    C513969   3.628   3.586  13.473 -0.1628 -0.4387 -0.8173
   11MPD2     H13970   3.489   3.775  13.764  3.1460 -0.6100  2.3985
   11MPD2    H113971   3.508   3.714  13.348 -1.0023 -0.4453  0.5425
   11MPD2    H213972   3.737   3.470  13.614 -0.3892 -0.4823 -1.7109
   11MPD2    H313973   3.677   3.536  13.390  1.7085 -0.9979  0.6244
   11MPD2     N13974   3.393   3.857  13.522 -0.3713 -0.5251 -0.3689
   11MPD2    H513975   3.350   3.852  13.430 -1.1541 -1.6610  0.0560
   11MPD2    N113976   3.628   3.573  13.838 -0.0485 -0.1749 -0.2759
   11MPD2    H713977   3.566   3.612  13.908 -0.0597  0.0684 -0.4185
    1MPD1     C13978   0.653   0.096  17.548  0.1852  0.4431  0.5447
    1MPD1    C113979   0.771   0.117  17.623 -0.0567  0.2944 -0.8885
    1MPD1    C213980   0.888   0.139  17.555  0.3432  0.0231 -0.1362
    1MPD1    C313981   0.895   0.129  17.420  1.0461  0.2051  0.4849
    1MPD1    C413982   0.782   0.096  17.349  0.3742 -0.4905  0.0433
    1MPD1    C513983   0.663   0.078  17.415  0.7185  0.3512 -0.0703
    1MPD1     H13984   0.976   0.160  17.614  0.7265 -1.5852 -0.1533
    1MPD1    H113985   0.779   0.094  17.241  2.9202 -2.3080 -0.0013
    1MPD1    H213986   0.554   0.093  17.593  1.6441  2.1890  3.9257
    1MPD1    H313987   0.575   0.079  17.351  0.3418 -0.8975  0.4359
    1MPD1     N13988   1.021   0.147  17.352  0.5166  0.3199 -0.2510
    1MPD1    H513989   1.018   0.146  17.251 -0.2284 -0.2452 -0.2218
    1MPD1    N113990   0.774   0.140   0.063 -0.6325  0.1343  0.2932
    1MPD1    H613991   0.864   0.120   0.105  0.7369  0.3065 -2.5152
    1MPD1    H713992   0.712   0.070   0.104 -0.4015 -1.0179 -1.3218
    2MPD1     C13993   1.714   1.001  17.213  0.4216 -0.9434 -0.1219
    2MPD1    C113994   1.657   0.971  17.091  0.4369 -0.5825 -0.2493
    2MPD1    C213995   1.571   0.862  17.089 -0.3197  0.5555 -0.0068
    2MPD1    C313996   1.545   0.788  17.206  0.3143  0.3783  0.2120
    2MPD1    C413997   1.584   0.834  17.330 -0.1542  0.4822 -0.6082
    2MPD1    C513998   1.672   0.945  17.328 -0.1928  0.2372  0.3050
    2MPD1     H13999   1.540   0.824  16.992  0.8780 -1.0521  0.2369
    2MPD1    H114000   1.547   0.798  17.425  1.3498  0.5044 -0.0160
    2MPD1    H214001   1.794   1.074  17.224  0.7158 -1.3146  0.1922
    2MPD1    H314002   1.712   0.987  17.420  2.8333 -1.6339 -0.1553
    2MPD1     N14003   1.453   0.676  17.184 -0.2728  0.7652 -0.3728
    2MPD1    H514004   1.401   0.669  17.097  0.6525  1.3086 -0.9748
    2MPD1    N114005   1.714   1.021  16.969  0.0618  0.4006 -0.6378
    2MPD1    H614006   1.656   1.006  16.887  0.4724 -2.0893 -0.4742
    2MPD1    H714007   1.723   1.122  16.972 -0.3280  0.3074  2.9557
    3TMC3    C114008   1.330   0.481  17.229  0.2775 -0.4720  0.4499
    3TMC3    C214009   1.337   0.431  17.101  0.9554 -0.1831  0.3786
    3TMC3    C314010   1.278   0.312  17.071  0.5328 -0.6711  0.0474
    3TMC3    C414011   1.265   0.406  17.325 -0.5133  0.3615  0.0291
    3TMC3    C514012   1.213   0.279  17.294  0.4808  0.0800 -0.8781
    3TMC3    C614013   1.211   0.232  17.167  0.3616 -0.4428  0.9248
    3TMC3     C14014   1.426   0.576  17.277 -0.3678 -0.6401  0.3251
    3TMC3     O14015   1.459   0.573  17.399  0.7748 -0.6412  0.1026
    3TMC3     H14016   1.379   0.494  17.024 -0.7038  0.1728 -0.2525
    3TMC3    H114017   1.252   0.450  17.423  2.6638  0.3775  0.4469
    3TMC3    H214018   1.173   0.132  17.153  2.3889 -1.1772  0.6857
    3TMC3    C714019   1.122   0.231  17.398 -0.3775  0.1286 -0.3107
    3TMC3    C814020   1.299   0.253  16.942 -1.0318  0.1835 -0.4702
    3TMC3    O114021   1.133   0.282  17.510  0.4510  0.5097  0.1997
    3TMC3    O214022   1.250   0.140  16.933 -0.2854 -0.0753 -0.2294
    4MPD1     C14023   1.530   0.160  16.486  0.0429 -0.5847  0.5095
    4MPD1    C114024   1.585   0.271  16.546  0.4379  0.2448  0.5314
    4MPD1    C214025   1.538   0.310  16.670 -0.7467  0.2348  0.4513
    4MPD1    C314026   1.422   0.259  16.728 -0.2413 -0.2375  0.0782
    4MPD1    C414027   1.359   0.162  16.655 -0.4972  0.2546  0.3192
    4MPD1    C514028   1.416   0.107  16.543 -0.0070  0.5277  0.0593
    4MPD1     H14029   1.581   0.394  16.724 -3.0973  1.5096  0.3740
    4MPD1    H114030   1.262   0.125  16.686 -0.6343  0.9196  0.6795
    4MPD1    H214031   1.569   0.125  16.391  0.0814 -2.7698  1.3233
    4MPD1    H314032   1.378   0.024  16.485  1.2031 -0.3063  0.4536
    4MPD1     N14033   1.380   0.318  16.852  0.4617  0.0508  0.0673
    4MPD1    H514034   1.426   0.400  16.891 -0.0736  1.5059 -2.3861
    4MPD1    N114035   1.705   0.329  16.503  0.1254 -0.1280 -0.2214
    4MPD1    H614036   1.740   0.318  16.408  2.7201  2.6887  0.4140
    4MPD1    H714037   1.700   0.426  16.534 -2.2176  0.2574 -1.8372
    1TCq1    O114038   3.000   3.602  11.993 -0.5021  0.6495  0.7787
    1TCq1    C114039   2.936   3.600  12.109 -0.0301  0.2833  0.1036
    1TCq1    O214040   2.923   3.503  12.182 -0.1139  0.0695 -0.0899
    1TCq1    C214041   2.939   3.737  12.162  0.3579  1.0902 -0.9445
    1TCq1    C314042   2.917   3.841  12.072  0.5133  0.0518  0.0342
    1TCq1    C414043   2.910   3.970  12.118 -0.5801 -0.5359 -0.4394
    1TCq1    C514044   2.926   3.993  12.254 -0.0082 -0.9091 -0.0109
    1TCq1    C614045   2.962   3.889  12.334  0.7576  0.8509  0.0540
    1TCq1    C714046   2.967   3.760  12.292  0.2439  0.3521  0.9009
    1TCq1    C814047   2.964   3.916  12.476 -0.1095  0.3945  0.5316
    1TCq1    O414048   2.977   4.030  12.519  0.2281  0.1294  0.9411
    1TCq1    C914049   2.837   4.069  12.049 -0.6968  0.0436  0.1352
    1TCq1    O514050   2.834   4.185  12.099  0.7662  1.0464  0.5924
    1TCq1    O614051   2.754   4.029  11.958 -0.1007 -0.0686 -0.1852
    1TCq1    H114052   3.031   3.689  11.959 -0.0174  0.5700  1.0134
    1TCq1    H214053   2.881   3.812  11.974  2.0232 -1.7324  0.0084
    1TCq1    H314054   2.925   4.096  12.289 -0.2203 -0.5164 -1.1898
    1TCq1    H414055   3.005   3.682  12.357  1.6076  0.3274  0.0645
    2MPD1     C14056   2.960   3.717  12.964 -0.3637 -0.1380  0.0428
    2MPD1    C114057   2.926   3.625  12.871 -0.2619 -0.3717  0.0378
    2MPD1    C214058   2.936   3.646  12.737  0.7239  0.1426 -0.7357
    2MPD1    C314059   2.961   3.772  12.684 -0.4538 -0.0898  0.1141
    2MPD1    C414060   2.991   3.873  12.774 -0.4971  1.0894  0.3656
    2MPD1    C514061   3.001   3.838  12.906 -0.6737 -0.2726  0.7451
    2MPD1     H14062   2.932   3.566  12.664  0.6718  1.8380 -2.5809
    2MPD1    H114063   3.027   3.970  12.743  0.5775  1.4906  2.8140
    2MPD1    H214064   2.961   3.692  13.069 -0.8625  0.0198  0.0853
    2MPD1    H314065   3.032   3.914  12.976  1.6817  0.1313 -0.7327
    2MPD1     N14066   2.946   3.796  12.546  0.1952  0.6272 -0.0272
    2MPD1    H514067   2.922   3.718  12.486 -2.2137 -0.0777  1.8785
    2MPD1    N114068   2.891   3.493  12.907  0.2015  0.3005  0.3901
    2MPD1    H614069   2.834   3.441  12.841 -0.9431 -0.4601  1.9994
    2MPD1    H714070   2.882   3.475  13.006 -0.4387 -1.5566 -0.0127
    1TCq1    O114071   1.796   0.298   1.490 -0.1703  0.2327 -0.1594
    1TCq1    C114072   1.925   0.345   1.461 -0.6356  0.1374  0.4840
    1TCq1    O214073   2.016   0.292   1.397  0.4477 -0.0061 -0.3527
    1TCq1    C214074   1.959   0.464   1.545 -0.6932  0.2278  0.1448
    1TCq1    C314075   1.857   0.550   1.578  1.1513 -0.3765 -0.4232
    1TCq1    C414076   1.887   0.674   1.637  0.0149 -0.2432 -0.3520
    1TCq1    C514077   2.008   0.726   1.619  0.5474  0.0305 -0.4807
    1TCq1    C614078   2.110   0.639   1.571 -0.4622  0.2124 -0.0211
    1TCq1    C714079   2.086   0.515   1.538 -0.6635  0.7077 -1.1727
    1TCq1    C814080   2.243   0.697   1.567  0.2073  0.3113 -0.5841
    1TCq1    O414081   2.264   0.805   1.619 -0.5709  0.0423  0.5065
    1TCq1    C914082   1.777   0.772   1.645  0.4765  0.3087  0.1691
    1TCq1    O514083   1.809   0.891   1.628  0.6390 -0.1156 -0.2348
    1TCq1    O614084   1.661   0.724   1.641 -0.2298 -0.3038 -0.3613
    1TCq1    H114085   1.745   0.321   1.571  1.3565  0.6409  0.6916
    1TCq1    H214086   1.756   0.510   1.581  1.2966 -0.6722  0.6757
    1TCq1    H314087   2.022   0.833   1.633 -2.0159  0.6378 -2.5681
    1TCq1    H414088   2.162   0.451   1.495  0.1938  0.6348  0.4592
    2MPD1     C14089   2.728   0.705   1.395  0.4200 -0.4825 -0.3117
    2MPD1    C114090   2.656   0.605   1.319 -0.3020  0.1438  0.7662
    2MPD1    C214091   2.524   0.575   1.355 -0.5143  0.6858  0.5238
    2MPD1    C314092   2.463   0.649   1.458 -0.0890 -0.1199  0.0877
    2MPD1    C414093   2.538   0.742   1.531  0.1550  0.1861 -0.1624
    2MPD1    C514094   2.668   0.767   1.500  0.1720 -0.1292 -0.0244
    2MPD1     H14095   2.462   0.500   1.308  0.9625 -0.1751 -0.0360
    2MPD1    H114096   2.490   0.798   1.610 -1.2048  0.8743 -1.4841
    2MPD1    H214097   2.833   0.717   1.374  0.0537 -0.4890 -2.1652
    2MPD1    H314098   2.730   0.836   1.557  0.0674 -2.2699  2.7266
    2MPD1     N14099   2.327   0.626   1.484 -0.1224 -0.4272  0.0718
    2MPD1    H514100   2.283   0.543   1.447 -0.7703 -1.0031  2.1167
    2MPD1    N114101   2.722   0.526   1.227 -0.6210  0.3557 -0.0100
    2MPD1    H614102   2.669   0.485   1.150  2.0593 -0.8747 -1.2075
    2MPD1    H714103   2.797   0.580   1.185 -1.1997  2.2820  1.4639
    1MPD1     C14104   3.665   0.311  12.566  0.1174  0.3039 -0.1051
    1MPD1    C114105   3.724   0.229  12.474  0.1319  0.3006 -0.6575
    1MPD1    C214106   3.805   0.296  12.384  0.0399  0.1105 -0.0284
    1MPD1    C314107   3.803   0.432  12.361  0.4107  0.0242  0.1146
    1MPD1    C414108   3.712   0.502  12.433  0.3092  0.0387  0.1489
    1MPD1    C514109   3.645   0.445  12.534  0.0776 -0.8558  0.1015
    1MPD1     H14110   3.875   0.238  12.325  2.3361  0.4187  2.3675
    1MPD1    H114111   3.703   0.610  12.430 -0.5390 -0.0559 -0.8168
    1MPD1    H214112   3.611   0.282  12.655  0.1990  1.9722  0.4715
    1MPD1    H314113   3.589   0.513  12.598  0.0091  1.9021 -2.9217
    1MPD1     N14114   3.883   0.483  12.252 -0.0105  0.2953 -0.3286
    1MPD1    H514115   3.948   0.414  12.216  0.2787  0.6493 -0.4787
    1MPD1    N114116   3.740   0.090  12.501  0.1031  0.7718  0.2767
    1MPD1    H614117   3.668   0.043  12.555  0.8532  0.3031  0.8737
    1MPD1    H714118   3.759   0.035  12.417  0.8784  0.0218  0.9423
    2MPD1     C14119   3.372   0.322  11.611  0.4018  0.2153  0.3884
    2MPD1    C114120   3.289   0.294  11.505 -0.1966  0.1855 -0.5339
    2MPD1    C214121   3.337   0.326  11.376 -0.5606  0.3824 -0.4771
    2MPD1    C314122   3.461   0.388  11.353  0.2110 -0.4615 -0.3921
    2MPD1    C414123   3.541   0.419  11.462 -0.1706  0.3638  0.4827
    2MPD1    C514124   3.496   0.380  11.585 -0.0943 -0.2105  0.3313
    2MPD1     H14125   3.265   0.302  11.299 -0.9229 -2.2120  0.6740
    2MPD1    H114126   3.642   0.452  11.441  1.0332 -2.2274  2.0672
    2MPD1    H214127   3.339   0.292  11.709  2.0991  1.2731  1.2749
    2MPD1    H314128   3.547   0.410  11.677 -2.4680  2.8157  0.6756
    2MPD1     N14129   3.514   0.414  11.227  0.1386  0.2977 -0.5088
    2MPD1    H514130   3.605   0.459  11.234  1.0378 -1.7111  0.5848
    2MPD1    N114131   3.170   0.224  11.529  0.4229 -0.3318  0.0993
    2MPD1    H614132   3.148   0.207  11.626 -0.9210  1.6026  0.1375
    2MPD1    H714133   3.086   0.264  11.487  0.2156  0.8537  1.6365
    3MPD1     C14134   3.690   0.125  10.187 -0.0372  0.1804  0.1803
    3MPD1    C114135   3.641   0.261  10.178  0.3942  0.1669  0.6010
    3MPD1    C214136   3.602   0.322  10.299  0.1569  0.9009  0.3466
    3MPD1    C314137   3.628   0.260  10.422 -0.2252  0.5770 -0.1236
    3MPD1    C414138   3.690   0.136  10.432  0.4293 -0.3218  0.5943
    3MPD1    C514139   3.718   0.071  10.307 -0.3984 -0.0075 -0.1292
    3MPD1     H14140   3.550   0.417  10.297 -1.8723 -0.2117 -0.2509
    3MPD1    H114141   3.723   0.096  10.528  1.1071 -1.5719 -0.1519
    3MPD1    H214142   3.697   0.067  10.096 -0.9563 -0.1322  0.3123
    3MPD1    H314143   3.743   4.690  10.311  2.3111  0.6152 -0.0806
    3MPD1     N14144   3.599   0.339  10.532 -1.2616 -0.6162 -0.2591
    3MPD1    H514145   3.590   0.436  10.502 -1.6002 -0.6228 -0.1736
    3MPD1    N114146   3.604   0.311  10.053 -0.1061 -0.8768 -0.0048
    3MPD1    H614147   3.597   0.412  10.045 -0.8797 -0.8417  1.1303
    3MPD1    H714148   3.656   0.263   9.980  1.2691  0.5470  0.0609
    4MPD2     C14149   4.143   1.104  11.750 -0.6200 -0.7075 -0.0941
    4MPD2    C114150   4.239   1.015  11.792 -1.0049 -0.5298 -0.4923
    4MPD2    C214151   4.326   0.965  11.703 -0.1816 -0.5788 -0.7092
    4MPD2    C314152   4.333   1.014  11.573  0.3156  0.0813  0.1809
    4MPD2    C414153   4.254   1.123  11.535  0.1201  0.7390  0.2826
    4MPD2    C514154   4.154   1.162  11.626  0.6100 -0.2176  0.0170
    4MPD2     H14155   4.401   0.895  11.739 -1.7256 -1.9637 -0.2243
    4MPD2    H114156   4.246   1.162  11.435 -1.9214  0.6109  0.3850
    4MPD2    H214157   4.068   1.144  11.817 -1.1516 -0.5328 -0.7933
    4MPD2    H314158   4.076   1.233  11.604  1.0404 -0.0751 -1.0583
    4MPD2     N14159   4.415   0.947  11.483 -0.5299  0.3293 -0.6848
    4MPD2    H514160   4.456   0.862  11.520 -0.4556  0.4773 -0.4220
    4MPD2    N114161   4.238   0.953  11.916 -0.4830 -0.6679 -0.4324
    4MPD2    H714162   4.305   0.878  11.924 -0.9677 -0.9657  0.8624
    5TMC3    C114163   4.147   0.850  12.102 -0.6222  0.1338 -0.1085
    5TMC3    C214164   4.021   0.802  12.134 -0.3205 -0.8882  0.0596
    5TMC3    C314165   4.007   0.666  12.137 -0.7648 -0.0632  0.0364
    5TMC3    C414166   4.258   0.769  12.080 -0.6583  0.4760  0.2858
    5TMC3    C514167   4.237   0.636  12.075 -1.1927 -0.1802 -0.5422
    5TMC3    C614168   4.115   0.588  12.098 -1.0851  0.3068 -0.3660
    5TMC3     C14169   4.141   0.962  12.014  0.7556  0.4377  0.3021
    5TMC3     O14170   4.049   1.040  12.030 -0.2612 -0.1313 -0.8152
    5TMC3     H14171   3.940   0.871  12.156 -1.1307 -1.5082 -0.9884
    5TMC3    H114172   4.358   0.811  12.076 -0.6690  0.4992  0.2649
    5TMC3    H214173   4.100   0.482  12.081  1.9555 -0.3278  0.9463
    5TMC3    C714174   4.323   0.589  11.970 -0.6308 -0.3630  0.4607
    5TMC3    C814175   3.886   0.617  12.213 -0.0271  0.3132  0.4797
    5TMC3    O114176   4.376   0.682  11.909 -0.3552 -0.1689  0.1486
    5TMC3    O214177   3.813   0.713  12.245 -0.3998 -0.0940  0.1122
    6TMC3    C114178   3.532   0.420  10.985 -0.0285  0.1906  0.2092
    6TMC3    C214179   3.497   0.344  10.875  0.0570  0.1690  0.6899
    6TMC3    C314180   3.554   0.396  10.758 -0.1733  0.1899  0.3867
    6TMC3    C414181   3.635   0.511  10.993  0.5553 -0.3256 -0.6477
    6TMC3    C514182   3.687   0.546  10.873  0.0119 -0.0323  0.3072
    6TMC3    C614183   3.647   0.495  10.758 -0.0049  0.2200  0.4578
    6TMC3     C14184   3.453   0.383  11.109  0.3184  0.8984  0.6488
    6TMC3     O14185   3.346   0.323  11.088  0.1695 -0.3833  0.6454
    6TMC3     H14186   3.414   0.274  10.871 -0.7747  1.2247 -0.7927
    6TMC3    H114187   3.645   0.576  11.079 -1.6692  1.0389 -1.4044
    6TMC3    H214188   3.698   0.526  10.668  1.1969 -2.0433  0.3619
    6TMC3    C714189   3.829   0.586  10.880 -0.8190 -0.6634 -0.2757
    6TMC3    C814190   3.587   0.293  10.661  0.2349 -0.2400 -0.3285
    6TMC3    O114191   3.869   0.585  10.992 -0.2185 -0.8101 -0.1823
    6TMC3    O214192   3.601   0.180  10.706  0.8796  0.4007 -0.6308
    7MPD2     C14193   4.558   0.279  11.649  0.2621  0.4521  0.3532
    7MPD2    C114194   4.508   0.406  11.630  0.1558 -0.3356 -0.1077
    7MPD2    C214195   4.438   0.459  11.738  0.0390  0.1511 -0.5654
    7MPD2    C314196   4.417   0.393  11.854  0.2997  0.1906 -0.0563
    7MPD2    C414197   4.450   0.259  11.853 -0.1301  0.1451 -0.7372
    7MPD2    C514198   4.529   0.210  11.759  0.8298  0.2557  0.5566
    7MPD2     H14199   4.385   0.552  11.718 -0.5743 -0.0826 -0.0397
    7MPD2    H114200   4.449   0.199  11.943  0.3790 -1.8921 -2.1004
    7MPD2    H214201   4.624   0.226  11.582  0.6455  2.3240 -0.7433
    7MPD2    H314202   4.555   0.105  11.769 -0.0225 -0.0009  0.1209
    7MPD2     N14203   4.351   0.456  11.971  0.2795  0.6102  0.2273
    7MPD2    H514204   4.315   0.395  12.044  0.0497 -0.1770 -0.5400
    7MPD2    N114205   4.536   0.472  11.510 -0.1052 -0.4842  0.8159
    7MPD2    H714206   4.584   0.414  11.442 -2.4991 -1.5886  0.0812
    8TMC3    C114207   4.557   0.655  11.356 -0.3477  0.5326 -0.2134
    8TMC3    C214208   4.487   0.612  11.239  0.4636 -0.7780 -0.3903
    8TMC3    C314209   4.440   0.705  11.154  0.4222 -0.1718  0.4302
    8TMC3    C414210   4.584   0.784  11.371  0.3552  0.0156  0.5893
    8TMC3    C514211   4.532   0.880  11.283  0.6170  0.0945  0.0688
    8TMC3    C614212   4.464   0.837  11.174  0.2823  0.4470  0.5345
    8TMC3     C14213   4.507   0.603  11.482 -0.5633  0.1214 -0.0995
    8TMC3     O14214   4.467   0.692  11.560  0.1920  0.6591 -0.4761
    8TMC3     H14215   4.445   0.513  11.222  1.5863 -1.3888  0.3453
    8TMC3    H114216   4.638   0.816  11.460 -0.8908 -2.0269  2.0774
    8TMC3    H214217   4.401   0.907  11.120 -2.1161 -1.1036  1.3214
    8TMC3    C714218   4.446   0.980  11.354 -0.5766 -0.7368 -0.6244
    8TMC3    C814219   4.321   0.671  11.078 -0.6170  0.1798 -0.3671
    8TMC3    O114220   4.407   1.074  11.286 -0.4185  0.3382  0.4118
    8TMC3    O214221   4.251   0.571  11.094  0.7805  0.1343  0.0779
    9MPD2     C14222   4.257   0.816  10.743 -0.0962  0.4150  1.0198
    9MPD2    C114223   4.230   0.747  10.862 -0.2783  0.5671 -0.0538
    9MPD2    C214224   4.102   0.692  10.871  0.4718 -0.2910  0.2041
    9MPD2    C314225   4.008   0.717  10.773  0.8340 -0.0848  0.5256
    9MPD2    C414226   4.042   0.773  10.647 -0.0569 -0.1686  0.1629
    9MPD2    C514227   4.167   0.826  10.635 -0.1942 -0.2670  0.0244
    9MPD2     H14228   4.094   0.628  10.958  3.0179  0.8118  1.2708
    9MPD2    H114229   3.963   0.788  10.575 -0.3097 -1.4010  0.1702
    9MPD2    H214230   4.350   0.868  10.729  0.7193 -0.7012  2.2423
    9MPD2    H314231   4.188   0.887  10.549 -1.3057  1.2182  0.8082
    9MPD2     N14232   3.875   0.665  10.779 -0.0780 -0.1570 -0.2044
    9MPD2    H514233   3.814   0.677  10.699  0.6655 -1.8962 -1.0487
    9MPD2    N114234   4.331   0.748  10.963  0.8443  0.3482 -0.0969
    9MPD2    H714235   4.419   0.797  10.952  1.6919 -1.2193 -0.3056
    1MPD1     C14236   0.441   2.769  17.135 -0.1757 -0.6521 -0.1977
    1MPD1    C114237   0.418   2.888  17.188  0.0478  0.8602  0.0987
    1MPD1    C214238   0.319   2.961  17.131 -0.0000  0.3115  0.3353
    1MPD1    C314239   0.263   2.926  17.007  0.6897 -0.9187 -0.1464
    1MPD1    C414240   0.290   2.807  16.951  0.3284  0.2248 -0.3105
    1MPD1    C514241   0.367   2.726  17.024  0.2806 -0.1487  0.5030
    1MPD1     H14242   0.294   3.055  17.179  2.1095  0.8980  0.2631
    1MPD1    H114243   0.235   2.765  16.868  1.3487 -1.5766 -0.0710
    1MPD1    H214244   0.508   2.697  17.180 -0.4758 -0.0792  1.1727
    1MPD1    H314245   0.396   2.630  16.983 -1.2592  0.0031 -0.9627
    1MPD1     N14246   0.144   2.990  16.957 -0.2639  0.1330  0.6930
    1MPD1    H514247   0.103   2.953  16.872  0.7488 -0.0434  0.2771
    1MPD1    N114248   0.489   2.940  17.299  0.2013 -0.0433 -0.0005
    1MPD1    H614249   0.579   2.893  17.311  1.0652  1.2715 -1.3645
    1MPD1    H714250   0.512   3.037  17.283 -1.4570  0.4943  0.9017
    2MPD1     C14251   4.241   3.739  17.154  0.2182 -0.0017  0.4868
    2MPD1    C114252   4.380   3.724  17.151  0.4260  0.0824  0.4341
    2MPD1    C214253   4.429   3.601  17.135  0.3222 -0.1115 -0.9119
    2MPD1    C314254   4.347   3.489  17.114 -0.4413 -0.4209 -0.9888
    2MPD1    C414255   4.209   3.513  17.094 -0.0482  0.5920 -0.4228
    2MPD1    C514256   4.155   3.634  17.126 -0.1410 -0.2888 -0.4191
    2MPD1     H14257   4.536   3.590  17.126  0.2633 -0.3398 -1.3213
    2MPD1    H114258   4.147   3.426  17.077 -0.2980  0.2578  2.3592
    2MPD1    H214259   4.195   3.836  17.166  0.7955  0.0792  2.0979
    2MPD1    H314260   4.048   3.654  17.126 -0.5333 -2.3814  1.6118
    2MPD1     N14261   4.412   3.376  17.060 -0.2850  0.1838  0.5205
    2MPD1    H514262   4.513   3.379  17.053 -0.3068 -1.5545 -0.6686
    2MPD1    N114263   4.462   3.837  17.139  0.4247 -0.3131 -0.2551
    2MPD1    H614264   4.553   3.831  17.184  0.4100  1.8189  0.0928
    2MPD1    H714265   4.419   3.921  17.179  0.9937 -0.5206  0.7972
    3TCq2    C114266   4.358   3.264  17.005  0.0564  0.1107  0.9068
    3TCq2    O214267   4.243   3.244  16.969 -0.4109 -0.1590 -0.3781
    3TCq2    C214268   4.458   3.171  16.953  0.1227  0.3790 -0.6534
    3TCq2    C314269   4.439   3.123  16.825  0.3186  0.5388 -0.3470
    3TCq2    C414270   4.547   3.085  16.748  0.1194  0.3254 -0.0967
    3TCq2    C514271   4.677   3.101  16.792 -0.8549 -0.4253 -0.1883
    3TCq2    C614272   4.692   3.140  16.928  0.3344 -0.5845 -0.6179
    3TCq2    C714273   4.585   3.178  17.006  0.4715  0.5863  0.1084
    3TCq2    C814274   0.091   3.106  17.003 -0.2881 -0.0242 -0.1461
    3TCq2    O414275   0.121   3.185  17.091  0.3591  0.0994 -0.3886
    3TCq2    C914276   4.524   3.025  16.627  0.1577  0.0161  0.6983
    3TCq2    O514277   4.404   3.013  16.589  0.0090 -0.2379 -0.4477
    3TCq2    O614278   4.618   2.963  16.580 -0.1289 -0.7880 -0.2270
    3TCq2    H214279   4.341   3.116  16.781 -0.5436  0.9368  1.5253
    3TCq2    H314280   0.032   3.107  16.718 -0.0452 -1.3600  0.5919
    3TCq2    H414281   4.605   3.186  17.113  1.2596 -0.0610  0.0143
    1TCq1    O114282   2.125   3.343  13.392  0.1470 -0.3309  0.1334
    1TCq1    C114283   2.156   3.213  13.406 -0.2063 -0.8741 -0.0679
    1TCq1    O214284   2.268   3.163  13.431  0.1560  0.7831  0.0213
    1TCq1    C214285   2.033   3.133  13.412  0.1354 -0.1086 -0.4977
    1TCq1    C314286   1.924   3.177  13.471  0.2435  0.1041 -0.4700
    1TCq1    C414287   1.809   3.105  13.480  0.5873  0.4721 -0.1452
    1TCq1    C514288   1.819   2.968  13.459  0.3850  0.2688 -1.3271
    1TCq1    C614289   1.940   2.927  13.402  0.0915 -0.2360 -0.1763
    1TCq1    C714290   2.051   3.005  13.373  0.3267  0.0761  0.3530
    1TCq1    C814291   1.947   2.789  13.369  0.2809 -0.2527 -0.3416
    1TCq1    O414292   1.844   2.725  13.371 -0.7383 -0.2565  0.0806
    1TCq1    C914293   1.685   3.163  13.533  0.2784  0.2923 -0.2773
    1TCq1    O514294   1.700   3.260  13.609  0.3505 -0.4861  0.3191
    1TCq1    O614295   1.585   3.112  13.492  0.7937 -0.0551 -0.0131
    1TCq1    H114296   2.029   3.354  13.375  0.3267  0.3594 -0.4009
    1TCq1    H214297   1.924   3.275  13.518  1.7837 -0.5988  1.0147
    1TCq1    H314298   1.736   2.899  13.465  1.1033 -0.3565  1.3923
    1TCq1    H414299   2.138   2.969  13.320  1.4726 -0.5286  2.6285
    2MPD2     C14300   2.037   2.544  13.228  0.2161  0.4262  0.0733
    2MPD2    C114301   2.121   2.631  13.290 -0.5733 -0.6577  0.0577
    2MPD2    C214302   2.259   2.603  13.288  0.1791  0.5933 -0.3815
    2MPD2    C314303   2.317   2.498  13.217  1.0575  0.0536 -0.5141
    2MPD2    C414304   2.228   2.423  13.142 -0.5820 -0.0844  0.1927
    2MPD2    C514305   2.091   2.447  13.147 -0.7489 -0.5780  0.1727
    2MPD2     H14306   2.324   2.658  13.356  1.2979 -1.1603 -0.0150
    2MPD2    H114307   2.263   2.348  13.072 -0.5722 -1.0112  1.2141
    2MPD2    H214308   1.929   2.544  13.226  0.2390 -3.5349 -0.7526
    2MPD2    H314309   2.024   2.389  13.084 -0.4517 -1.2448  0.4718
    2MPD2     N14310   2.454   2.475  13.223 -1.0550 -0.0354  0.7656
    2MPD2    H514311   2.514   2.533  13.281 -0.8846  0.1884  0.3647
    2MPD2    N114312   2.079   2.747  13.358 -0.0792  0.2367 -0.8839
    2MPD2    H714313   2.156   2.793  13.405  2.5231 -1.9974 -2.9117
    3TCq1    O114314   2.931   2.235  12.928 -0.2924  0.0187 -0.0107
    3TCq1    C114315   2.962   2.226  13.057 -0.2542  0.5113 -0.4110
    3TCq1    O214316   3.038   2.144  13.101  0.4325 -0.2026  0.1067
    3TCq1    C214317   2.873   2.298  13.148  0.2757 -0.2801  0.0271
    3TCq1    C314318   2.913   2.310  13.281  0.5533  1.0274 -0.0806
    3TCq1    C414319   2.819   2.346  13.373  0.4448 -0.2360  0.4957
    3TCq1    C514320   2.691   2.374  13.338 -0.5434  0.0521 -0.1398
    3TCq1    C614321   2.652   2.353  13.211 -0.0409  0.5728  0.3456
    3TCq1    C714322   2.744   2.323  13.111  0.1326  0.0960 -0.7317
    3TCq1    C814323   2.516   2.367  13.171 -0.5199  0.2382 -0.3735
    3TCq1    O414324   2.486   2.296  13.076 -0.4073  0.3459 -0.4474
    3TCq1    C914325   2.862   2.358  13.505  0.6470  0.6145  0.2531
    3TCq1    O514326   2.985   2.343  13.527  0.6994 -0.1057  0.3937
    3TCq1    O614327   2.787   2.413  13.590  0.0830  0.3300 -0.3743
    3TCq1    H114328   2.898   2.325  12.909 -2.5726 -1.0742 -1.2632
    3TCq1    H214329   3.015   2.289  13.311 -0.3152 -0.2198  1.9887
    3TCq1    H314330   2.621   2.380  13.420 -0.1447  1.9557  0.0611
    3TCq1    H414331   2.709   2.295  13.012  2.2019  0.0037 -1.4613
    1MPD2     C14332   1.349   4.100  14.843  0.2380  0.4764 -0.2040
    1MPD2    C114333   1.278   4.004  14.782 -0.0741 -0.1730 -0.5928
    1MPD2    C214334   1.334   3.881  14.755  0.0676 -0.2241  0.0612
    1MPD2    C314335   1.468   3.864  14.759 -0.4138 -0.3940  0.1962
    1MPD2    C414336   1.548   3.968  14.795 -0.2188 -0.5112 -0.3755
    1MPD2    C514337   1.483   4.089  14.839  0.1817  0.3426  0.0350
    1MPD2     H14338   1.266   3.803  14.723 -0.0429 -0.1306  0.0648
    1MPD2    H114339   1.655   3.969  14.810 -0.3972  0.1442  0.8670
    1MPD2    H214340   1.307   4.189  14.888 -3.4397 -1.1314 -0.5280
    1MPD2    H314341   1.536   4.177  14.873 -0.6445  1.9161 -2.7744
    1MPD2     N14342   1.530   3.749  14.703 -0.8172 -0.5373 -0.0924
    1MPD2    H514343   1.631   3.748  14.694 -0.6168 -0.4132  2.0821
    1MPD2    N114344   1.143   4.037  14.755  0.1800 -0.3211 -0.6612
    1MPD2    H714345   1.106   4.126  14.788  1.7741 -0.0720  0.4766
    2TMC3    C114346   0.942   4.041  14.617  0.5671 -0.6976 -0.2192
    2TMC3    C214347   0.862   3.949  14.556  0.3639  0.7696 -0.2013
    2TMC3    C314348   0.799   3.976  14.436  0.4480 -0.8383 -0.3236
    2TMC3    C414349   0.973   4.154  14.551 -0.0224  0.1426 -0.5552
    2TMC3    C514350   0.918   4.169  14.423  0.2486 -0.7568 -0.3479
    2TMC3    C614351   0.820   4.091  14.371  0.0200  0.2592 -0.0813
    2TMC3     C14352   1.066   3.972  14.659  0.0898  0.4378 -0.2749
    2TMC3     O14353   1.076   3.864  14.602  0.5956  0.4058 -0.6951
    2TMC3     H14354   0.842   3.857  14.609  1.1964  0.2612 -0.7710
    2TMC3    H114355   1.065   4.207  14.576 -0.6999  0.1059  2.0069
    2TMC3    H214356   0.773   4.112  14.275  0.7253  1.2692 -0.2101
    2TMC3    C714357   0.952   4.292  14.357  0.1476  0.0796 -0.3307
    2TMC3    C814358   0.806   3.860  14.351  0.3575 -0.1264  0.7577
    2TMC3    O114359   0.860   4.330  14.290  0.2906  0.3850 -0.1024
    2TMC3    O214360   0.738   3.848  14.251  1.0416 -0.4441 -0.0124
    3TCq1    O114361   1.778   4.608  14.629  0.2463  0.1315 -0.2092
    3TCq1    C114362   1.851   4.715  14.588 -0.9823  0.4616 -0.7753
    3TCq1    O214363   1.964   0.014  14.628 -0.4091  0.4040  0.4757
    3TCq1    C214364   1.745   0.088  14.580  0.0563 -1.0201  0.7575
    3TCq1    C314365   1.773   0.206  14.650  0.0204  0.2065 -0.3686
    3TCq1    C414366   1.681   0.299  14.631  0.0575 -0.0948  0.4768
    3TCq1    C514367   1.566   0.283  14.558 -0.0453 -0.4821 -0.7998
    3TCq1    C614368   1.539   0.159  14.499 -0.6167 -0.2123  0.0692
    3TCq1    C714369   1.632   0.060  14.505 -0.1037  0.0729 -0.0009
    3TCq1    C814370   1.415   0.137  14.427  0.2338  0.8733 -0.0909
    3TCq1    O414371   1.353   0.235  14.383 -0.6843  0.5607  0.2240
    3TCq1    C914372   1.705   0.423  14.695  0.0812  0.6218  0.3147
    3TCq1    O514373   1.676   0.528  14.630 -0.1288 -0.4854  0.4489
    3TCq1    O614374   1.776   0.421  14.795  0.2056  0.1819  0.6323
    3TCq1    H114375   1.686   4.601  14.596  0.1131 -0.5104  0.2950
    3TCq1    H214376   1.865   0.218  14.705  0.3403 -1.8531 -0.4347
    3TCq1    H314377   1.493   0.364  14.554 -0.3708 -0.5735  3.8422
    3TCq1    H414378   1.629   4.694  14.445  1.0829 -0.3657  0.5919
    4MPD2     C14379   1.171   0.026  14.297 -0.1571 -0.2264 -0.3357
    4MPD2    C114380   1.255   4.673  14.379  0.0970  0.4696 -0.5465
    4MPD2    C214381   1.212   4.546  14.415 -0.1844  0.3954 -0.3678
    4MPD2    C314382   1.095   4.495  14.364  0.8648  0.4419 -1.1106
    4MPD2    C414383   1.026   4.563  14.265 -0.3685 -0.0765 -0.1234
    4MPD2    C514384   1.060   4.690  14.239 -0.3952 -0.1585 -0.6585
    4MPD2     H14385   1.267   4.487  14.487  2.6320  1.3739 -1.7249
    4MPD2    H114386   0.950   4.511  14.209 -1.4411  2.6228 -1.1680
    4MPD2    H214387   1.187   0.127  14.262  2.6569 -0.5215  0.0851
    4MPD2    H314388   1.004   0.032  14.173  2.0810  4.7878  2.2388
    4MPD2     N14389   1.067   4.359  14.394  0.5147  0.3515 -0.2192
    4MPD2    H514390   1.134   4.323  14.461 -0.3452 -1.8941 -0.5499
    4MPD2    N114391   1.373   0.009  14.436 -0.4394  0.3833  0.2636
    4MPD2    H714392   1.438   4.667  14.476  0.9856  0.2284 -2.2878
    5TMC2    C114393   1.488   3.442  14.379 -0.1815 -0.1299  0.3074
    5TMC2    C214394   1.572   3.510  14.296 -0.3161 -0.4161  0.4448
    5TMC2    C314395   1.638   3.615  14.348 -0.2670 -0.4620  0.1950
    5TMC2    C414396   1.489   3.463  14.513 -0.3638  0.0787 -0.1468
    5TMC2    C514397   1.562   3.569  14.559  0.3389 -0.1713  0.0017
    5TMC2    C614398   1.639   3.645  14.479  0.0913  0.0369 -0.2015
    5TMC2     C14399   1.368   3.406  14.315  0.3374  0.1770  0.3606
    5TMC2     O14400   1.374   3.362  14.198  0.3730 -0.3648 -0.2210
    5TMC2     H14401   1.546   3.521  14.191 -0.2160 -0.6800  0.3935
    5TMC2    H114402   1.409   3.420  14.573 -2.1989  0.5419 -2.2530
    5TMC2    H214403   1.692   3.729  14.522 -1.3876  0.9244 -0.1125
    5TMC2    C714404   1.469   3.652  14.626  0.5338  1.0358  0.3560
    5TMC2    C814405   1.675   3.725  14.263  0.2329 -0.2717  0.3252
    5TMC2    O114406   1.351   3.637  14.603  0.0363 -0.3507  0.0814
    5TMC2    O214407   1.645   3.837  14.298 -0.1434 -0.1358 -0.2645
    5TMC2    O514408   1.699   3.677  14.139 -0.4616 -0.6636 -0.0824
    5TMC2    H514409   1.737   3.588  14.126 -0.3124 -0.3519 -1.6996
    6MPD2     C14410   0.909   3.618  14.215 -0.2057 -0.4976  0.3694
    6MPD2    C114411   0.960   3.667  14.327 -0.5069 -0.4171  0.3327
    6MPD2    C214412   1.078   3.616  14.382 -0.7778  0.2420 -0.1353
    6MPD2    C314413   1.154   3.527  14.312 -0.2339  0.5104  0.1395
    6MPD2    C414414   1.107   3.473  14.191  0.1622  0.5179 -0.1164
    6MPD2    C514415   0.988   3.521  14.147 -0.6956 -0.1806  0.9396
    6MPD2     H14416   1.105   3.650  14.482 -0.5418  1.4732 -0.6198
    6MPD2    H114417   1.153   3.391  14.137 -0.8120  1.5087 -2.4305
    6MPD2    H214418   0.811   3.632  14.170 -0.3786  0.0689  0.9278
    6MPD2    H314419   0.946   3.462  14.066 -1.6183  2.1638 -0.3044
    6MPD2     N14420   1.273   3.487  14.373 -0.6111  0.5685  0.1196
    6MPD2    H514421   1.304   3.529  14.460 -1.7405  1.2695  0.1792
    6MPD2    N114422   0.908   3.786  14.390 -0.0569  0.1407  0.7470
    6MPD2    H714423   0.954   3.816  14.475 -0.9133  0.9306  0.9412
  945NH3     N114424   4.038   3.090   8.340  0.2163  1.0583 -0.1306
  945NH3     H214425   3.996   3.134   8.421 -3.7897  0.7473 -2.0461
  945NH3     H314426   3.957   3.038   8.307  0.3058 -0.2642  1.7232
  945NH3     H414427   4.042   3.165   8.272  2.0084 -0.8778 -2.1470
  946SOD     NA14428   1.871   2.602  11.649 -0.0304 -0.0353 -0.0829
  947SOD     NA14429   3.299   4.399   3.129  0.1783  0.0982 -0.3986
  948SOD     NA14430   0.022   2.700   7.731 -0.5099  0.9223 -0.0820
  949SOD     NA14431   4.079   1.675  14.658  0.3540 -0.2595  0.1878
  950SOD     NA14432   3.162   1.417   1.026  0.1928 -0.5216 -0.3877
  951SOD     NA14433   1.599   0.234   8.252 -0.2419  0.5853 -0.1246
  952SOD     NA14434   1.714   2.736  11.270 -0.2151 -0.5380 -0.2751
  953SOD     NA14435   2.769   4.390  12.000  0.3204 -0.4688  0.3913
  954SOD     NA14436   3.053   2.767  14.276 -0.2596  0.2301  0.0242
  955SOD     NA14437   3.484   2.209  14.308 -0.3750  0.3826 -0.1279
  956SOD     NA14438   4.547   2.499  12.806 -0.1358  0.5176 -0.4195
  957SOD     NA14439   4.424   3.257   3.875  0.7754  0.1142 -0.1801
  958SOD     NA14440   3.564   2.409   0.986  0.0929 -0.1083 -0.0868
  959SOD     NA14441   4.553   2.814  16.426 -0.1174  0.1201  0.1380
  960SOD     NA14442   0.257   3.364  11.739  0.3962 -0.1743 -0.2729
  961SOD     NA14443   0.501   3.688   9.836 -0.7365 -0.3140 -0.0906
  962SOD     NA14444   4.671   2.233  12.882 -0.2986 -0.2691  0.1452
  963SOD     NA14445   0.672   0.679   1.366 -0.3673  0.2714 -0.1914
  964SOD     NA14446   0.986   3.044  10.680  0.1263  0.2699 -1.0441
  965SOD     NA14447   3.390   2.446   0.119  0.3458  0.1774 -0.3774
  966SOD     NA14448   1.289   3.875  15.269  0.0014 -0.0917  0.0202
  967SOD     NA14449   1.950   0.829  10.375  0.0640  0.5959  0.2255
  968SOD     NA14450   0.741   2.293   2.580 -0.5617 -0.2171 -0.3349
  969SOD     NA14451   0.747   3.300  10.234  0.0216 -0.1090 -0.0593
  970SOD     NA14452   2.416   3.791   9.365  0.6095  0.0411  0.3571
  971SOD     NA14453   1.212   0.904  14.165 -0.1549  0.4689  0.1622
  972SOD     NA14454   2.852   2.802  11.451  0.1583 -0.0155 -0.6321
  973SOD     NA14455   0.351   1.307   3.271 -0.4185  0.2366 -0.3274
  974SOD     NA14456   2.878   0.057   5.882 -0.0075  0.1952 -0.0490
  975SOD     NA14457   3.497   2.541   0.711  0.0907  0.0263 -0.1353
  976SOD     NA14458   2.222   2.338  12.680 -0.3942  0.4217 -0.2871
  977SOD     NA14459   0.370   4.158   3.713 -0.1580 -0.4886  0.1714
  978SOD     NA14460   4.101   2.207   4.100 -0.0666  0.0113  0.5379
  979SOD     NA14461   1.555   3.306  13.784 -0.3779 -0.6102 -0.4263
  980SOD     NA14462   3.853   4.005  15.305 -0.3874 -0.1759  0.5314
  981SOD     NA14463   1.339   1.870  11.629 -0.4103 -0.4426 -0.2977
  982SOD     NA14464   2.397   3.191  11.456  0.1859 -0.2532  0.0402
  983SOD     NA14465   0.690   4.044   0.833  0.2245  0.1025 -0.3376
  984SOD     NA14466   3.289   4.093  13.057  0.4595  0.3621  0.1525
  985SOD     NA14467   1.890   3.298  11.931 -0.1901 -0.4223  0.0042
  986SOD     NA14468   3.129   2.249   0.010  0.1542  0.3027 -0.0565
  987SOD     NA14469   3.890   2.250   0.415  0.0639 -0.1757 -0.5405
  988SOD     NA14470   3.412   1.100  12.456 -0.0483 -0.6567 -0.2999
  989SOD     NA14471   2.814   3.911  15.319  0.2987  0.2513 -0.3735
  990SOD     NA14472   4.663   0.764  10.050  0.2051 -0.0664 -0.1412
  991SOD     NA14473   1.258   4.437  15.161  0.6246  0.1693  0.2064
  992SOD     NA14474   3.070   0.439  13.857 -0.0115 -0.3521  0.2462
  993SOD     NA14475   2.397   2.705  12.864  0.5538  0.0421 -0.0856
  994SOD     NA14476   2.427   3.289  10.342 -0.5643 -0.0071  0.3886
  995SOD     NA14477   3.600   2.494  13.509  0.0849 -0.3211  0.3820
  996SOD     NA14478   1.387   3.016   7.409  0.1067  0.3267  0.5712
  997SOD     NA14479   0.174   4.566   2.604  0.1914 -0.1069  0.0606
  998SOD     NA14480   1.360   2.863   9.493  0.0999  0.1870 -0.1261
  999SOD     NA14481   2.725   3.929  10.418 -0.1974  0.4742 -0.1585
 1000SOD     NA14482   2.788   0.621  16.454  0.5946  0.0355 -0.2397
 1001SOD     NA14483   0.572   2.030  14.366  0.3042  0.1191  0.7098
 1002SOD     NA14484   2.570   4.089  12.043 -0.4734 -0.1261  0.0064
 1003SOD     NA14485   3.386   2.925  10.827  0.5081  0.3429  0.0805
 1004SOD     NA14486   3.003   2.967  14.840  0.1006 -0.3368  0.1628
 1005SOD     NA14487   2.888   4.197  13.111 -0.2379 -0.1662  0.6131
 1006SOD     NA14488   0.580   0.249  10.409 -0.1979  0.0964 -0.3270
 1007SOD     NA14489   2.724   2.372   4.499  0.0613 -0.2263 -0.2391
 1008SOD     NA14490   4.077   4.524  15.190 -0.1061 -0.1188 -0.7483
 1009SOD     NA14491   2.515   2.436   2.733 -0.1333  0.0025 -0.1553
 1010SOD     NA14492   3.458   1.423   1.872  0.2598  0.4025 -0.0099
 1011SOD     NA14493   4.267   3.952   2.401  0.2621  0.1498 -0.2958
 1012SOL     OW14494   0.794   0.675   3.843 -0.0573  0.1705  0.1274
 1012SOL    HW114495   0.709   0.715   3.861 -0.5498 -0.2770 -1.1879
 1012SOL    HW214496   0.829   0.683   3.932 -1.7495 -1.0995  0.8997
 1013SOL     OW14497   1.998   2.654   8.244 -0.3259 -0.3414 -0.0536
 1013SOL    HW114498   2.038   2.665   8.158  1.4854  1.4339  0.9921
 1013SOL    HW214499   1.983   2.562   8.266 -1.4951  0.2988  1.8605
 1014SOL     OW14500   0.765   3.226   6.099 -0.1937 -0.1292 -0.2355
 1014SOL    HW114501   0.802   3.200   6.184 -0.8439 -2.3131 -0.6247
 1014SOL    HW214502   0.783   3.320   6.102 -0.5226 -0.0466 -1.0169
 1015SOL     OW14503   4.255   1.668   6.594 -0.2533 -0.3803 -0.3663
 1015SOL    HW114504   4.301   1.587   6.572 -0.6421 -0.4170 -1.0545
 1015SOL    HW214505   4.185   1.674   6.529  0.4880 -1.0480 -1.2205
 1016SOL     OW14506   1.382   2.582   1.727  0.0023  0.1975  0.0771
 1016SOL    HW114507   1.376   2.487   1.714 -1.0949  0.0343  1.8411
 1016SOL    HW214508   1.425   2.579   1.812  0.6127 -2.0618 -0.3150
 1017SOL     OW14509   2.050   3.386   3.536 -0.6869 -0.1153  0.1645
 1017SOL    HW114510   1.988   3.457   3.553 -1.0065  0.0158 -1.4827
 1017SOL    HW214511   2.060   3.381   3.441  0.5268 -1.5334  0.3600
 1018SOL     OW14512   1.825   1.184   1.961 -0.1246  0.5841  0.3099
 1018SOL    HW114513   1.899   1.217   1.910  0.9546 -2.0607  0.1770
 1018SOL    HW214514   1.760   1.161   1.894  0.4688  1.2338 -0.4885
 1019SOL     OW14515   1.772   3.632  17.671  0.3913  0.3386  0.2302
 1019SOL    HW114516   1.854   3.665  17.635  1.1799  0.2351  1.9509
 1019SOL    HW214517   1.768   3.683   0.053  0.3093 -1.3398  1.3079
 1020SOL     OW14518   1.223   1.907   5.597 -0.1909 -0.3193 -0.0053
 1020SOL    HW114519   1.130   1.913   5.574 -0.7709  0.0479  2.3474
 1020SOL    HW214520   1.240   1.815   5.576  2.6319 -0.0110  1.0297
 1021SOL     OW14521   3.697   0.056   3.068 -0.3981 -0.3904 -0.0708
 1021SOL    HW114522   3.676   0.108   3.146 -0.6373  0.2854 -0.5791
 1021SOL    HW214523   3.778   0.090   3.030  0.3815 -1.4916  0.6254
 1022SOL     OW14524   1.804   3.097   0.671  0.2247  0.1079 -0.2800
 1022SOL    HW114525   1.898   3.110   0.661  0.2136  0.5331  0.1734
 1022SOL    HW214526   1.801   3.045   0.752 -1.0588 -1.3509 -1.2547
 1023SOL     OW14527   3.506   3.618   8.134 -0.1316  0.3416 -0.1391
 1023SOL    HW114528   3.468   3.655   8.215 -2.7553 -3.4010  0.3640
 1023SOL    HW214529   3.554   3.694   8.103 -1.0011  0.2680 -1.6627
 1024SOL     OW14530   3.971   4.597   6.051 -0.2795  0.2958  0.2838
 1024SOL    HW114531   3.990   4.688   6.073 -2.3782  0.6874  0.4240
 1024SOL    HW214532   3.886   4.579   6.090  0.0006  0.1535  0.8158
 1025SOL     OW14533   2.506   0.218   5.402 -0.1177  0.1034  0.0022
 1025SOL    HW114534   2.508   0.139   5.347 -2.2148  0.8387 -1.1176
 1025SOL    HW214535   2.598   0.238   5.421 -0.7250  0.3894  2.6825
 1026SOL     OW14536   0.642   0.562   2.315  0.0351  0.2535  0.1996
 1026SOL    HW114537   0.680   0.480   2.282  1.7361  0.9334  0.4851
 1026SOL    HW214538   0.630   0.611   2.233 -0.0969 -2.0957 -1.2093
 1027SOL     OW14539   3.062   2.359  10.201  0.8471 -0.3742  0.1338
 1027SOL    HW114540   3.016   2.376  10.119 -1.4475 -0.9096  1.2925
 1027SOL    HW214541   3.012   2.411  10.263  0.1754 -0.9923  0.1109
 1028SOL     OW14542   2.109   1.116   8.899 -0.3111  0.0005 -0.0175
 1028SOL    HW114543   2.115   1.126   8.994 -1.6412 -1.5504  0.2128
 1028SOL    HW214544   2.204   1.121   8.886 -0.1380  1.4059  1.7063
 1029SOL     OW14545   1.573   3.257   7.858 -0.3839 -0.6551 -0.2536
 1029SOL    HW114546   1.587   3.314   7.933 -1.1865 -2.1228  1.0116
 1029SOL    HW214547   1.655   3.285   7.815  0.0679  0.7494  1.5481
 1030SOL     OW14548   1.565   3.976   6.070 -0.5426  0.0709 -0.4726
 1030SOL    HW114549   1.578   3.912   6.140  0.7500  1.2776  0.3925
 1030SOL    HW214550   1.638   3.962   6.009  0.6794 -1.2445  1.2924
 1031SOL     OW14551   0.664   3.055   2.624  0.1269  0.5740 -0.7373
 1031SOL    HW114552   0.745   3.017   2.591 -0.9920 -0.7575 -1.9393
 1031SOL    HW214553   0.662   3.127   2.561 -0.0864  0.0190 -1.3579
 1032SOL     OW14554   0.569   1.633   4.039  0.1809 -0.2181 -0.3691
 1032SOL    HW114555   0.490   1.667   3.999 -0.4366 -0.2470  0.8430
 1032SOL    HW214556   0.539   1.649   4.128 -0.9897  1.2517 -1.0345
 1033SOL     OW14557   3.809   1.455   8.172  0.3770 -0.0629 -0.0045
 1033SOL    HW114558   3.803   1.477   8.265 -0.2472 -0.1966 -0.0125
 1033SOL    HW214559   3.717   1.468   8.148 -0.6144 -2.2102  2.5682
 1034SOL     OW14560   3.877   3.648   2.522  0.5632 -0.0910 -0.9514
 1034SOL    HW114561   3.965   3.612   2.526  0.0933 -1.2700 -1.0343
 1034SOL    HW214562   3.834   3.593   2.457  0.8337 -0.3616 -0.9005
 1035SOL     OW14563   2.276   1.677   5.060 -0.1177 -0.1471  0.3010
 1035SOL    HW114564   2.346   1.741   5.050 -0.4791  0.3221  0.7804
 1035SOL    HW214565   2.327   1.596   5.064 -0.6033 -0.4999 -0.8058
 1036SOL     OW14566   2.733   1.575  15.314  0.4768 -0.4723  0.1070
 1036SOL    HW114567   2.755   1.493  15.358 -0.6632 -0.2792  1.0135
 1036SOL    HW214568   2.800   1.629  15.355 -0.7829  0.3537  1.0559
 1037SOL     OW14569   2.381   2.419  12.845 -0.4756  0.1789 -0.0112
 1037SOL    HW114570   2.404   2.369  12.924 -0.0001 -1.3930 -1.1382
 1037SOL    HW214571   2.460   2.407  12.792 -0.0382  0.0149  0.6806
 1038SOL     OW14572   2.219   3.176  13.016 -0.5360  0.6205 -0.3943
 1038SOL    HW114573   2.306   3.194  13.052 -0.5141 -1.0102  0.3637
 1038SOL    HW214574   2.248   3.160  12.927 -2.0644 -1.1351 -0.5776
 1039SOL     OW14575   4.038   2.588   4.300 -0.0258 -0.2791 -0.0779
 1039SOL    HW114576   4.047   2.535   4.379  0.3574 -0.5684 -0.3198
 1039SOL    HW214577   4.129   2.616   4.295  0.2262 -1.0625  0.0371
 1040SOL     OW14578   3.568   1.316  10.339  0.3628  0.1141  0.3743
 1040SOL    HW114579   3.608   1.241  10.383 -2.6881 -1.7741 -0.0627
 1040SOL    HW214580   3.586   1.392  10.396 -1.8379  0.5944  0.4261
 1041SOL     OW14581   3.132   3.784   3.871  0.5146 -0.7220  0.0551
 1041SOL    HW114582   3.066   3.814   3.809 -2.0098 -2.2467  2.0094
 1041SOL    HW214583   3.075   3.788   3.948 -0.8163 -0.8994 -0.9208
 1042SOL     OW14584   1.404   1.640  13.609  0.4079  0.0389  0.6505
 1042SOL    HW114585   1.348   1.604  13.540  1.1443  0.6992 -0.2911
 1042SOL    HW214586   1.338   1.667  13.673 -0.7828  0.7466 -0.8557
 1043SOL     OW14587   2.431   3.098   6.069  0.0523 -0.1023  0.3359
 1043SOL    HW114588   2.370   3.038   6.111 -0.3101 -0.3177 -0.4875
 1043SOL    HW214589   2.462   3.139   6.150 -1.8952 -0.4012  1.2143
 1044SOL     OW14590   2.113   0.073  17.096 -0.2365 -0.2155 -0.0758
 1044SOL    HW114591   2.177   0.081  17.167  0.3400 -1.1334 -0.4950
 1044SOL    HW214592   2.109   0.163  17.064  0.7282  0.4726  1.6901
 1045SOL     OW14593   3.186   3.370   2.336  0.3459  0.7811  0.1465
 1045SOL    HW114594   3.194   3.466   2.332 -1.9180  0.8340 -2.5927
 1045SOL    HW214595   3.279   3.354   2.321 -0.1297 -1.1780 -0.6788
 1046SOL     OW14596   3.363   1.615   6.291  0.2120 -0.0220 -0.1617
 1046SOL    HW114597   3.303   1.667   6.345 -2.8220 -2.6015 -1.0345
 1046SOL    HW214598   3.448   1.632   6.332 -0.9240  0.0447  2.1577
 1047SOL     OW14599   0.535   0.247   2.883  0.2719 -0.5366  0.1579
 1047SOL    HW114600   0.602   0.251   2.815  0.0081  0.8030 -0.0098
 1047SOL    HW214601   0.475   0.182   2.846 -0.2444 -0.6413  1.1622
 1048SOL     OW14602   4.517   3.076   0.305 -0.1618  0.0537 -0.9153
 1048SOL    HW114603   4.437   3.070   0.357  0.5430  1.9358  0.3678
 1048SOL    HW214604   4.536   2.985   0.279 -0.8028  0.3160 -2.2739
 1049SOL     OW14605   3.561   4.626   0.600 -0.5965  0.2870 -0.0059
 1049SOL    HW114606   3.554   4.717   0.627 -1.2172 -0.0345  0.9298
 1049SOL    HW214607   3.631   4.603   0.661  0.9217  1.0435 -1.4818
 1050SOL     OW14608   2.543   2.140   7.531  0.0947 -0.5782 -0.1308
 1050SOL    HW114609   2.602   2.068   7.511  1.3856  1.2393 -2.7906
 1050SOL    HW214610   2.471   2.113   7.473 -0.5555 -0.3586  0.5623
 1051SOL     OW14611   4.672   2.925  16.228 -0.1851  0.1413  0.6373
 1051SOL    HW114612   0.007   2.850  16.225 -0.6648 -0.2581  1.2084
 1051SOL    HW214613   4.598   2.899  16.174  1.5441  1.1213 -2.2035
 1052SOL     OW14614   0.068   3.104   5.018  0.6848  0.1138  0.3420
 1052SOL    HW114615   4.718   3.050   4.990  1.1190 -0.7217  0.7779
 1052SOL    HW214616   0.114   3.061   5.090  0.5133 -2.5388 -1.1192
 1053SOL     OW14617   1.948   2.039   6.872 -0.3412 -0.4934 -0.0687
 1053SOL    HW114618   1.897   1.989   6.935 -0.7180  0.3067  0.2644
 1053SOL    HW214619   2.012   1.974   6.842 -2.5307 -2.4053 -0.5388
 1054SOL     OW14620   4.499   2.700   5.536 -0.0374 -0.4766 -0.2477
 1054SOL    HW114621   4.561   2.752   5.484 -0.3565 -1.2758 -1.4351
 1054SOL    HW214622   4.431   2.682   5.471  3.3643 -1.4577 -3.5535
 1055SOL     OW14623   2.303   1.943   8.682 -0.0550 -0.2623  0.2562
 1055SOL    HW114624   2.244   2.002   8.727 -0.5697  0.4758 -1.3788
 1055SOL    HW214625   2.389   1.977   8.708  1.6746 -1.4317 -3.8818
 1056SOL     OW14626   2.901   1.392   2.503  0.4140 -0.8692 -0.4087
 1056SOL    HW114627   2.971   1.419   2.443  1.7839  0.3023  1.7332
 1056SOL    HW214628   2.926   1.434   2.585  0.3165 -3.3236  0.8966
 1057SOL     OW14629   0.561   0.701   6.950  0.6052  0.4754 -0.3074
 1057SOL    HW114630   0.579   0.666   6.863 -1.1166  0.8248 -0.7946
 1057SOL    HW214631   0.476   0.665   6.976 -0.0111  2.7461  0.7621
 1058SOL     OW14632   2.369   3.307   8.688 -0.0212  0.3973 -0.5126
 1058SOL    HW114633   2.443   3.363   8.664  0.4408  0.0794  0.1560
 1058SOL    HW214634   2.380   3.302   8.783 -0.7260 -0.5457 -0.4839
 1059SOL     OW14635   4.640   3.777   3.301 -0.4184  0.1537 -0.6507
 1059SOL    HW114636   4.616   3.805   3.389  0.6177 -1.2136  0.0727
 1059SOL    HW214637   4.554   3.768   3.259 -1.6131 -0.9728  2.0434
 1060SOL     OW14638   1.506   0.762   7.965 -0.1665  0.1507  0.3546
 1060SOL    HW114639   1.554   0.826   8.017  2.5613 -0.2387 -1.6735
 1060SOL    HW214640   1.443   0.816   7.917 -0.6255 -1.8541 -1.3047
 1061SOL     OW14641   3.520   3.041   4.896 -1.1355  0.7635 -0.1070
 1061SOL    HW114642   3.614   3.050   4.912 -0.7520 -0.3547 -1.6891
 1061SOL    HW214643   3.521   2.947   4.879 -2.1496  0.8090 -0.4382
 1062SOL     OW14644   4.182   2.936   6.218 -0.2106 -0.6067  0.0174
 1062SOL    HW114645   4.236   3.007   6.254 -1.0084  0.5209 -1.0433
 1062SOL    HW214646   4.111   2.924   6.281  0.0071 -1.6830  0.0643
 1063SOL     OW14647   0.105   0.611  10.114  0.3517 -0.3554 -0.3825
 1063SOL    HW114648   0.192   0.594  10.076  0.4422 -1.9458  0.5356
 1063SOL    HW214649   0.148   0.631  10.197  2.4192  0.4015 -1.6202
 1064SOL     OW14650   4.633   0.430  14.761 -0.9833  0.2360  0.2886
 1064SOL    HW114651   4.652   0.338  14.744 -2.5544  0.0279 -0.3756
 1064SOL    HW214652   4.672   0.448  14.846 -2.5803  1.1162  0.8453
 1065SOL     OW14653   2.305   3.555   1.889 -0.1531 -0.2797 -0.1545
 1065SOL    HW114654   2.337   3.568   1.799 -0.9599 -2.0955 -0.7020
 1065SOL    HW214655   2.226   3.608   1.877  0.3326  1.1615  3.0845
 1066SOL     OW14656   3.533   1.533   7.543  0.5644  0.4626  0.4624
 1066SOL    HW114657   3.530   1.442   7.514 -1.7472  0.9143 -0.6944
 1066SOL    HW214658   3.624   1.554   7.523  0.3932  0.5745 -0.1727
 1067SOL     OW14659   1.949   1.213   7.896  0.2611 -0.1833 -0.0262
 1067SOL    HW114660   1.928   1.232   7.805  1.0890  0.4145 -0.0862
 1067SOL    HW214661   1.879   1.256   7.943 -0.1677 -0.8227 -0.0725
 1068SOL     OW14662   3.001   3.697  14.336  0.1353  0.2853 -0.0278
 1068SOL    HW114663   3.058   3.771  14.313  1.1641 -0.6610 -0.4837
 1068SOL    HW214664   3.065   3.628  14.352 -0.8048 -0.7115 -0.6456
 1069SOL     OW14665   4.382   2.260  12.494  0.2624  0.2068  0.0033
 1069SOL    HW114666   4.454   2.266  12.431  0.9024  0.1132  0.7241
 1069SOL    HW214667   4.386   2.346  12.534  1.1770  1.5577 -3.0021
 1070SOL     OW14668   2.747   3.052   7.672  0.8754 -0.0299 -0.6077
 1070SOL    HW114669   2.841   3.062   7.691  0.5662 -1.2418  1.5516
 1070SOL    HW214670   2.720   3.027   7.760  0.0321  1.5984 -0.4044
 1071SOL     OW14671   2.882   3.776  10.526  0.3627  0.0434 -0.6593
 1071SOL    HW114672   2.929   3.820  10.597 -2.0053 -0.9336  1.4771
 1071SOL    HW214673   2.863   3.692  10.568 -2.8225 -0.2546 -2.7107
 1072SOL     OW14674   1.508   0.969   2.445  0.2040 -0.3535  0.2147
 1072SOL    HW114675   1.484   1.054   2.408 -2.2656 -1.5991 -1.0263
 1072SOL    HW214676   1.588   0.947   2.397  0.2807 -0.8211  0.5585
 1073SOL     OW14677   1.008   1.094   3.839 -0.7146  0.4561  0.0483
 1073SOL    HW114678   0.996   1.189   3.841 -0.8340  0.4868 -2.0151
 1073SOL    HW214679   0.952   1.077   3.915 -1.4108  1.2957 -0.2733
 1074SOL     OW14680   3.187   4.507  11.235 -0.1706  0.2847 -0.2023
 1074SOL    HW114681   3.196   4.568  11.308 -0.6567  1.4184 -1.0856
 1074SOL    HW214682   3.258   4.534  11.177  1.3281  2.0602  2.4441
 1075SOL     OW14683   0.562   1.507   7.570 -0.3400  0.1500 -0.0489
 1075SOL    HW114684   0.498   1.579   7.578 -0.7966 -0.0609 -1.8603
 1075SOL    HW214685   0.536   1.459   7.491  0.8834 -0.9858  0.2509
 1076SOL     OW14686   3.432   2.251   1.084  0.0495 -0.2912 -0.1416
 1076SOL    HW114687   3.383   2.269   1.164  1.0499  0.8047  0.2329
 1076SOL    HW214688   3.359   2.206   1.043 -0.8895  1.8047 -0.7309
 1077SOL     OW14689   2.828   4.310  15.141  0.5713 -0.8809  0.5131
 1077SOL    HW114690   2.873   4.251  15.201 -0.2991 -0.5609  1.4674
 1077SOL    HW214691   2.873   4.394  15.157  2.0046 -1.3134 -1.1879
 1078SOL     OW14692   4.637   3.355   3.873 -0.0064  0.6512 -0.5079
 1078SOL    HW114693   4.684   3.360   3.957 -0.6383 -1.2836 -0.0272
 1078SOL    HW214694   4.651   3.444   3.842  1.0277  1.3988  2.0921
 1079SOL     OW14695   2.287   3.865   2.194  0.5997 -0.0958 -0.2506
 1079SOL    HW114696   2.204   3.855   2.148  0.4273 -2.0263  0.5071
 1079SOL    HW214697   2.342   3.846   2.118  2.3090  0.8023  0.7476
 1080SOL     OW14698   4.000   4.023  16.084 -0.3158  0.1929  0.4165
 1080SOL    HW114699   3.938   4.039  16.014 -3.4500 -1.7016  2.7488
 1080SOL    HW214700   4.002   3.928  16.088 -2.2091  0.1023 -1.2467
 1081SOL     OW14701   3.432   2.743  16.208 -0.1512 -0.3656  0.2657
 1081SOL    HW114702   3.443   2.652  16.237  0.5850 -0.4722 -0.3536
 1081SOL    HW214703   3.459   2.808  16.273  3.5012 -1.7559  0.1180
 1082SOL     OW14704   2.161   2.475  11.430  0.1618 -0.3218  0.2052
 1082SOL    HW114705   2.115   2.448  11.510  0.7296  0.1904  0.7036
 1082SOL    HW214706   2.105   2.446  11.358 -0.3820  3.2028 -0.7877
 1083SOL     OW14707   0.805   1.732   5.674 -0.4469  0.3000  0.0434
 1083SOL    HW114708   0.871   1.726   5.744  0.1571 -1.3449 -0.6706
 1083SOL    HW214709   0.826   1.822   5.650  1.1691  0.2280  1.1643
 1084SOL     OW14710   4.002   1.468  10.633  0.1142 -0.1808 -0.0290
 1084SOL    HW114711   4.060   1.509  10.697 -1.1509  0.7834  0.4959
 1084SOL    HW214712   3.935   1.430  10.689  2.1154 -0.0356  2.4252
 1085SOL     OW14713   1.912   1.719  10.837 -0.3358  0.3784  0.0266
 1085SOL    HW114714   1.979   1.702  10.903 -0.2345 -0.0132 -0.1778
 1085SOL    HW214715   1.956   1.793  10.794  3.0442 -1.6430  0.0118
 1086SOL     OW14716   2.976   1.517   4.791  0.2994  0.0174 -0.2199
 1086SOL    HW114717   2.988   1.606   4.825 -1.0465 -0.1016  0.5618
 1086SOL    HW214718   3.065   1.495   4.762  0.5915  1.1867 -0.1978
 1087SOL     OW14719   3.443   2.243   8.843  0.0294  0.1095  0.0569
 1087SOL    HW114720   3.537   2.260   8.847  0.0257 -0.0630  0.8872
 1087SOL    HW214721   3.417   2.271   8.931 -0.1392 -1.4446  0.5054
 1088SOL     OW14722   1.355   0.142  10.064 -0.0430  0.2691 -0.0309
 1088SOL    HW114723   1.322   0.093  10.140  0.1114 -0.9662 -0.7673
 1088SOL    HW214724   1.280   0.197  10.042 -1.5433 -2.7192 -2.4044
 1089SOL     OW14725   0.110   1.298   2.924  0.2545 -0.0888 -0.1349
 1089SOL    HW114726   0.130   1.378   2.876  0.3395  1.5551  2.6359
 1089SOL    HW214727   0.198   1.261   2.929  0.3702  0.3438  1.1670
 1090SOL     OW14728   3.862   4.489  11.145 -0.8804 -0.1811  0.4090
 1090SOL    HW114729   3.907   4.406  11.160 -1.6403 -0.8069 -0.7386
 1090SOL    HW214730   3.790   4.457  11.090 -0.2109 -1.9808  0.5709
 1091SOL     OW14731   0.366   4.274   9.232  0.0741 -0.9134  0.7492
 1091SOL    HW114732   0.394   4.287   9.141  0.4598  1.5879  1.2251
 1091SOL    HW214733   0.405   4.350   9.276 -2.5119  0.7966  0.0965
 1092SOL     OW14734   2.060   2.483  16.829 -0.7951  0.1347  0.0249
 1092SOL    HW114735   2.027   2.446  16.911 -0.6931  1.9151  0.8847
 1092SOL    HW214736   2.063   2.575  16.856  0.4216  0.2692 -0.5793
 1093SOL     OW14737   2.057   0.427   7.268 -0.2613  0.0039 -0.0480
 1093SOL    HW114738   2.127   0.363   7.263  1.7978  2.3717 -1.3768
 1093SOL    HW214739   2.009   0.412   7.187  0.1069  1.2284 -0.5017
 1094SOL     OW14740   2.709   4.269   8.021 -0.3709  0.1022 -0.9089
 1094SOL    HW114741   2.654   4.347   8.016 -1.2970 -0.4137  1.2094
 1094SOL    HW214742   2.655   4.217   8.082  1.5787  0.4785  1.1288
 1095SOL     OW14743   1.801   0.887   9.001  0.0060  0.4082 -0.0593
 1095SOL    HW114744   1.808   0.974   8.962 -1.3620 -0.5121 -2.3126
 1095SOL    HW214745   1.707   0.871   8.995  0.2241 -0.7002 -0.4777
 1096SOL     OW14746   4.018   2.692   7.750 -0.7073 -0.4105 -0.5603
 1096SOL    HW114747   3.965   2.698   7.670  0.7120 -0.0488 -1.4652
 1096SOL    HW214748   3.955   2.677   7.821 -0.1634 -1.8814 -0.3745
 1097SOL     OW14749   0.859   2.293  13.577 -0.8649 -0.0107 -0.5161
 1097SOL    HW114750   0.868   2.271  13.484 -2.1499  1.1541 -0.9078
 1097SOL    HW214751   0.843   2.387  13.579  2.2173  0.5783 -1.9150
 1098SOL     OW14752   0.363   0.881   6.581  0.0505 -0.4203 -0.0952
 1098SOL    HW114753   0.401   0.804   6.622  2.8625  1.7054  1.3404
 1098SOL    HW214754   0.410   0.882   6.498  0.7530  1.0862  0.3226
 1099SOL     OW14755   0.567   0.029   0.226 -0.3409 -0.2683  0.7967
 1099SOL    HW114756   0.520   4.687   0.175 -1.5045  0.3605  1.0539
 1099SOL    HW214757   0.544   0.007   0.316 -0.0153  0.2271  1.0050
 1100SOL     OW14758   2.427   2.273   3.858  0.0017  0.0638 -0.0149
 1100SOL    HW114759   2.518   2.245   3.847 -0.1153 -0.7230  1.0084
 1100SOL    HW214760   2.384   2.226   3.787  1.2981 -0.2466 -0.5987
 1101SOL     OW14761   2.146   1.599   6.071  0.2636 -0.0229 -0.0639
 1101SOL    HW114762   2.181   1.629   6.155  0.5136 -0.9296  0.1582
 1101SOL    HW214763   2.122   1.509   6.096  0.5090 -0.2398 -0.6139
 1102SOL     OW14764   2.940   2.222   8.008 -0.2928 -0.3888  0.0273
 1102SOL    HW114765   2.908   2.146   7.960 -0.4296 -0.8272  0.8022
 1102SOL    HW214766   2.970   2.274   7.934  2.6045 -1.9040  0.1347
 1103SOL     OW14767   0.577   3.102   6.464 -0.0069  0.4253  0.6756
 1103SOL    HW114768   0.608   3.192   6.469  1.0170  0.1379 -0.5329
 1103SOL    HW214769   0.531   3.091   6.547 -1.6313  0.1399 -0.2663
 1104SOL     OW14770   2.708   2.838   6.462 -0.1628 -0.4652  0.7472
 1104SOL    HW114771   2.682   2.767   6.404  0.2241 -1.7394  2.1287
 1104SOL    HW214772   2.701   2.915   6.405 -2.0763 -0.3441  1.1216
 1105SOL     OW14773   4.091   0.476   8.662  0.5484  0.0564 -0.1584
 1105SOL    HW114774   4.036   0.416   8.712  1.3998  0.2718  1.0405
 1105SOL    HW214775   4.174   0.430   8.656  0.3140 -0.4552  0.5454
 1106SOL     OW14776   3.122   2.552   4.117  0.1914 -0.3555 -0.1594
 1106SOL    HW114777   3.159   2.634   4.083  1.1851 -1.2246 -1.1944
 1106SOL    HW214778   3.096   2.507   4.037  1.0429 -0.0987 -0.5851
 1107SOL     OW14779   0.085   0.383   8.791  0.5798  0.3123  0.2161
 1107SOL    HW114780   0.052   0.397   8.702 -0.1976  0.4208  0.5138
 1107SOL    HW214781   0.163   0.328   8.786  1.6770  1.7791  1.2224
 1108SOL     OW14782   0.401   3.063  16.483  0.3580  0.5427  0.0724
 1108SOL    HW114783   0.306   3.071  16.477  0.4757  1.2475 -0.9773
 1108SOL    HW214784   0.438   3.133  16.429  0.0071 -0.9511 -2.1226
 1109SOL     OW14785   0.509   1.210   5.764  0.4007  0.0580 -0.5706
 1109SOL    HW114786   0.576   1.215   5.696  0.0684 -0.2109 -0.9177
 1109SOL    HW214787   0.561   1.239   5.839 -2.0967 -0.5087  1.3829
 1110SOL     OW14788   2.805   1.081   4.618 -0.1605  0.2755 -0.4323
 1110SOL    HW114789   2.820   1.174   4.630 -0.9900  0.2599  0.7239
 1110SOL    HW214790   2.752   1.057   4.694  0.5059  0.0414 -0.0389
 1111SOL     OW14791   1.913   3.508  17.086  0.1164  0.6280 -0.4525
 1111SOL    HW114792   1.829   3.468  17.065 -0.2784  0.9117  0.5942
 1111SOL    HW214793   1.888   3.573  17.151 -2.0111 -0.0538 -0.6157
 1112SOL     OW14794   3.786   0.793  11.373  0.7012  0.2248  0.1243
 1112SOL    HW114795   3.762   0.734  11.445  0.4700  0.2971  0.1057
 1112SOL    HW214796   3.811   0.731  11.304 -1.1186  1.0970 -1.3194
 1113SOL     OW14797   3.763   3.228   9.802 -0.1054  0.7338  0.4555
 1113SOL    HW114798   3.825   3.193   9.738  0.9350  1.0039  1.3015
 1113SOL    HW214799   3.816   3.201   9.877  1.5931 -0.8534 -1.3086
 1114SOL     OW14800   2.352   2.890   6.859  0.0843  0.1689 -0.1220
 1114SOL    HW114801   2.408   2.831   6.808 -2.7171 -2.0215 -0.6410
 1114SOL    HW214802   2.387   2.888   6.948  0.5945 -1.8587 -0.3723
 1115SOL     OW14803   0.734   0.802   4.714  0.9368 -0.5386  0.3026
 1115SOL    HW114804   0.683   0.782   4.792  0.1182  0.3215 -0.0108
 1115SOL    HW214805   0.778   0.718   4.702  0.2939 -0.4604 -2.5947
 1116SOL     OW14806   2.427   3.352   1.992 -0.3688 -0.0730  0.0813
 1116SOL    HW114807   2.514   3.392   1.982 -0.5898  0.1234 -1.0853
 1116SOL    HW214808   2.372   3.427   1.970  0.6014  0.9381  1.0935
 1117SOL     OW14809   2.849   4.167  12.733 -0.4772 -0.3408  0.4361
 1117SOL    HW114810   2.811   4.105  12.795 -1.9332 -0.2386 -0.3650
 1117SOL    HW214811   2.894   4.106  12.675  0.9060  1.3864 -0.3259
 1118SOL     OW14812   2.275   2.968   1.731 -0.1235 -0.4002 -0.4393
 1118SOL    HW114813   2.334   2.900   1.700  1.4574  0.0120  1.6321
 1118SOL    HW214814   2.239   2.999   1.648 -0.1835  0.3148 -0.1453
 1119SOL     OW14815   3.569   3.568   8.458 -0.4818 -0.2341 -0.2306
 1119SOL    HW114816   3.511   3.637   8.425 -0.0655 -0.2237 -0.9432
 1119SOL    HW214817   3.507   3.495   8.448 -0.0309 -0.5819 -0.4569
 1120SOL     OW14818   0.812   0.839   9.141  0.1951  0.3613  0.0243
 1120SOL    HW114819   0.789   0.778   9.210  1.9863 -0.2164  0.0901
 1120SOL    HW214820   0.801   0.922   9.188  3.1601  2.1092 -2.3889
 1121SOL     OW14821   1.720   1.623   7.124 -0.0204  0.3831 -0.2757
 1121SOL    HW114822   1.660   1.679   7.076 -1.3302  0.6174  1.6711
 1121SOL    HW214823   1.789   1.615   7.058  1.6461  1.3970  1.3422
 1122SOL     OW14824   2.352   1.712   7.607 -0.0180  0.6058  0.4104
 1122SOL    HW114825   2.345   1.753   7.521  4.2283  0.0629 -0.2025
 1122SOL    HW214826   2.395   1.628   7.591 -1.5115  0.0107 -0.4300
 1123SOL     OW14827   2.171   2.035   2.376 -0.2469 -0.2184  0.4532
 1123SOL    HW114828   2.116   2.072   2.445  0.3375  1.4621  0.0159
 1123SOL    HW214829   2.241   2.100   2.378  1.6223 -2.1784 -1.6787
 1124SOL     OW14830   2.184   2.718   9.019  0.5975  0.2918 -0.0689
 1124SOL    HW114831   2.181   2.700   8.925  2.6708 -0.2939 -0.0132
 1124SOL    HW214832   2.190   2.628   9.050  2.3919  0.6266  0.5333
 1125SOL     OW14833   2.873   1.935   5.015  0.2420  0.2514  0.1898
 1125SOL    HW114834   2.956   1.893   4.991  1.1278  1.3859  1.3266
 1125SOL    HW214835   2.898   2.017   4.973 -0.1087 -0.3182 -1.1571
 1126SOL     OW14836   1.768   4.306   4.764 -0.0695  0.8981  0.1020
 1126SOL    HW114837   1.819   4.260   4.697  0.0749  1.0130  0.1326
 1126SOL    HW214838   1.797   4.256   4.840 -2.2222 -2.5089 -1.3126
 1127SOL     OW14839   0.229   0.125   6.606 -0.3992  0.3529 -0.0408
 1127SOL    HW114840   0.140   0.090   6.597 -0.1161 -0.1270 -0.9965
 1127SOL    HW214841   0.208   0.215   6.582  0.2861 -0.0298 -2.1220
 1128SOL     OW14842   3.715   1.780   1.928  0.9552  0.9164  0.3079
 1128SOL    HW114843   3.806   1.769   1.900  0.5757 -0.8581 -0.1850
 1128SOL    HW214844   3.705   1.875   1.915 -1.2968  0.4186 -1.4708
 1129SOL     OW14845   0.085   0.338  12.810  0.3667  0.0268  0.3023
 1129SOL    HW114846   0.014   0.329  12.874 -0.1545 -2.1812 -0.5569
 1129SOL    HW214847   0.121   0.417  12.848 -0.8389 -0.3519  2.2027
 1130SOL     OW14848   2.305   3.630  17.317 -0.1294 -0.3724  0.3935
 1130SOL    HW114849   2.329   3.538  17.307 -0.8137 -0.3445 -1.5265
 1130SOL    HW214850   2.385   3.672  17.285 -1.3369  0.2043 -1.8716
 1131SOL     OW14851   0.317   3.939   3.720 -0.1704  0.0922  0.0532
 1131SOL    HW114852   0.250   3.873   3.740  0.3693 -0.4047  0.2368
 1131SOL    HW214853   0.369   3.885   3.660 -0.7409  0.4029 -0.7164
 1132SOL     OW14854   2.010   2.652   4.910 -0.0683  0.1359  0.2932
 1132SOL    HW114855   2.084   2.696   4.952  0.8793 -2.2435  1.1335
 1132SOL    HW214856   1.954   2.629   4.984  0.3050 -0.6000  0.3438
 1133SOL     OW14857   2.472   2.557  14.816 -0.3977 -0.0368  0.1425
 1133SOL    HW114858   2.493   2.648  14.839 -0.0529 -0.3198  0.9436
 1133SOL    HW214859   2.417   2.556  14.738 -0.2196  1.2236 -0.0107
 1134SOL     OW14860   3.504   4.717   2.917  0.0663  0.5687  0.1984
 1134SOL    HW114861   3.574   0.010   2.981  0.8425 -1.5314 -0.1124
 1134SOL    HW214862   3.536   4.640   2.871  1.5587 -0.0052  2.1919
 1135SOL     OW14863   0.339   4.114  13.898 -0.5596  0.3551 -0.1370
 1135SOL    HW114864   0.296   4.142  13.816 -0.0247  0.6262 -0.3235
 1135SOL    HW214865   0.330   4.198  13.944  2.1429  0.9822 -0.7859
 1136SOL     OW14866   3.264   2.837   4.626 -0.3816  0.0082  0.2718
 1136SOL    HW114867   3.200   2.814   4.693 -4.0400  0.1954 -3.1704
 1136SOL    HW214868   3.344   2.796   4.660 -0.9682  1.4338  3.3559
 1137SOL     OW14869   2.850   2.359   2.641 -0.2857  0.5848 -0.0288
 1137SOL    HW114870   2.917   2.410   2.597 -0.5531  0.3353 -0.7150
 1137SOL    HW214871   2.832   2.416   2.716  1.4544  0.1235  0.7613
 1138SOL     OW14872   1.319   4.046  15.405  0.4618 -0.0772 -0.1143
 1138SOL    HW114873   1.351   4.120  15.354  0.2930 -2.0530 -3.0417
 1138SOL    HW214874   1.329   4.091  15.489 -1.6295  0.0871  0.0500
 1139SOL     OW14875   0.969   1.015   2.217 -0.2433 -0.3567  0.1451
 1139SOL    HW114876   0.959   0.968   2.300  0.6365 -0.2011  0.3447
 1139SOL    HW214877   1.061   1.043   2.217 -1.3740  3.2799 -0.1390
 1140SOL     OW14878   0.665   4.515   0.787  0.1143 -0.0161 -0.3999
 1140SOL    HW114879   0.597   4.449   0.770  1.5979 -1.6063 -0.1698
 1140SOL    HW214880   0.639   4.545   0.874 -4.3532  0.1484 -1.7614
 1141SOL     OW14881   3.354   4.392  12.785 -0.3674  0.0073  0.0080
 1141SOL    HW114882   3.393   4.318  12.739  0.1359  0.8701 -0.9788
 1141SOL    HW214883   3.419   4.393  12.854 -1.2988 -1.3701  0.8899
 1142SOL     OW14884   4.395   3.512   7.504  0.4521 -0.2000  0.1771
 1142SOL    HW114885   4.407   3.520   7.599 -0.3770  2.1668  0.0804
 1142SOL    HW214886   4.479   3.501   7.461  0.1941  0.1488 -0.4100
 1143SOL     OW14887   2.163   1.183   6.471 -0.4563  0.0956 -0.3855
 1143SOL    HW114888   2.187   1.123   6.401 -0.3380  0.0644 -0.3186
 1143SOL    HW214889   2.247   1.231   6.474 -1.8032  2.3544  1.3560
 1144SOL     OW14890   3.538   0.044   0.337  0.0484  0.4681  0.0150
 1144SOL    HW114891   3.633   0.036   0.338 -0.0699 -1.2657 -0.9858
 1144SOL    HW214892   3.516   0.010   0.423 -0.6935  0.1766 -0.2868
 1145SOL     OW14893   0.793   3.997  10.715  0.2055 -0.2018  0.2775
 1145SOL    HW114894   0.823   3.948  10.638 -1.6069  0.2033 -0.6948
 1145SOL    HW214895   0.744   3.929  10.762  0.3525  0.4802  1.4256
 1146SOL     OW14896   4.691   1.122  11.567  0.4219  0.1877 -0.0008
 1146SOL    HW114897   4.620   1.104  11.628 -0.9235  0.4063 -1.5197
 1146SOL    HW214898   0.038   1.078  11.614 -0.2594 -1.5357 -0.5640
 1147SOL     OW14899   1.178   0.923   8.073 -0.4823 -0.4679  0.0952
 1147SOL    HW114900   1.232   0.901   8.148 -1.0078 -1.9496  0.0470
 1147SOL    HW214901   1.095   0.879   8.093 -0.5376 -0.4583 -0.1059
 1148SOL     OW14902   2.114   4.570   8.623 -0.2820  0.1990  0.0675
 1148SOL    HW114903   2.102   4.659   8.655 -1.1732 -0.7681  2.4221
 1148SOL    HW214904   2.025   4.542   8.602 -0.2908 -0.5608  1.0781
 1149SOL     OW14905   0.622   1.396   6.211 -0.2230  0.2565  0.0333
 1149SOL    HW114906   0.616   1.325   6.275 -0.0501  0.7585  0.6133
 1149SOL    HW214907   0.601   1.472   6.265 -0.2406 -0.2518  0.7423
 1150SOL     OW14908   2.067   1.960   9.717 -1.0927 -0.9447 -0.0739
 1150SOL    HW114909   2.134   1.943   9.784 -0.3430  0.1289 -0.5355
 1150SOL    HW214910   2.004   2.013   9.764  0.2728  0.5514  0.0828
 1151SOL     OW14911   4.547   3.074   4.250 -0.2188  0.0479  0.0140
 1151SOL    HW114912   4.632   3.038   4.226 -1.1436 -1.7405 -0.5356
 1151SOL    HW214913   4.559   3.077   4.345  0.4896 -2.0873 -0.0029
 1152SOL     OW14914   2.347   4.175  17.618 -0.0925 -0.4493 -0.5179
 1152SOL    HW114915   2.347   4.090  17.574 -1.1058 -1.0149  0.5712
 1152SOL    HW214916   2.435   4.173  17.654  0.2409  0.5670 -1.2897
 1153SOL     OW14917   4.433   2.834   2.269  0.0593  0.0949  0.1632
 1153SOL    HW114918   4.502   2.867   2.327  0.7109 -0.1079 -0.5011
 1153SOL    HW214919   4.358   2.871   2.316 -0.2896  1.0775 -1.1681
 1154SOL     OW14920   3.509   4.019   7.502 -0.2202 -0.5615 -0.0560
 1154SOL    HW114921   3.414   4.019   7.492 -0.1184 -0.7601 -1.0511
 1154SOL    HW214922   3.524   3.935   7.546  0.6185 -0.0161  0.6932
 1155SOL     OW14923   1.931   0.984   4.491  0.0927  0.5998 -0.2031
 1155SOL    HW114924   1.939   0.923   4.564  2.3002 -0.0798 -0.9922
 1155SOL    HW214925   1.867   1.043   4.530  0.6073  0.2419  1.1923
 1156SOL     OW14926   0.799   4.162   1.566  0.4833  0.4507 -0.2285
 1156SOL    HW114927   0.738   4.223   1.607 -0.0174 -0.7230  0.7597
 1156SOL    HW214928   0.875   4.216   1.544  0.2237  1.1125  0.5336
 1157SOL     OW14929   3.665   0.470   5.640 -0.7686  0.1163 -0.1094
 1157SOL    HW114930   3.715   0.411   5.584  0.0980  1.1247 -0.4038
 1157SOL    HW214931   3.731   0.537   5.658 -0.2451 -0.3001 -0.4817
 1158SOL     OW14932   1.549   0.271   3.494  0.3135  0.1002 -0.1775
 1158SOL    HW114933   1.489   0.312   3.557 -1.1077  0.2605 -1.6365
 1158SOL    HW214934   1.585   0.355   3.468  1.7691  0.3165  2.5258
 1159SOL     OW14935   3.544   0.772   8.710  0.3291  0.2084 -0.2894
 1159SOL    HW114936   3.638   0.764   8.720  0.6713  2.6002 -1.6286
 1159SOL    HW214937   3.525   0.851   8.761  0.2217 -0.8440  1.3016
 1160SOL     OW14938   2.905   0.507  12.583 -0.0174 -0.5578 -0.0259
 1160SOL    HW114939   2.869   0.522  12.671 -1.2622  0.6474 -0.7536
 1160SOL    HW214940   2.915   0.595  12.548  0.1319 -0.7715 -0.5144
 1161SOL     OW14941   1.839   3.599   4.212 -0.6499  0.4805  0.3474
 1161SOL    HW114942   1.876   3.602   4.300 -0.7308  0.7343  0.3728
 1161SOL    HW214943   1.784   3.521   4.207 -0.7685  0.5267  0.9935
 1162SOL     OW14944   3.741   3.946   8.409 -0.1229  1.0793 -0.4669
 1162SOL    HW114945   3.699   3.876   8.458  1.2367 -0.1815 -1.0748
 1162SOL    HW214946   3.754   3.911   8.320  0.8762 -1.9622  0.8786
 1163SOL     OW14947   1.828   2.178   9.963 -0.1973  0.2086  0.2042
 1163SOL    HW114948   1.753   2.219   9.922  0.5553 -0.6792 -2.0469
 1163SOL    HW214949   1.819   2.086   9.937 -0.7573  0.2317  0.3113
 1164SOL     OW14950   0.712   3.088   4.242  0.4229  0.1437 -0.3681
 1164SOL    HW114951   0.691   3.016   4.302 -0.6880  0.7613 -0.0121
 1164SOL    HW214952   0.804   3.063   4.229  0.4739 -0.8102  1.8752
 1165SOL     OW14953   0.505   1.246  12.131  0.7717  0.0404  0.2765
 1165SOL    HW114954   0.508   1.271  12.039 -0.1088  1.0149  0.5086
 1165SOL    HW214955   0.420   1.281  12.159  0.6969 -0.8750  1.1701
 1166SOL     OW14956   4.113   3.584   8.117 -0.0299  0.2948  0.5845
 1166SOL    HW114957   4.148   3.637   8.046 -2.2585  1.8009  0.5901
 1166SOL    HW214958   4.019   3.603   8.119 -0.5842 -2.3836  0.2676
 1167SOL     OW14959   4.267   1.849   7.063 -0.0754 -0.6189  0.2074
 1167SOL    HW114960   4.300   1.784   7.001  0.3785 -0.8828  0.7304
 1167SOL    HW214961   4.297   1.802   7.141 -0.9455  1.3250  1.7051
 1168SOL     OW14962   3.444   3.963   6.271 -0.5908 -0.4142 -0.4840
 1168SOL    HW114963   3.478   3.976   6.359 -0.1670 -1.3694 -0.5073
 1168SOL    HW214964   3.369   3.906   6.282 -1.3038  0.6327  0.0919
 1169SOL     OW14965   3.951   0.022  16.384  0.0914  0.6114 -0.0236
 1169SOL    HW114966   3.891   0.092  16.356 -1.5683 -0.6596  0.3046
 1169SOL    HW214967   3.937   4.691  16.307  0.1176  0.6842 -0.0807
 1170SOL     OW14968   1.809   0.393  10.536  0.3352 -0.1456  0.0083
 1170SOL    HW114969   1.731   0.432  10.574 -0.1568 -0.4076 -0.7322
 1170SOL    HW214970   1.781   0.302  10.548 -3.9443  1.0562 -1.1205
 1171SOL     OW14971   1.059   1.433   6.440  0.1838 -0.2483 -0.8211
 1171SOL    HW114972   1.076   1.483   6.520 -0.1641  1.6969 -1.9457
 1171SOL    HW214973   1.135   1.375   6.441 -0.1958 -0.7800 -2.4607
 1172SOL     OW14974   2.693   2.822   4.815 -0.2967  0.2142  0.0340
 1172SOL    HW114975   2.674   2.841   4.907 -0.0637 -1.6961  0.4801
 1172SOL    HW214976   2.674   2.728   4.815 -4.6430  1.0998  2.2637
 1173SOL     OW14977   4.663   2.421   2.719 -0.3017  0.1928 -0.6958
 1173SOL    HW114978   4.586   2.469   2.751 -0.8169 -0.4152 -1.0255
 1173SOL    HW214979   0.002   2.492   2.715 -1.3127  1.0613 -1.4168
 1174SOL     OW14980   3.387   2.798   7.867 -0.1360 -0.7716 -0.6235
 1174SOL    HW114981   3.480   2.819   7.858  0.1793 -1.5689  0.7139
 1174SOL    HW214982   3.384   2.714   7.822  1.8432 -0.5244 -1.1818
 1175SOL     OW14983   0.251   3.750   5.742  0.0333 -0.0739  0.0829
 1175SOL    HW114984   0.186   3.810   5.705 -0.0031 -0.9176 -1.2099
 1175SOL    HW214985   0.199   3.671   5.725  0.3311  0.1760 -2.0118
 1176SOL     OW14986   3.123   3.356   7.319 -0.3034 -0.2180 -0.2529
 1176SOL    HW114987   3.119   3.354   7.415  2.0728  0.8798 -0.1388
 1176SOL    HW214988   3.042   3.383   7.277 -0.5277 -0.5546 -0.0368
 1177SOL     OW14989   3.341   4.492   5.362 -0.0376 -0.0580  0.4629
 1177SOL    HW114990   3.349   4.485   5.267  0.6688  2.4345  0.3396
 1177SOL    HW214991   3.264   4.439   5.385 -1.1751  1.8728  1.1761
 1178SOL     OW14992   3.085   4.309  12.554  0.1681 -0.1439 -0.6241
 1178SOL    HW114993   3.004   4.337  12.511 -0.5289 -1.2225 -0.0428
 1178SOL    HW214994   3.068   4.214  12.558 -0.7286  0.0394  0.0818
 1179SOL     OW14995   2.093   0.666  12.739  0.3476 -0.4385  0.1013
 1179SOL    HW114996   2.119   0.665  12.647  0.2717  1.5973  0.0573
 1179SOL    HW214997   2.140   0.739  12.780  1.2177 -0.7605 -0.3339
 1180SOL     OW14998   2.992   3.419   0.024  0.2089 -0.1882 -0.0785
 1180SOL    HW114999   3.036   3.340  17.689 -1.4772 -2.1986  2.4160
 1180SOL    HW215000   3.023   3.428   0.115 -1.2278 -0.2031  0.4149
 1181SOL     OW15001   1.042   0.224   5.582  0.3250  0.4116  0.0640
 1181SOL    HW115002   1.053   0.256   5.493 -0.9678  1.6780  0.3651
 1181SOL    HW215003   1.132   0.191   5.591 -0.0801 -0.2441  1.8312
 1182SOL     OW15004   0.538   1.150   2.657 -0.1378  0.6929 -0.4450
 1182SOL    HW115005   0.484   1.152   2.578  0.8740 -2.2373 -1.1855
 1182SOL    HW215006   0.605   1.207   2.620  0.8722 -0.4277 -0.3226
 1183SOL     OW15007   4.591   3.097   7.949 -0.3853  0.0635 -0.0982
 1183SOL    HW115008   4.501   3.067   7.966 -0.8771  2.0660  0.7371
 1183SOL    HW215009   4.612   3.131   8.035  2.3112 -3.1309  0.5002
 1184SOL     OW15010   0.408   2.236   6.610  0.8675  0.0369 -0.1474
 1184SOL    HW115011   0.413   2.294   6.533  2.4999  0.9445  0.6385
 1184SOL    HW215012   0.315   2.214   6.608  1.2660 -1.6182  0.0096
 1185SOL     OW15013   2.298   0.278   7.277  0.8167  0.1744  0.3002
 1185SOL    HW115014   2.389   0.283   7.246  0.8342  2.0629  0.6391
 1185SOL    HW215015   2.265   0.195   7.243 -0.4715 -0.4250  2.9942
 1186SOL     OW15016   4.055   0.805   6.906 -0.0596 -0.5178  0.2907
 1186SOL    HW115017   4.022   0.856   6.980  0.1729  1.9741 -1.3206
 1186SOL    HW215018   4.148   0.804   6.928  0.1451 -1.1190 -0.6153
 1187SOL     OW15019   4.703   2.068   8.997  0.5259 -0.0031  0.0882
 1187SOL    HW115020   4.686   2.145   9.050  4.6773  1.1634 -0.3108
 1187SOL    HW215021   0.045   2.099   8.935 -0.4920  2.9668  0.4919
 1188SOL     OW15022   1.320   0.674   8.650  0.4957 -0.1203  0.2942
 1188SOL    HW115023   1.295   0.720   8.730  0.1700  0.8801 -0.3852
 1188SOL    HW215024   1.230   0.666   8.616  0.2870  0.0146  0.8159
 1189SOL     OW15025   3.154   0.157   3.030 -0.7051 -0.5446 -0.8629
 1189SOL    HW115026   3.137   0.194   2.943 -1.8629  0.4928 -0.1924
 1189SOL    HW215027   3.107   0.209   3.095 -0.8083 -0.4165 -1.0413
 1190SOL     OW15028   1.286   0.105   8.716  0.2616 -0.1485  0.0428
 1190SOL    HW115029   1.234   0.157   8.655 -2.1574 -0.1855  2.0746
 1190SOL    HW215030   1.243   0.129   8.798  3.2048  0.3761  1.4256
 1191SOL     OW15031   2.255   0.173   1.869 -0.0116  0.2054 -0.2663
 1191SOL    HW115032   2.215   0.126   1.942 -0.2062  1.3243  0.3353
 1191SOL    HW215033   2.331   0.115   1.875 -1.7868 -1.8540  2.2255
 1192SOL     OW15034   0.552   0.779   3.869 -0.3601  0.0828 -0.1396
 1192SOL    HW115035   0.471   0.732   3.848 -1.5571  0.8178  2.7507
 1192SOL    HW215036   0.535   0.827   3.950 -0.8125 -0.2504 -0.0333
 1193SOL     OW15037   3.506   0.760   5.501 -0.1583  0.0017  0.0960
 1193SOL    HW115038   3.411   0.773   5.500 -0.0094  1.0679 -0.0912
 1193SOL    HW215039   3.523   0.816   5.577  0.7801  0.1172 -0.1927
 1194SOL     OW15040   2.393   1.750  14.611 -0.2715 -0.5344  0.0741
 1194SOL    HW115041   2.379   1.689  14.538  4.1141 -0.9257 -0.4350
 1194SOL    HW215042   2.488   1.763  14.616 -0.1806 -0.0060 -3.1631
 1195SOL     OW15043   4.452   1.726   5.525 -0.1552 -0.3749 -0.3785
 1195SOL    HW115044   4.494   1.724   5.439 -0.3365 -0.2630 -0.4679
 1195SOL    HW215045   4.524   1.684   5.572  0.3374 -0.2418 -1.0102
 1196SOL     OW15046   3.515   1.083  13.304 -0.1173 -0.1872  0.0032
 1196SOL    HW115047   3.434   1.058  13.258 -0.1203 -0.6039  0.2385
 1196SOL    HW215048   3.509   1.050  13.393 -1.9946  3.0007  1.0856
 1197SOL     OW15049   3.482   3.940   6.537  0.8213  0.0032 -0.3109
 1197SOL    HW115050   3.483   3.857   6.584  0.8973  0.2750  0.1700
 1197SOL    HW215051   3.494   3.997   6.613 -0.9359  0.5118 -0.4067
 1198SOL     OW15052   3.822   0.685   7.771 -0.4519  0.5780  0.7722
 1198SOL    HW115053   3.857   0.597   7.762  0.6082  0.9385  1.2964
 1198SOL    HW215054   3.797   0.703   7.861  0.6232 -0.1902  1.2308
 1199SOL     OW15055   0.523   4.062   5.765  0.1004  0.1890 -0.4928
 1199SOL    HW115056   0.454   4.056   5.699  0.4466  1.9406 -1.0233
 1199SOL    HW215057   0.583   4.099   5.700  2.0570 -1.1682  0.5252
 1200SOL     OW15058   4.119   4.197   8.712 -0.4474  0.2005 -0.4784
 1200SOL    HW115059   4.188   4.262   8.727  0.3373 -0.7146 -0.1125
 1200SOL    HW215060   4.150   4.118   8.756  0.0660 -0.6624 -2.4014
 1201SOL     OW15061   4.580   2.658  11.950 -0.2717 -0.2079  0.0209
 1201SOL    HW115062   4.657   2.660  11.892  0.3143 -2.1362  0.7531
 1201SOL    HW215063   4.533   2.590  11.902  1.7955 -2.8602  1.7429
 1202SOL     OW15064   2.704   2.670   4.092 -0.1238 -0.2324  0.3361
 1202SOL    HW115065   2.635   2.701   4.152 -1.7370 -2.8031 -0.1745
 1202SOL    HW215066   2.776   2.655   4.153  0.1731  0.5385  0.1632
 1203SOL     OW15067   1.992   3.851  13.325  0.5265 -0.0279 -0.1902
 1203SOL    HW115068   1.910   3.816  13.359  0.6637 -0.0443  0.1260
 1203SOL    HW215069   2.004   3.799  13.246  0.0546 -1.0995  0.4389
 1204SOL     OW15070   2.567   2.119   7.803 -0.1231 -0.6609  0.0461
 1204SOL    HW115071   2.507   2.052   7.836 -1.7954  0.6336 -0.3542
 1204SOL    HW215072   2.539   2.138   7.714  0.5980 -0.2696 -0.0957
 1205SOL     OW15073   0.958   1.204   6.666 -0.0850  0.1398 -0.2167
 1205SOL    HW115074   1.050   1.195   6.691 -0.7629  1.2937  2.6559
 1205SOL    HW215075   0.967   1.180   6.574  0.8949 -0.1500 -0.0493
 1206SOL     OW15076   1.034   2.013  11.415  0.0849 -0.2460 -0.2330
 1206SOL    HW115077   0.988   2.004  11.498  0.3699  0.0845 -0.0328
 1206SOL    HW215078   1.086   1.935  11.434  2.4427  1.0779 -1.2605
 1207SOL     OW15079   1.820   4.302   7.478  0.5445 -0.1280 -0.0082
 1207SOL    HW115080   1.729   4.321   7.500  0.8870 -0.4090  1.5948
 1207SOL    HW215081   1.837   4.219   7.524 -1.2647 -0.6013 -0.2043
 1208SOL     OW15082   2.989   2.705   2.726  0.1511 -0.5218  0.0716
 1208SOL    HW115083   3.055   2.721   2.659  0.3129 -0.5636  0.2205
 1208SOL    HW215084   2.986   2.787   2.775 -1.6471 -0.9259  0.6309
 1209SOL     OW15085   3.727   3.759   8.595 -0.1698  0.1705 -0.4039
 1209SOL    HW115086   3.664   3.759   8.667 -0.3491  2.2722 -0.5476
 1209SOL    HW215087   3.708   3.678   8.547 -1.2466  0.9050 -1.2189
 1210SOL     OW15088   1.163   3.193   0.476 -0.1438 -0.2927  0.6749
 1210SOL    HW115089   1.226   3.255   0.512  0.7844 -0.7425 -0.1976
 1210SOL    HW215090   1.157   3.217   0.384  0.5295  0.4261  0.8236
 1211SOL     OW15091   3.238   3.829  14.267  0.1553  0.2800  0.3742
 1211SOL    HW115092   3.250   3.859  14.177  0.1793 -0.3061  0.1808
 1211SOL    HW215093   3.308   3.764  14.262  0.9802  1.2947 -1.4802
 1212SOL     OW15094   1.290   3.650   1.819 -0.6423 -0.1437  0.0701
 1212SOL    HW115095   1.231   3.578   1.796 -1.7023  0.5376  0.6554
 1212SOL    HW215096   1.371   3.605   1.795 -1.5106 -1.0594 -1.1483
 1213SOL     OW15097   2.862   1.252   8.873 -0.0451 -0.0791  0.5582
 1213SOL    HW115098   2.924   1.214   8.935  0.7773  0.1688 -0.0922
 1213SOL    HW215099   2.881   1.345   8.885  1.1701  0.1549 -2.9630
 1214SOL     OW15100   4.374   4.146  16.892 -0.1964  0.2164 -0.4852
 1214SOL    HW115101   4.282   4.173  16.884 -0.5566  0.0540  3.1847
 1214SOL    HW215102   4.390   4.100  16.810  2.0179 -1.6921  1.0009
 1215SOL     OW15103   2.206   4.534   4.607 -0.0114  0.2355 -0.1471
 1215SOL    HW115104   2.299   4.549   4.593 -0.2068  0.2506 -1.3598
 1215SOL    HW215105   2.198   4.544   4.702  2.7497  2.0649 -0.1042
 1216SOL     OW15106   0.773   1.281   4.626  0.1187  0.0504 -0.4069
 1216SOL    HW115107   0.806   1.344   4.563  0.7838  1.5295  1.4269
 1216SOL    HW215108   0.778   1.205   4.568 -0.1898  0.2555 -0.6980
 1217SOL     OW15109   1.361   2.638   2.642  0.2141  0.1275  0.2447
 1217SOL    HW115110   1.338   2.630   2.549  0.5637 -0.6123  0.2243
 1217SOL    HW215111   1.338   2.731   2.651  1.5985  0.3702  1.2429
 1218SOL     OW15112   2.460   0.053  10.303 -0.1031 -0.0061 -0.4690
 1218SOL    HW115113   2.472   4.682  10.308  0.4915 -0.0900 -3.7756
 1218SOL    HW215114   2.450   0.070  10.397 -3.7630  1.3828 -1.0887
 1219SOL     OW15115   0.747   2.523   8.563 -0.1983 -0.4110  0.4626
 1219SOL    HW115116   0.722   2.503   8.653  1.1482 -0.1474  0.8880
 1219SOL    HW215117   0.842   2.533   8.561 -0.5352  2.7018  0.5900
 1220SOL     OW15118   4.179   2.391   8.363  0.2057  0.0824 -0.6914
 1220SOL    HW115119   4.134   2.319   8.407  0.4577  0.2867 -0.1083
 1220SOL    HW215120   4.237   2.430   8.429  1.7552 -0.4037 -1.7525
 1221SOL     OW15121   4.542   1.841   4.541  1.0112 -0.4673  0.2189
 1221SOL    HW115122   4.483   1.781   4.496 -0.5808  0.7249  0.6952
 1221SOL    HW215123   4.609   1.846   4.472  1.1388  1.3481  0.4581
 1222SOL     OW15124   2.635   3.743  10.251  0.0901  0.2655  0.3768
 1222SOL    HW115125   2.579   3.781  10.182  1.6718  0.7586 -0.6288
 1222SOL    HW215126   2.631   3.648  10.237 -2.0504  0.3171  0.5321
 1223SOL     OW15127   0.493   2.552   8.319 -0.6125 -0.0872  0.4068
 1223SOL    HW115128   0.544   2.521   8.394 -0.1958  1.7207  0.8625
 1223SOL    HW215129   0.444   2.625   8.357 -0.5243  1.0650 -1.6995
 1224SOL     OW15130   0.023   2.749   5.395 -0.6839  0.1422  0.3229
 1224SOL    HW115131   0.002   2.731   5.303  0.6646  1.3178 -0.2216
 1224SOL    HW215132   4.723   2.842   5.396  0.1622  0.3630  0.3133
 1225SOL     OW15133   0.609   3.609   8.358  0.5195  0.1887 -0.0139
 1225SOL    HW115134   0.687   3.564   8.325  0.5499 -0.4045  0.8777
 1225SOL    HW215135   0.584   3.534   8.413  0.7095 -0.6805 -1.1063
 1226SOL     OW15136   2.044   2.533   9.998  0.0839  0.0847  0.0575
 1226SOL    HW115137   1.995   2.595  10.053 -2.6101 -3.8951  2.1292
 1226SOL    HW215138   2.026   2.454  10.049 -0.5761 -1.1361 -2.0962
 1227SOL     OW15139   3.530   1.038   7.627  0.1751  0.2773  0.9487
 1227SOL    HW115140   3.611   1.080   7.657  0.3497 -0.6569  1.7746
 1227SOL    HW215141   3.508   0.978   7.697 -0.1102  0.0474  0.6625
 1228SOL     OW15142   0.742   0.897   1.303  0.0036  0.0693 -0.1242
 1228SOL    HW115143   0.689   0.967   1.266 -0.7154  0.1857  1.1414
 1228SOL    HW215144   0.818   0.892   1.246  0.3874  0.0500  0.3871
 1229SOL     OW15145   0.410   2.354   8.587 -0.4803  0.4799  0.0692
 1229SOL    HW115146   0.344   2.299   8.544 -0.3287  1.2280 -1.0987
 1229SOL    HW215147   0.493   2.339   8.543 -1.2823  1.5097 -1.7800
 1230SOL     OW15148   0.796   3.208   8.878  0.5259 -0.1994  0.1621
 1230SOL    HW115149   0.733   3.160   8.931 -0.5924  0.3598 -0.6670
 1230SOL    HW215150   0.869   3.146   8.873  0.8378  0.4572 -3.1424
 1231SOL     OW15151   2.716   0.101   8.936 -0.0865 -0.5673  0.3213
 1231SOL    HW115152   2.786   0.152   8.977  0.3426  1.0364 -2.3943
 1231SOL    HW215153   2.639   0.132   8.983 -0.6644  0.0282 -1.0075
 1232SOL     OW15154   1.244   0.327   1.959  0.2434 -0.0031  0.1874
 1232SOL    HW115155   1.209   0.315   2.047 -0.5454 -2.0212 -0.4204
 1232SOL    HW215156   1.327   0.279   1.962  2.1940  3.2770 -0.7023
 1233SOL     OW15157   3.010   0.605  13.498  0.1638  0.3087 -0.0467
 1233SOL    HW115158   2.967   0.529  13.459  0.8853 -0.8267  1.3353
 1233SOL    HW215159   3.020   0.575  13.589 -1.4516 -2.0662 -0.6464
 1234SOL     OW15160   4.042   3.239  10.837 -0.4732  0.2238 -0.7621
 1234SOL    HW115161   4.120   3.294  10.830  1.0147 -1.6502  1.0083
 1234SOL    HW215162   4.073   3.186  10.911 -1.2892 -0.0084 -0.5908
 1235SOL     OW15163   0.104   4.191   6.766 -0.1771 -0.0987 -0.0683
 1235SOL    HW115164   0.021   4.235   6.784 -0.4145 -0.1074 -1.1173
 1235SOL    HW215165   0.084   4.170   6.674  0.3843 -2.1229  0.2686
 1236SOL     OW15166   1.465   0.299  10.928 -0.0491 -0.4278 -0.0855
 1236SOL    HW115167   1.384   0.327  10.884 -0.1690  1.3953  1.2995
 1236SOL    HW215168   1.507   0.275  10.846 -0.7221 -0.8167 -0.3204
 1237SOL     OW15169   0.968   1.640   7.287  0.3300 -0.5043  0.8427
 1237SOL    HW115170   0.960   1.593   7.370  3.0714  0.0686  1.4327
 1237SOL    HW215171   0.893   1.700   7.295  0.6773  0.1740 -1.0140
 1238SOL     OW15172   4.502   4.257   3.332  0.1606  0.9404  0.1364
 1238SOL    HW115173   4.469   4.226   3.417  0.9769 -1.8776 -0.5920
 1238SOL    HW215174   4.580   4.295   3.373  1.1585  0.4858 -1.3619
 1239SOL     OW15175   2.077   2.393   8.734 -0.1099 -0.1189 -0.2671
 1239SOL    HW115176   2.043   2.321   8.681  0.5404  0.6865 -1.7819
 1239SOL    HW215177   2.059   2.463   8.671 -1.6871 -0.1693  0.1412
 1240SOL     OW15178   2.714   2.476  14.783 -0.2622 -0.5721 -0.0740
 1240SOL    HW115179   2.745   2.531  14.711 -2.1280  0.6724  0.0888
 1240SOL    HW215180   2.627   2.509  14.802  0.4364  2.1604 -1.6231
 1241SOL     OW15181   0.924   3.589  16.145  0.4423  0.0462 -0.3530
 1241SOL    HW115182   0.831   3.612  16.148  0.7641  1.2402  0.3850
 1241SOL    HW215183   0.916   3.530  16.070  0.3319 -2.0914  1.3298
 1242SOL     OW15184   3.890   3.241   8.027  0.1719 -0.0485  0.1015
 1242SOL    HW115185   3.834   3.302   8.075  1.0580  0.9683 -0.1651
 1242SOL    HW215186   3.858   3.236   7.937 -0.2301 -1.2408  0.3110
 1243SOL     OW15187   0.585   3.014  10.508  0.0245 -0.0114  0.1881
 1243SOL    HW115188   0.557   2.934  10.553 -0.4977  0.3513  0.5088
 1243SOL    HW215189   0.504   3.061  10.526  0.2857  0.6560 -0.4033
 1244SOL     OW15190   4.668   0.160   8.024 -0.7549  0.2086 -0.0736
 1244SOL    HW115191   4.683   0.071   8.054  0.2637  0.1689 -0.7187
 1244SOL    HW215192   4.573   0.158   8.036 -0.6369  0.3348  0.9008
 1245SOL     OW15193   3.767   2.538  15.477  0.0574  0.3234 -0.2635
 1245SOL    HW115194   3.713   2.544  15.398 -0.1569  0.4292 -0.1092
 1245SOL    HW215195   3.795   2.449  15.458 -0.9824 -0.3488  1.3817
 1246SOL     OW15196   3.014   1.028   7.072  0.1399  0.2430 -0.1316
 1246SOL    HW115197   3.049   0.948   7.033 -0.3917 -0.3395  0.5895
 1246SOL    HW215198   3.046   1.099   7.015 -1.0066  1.2003  0.4075
 1247SOL     OW15199   1.631   1.671   7.379 -0.2309 -0.1520  0.2334
 1247SOL    HW115200   1.556   1.613   7.379  1.1138 -1.9058  0.8295
 1247SOL    HW215201   1.661   1.673   7.288  0.1115 -2.8490  0.2956
 1248SOL     OW15202   2.716   1.622   5.410  0.9618  0.5098 -0.1040
 1248SOL    HW115203   2.799   1.620   5.363  0.5836 -2.6678 -0.6977
 1248SOL    HW215204   2.725   1.578   5.494  1.7666 -0.0869 -0.5058
 1249SOL     OW15205   0.044   2.849  13.056 -0.3308 -0.2770 -0.5484
 1249SOL    HW115206   0.132   2.869  13.024 -0.1344  0.3054  0.3683
 1249SOL    HW215207   0.054   2.755  13.072  2.3078  0.6807  3.4751
 1250SOL     OW15208   1.807   0.475  12.455  0.3800 -0.1085 -0.0091
 1250SOL    HW115209   1.870   0.546  12.455  0.3897 -0.1178  0.1064
 1250SOL    HW215210   1.724   0.523  12.454  0.1245 -0.5608 -0.9922
 1251SOL     OW15211   3.497   3.529   7.058  0.1017  0.5300  0.1203
 1251SOL    HW115212   3.488   3.614   7.100 -1.5451 -0.0573  0.9524
 1251SOL    HW215213   3.413   3.516   7.013  1.3537  1.4698 -2.4774
 1252SOL     OW15214   1.774   2.465  15.238 -0.0114 -0.6124 -0.5585
 1252SOL    HW115215   1.715   2.397  15.207  0.8599 -2.4695  1.8252
 1252SOL    HW215216   1.830   2.485  15.163  1.4577 -1.6196  0.2573
 1253SOL     OW15217   4.649   3.691   1.613 -0.1800  0.2516  0.0860
 1253SOL    HW115218   4.574   3.657   1.563 -0.6751  1.3113  0.1260
 1253SOL    HW215219   4.614   3.686   1.702  0.9627  0.5668  0.5584
 1254SOL     OW15220   3.402   1.403   6.089 -0.2686 -0.3576  0.4773
 1254SOL    HW115221   3.414   1.333   6.154 -0.1880  0.8858  1.7934
 1254SOL    HW215222   3.379   1.475   6.147 -1.3965  0.2707 -0.7477
 1255SOL     OW15223   1.616   4.103   3.899  0.3020  0.3760  0.4079
 1255SOL    HW115224   1.538   4.064   3.939  0.8790 -0.1678  1.0142
 1255SOL    HW215225   1.579   4.169   3.841 -2.4205 -1.1501  0.3995
 1256SOL     OW15226   0.586   0.448   6.424 -0.2391 -0.5939 -0.1426
 1256SOL    HW115227   0.662   0.423   6.372  0.1241 -0.3291  0.2606
 1256SOL    HW215228   0.532   0.369   6.415 -1.5463  0.4444 -1.4172
 1257SOL     OW15229   3.804   1.568   7.559  0.0205 -0.0702 -0.3225
 1257SOL    HW115230   3.837   1.657   7.545  2.8764 -0.6025  2.8087
 1257SOL    HW215231   3.890   1.526   7.559  0.9463  1.8112  1.8358
 1258SOL     OW15232   2.030   0.663   3.644  0.3858  0.5710 -0.1169
 1258SOL    HW115233   2.122   0.651   3.621  0.0204 -0.4004 -1.0783
 1258SOL    HW215234   2.000   0.725   3.578 -1.3940  0.6621  0.7690
 1259SOL     OW15235   3.267   1.008  15.364  0.0977  0.3648  0.7146
 1259SOL    HW115236   3.340   1.069  15.352 -1.3712  2.1184  0.7643
 1259SOL    HW215237   3.297   0.965  15.444 -0.1658 -2.3018 -0.6218
 1260SOL     OW15238   4.419   2.561  12.629  0.3436 -0.0457 -0.7810
 1260SOL    HW115239   4.500   2.574  12.579 -0.2786 -0.0298 -1.7922
 1260SOL    HW215240   4.356   2.592  12.564  0.2069  1.5384  0.1138
 1261SOL     OW15241   3.032   1.893   6.818 -0.5702  0.4571  0.2759
 1261SOL    HW115242   3.073   1.881   6.903  0.9059 -1.4636 -0.7015
 1261SOL    HW215243   2.977   1.814   6.820 -0.2853  0.2766  1.1241
 1262SOL     OW15244   4.063   2.502  14.112  0.6524 -0.9016 -0.2822
 1262SOL    HW115245   4.121   2.468  14.045  0.6511 -0.2915 -0.5936
 1262SOL    HW215246   4.103   2.587  14.132 -1.6544  0.1113  0.1088
 1263SOL     OW15247   4.177   3.538   7.761 -0.0315  0.0951  0.0414
 1263SOL    HW115248   4.121   3.605   7.801  0.6065 -0.9356  2.7007
 1263SOL    HW215249   4.262   3.581   7.773  0.1066  0.1013 -0.9681
 1264SOL     OW15250   3.007   3.273   4.215  0.1920 -0.1611  1.1725
 1264SOL    HW115251   2.934   3.217   4.240 -1.4278  0.8750 -1.2412
 1264SOL    HW215252   2.965   3.359   4.210  2.9815  1.3123  3.0070
 1265SOL     OW15253   0.344   1.575   8.221 -0.0561 -0.2233 -0.0420
 1265SOL    HW115254   0.303   1.620   8.295  0.8783  0.3759  0.1155
 1265SOL    HW215255   0.437   1.567   8.243 -0.3182 -0.2319  1.0731
 1266SOL     OW15256   0.690   1.030   1.808 -0.5254  0.3483 -0.3147
 1266SOL    HW115257   0.626   1.100   1.815 -1.3891 -0.5147  0.3123
 1266SOL    HW215258   0.737   1.070   1.735  1.6062 -1.1683  0.2148
 1267SOL     OW15259   3.519   4.202   8.694  0.0448 -0.3113  0.0745
 1267SOL    HW115260   3.465   4.263   8.645 -0.8064 -0.4455  0.8491
 1267SOL    HW215261   3.455   4.175   8.760  0.0220 -0.3461  0.0380
 1268SOL     OW15262   0.163   2.073   1.770 -0.1027 -0.3118 -0.1841
 1268SOL    HW115263   0.159   2.001   1.707 -0.4026 -0.9987  0.6305
 1268SOL    HW215264   0.240   2.123   1.742 -1.3128  2.1794  0.9983
 1269SOL     OW15265   1.662   0.423   4.545  0.2550  0.5844 -0.7876
 1269SOL    HW115266   1.659   0.445   4.638  2.2531  0.9039 -0.7878
 1269SOL    HW215267   1.598   0.483   4.508  0.2806  0.9363 -0.2614
 1270SOL     OW15268   4.234   0.525   6.772 -0.2759 -0.0271  0.1601
 1270SOL    HW115269   4.211   0.606   6.727  0.3094  0.9280  1.6027
 1270SOL    HW215270   4.306   0.495   6.716 -0.9742 -0.1877 -0.6467
 1271SOL     OW15271   2.047   3.989   6.368  0.2374  0.0617 -0.5946
 1271SOL    HW115272   1.967   3.950   6.332 -2.1762  1.7319  2.9466
 1271SOL    HW215273   2.112   3.944   6.314 -2.6103 -1.3740 -2.8121
 1272SOL     OW15274   3.149   0.039   3.864  0.3455  0.4504  0.9089
 1272SOL    HW115275   3.115   0.113   3.813  0.7216  0.8063  1.1740
 1272SOL    HW215276   3.244   0.045   3.859  0.3734  0.9352  1.9669
 1273SOL     OW15277   2.937   4.573   5.953  0.4130  0.3022  0.1673
 1273SOL    HW115278   2.921   4.532   6.039  1.9256  2.6714  1.5851
 1273SOL    HW215279   3.021   4.531   5.935  0.4705  1.9337 -3.1651
 1274SOL     OW15280   4.410   2.185   3.522 -0.1837 -0.0566  0.7545
 1274SOL    HW115281   4.332   2.186   3.467 -0.2855 -1.5134  0.8760
 1274SOL    HW215282   4.479   2.179   3.456 -1.2717 -3.0867 -0.1013
 1275SOL     OW15283   0.110   3.123   7.645  0.5658 -0.1205  0.1066
 1275SOL    HW115284   0.034   3.181   7.638  1.6673  1.0780 -2.1037
 1275SOL    HW215285   0.118   3.082   7.559 -0.8463 -0.0960 -0.0285
 1276SOL     OW15286   3.521   4.681   6.805 -0.0368  0.2451 -0.4038
 1276SOL    HW115287   3.611   4.652   6.791 -0.5672 -1.0011 -1.1875
 1276SOL    HW215288   3.499   4.648   6.892  0.5121 -0.6608 -0.6148
 1277SOL     OW15289   1.648   0.276   4.129 -0.0844 -0.2013 -0.4268
 1277SOL    HW115290   1.682   0.199   4.085 -0.6532 -2.0541  2.3787
 1277SOL    HW215291   1.729   0.328   4.134 -0.5917  0.2130  3.3126
 1278SOL     OW15292   4.580   3.746   7.599 -0.0915 -0.2580  0.3368
 1278SOL    HW115293   4.542   3.706   7.677  1.9453 -0.7985  1.0620
 1278SOL    HW215294   4.597   3.670   7.544 -1.3033  0.0786 -0.5115
 1279SOL     OW15295   3.075   3.283   6.362 -0.0221  0.1027 -0.1070
 1279SOL    HW115296   3.155   3.325   6.393  1.1131 -1.4765 -0.8728
 1279SOL    HW215297   3.041   3.225   6.431 -1.3145  1.3896  0.3262
 1280SOL     OW15298   0.483   4.145  17.620 -0.2069  0.1756  0.2959
 1280SOL    HW115299   0.549   4.158  17.688 -1.8637 -1.8631  2.2592
 1280SOL    HW215300   0.494   4.056  17.589  1.8226  0.1875  0.9992
 1281SOL     OW15301   1.423   3.227   3.106  0.1227 -0.1810  0.3761
 1281SOL    HW115302   1.355   3.257   3.166  0.8996 -0.0305  1.1795
 1281SOL    HW215303   1.496   3.256   3.161  0.3428  0.8278 -0.4645
 1282SOL     OW15304   4.283   1.422   4.154 -0.4442  0.5948  0.7036
 1282SOL    HW115305   4.216   1.437   4.222 -0.3582 -2.4028  1.4304
 1282SOL    HW215306   4.250   1.468   4.077 -2.0813 -0.6917  0.6168
 1283SOL     OW15307   1.297   0.120   5.604 -0.3599  0.5714  0.1734
 1283SOL    HW115308   1.327   0.077   5.684  0.6452  2.4139  0.7963
 1283SOL    HW215309   1.375   0.131   5.550 -1.0775  1.1461 -0.7429
 1284SOL     OW15310   1.443   0.633  14.731 -0.5714 -0.1362 -0.5016
 1284SOL    HW115311   1.521   0.611  14.681 -2.5212 -0.0070 -3.6465
 1284SOL    HW215312   1.474   0.635  14.821  0.5221  3.2810 -0.9751
 1285SOL     OW15313   1.705   4.522  17.388 -0.1190 -0.1109  0.5244
 1285SOL    HW115314   1.682   4.537  17.480  1.8758  1.5648  0.7325
 1285SOL    HW215315   1.755   4.599  17.360 -2.2131  0.0528 -2.6954
 1286SOL     OW15316   1.792   3.362   0.127 -0.2586 -0.4698  0.2260
 1286SOL    HW115317   1.762   3.436   0.074 -0.5873  1.2212  2.7286
 1286SOL    HW215318   1.879   3.346   0.089 -0.2572  1.4440 -0.5931
 1287SOL     OW15319   2.386   1.569   3.569 -0.1589  0.2316  0.0273
 1287SOL    HW115320   2.425   1.529   3.492 -1.5313  0.5724 -0.8283
 1287SOL    HW215321   2.344   1.487   3.596  0.4783  0.2574  1.1444
 1288SOL     OW15322   3.708   2.980   5.954 -0.2759 -0.0107  0.2997
 1288SOL    HW115323   3.756   2.959   5.873  2.5748 -2.1731  2.5337
 1288SOL    HW215324   3.774   3.024   6.008  0.4659 -0.1387 -0.4966
 1289SOL     OW15325   2.413   4.102   2.624 -0.1488  0.2645 -0.1140
 1289SOL    HW115326   2.367   4.185   2.616 -0.8577 -0.2545 -1.4592
 1289SOL    HW215327   2.387   4.089   2.715 -1.6902 -0.0948 -0.6126
 1290SOL     OW15328   4.416   1.398   7.239 -0.1201  0.0536 -0.7465
 1290SOL    HW115329   4.359   1.347   7.181  0.2151  0.4824 -1.4525
 1290SOL    HW215330   4.392   1.362   7.325 -0.8960  0.9931 -0.5701
 1291SOL     OW15331   1.081   3.133   9.440 -0.2488  0.8482  0.1153
 1291SOL    HW115332   1.156   3.120   9.498 -0.8207  2.1024  1.1371
 1291SOL    HW215333   1.052   3.042   9.433  1.2346  0.4628 -1.0093
 1292SOL     OW15334   4.346   0.737   6.974 -0.1117 -0.4194 -0.3349
 1292SOL    HW115335   4.353   0.653   6.929  2.2376  0.6364 -1.9249
 1292SOL    HW215336   4.412   0.728   7.043 -0.5147 -2.0395 -0.1662
 1293SOL     OW15337   3.980   3.273  10.051 -0.1983 -0.0888 -0.1434
 1293SOL    HW115338   4.022   3.355  10.023 -1.6122  0.5045 -0.5329
 1293SOL    HW215339   3.899   3.309  10.087  0.3770  0.9307  0.1551
 1294SOL     OW15340   1.536   0.463   6.159  0.4776  0.2719  0.2527
 1294SOL    HW115341   1.524   0.392   6.223 -0.8802 -0.2472 -0.5604
 1294SOL    HW215342   1.592   0.519   6.212 -0.5010  1.4156  0.0733
 1295SOL     OW15343   3.753   3.594   7.774  0.6426  0.1708 -0.3762
 1295SOL    HW115344   3.809   3.528   7.733 -1.0721 -0.5941 -1.5004
 1295SOL    HW215345   3.668   3.548   7.776 -0.2178  1.7336 -1.5226
 1296SOL     OW15346   2.573   0.432   6.613  0.3658 -0.1596 -0.0478
 1296SOL    HW115347   2.489   0.468   6.643 -0.2162 -0.5402 -1.2083
 1296SOL    HW215348   2.626   0.488   6.668  3.4267 -0.6245 -2.5363
 1297SOL     OW15349   2.629   3.086  10.084 -0.5338  0.2692 -0.0298
 1297SOL    HW115350   2.617   3.174  10.120  1.1524  0.1718  0.7771
 1297SOL    HW215351   2.543   3.082  10.041  0.3769  1.2288 -1.9140
 1298SOL     OW15352   0.419   3.449   6.180 -0.0428 -1.0460 -0.1615
 1298SOL    HW115353   0.469   3.482   6.254 -0.7158 -2.4046  0.9019
 1298SOL    HW215354   0.362   3.525   6.171 -1.4491 -1.9848  0.7922
 1299SOL     OW15355   1.588   2.710   2.806 -0.5709 -0.4145  0.0957
 1299SOL    HW115356   1.638   2.628   2.801  0.9386  0.3272  3.0378
 1299SOL    HW215357   1.576   2.723   2.712  0.1100 -1.0955 -0.0925
 1300SOL     OW15358   2.714   0.451   3.997 -0.1482 -0.3338  0.1367
 1300SOL    HW115359   2.764   0.532   3.985  1.9608 -1.4883  1.3144
 1300SOL    HW215360   2.623   0.478   4.013  0.5163  0.8013  1.9720
 1301SOL     OW15361   0.379   0.277   6.966 -0.4922 -0.5568 -0.4318
 1301SOL    HW115362   0.437   0.241   7.033 -0.9713 -1.9638 -0.7888
 1301SOL    HW215363   0.341   0.196   6.933 -2.1244 -0.7955  2.0165
 1302SOL     OW15364   1.561   0.539  11.540  0.2636 -0.5496  0.0375
 1302SOL    HW115365   1.541   0.457  11.585  1.0295 -1.0302 -0.4790
 1302SOL    HW215366   1.537   0.597  11.612  0.2822 -1.6918  0.9610
 1303SOL     OW15367   0.566   2.647   6.274 -0.1376 -0.1422  0.1368
 1303SOL    HW115368   0.571   2.742   6.287 -0.2208 -0.1907  0.5443
 1303SOL    HW215369   0.659   2.624   6.272 -0.2433 -0.7809  2.0707
 1304SOL     OW15370   3.877   4.574   1.438 -0.3514  0.1776 -0.6334
 1304SOL    HW115371   3.859   4.488   1.400  0.6293 -0.8344  1.2350
 1304SOL    HW215372   3.905   4.612   1.354 -0.3535  1.1830 -0.1829
 1305SOL     OW15373   2.143   2.371   3.721  0.2533  0.2709  0.3196
 1305SOL    HW115374   2.200   2.306   3.681  0.6147  0.3760  0.6660
 1305SOL    HW215375   2.063   2.320   3.735  0.3033 -0.0981 -0.8077
 1306SOL     OW15376   4.422   0.169   1.122 -0.6346 -0.4040  0.2795
 1306SOL    HW115377   4.443   0.170   1.215 -0.7618 -0.4359  0.3081
 1306SOL    HW215378   4.340   0.218   1.118 -1.3844 -1.8633 -2.4415
 1307SOL     OW15379   2.006   0.226  17.693  0.6050 -0.0044  0.0850
 1307SOL    HW115380   2.036   0.251   0.083  0.4918 -0.9891  0.4020
 1307SOL    HW215381   2.012   0.301  17.634  1.1759 -1.7382 -2.0749
 1308SOL     OW15382   0.683   3.787  15.818 -0.0546  0.3971  0.3473
 1308SOL    HW115383   0.703   3.798  15.725 -1.3525  2.5674  0.3327
 1308SOL    HW215384   0.727   3.705  15.841 -1.7440 -0.6272 -0.1048
 1309SOL     OW15385   4.551   1.258   6.446 -0.0686 -0.0978  0.7515
 1309SOL    HW115386   4.587   1.213   6.370 -2.1502  1.5183 -1.1926
 1309SOL    HW215387   4.629   1.251   6.501  0.7094  2.5679 -0.0013
 1310SOL     OW15388   4.113   4.418  13.380  0.7196  0.0110  0.1174
 1310SOL    HW115389   4.071   4.353  13.325  0.8281  2.2454 -2.6261
 1310SOL    HW215390   4.065   4.415  13.463 -1.7117  0.7508 -1.2725
 1311SOL     OW15391   0.075   0.507   4.992  0.1719  0.8552  0.2820
 1311SOL    HW115392   0.033   0.571   4.935  0.1991  1.2706  0.7290
 1311SOL    HW215393   0.094   0.421   4.955  1.3760  1.4354 -0.4435
 1312SOL     OW15394   0.014   1.761   2.180 -0.0278  0.0935  0.2206
 1312SOL    HW115395   4.675   1.748   2.250 -1.5733 -1.1436 -1.4097
 1312SOL    HW215396   4.684   1.714   2.117  0.1627 -2.1709  1.7752
 1313SOL     OW15397   1.917   3.597   2.712 -0.0602  0.2122 -0.3869
 1313SOL    HW115398   1.937   3.504   2.705 -1.8339 -0.1994 -0.1888
 1313SOL    HW215399   1.843   3.583   2.772 -0.5496  1.5539 -0.6707
 1314SOL     OW15400   0.274   1.521  15.064  0.4707  0.6486  0.3296
 1314SOL    HW115401   0.250   1.455  15.129  1.2916  0.4990  0.4931
 1314SOL    HW215402   0.190   1.553  15.032  0.2823 -0.9740 -0.8335
 1315SOL     OW15403   0.697   4.235  10.826  0.5120 -0.3217  0.3955
 1315SOL    HW115404   0.736   4.240  10.913  2.6697  2.6013 -0.7269
 1315SOL    HW215405   0.683   4.141  10.813  0.5049 -0.0970 -1.1714
 1316SOL     OW15406   2.702   1.533   2.389 -0.3912 -0.1925  0.0797
 1316SOL    HW115407   2.759   1.609   2.399 -0.2191 -0.2568 -0.4206
 1316SOL    HW215408   2.756   1.476   2.444  1.3038 -0.0349 -1.4095
 1317SOL     OW15409   2.372   3.952   5.132  0.0782  0.1900 -0.2932
 1317SOL    HW115410   2.371   3.933   5.226 -0.6527  0.8674 -0.1606
 1317SOL    HW215411   2.300   3.894   5.107  1.6301 -1.1605 -1.5913
 1318SOL     OW15412   1.838   0.781   3.443 -0.5375 -0.0874  0.1153
 1318SOL    HW115413   1.804   0.792   3.354 -0.7095 -1.5757  0.0036
 1318SOL    HW215414   1.849   0.871   3.473  0.6006 -0.1882  0.0018
 1319SOL     OW15415   3.825   0.431   8.175  0.5903  0.3112  0.1813
 1319SOL    HW115416   3.828   0.370   8.249  2.9781  1.5981  1.1367
 1319SOL    HW215417   3.767   0.378   8.120  3.4587 -2.0459 -0.5643
 1320SOL     OW15418   3.723   4.453   5.764  0.5828  0.1398 -0.0160
 1320SOL    HW115419   3.750   4.438   5.854 -0.9193 -1.0304  0.2384
 1320SOL    HW215420   3.680   4.539   5.758  1.0504  0.2278 -2.0675
 1321SOL     OW15421   1.278   4.234   3.873  0.1791  0.2908 -0.0634
 1321SOL    HW115422   1.285   4.236   3.778 -2.3587  0.6184 -0.2468
 1321SOL    HW215423   1.188   4.265   3.879 -0.0854 -1.0614  2.6143
 1322SOL     OW15424   1.876   2.032   7.752  0.1145  0.1031  0.3233
 1322SOL    HW115425   1.856   2.115   7.795 -0.5434  0.4440 -0.6513
 1322SOL    HW215426   1.939   1.992   7.812 -1.3879 -0.8388  1.2616
 1323SOL     OW15427   3.426   1.164   2.356 -0.0508 -0.2900  0.9157
 1323SOL    HW115428   3.346   1.118   2.330 -0.4029  1.8469 -1.8072
 1323SOL    HW215429   3.480   1.086   2.348  0.8948  0.5303 -0.8045
 1324SOL     OW15430   2.824   2.261   8.921 -0.1353  0.1999  0.3676
 1324SOL    HW115431   2.805   2.295   9.008  2.6248 -2.4163  1.9594
 1324SOL    HW215432   2.757   2.306   8.869 -1.3306 -1.5600  0.4077
 1325SOL     OW15433   1.921   3.478   4.657 -0.5282 -0.0537  0.5560
 1325SOL    HW115434   1.870   3.397   4.651 -1.9487  1.0810 -2.5778
 1325SOL    HW215435   2.006   3.437   4.677  0.0075  1.1234  0.7258
 1326SOL     OW15436   2.955   3.726   2.674  0.2369 -0.4535  0.1183
 1326SOL    HW115437   2.922   3.643   2.639  0.6614 -0.0351 -1.2547
 1326SOL    HW215438   2.932   3.721   2.767  3.4971 -0.8092  0.8947
 1327SOL     OW15439   4.245   2.191   3.049  0.1482  0.1689 -0.0661
 1327SOL    HW115440   4.220   2.099   3.038  1.4728 -0.2464  0.3037
 1327SOL    HW215441   4.337   2.176   3.073 -0.0201 -0.2399  0.3127
 1328SOL     OW15442   3.399   0.873  15.610 -0.2246  0.3146 -0.2426
 1328SOL    HW115443   3.463   0.897  15.542  1.3289  0.3994  1.2574
 1328SOL    HW215444   3.410   0.778  15.618 -1.9040  0.0464 -1.0996
 1329SOL     OW15445   2.182   4.102   4.850 -0.0479  0.1132  0.1444
 1329SOL    HW115446   2.219   4.049   4.779  1.4427  1.6292 -0.2244
 1329SOL    HW215447   2.172   4.041   4.922 -1.7745 -0.2608 -0.4224
 1330SOL     OW15448   1.812   4.463   3.834 -0.0170 -0.0873 -0.0478
 1330SOL    HW115449   1.822   4.459   3.739 -0.2928  1.9128 -0.1503
 1330SOL    HW215450   1.739   4.402   3.848  0.4027 -0.8729 -1.2176
 1331SOL     OW15451   0.939   0.328   3.020 -0.5076 -0.0897  0.6549
 1331SOL    HW115452   0.973   0.364   2.938 -1.8352  0.3711  0.2969
 1331SOL    HW215453   1.015   0.333   3.077  0.0287 -0.4592 -0.0423
 1332SOL     OW15454   1.737   2.515   8.622 -0.0486 -0.5544  0.3175
 1332SOL    HW115455   1.747   2.582   8.690  0.5250 -2.1450  1.7870
 1332SOL    HW215456   1.819   2.531   8.574  0.6443  0.7396  1.9322
 1333SOL     OW15457   3.052   4.324   8.292  0.1808  0.0829  0.1751
 1333SOL    HW115458   3.139   4.301   8.326  0.9307  1.4987 -0.7708
 1333SOL    HW215459   2.999   4.297   8.367  1.4577  2.9651  2.1166
 1334SOL     OW15460   3.060   0.916   8.165  0.0364 -0.0043  0.5989
 1334SOL    HW115461   3.151   0.919   8.136  0.1306 -0.7089  0.8225
 1334SOL    HW215462   3.052   0.826   8.196 -2.6475 -0.4674 -1.4554
 1335SOL     OW15463   0.123   4.336   6.262  0.0203 -0.3013 -0.2795
 1335SOL    HW115464   0.113   4.293   6.177 -0.9674 -0.0329 -0.3030
 1335SOL    HW215465   0.132   4.426   6.231 -1.0647 -0.6136 -1.4957
 1336SOL     OW15466   2.752   0.283   5.549  0.3580  0.6509 -0.6214
 1336SOL    HW115467   2.840   0.275   5.513  0.6321 -0.3521  0.2765
 1336SOL    HW215468   2.744   0.378   5.560  1.6619  0.8688 -1.5013
 1337SOL     OW15469   1.973   3.850   1.460 -0.4289  0.0619  0.0600
 1337SOL    HW115470   2.067   3.851   1.441  0.0741 -3.4380  2.5078
 1337SOL    HW215471   1.957   3.758   1.478 -2.1233  0.6743  1.7128
 1338SOL     OW15472   2.097   2.381  16.207  0.7585 -0.0219 -0.4512
 1338SOL    HW115473   2.185   2.417  16.198  0.4299  0.3592 -2.1491
 1338SOL    HW215474   2.103   2.304  16.150  1.6210 -0.1730 -0.1574
 1339SOL     OW15475   3.776   0.236   8.351  0.0616  0.1566 -0.1295
 1339SOL    HW115476   3.716   0.296   8.395 -0.2880  1.4892 -2.4199
 1339SOL    HW215477   3.716   0.165   8.330 -2.2434  1.3548  2.3538
 1340SOL     OW15478   0.960   0.963   8.750 -0.2217 -0.4546  0.2688
 1340SOL    HW115479   1.021   0.889   8.750  2.1637  1.4960  0.8865
 1340SOL    HW215480   0.994   1.017   8.822 -1.1117  1.8992 -1.0785
 1341SOL     OW15481   0.083   2.264   4.021  0.2811 -0.1853 -0.2485
 1341SOL    HW115482   0.137   2.342   4.034  2.1291 -1.6038  0.5439
 1341SOL    HW215483   0.133   2.195   4.064  0.3191 -0.2482 -0.3957
 1342SOL     OW15484   4.024   1.887  15.769 -0.2960 -0.2080  0.0088
 1342SOL    HW115485   3.997   1.979  15.779  1.9385  0.1692  2.4353
 1342SOL    HW215486   4.116   1.908  15.756  0.3629 -2.4939  1.0026
 1343SOL     OW15487   1.763   4.543   6.290  0.1027 -0.1156  0.1919
 1343SOL    HW115488   1.779   4.541   6.196  0.3398  0.2769  0.2240
 1343SOL    HW215489   1.798   4.629   6.310  1.6399 -0.3575 -1.4363
 1344SOL     OW15490   1.962   1.426   7.602 -0.5683  0.2757 -0.3699
 1344SOL    HW115491   1.960   1.514   7.638 -2.2506  0.2768 -0.4517
 1344SOL    HW215492   1.974   1.448   7.509 -1.5817 -0.9102 -0.7861
 1345SOL     OW15493   4.302   4.442   7.893  0.6275 -0.3059  0.0606
 1345SOL    HW115494   4.386   4.487   7.901 -0.4980  1.6355  0.8617
 1345SOL    HW215495   4.245   4.496   7.948  0.0255  0.7375 -1.5898
 1346SOL     OW15496   4.286   3.160   5.624  0.2098  0.3914  0.6625
 1346SOL    HW115497   4.288   3.066   5.644 -2.8071  0.0457 -0.7544
 1346SOL    HW215498   4.209   3.166   5.569  1.8258 -0.4803 -1.6730
 1347SOL     OW15499   4.714   3.909  17.261 -0.2931 -0.0539  0.3429
 1347SOL    HW115500   0.015   3.969  17.191  0.8055 -1.3085 -0.3300
 1347SOL    HW215501   0.009   3.968  17.334 -0.2536 -3.1810  2.8890
 1348SOL     OW15502   1.208   4.608   1.010 -0.1895 -0.0770  0.3394
 1348SOL    HW115503   1.270   4.675   0.980 -1.0545  0.7268  0.3752
 1348SOL    HW215504   1.272   4.541   1.035 -0.0278  0.1482  0.5365
 1349SOL     OW15505   3.887   2.131  15.756  0.2620 -0.1361 -0.0942
 1349SOL    HW115506   3.802   2.113  15.796  0.2757 -0.3216 -0.1490
 1349SOL    HW215507   3.919   2.207  15.805  0.1202  0.9513 -1.6945
 1350SOL     OW15508   4.181   1.326   2.001 -0.2237  0.8660  0.0887
 1350SOL    HW115509   4.103   1.369   1.964  0.1514  0.8113 -0.7778
 1350SOL    HW215510   4.208   1.399   2.057 -1.4497  2.3635 -1.2337
 1351SOL     OW15511   2.554   3.704   8.479 -0.2188  1.3543 -0.5280
 1351SOL    HW115512   2.635   3.755   8.474  0.1364  0.8834  0.3313
 1351SOL    HW215513   2.508   3.742   8.405 -0.5056  0.8591 -0.6048
 1352SOL     OW15514   3.354   2.969   3.424  0.2859 -0.4613  0.1164
 1352SOL    HW115515   3.387   2.884   3.392  1.6866  0.1685 -0.1428
 1352SOL    HW215516   3.343   2.954   3.518  4.3039 -0.2819  0.6394
 1353SOL     OW15517   0.760   1.404   4.873  0.5197 -0.2238  0.3071
 1353SOL    HW115518   0.738   1.494   4.848 -0.6676 -0.4045  0.6759
 1353SOL    HW215519   0.759   1.369   4.784  1.4536  0.8333 -0.1201
 1354SOL     OW15520   1.476   1.522   1.473  0.0879  0.2599 -0.0018
 1354SOL    HW115521   1.537   1.595   1.482  1.1197 -0.4446 -1.2767
 1354SOL    HW215522   1.527   1.442   1.468  2.0772  1.4684  0.8933
 1355SOL     OW15523   1.965   3.721   7.899  0.0358 -0.0198 -0.8496
 1355SOL    HW115524   2.036   3.747   7.957 -1.3357 -0.2219  0.9082
 1355SOL    HW215525   1.918   3.671   7.967  0.9687 -0.0104 -0.2072
 1356SOL     OW15526   0.322   3.304  10.903 -0.4249 -0.3114  0.0902
 1356SOL    HW115527   0.284   3.388  10.877 -3.6353 -1.6030  0.6678
 1356SOL    HW215528   0.407   3.312  10.860  0.3825 -0.2685  1.6959
 1357SOL     OW15529   4.396   1.705   8.888 -0.0054 -0.1551 -0.0499
 1357SOL    HW115530   4.396   1.785   8.942 -1.7616 -0.0692 -0.1865
 1357SOL    HW215531   4.384   1.628   8.943 -2.2889 -1.2794 -2.1315
 1358SOL     OW15532   1.986   3.015   4.140  0.0017  0.4685 -0.3347
 1358SOL    HW115533   2.049   3.069   4.093  0.2056  0.5575  0.0355
 1358SOL    HW215534   1.978   2.952   4.068  2.5955 -1.4034  1.0121
 1359SOL     OW15535   1.013   4.610   4.893  0.1723 -0.3561  0.7095
 1359SOL    HW115536   1.102   4.645   4.886  0.0249 -0.2358 -0.6582
 1359SOL    HW215537   1.017   4.535   4.833 -1.7228  1.8979 -2.3009
 1360SOL     OW15538   3.036   2.163   3.504  0.1334  0.1737 -0.6878
 1360SOL    HW115539   2.970   2.232   3.500  1.5336  1.6087  1.1693
 1360SOL    HW215540   3.012   2.106   3.577  1.5117  0.5699  0.0569
 1361SOL     OW15541   3.085   2.845   3.645  0.1446 -0.6936  0.3486
 1361SOL    HW115542   3.138   2.776   3.604  1.2844 -0.6889  1.8106
 1361SOL    HW215543   3.150   2.900   3.689 -1.8803  0.3820  1.9614
 1362SOL     OW15544   2.715   2.748   8.701 -0.0021 -0.4514 -0.4401
 1362SOL    HW115545   2.665   2.753   8.619 -0.6542  0.8746  0.0419
 1362SOL    HW215546   2.656   2.777   8.770  0.6791 -0.4379  0.1391
 1363SOL     OW15547   1.565   0.571   1.843 -0.1846  0.3258  0.7646
 1363SOL    HW115548   1.633   0.599   1.905  0.1815 -1.1165  1.0182
 1363SOL    HW215549   1.588   0.621   1.765  1.0078  2.5626  2.5337
 1364SOL     OW15550   2.219   1.527   1.764 -0.4973 -0.5671  0.1541
 1364SOL    HW115551   2.300   1.476   1.759 -0.5671 -0.4842 -1.9207
 1364SOL    HW215552   2.161   1.487   1.699  0.1561  0.7885 -1.2703
 1365SOL     OW15553   1.792   4.563   4.865 -0.2148 -0.3767  0.4790
 1365SOL    HW115554   1.782   4.609   4.782  0.6713  1.4546  1.3926
 1365SOL    HW215555   1.782   4.471   4.838  0.1268  0.2767 -1.9049
 1366SOL     OW15556   0.399   1.156   7.571  0.2724 -0.2667  0.6302
 1366SOL    HW115557   0.428   1.232   7.622  0.8034 -0.6318  0.8722
 1366SOL    HW215558   0.419   1.189   7.483  0.5840  0.1970  0.8731
 1367SOL     OW15559   4.301   0.714  13.563 -0.1511 -0.4275  0.1741
 1367SOL    HW115560   4.316   0.808  13.555 -1.4234 -0.1213  1.4021
 1367SOL    HW215561   4.225   0.717  13.621  0.0694 -2.2696  0.5420
 1368SOL     OW15562   4.176   3.808  15.133 -0.0162  0.0803 -0.6719
 1368SOL    HW115563   4.136   3.839  15.052  0.6589  0.1687 -0.9721
 1368SOL    HW215564   4.223   3.729  15.105 -0.7865 -0.4068 -0.5835
 1369SOL     OW15565   1.066   0.440  10.780  0.0689 -0.1173  0.2919
 1369SOL    HW115566   1.150   0.406  10.750 -0.7162 -2.1638  0.4362
 1369SOL    HW215567   1.063   0.528  10.741 -2.0412 -0.7507 -0.9756
 1370SOL     OW15568   2.545   4.321  14.508 -0.2036 -0.0416  0.1866
 1370SOL    HW115569   2.611   4.287  14.569  2.1360 -0.9366 -2.8623
 1370SOL    HW215570   2.546   4.256  14.438 -1.7186 -0.3499  0.4408
 1371SOL     OW15571   0.985   4.446   1.063 -0.2010 -0.0993 -0.1867
 1371SOL    HW115572   0.969   4.431   0.970 -0.6005  0.7788 -0.2524
 1371SOL    HW215573   1.075   4.477   1.055 -0.6277  1.1037 -0.2953
 1372SOL     OW15574   0.448   3.131  15.316 -0.4478 -0.0435  0.3031
 1372SOL    HW115575   0.516   3.077  15.354  2.5809  1.9252 -2.3068
 1372SOL    HW215576   0.420   3.194  15.383  1.0732  0.1194  0.7762
 1373SOL     OW15577   2.813   3.050   5.114  0.0466  0.4849  0.1573
 1373SOL    HW115578   2.749   2.981   5.096  2.3653 -1.2831 -1.1596
 1373SOL    HW215579   2.886   3.010   5.068 -1.7241 -1.8300 -0.6386
 1374SOL     OW15580   2.291   4.036   9.008  0.4631  0.3452 -0.0672
 1374SOL    HW115581   2.278   4.127   8.980  3.5161  1.0439  0.7472
 1374SOL    HW215582   2.203   4.004   9.029  0.7897 -0.5548 -0.0522
 1375SOL     OW15583   0.762   3.486  17.294 -0.1972 -0.6512  0.0973
 1375SOL    HW115584   0.704   3.447  17.229  0.4067  0.1536 -0.9091
 1375SOL    HW215585   0.839   3.429  17.285  0.0899 -0.0679 -1.0955
 1376SOL     OW15586   3.907   0.657   6.562  0.2504  0.4464  0.4656
 1376SOL    HW115587   3.925   0.691   6.475  1.1195 -0.2490  0.3799
 1376SOL    HW215588   3.922   0.563   6.554  2.1614  0.8041 -0.0941
 1377SOL     OW15589   2.322   1.110   3.833 -0.1043  0.9685  0.4045
 1377SOL    HW115590   2.305   1.137   3.923  0.3451  2.9850 -0.1162
 1377SOL    HW215591   2.326   1.198   3.795 -0.3939  0.3975 -0.9298
 1378SOL     OW15592   2.215   1.929   6.843 -0.0107 -0.1865  0.5101
 1378SOL    HW115593   2.209   1.974   6.758  2.5221  1.9753  1.4659
 1378SOL    HW215594   2.233   2.004   6.900  1.9893  0.2802 -0.7474
 1379SOL     OW15595   0.493   3.314   3.679 -0.2186  0.1691 -0.7842
 1379SOL    HW115596   0.560   3.252   3.709 -0.0706 -0.1398 -1.7458
 1379SOL    HW215597   0.432   3.258   3.630  0.3981  1.3571 -2.9338
 1380SOL     OW15598   3.081   0.227  13.311 -0.2048  0.2610 -0.0817
 1380SOL    HW115599   3.141   0.191  13.376 -1.7331  1.3432  1.8955
 1380SOL    HW215600   2.999   0.196  13.350 -0.5524  0.3007 -0.7745
 1381SOL     OW15601   2.470   1.507   1.957 -0.3495  0.1390  0.0309
 1381SOL    HW115602   2.440   1.586   1.911  2.1454  1.1879  0.1576
 1381SOL    HW215603   2.429   1.511   2.044 -1.9077 -3.3437 -0.5537
 1382SOL     OW15604   0.661   1.263   5.974 -0.9813 -0.6279 -0.8053
 1382SOL    HW115605   0.752   1.251   6.001 -0.8806 -0.8771 -1.2531
 1382SOL    HW215606   0.637   1.318   6.048 -1.2007 -0.0726 -1.2885
 1383SOL     OW15607   2.512   2.817  16.901 -0.2799  0.5752  0.0889
 1383SOL    HW115608   2.420   2.833  16.881 -0.4398  1.3997  1.4817
 1383SOL    HW215609   2.490   2.741  16.955 -0.2188  0.4045 -0.1266
 1384SOL     OW15610   1.658   2.936   9.298  0.5860 -0.3693 -0.1828
 1384SOL    HW115611   1.638   2.844   9.280 -2.3159  0.2687 -0.1225
 1384SOL    HW215612   1.630   2.943   9.389 -0.9105 -0.3634 -0.6557
 1385SOL     OW15613   2.348   0.400   9.113  0.7823 -0.2631 -0.0136
 1385SOL    HW115614   2.292   0.457   9.060  0.1632 -0.5304  0.3505
 1385SOL    HW215615   2.406   0.465   9.152  0.5698 -0.9336  1.4256
 1386SOL     OW15616   3.191   4.700  10.317  0.0728  0.3456 -1.2015
 1386SOL    HW115617   3.193   0.049  10.379  1.7439 -0.6361 -0.0898
 1386SOL    HW215618   3.230   0.030  10.247  1.6198  1.3254  0.4035
 1387SOL     OW15619   0.051   2.874   6.653 -0.3189 -0.1840 -0.0742
 1387SOL    HW115620   0.024   2.848   6.740  2.3331  0.8995  1.0805
 1387SOL    HW215621   0.029   2.966   6.668  1.4573 -0.5225  4.5728
 1388SOL     OW15622   1.337   4.610   3.093  0.4875  0.3025 -0.1471
 1388SOL    HW115623   1.376   4.565   3.168 -1.8411  1.2415  1.6552
 1388SOL    HW215624   1.337   4.704   3.114 -1.6108 -0.0116  1.3050
 1389SOL     OW15625   2.334   0.171   2.503  0.0877 -0.3100  0.7848
 1389SOL    HW115626   2.422   0.194   2.475 -0.7251  0.9351 -0.7323
 1389SOL    HW215627   2.322   0.080   2.477 -0.7468 -0.4372  1.5851
 1390SOL     OW15628   1.093   1.624   6.057 -0.2736 -0.2377  0.0190
 1390SOL    HW115629   1.156   1.580   6.114 -0.4553 -3.4556 -2.2951
 1390SOL    HW215630   1.030   1.554   6.041  1.0207 -0.7994 -2.6797
 1391SOL     OW15631   2.075   0.159   2.664 -0.4153 -0.0474  0.0571
 1391SOL    HW115632   2.007   0.141   2.599 -1.3664  3.0031  0.2244
 1391SOL    HW215633   2.154   0.145   2.612  0.0687 -0.4501  0.8833
 1392SOL     OW15634   1.199   0.056   7.367  0.5248  0.4446 -0.2069
 1392SOL    HW115635   1.107   0.062   7.393  1.0680  1.1374  1.5464
 1392SOL    HW215636   1.247   0.094   7.441 -0.0083  0.8768 -0.0829
 1393SOL     OW15637   2.777   3.747  14.484  0.4976  0.1442 -1.1246
 1393SOL    HW115638   2.853   3.731  14.429  1.7245 -1.9454  1.2096
 1393SOL    HW215639   2.706   3.703  14.438 -1.2678  0.6209  1.1698
 1394SOL     OW15640   3.928   1.701  12.025 -0.4950  0.1904  0.2221
 1394SOL    HW115641   3.873   1.746  12.089 -3.9814 -0.5693 -2.2217
 1394SOL    HW215642   3.975   1.639  12.081 -2.6552 -0.0692  1.7288
 1395SOL     OW15643   1.415   0.167   3.738 -0.5766 -0.3777  0.2178
 1395SOL    HW115644   1.422   0.122   3.823 -0.1942  1.3308  1.1003
 1395SOL    HW215645   1.508   0.178   3.718 -0.7513  1.5837  0.4828
 1396SOL     OW15646   4.346   0.356   3.421  0.0308 -0.3330 -0.3810
 1396SOL    HW115647   4.294   0.392   3.349  2.8114  1.5775 -1.4233
 1396SOL    HW215648   4.284   0.291   3.455 -0.4390  0.1082 -0.3886
 1397SOL     OW15649   1.442   0.042   3.340 -0.2807  0.0934  0.4586
 1397SOL    HW115650   1.491   0.103   3.396  0.2603 -1.2756  1.4909
 1397SOL    HW215651   1.426   0.095   3.261 -0.9767 -0.0398  0.5151
 1398SOL     OW15652   1.622   2.385   3.500  0.4161  0.3396  0.0227
 1398SOL    HW115653   1.644   2.478   3.490 -1.5612  0.7484 -0.5101
 1398SOL    HW215654   1.690   2.345   3.446 -1.4346 -0.0717 -1.9850
 1399SOL     OW15655   3.792   3.145  11.577  0.0107 -0.2041  0.2507
 1399SOL    HW115656   3.831   3.165  11.662  0.0801  0.4114  0.0728
 1399SOL    HW215657   3.762   3.232  11.551 -3.2069 -0.9972  1.2847
 1400SOL     OW15658   1.586   0.134   7.298  0.1993 -0.2904 -0.2707
 1400SOL    HW115659   1.574   0.229   7.299  0.2198 -0.2741 -1.6384
 1400SOL    HW215660   1.679   0.134   7.275 -0.7829  0.3246 -4.3028
 1401SOL     OW15661   4.039   3.066   3.640 -0.9639 -0.4388  0.2533
 1401SOL    HW115662   4.061   3.150   3.601  1.7413 -0.7900  1.0009
 1401SOL    HW215663   4.013   3.099   3.726 -4.2949 -1.3086 -0.3983
 1402SOL     OW15664   0.577   3.198  17.296  0.3897 -0.5938  0.2292
 1402SOL    HW115665   0.539   3.230  17.377 -1.3717 -0.7492 -0.5312
 1402SOL    HW215666   0.670   3.203  17.317 -0.0274 -1.2384  2.1949
 1403SOL     OW15667   1.932   4.022   1.718  0.1820  0.1368  0.0885
 1403SOL    HW115668   1.983   4.072   1.654  2.0401 -0.5645  1.0156
 1403SOL    HW215669   1.859   3.996   1.663 -1.0284  0.6078  1.4723
 1404SOL     OW15670   4.051   1.936   3.828  0.1732  0.2361  0.2055
 1404SOL    HW115671   4.133   1.972   3.794 -0.8890  0.6458 -1.9427
 1404SOL    HW215672   3.990   1.976   3.766  1.4202  1.2888 -0.3254
 1405SOL     OW15673   0.326   0.367   0.946 -0.2102  0.3678 -0.1329
 1405SOL    HW115674   0.249   0.423   0.960 -0.3901  0.3667 -1.1331
 1405SOL    HW215675   0.361   0.417   0.873  0.2464 -0.1820 -0.2910
 1406SOL     OW15676   3.535   2.212   2.719  0.4520 -0.1186  0.1621
 1406SOL    HW115677   3.456   2.232   2.669  0.4864  1.3233  0.6928
 1406SOL    HW215678   3.610   2.204   2.660 -0.1173  1.7484 -0.8126
 1407SOL     OW15679   1.096   2.432   5.059 -0.2213 -1.3144 -0.4706
 1407SOL    HW115680   1.048   2.513   5.077 -0.8933 -1.9240  0.4451
 1407SOL    HW215681   1.189   2.455   5.054 -0.7493  0.6475 -1.5985
 1408SOL     OW15682   2.400   3.648   4.713  0.2638 -0.1160 -0.1619
 1408SOL    HW115683   2.324   3.699   4.739  0.8880  1.3328 -1.2224
 1408SOL    HW215684   2.471   3.711   4.700  0.1268  0.2315  0.7826
 1409SOL     OW15685   2.918   0.530  16.661 -0.5225 -0.2006 -0.0219
 1409SOL    HW115686   2.942   0.582  16.737  2.3080 -0.8307 -0.4686
 1409SOL    HW215687   2.950   0.442  16.682 -1.3172 -0.4454  0.1496
 1410SOL     OW15688   3.449   2.954  13.287  0.1366  0.0737  0.5626
 1410SOL    HW115689   3.373   2.927  13.340  1.0899 -2.4435  0.6577
 1410SOL    HW215690   3.518   2.923  13.346 -0.7850 -1.7480  0.6928
 1411SOL     OW15691   1.938   0.084  10.421  0.5508 -0.5210  0.1904
 1411SOL    HW115692   1.843   0.089  10.427  0.5785  0.4724 -0.1510
 1411SOL    HW215693   1.961   0.151  10.486  1.1420  0.1049 -0.6643
 1412SOL     OW15694   3.753   4.261   3.590  0.0624 -0.3287 -0.5735
 1412SOL    HW115695   3.754   4.206   3.668 -0.1228  0.3674 -0.0830
 1412SOL    HW215696   3.664   4.289   3.567 -0.1039  0.8564  1.5164
 1413SOL     OW15697   1.461   3.422   2.899  0.2489  0.0179  0.4233
 1413SOL    HW115698   1.461   3.351   2.963  2.1729  0.9741  1.4815
 1413SOL    HW215699   1.369   3.451   2.897  0.5964  1.1230  0.3884
 1414SOL     OW15700   3.763   1.033   3.552  0.1923 -1.0729 -0.2137
 1414SOL    HW115701   3.820   1.102   3.519 -3.6213  1.5851 -1.1621
 1414SOL    HW215702   3.746   1.077   3.635  1.0284 -0.3040 -0.4451
 1415SOL     OW15703   4.575   0.357   2.975  0.1133 -0.0468 -0.0078
 1415SOL    HW115704   4.645   0.295   2.994  0.4427 -0.5400 -2.8301
 1415SOL    HW215705   4.602   0.384   2.888  1.1455 -0.8367  0.0733
 1416SOL     OW15706   0.200   0.685   4.672 -0.1353  0.4983 -0.4851
 1416SOL    HW115707   0.139   0.676   4.745  1.0661  2.2187  0.7314
 1416SOL    HW215708   0.151   0.657   4.595 -2.9118 -2.3386  2.3204
 1417SOL     OW15709   0.242   2.347   1.219  0.0833 -0.5650 -0.9495
 1417SOL    HW115710   0.205   2.423   1.265  0.8727 -0.3988 -0.5840
 1417SOL    HW215711   0.258   2.377   1.129  0.9938 -0.6170 -0.8113
 1418SOL     OW15712   0.471   4.630   8.355  0.3258 -0.1646 -0.5680
 1418SOL    HW115713   0.509   4.562   8.299  0.1750 -0.8348  0.1426
 1418SOL    HW215714   0.465   4.575   8.433  0.9310  2.0750  1.0661
 1419SOL     OW15715   4.068   4.482   0.703 -0.6897  0.3309  0.1538
 1419SOL    HW115716   4.163   4.487   0.702 -0.7472  0.8819 -2.4807
 1419SOL    HW215717   4.059   4.388   0.719  0.2001  0.2823  0.3403
 1420SOL     OW15718   2.919   3.268   3.784 -0.1161 -0.0787  0.0919
 1420SOL    HW115719   2.954   3.215   3.713 -1.4804 -0.9668  0.0855
 1420SOL    HW215720   2.867   3.341   3.750  2.4401  1.1980 -1.0589
 1421SOL     OW15721   3.110   0.789  12.475  0.3875 -0.1362 -0.0731
 1421SOL    HW115722   3.085   0.759  12.562  0.3140  0.7116  0.1995
 1421SOL    HW215723   3.026   0.807  12.432 -0.5944  3.4344  3.3056
 1422SOL     OW15724   0.496   0.487  16.961  0.0505  0.2031 -0.0209
 1422SOL    HW115725   0.508   0.410  16.906  0.6283  0.8849 -0.8531
 1422SOL    HW215726   0.530   0.557  16.906 -0.7213 -0.2852 -1.1191
 1423SOL     OW15727   4.227   0.253   4.718 -0.6269  0.1295  0.1941
 1423SOL    HW115728   4.264   0.222   4.635 -1.6274 -0.9640  0.1478
 1423SOL    HW215729   4.177   0.327   4.682 -1.9380 -0.3028  1.1043
 1424SOL     OW15730   3.504   1.892   5.948 -0.0338 -0.0532 -0.0347
 1424SOL    HW115731   3.581   1.841   5.975 -0.6765 -0.8033  0.3769
 1424SOL    HW215732   3.549   1.953   5.889  0.6359 -0.6484 -0.1473
 1425SOL     OW15733   2.286   4.576  17.028 -0.1657  0.1769  0.4885
 1425SOL    HW115734   2.277   4.556  16.934 -0.1951  1.5403  0.1977
 1425SOL    HW215735   2.221   4.647  17.027 -0.0079  0.3100 -0.7589
 1426SOL     OW15736   3.226   2.506   8.950 -0.0720  0.2016 -0.0503
 1426SOL    HW115737   3.176   2.572   8.996  0.7653  0.3592  0.6293
 1426SOL    HW215738   3.235   2.429   9.007 -1.3429  0.1957  0.1502
 1427SOL     OW15739   0.561   1.387   4.433 -0.0802  0.5853 -0.5407
 1427SOL    HW115740   0.644   1.357   4.397 -0.2674  0.3811 -0.8010
 1427SOL    HW215741   0.551   1.342   4.516 -2.1779  1.0299 -0.5503
 1428SOL     OW15742   4.701   3.605   2.699  0.4362 -0.2985  0.1266
 1428SOL    HW115743   0.061   3.615   2.743 -0.4094  1.0127  1.4333
 1428SOL    HW215744   4.671   3.528   2.748 -2.5873  0.5189 -0.4076
 1429SOL     OW15745   2.834   2.271   5.490  0.2697 -0.8299  0.1590
 1429SOL    HW115746   2.778   2.246   5.564 -2.0593  0.4432 -1.2087
 1429SOL    HW215747   2.902   2.323   5.534  1.4775 -0.8515 -1.6708
 1430SOL     OW15748   0.570   2.192   2.958  0.0090  0.2234  0.3791
 1430SOL    HW115749   0.509   2.179   2.886 -2.1027  1.2498  1.9837
 1430SOL    HW215750   0.508   2.209   3.029  0.5248 -1.6902  1.3106
 1431SOL     OW15751   3.934   1.288  15.349 -0.0007 -0.2782  0.1728
 1431SOL    HW115752   4.004   1.281  15.284  0.4694  0.8626  0.5568
 1431SOL    HW215753   3.969   1.356  15.407 -0.1835 -0.4812  0.5226
 1432SOL     OW15754   4.651   4.546   1.153 -0.1214 -0.2067  0.0663
 1432SOL    HW115755   4.713   4.496   1.100 -0.0658  0.4583 -0.4940
 1432SOL    HW215756   4.593   4.477   1.184 -0.0292  0.1728  1.0688
 1433SOL     OW15757   0.663   1.532   3.452 -0.6776 -0.4707 -0.4894
 1433SOL    HW115758   0.725   1.596   3.485 -1.7000 -0.9667  2.3862
 1433SOL    HW215759   0.671   1.460   3.515 -0.7950  0.0555  0.1283
 1434SOL     OW15760   3.287   0.975   9.986 -0.3633 -0.0586 -0.1537
 1434SOL    HW115761   3.328   1.026  10.057 -0.3024  1.5562 -1.3338
 1434SOL    HW215762   3.197   0.975  10.019  0.1706  0.0740  1.2856
 1435SOL     OW15763   1.946   1.672   7.721  0.4788 -0.5651 -0.4547
 1435SOL    HW115764   1.864   1.720   7.715  1.1688  0.7364  0.4884
 1435SOL    HW215765   1.960   1.686   7.814 -2.6761 -0.8109  0.0428
 1436SOL     OW15766   1.382   3.437   5.035  0.6693  0.2946  0.2545
 1436SOL    HW115767   1.393   3.446   5.130  0.0179 -3.1954  0.6575
 1436SOL    HW215768   1.371   3.342   5.024  1.8852  0.1656  0.0914
 1437SOL     OW15769   4.467   2.552  13.376 -0.1046 -0.1803 -0.4605
 1437SOL    HW115770   4.531   2.602  13.325 -1.0557  2.8518  1.3262
 1437SOL    HW215771   4.522   2.511  13.444 -1.1573 -0.5930  0.1489
 1438SOL     OW15772   3.433   2.068   3.813 -0.1467  0.6269 -0.7379
 1438SOL    HW115773   3.510   2.115   3.779 -0.4977  0.1364 -2.2366
 1438SOL    HW215774   3.366   2.124   3.774 -2.3454 -0.6978  1.1503
 1439SOL     OW15775   3.686   3.827   8.072  0.5051 -0.0532  0.5779
 1439SOL    HW115776   3.604   3.864   8.039  0.2766  0.4063  1.6583
 1439SOL    HW215777   3.757   3.890   8.060  0.8358 -0.8898 -1.8731
 1440SOL     OW15778   0.653   0.054   7.369 -0.3470 -0.4170 -0.3670
 1440SOL    HW115779   0.601   4.698   7.366  0.1568 -0.5970 -3.5585
 1440SOL    HW215780   0.644   0.075   7.462 -1.2017 -1.3822 -0.2303
 1441SOL     OW15781   1.981   1.420   9.048  0.3711 -0.1321  0.2050
 1441SOL    HW115782   2.013   1.441   8.960  0.6357  0.7521  0.5116
 1441SOL    HW215783   1.902   1.472   9.052 -0.0762 -0.5389 -3.1582
 1442SOL     OW15784   3.905   2.657   7.500 -0.1672  0.2274 -0.0171
 1442SOL    HW115785   3.861   2.574   7.517  0.4860  0.0169  0.6859
 1442SOL    HW215786   3.945   2.617   7.423 -0.2783  1.0490 -0.5068
 1443SOL     OW15787   2.674   1.729   5.765  0.0786 -0.9666  0.2060
 1443SOL    HW115788   2.606   1.752   5.828 -0.7927  1.0405 -1.4671
 1443SOL    HW215789   2.711   1.650   5.802  1.2118 -0.8580 -0.6978
 1444SOL     OW15790   1.891   2.973   2.045  0.3554 -0.0996  0.1630
 1444SOL    HW115791   1.907   3.066   2.026  1.9108 -0.9199 -2.4266
 1444SOL    HW215792   1.870   2.972   2.139 -2.7730  2.8516 -0.4547
 1445SOL     OW15793   2.096   3.571  15.013 -0.3721 -0.6559  0.7407
 1445SOL    HW115794   2.064   3.658  14.992  1.2267 -0.2562 -0.0325
 1445SOL    HW215795   2.149   3.592  15.090 -0.4893  0.1782  0.5884
 1446SOL     OW15796   0.146   1.215   3.259  0.2220  0.7212 -0.2263
 1446SOL    HW115797   0.147   1.124   3.290 -1.5510  0.3235 -1.3298
 1446SOL    HW215798   0.053   1.231   3.251 -0.1089 -1.0356  0.0333
 1447SOL     OW15799   2.157   1.875   7.723 -0.4185 -0.1472 -0.3686
 1447SOL    HW115800   2.228   1.816   7.701 -0.8309  0.3097 -2.9127
 1447SOL    HW215801   2.084   1.847   7.667 -1.4087  1.5129  0.0731
 1448SOL     OW15802   3.702   0.833   1.010 -0.5833 -0.4801 -0.4386
 1448SOL    HW115803   3.716   0.860   1.101 -0.4703 -0.3816 -0.4857
 1448SOL    HW215804   3.611   0.806   1.023 -0.7292 -0.1943 -0.8625
 1449SOL     OW15805   3.057   0.061   5.726  0.5648 -0.3143  0.8318
 1449SOL    HW115806   3.112   0.128   5.686 -1.5279  1.0161  0.2020
 1449SOL    HW215807   3.082   4.715   5.665  0.9604  0.8493 -0.3461
 1450SOL     OW15808   0.284   4.256   4.970  0.0566 -0.2072 -0.2149
 1450SOL    HW115809   0.356   4.243   4.909 -0.2268 -1.1170 -0.3674
 1450SOL    HW215810   0.227   4.183   4.944 -2.4198  2.0199 -1.0992
 1451SOL     OW15811   3.165   4.572  16.139 -0.4493 -0.2253 -0.2675
 1451SOL    HW115812   3.260   4.582  16.141 -0.3575 -0.3985 -3.6824
 1451SOL    HW215813   3.143   4.485  16.172 -1.3894  0.4577  0.9232
 1452SOL     OW15814   4.416   0.555   2.504 -0.2497 -0.5146 -0.6380
 1452SOL    HW115815   4.329   0.560   2.545 -0.2114 -2.6375 -0.2895
 1452SOL    HW215816   4.469   0.515   2.573 -0.0900 -0.6117 -0.8200
 1453SOL     OW15817   2.452   0.216   7.590 -0.6355 -0.7977 -0.0148
 1453SOL    HW115818   2.487   0.302   7.566  1.3669 -0.8689  2.6843
 1453SOL    HW215819   2.528   0.160   7.577  0.9224  1.2052  0.3568
 1454SOL     OW15820   3.326   3.013   8.024 -0.6746 -0.2055  0.3079
 1454SOL    HW115821   3.321   2.928   7.980 -0.6584  0.8764 -1.7677
 1454SOL    HW215822   3.247   3.056   7.994 -0.1797 -0.2930 -1.0910
 1455SOL     OW15823   0.566   4.242   1.276 -0.4504 -0.2820 -0.7678
 1455SOL    HW115824   0.495   4.305   1.288  0.7523  0.5200  2.2414
 1455SOL    HW215825   0.635   4.296   1.317 -1.9939  0.6141  0.6245
 1456SOL     OW15826   0.782   0.232  15.185 -0.0032  0.3281 -1.0490
 1456SOL    HW115827   0.870   0.237  15.147  0.0493  1.6413 -0.7866
 1456SOL    HW215828   0.738   0.165  15.133  1.0113 -0.8496 -0.3860
 1457SOL     OW15829   0.387   2.652  16.432 -0.9040  0.3798 -0.2248
 1457SOL    HW115830   0.464   2.689  16.390 -1.2283 -0.2018 -1.3165
 1457SOL    HW215831   0.378   2.567  16.388 -0.2849  1.6426 -2.7737
 1458SOL     OW15832   4.647   0.911   3.386  0.1191  0.0662 -0.4012
 1458SOL    HW115833   4.700   0.917   3.307 -0.0134 -1.5135 -0.6138
 1458SOL    HW215834   4.607   0.824   3.384  0.3813 -0.0856  0.8767
 1459SOL     OW15835   1.048   4.193   7.669 -0.0298  0.5797  0.2797
 1459SOL    HW115836   1.081   4.199   7.758 -1.0566  0.5237  0.6580
 1459SOL    HW215837   1.021   4.284   7.656  0.1138  0.9150  2.3389
 1460SOL     OW15838   4.415   0.834   5.022 -0.5868 -0.4851 -0.4123
 1460SOL    HW115839   4.481   0.778   5.063  1.7303  1.6877 -1.2124
 1460SOL    HW215840   4.434   0.919   5.060  0.1948 -0.7458 -0.2345
 1461SOL     OW15841   1.617   2.625   9.325  0.1152  0.0914  0.2121
 1461SOL    HW115842   1.524   2.609   9.344 -0.0790 -0.5796 -1.2912
 1461SOL    HW215843   1.656   2.541   9.300 -2.2832 -0.2807 -2.2883
 1462SOL     OW15844   3.165   2.728   5.664  0.6027  0.2248 -0.0884
 1462SOL    HW115845   3.087   2.766   5.623 -0.2454 -1.9898 -0.5472
 1462SOL    HW215846   3.147   2.733   5.758  0.5902  1.3502 -0.1479
 1463SOL     OW15847   4.535   3.952   3.526  0.4846 -0.1341 -0.2083
 1463SOL    HW115848   4.590   3.966   3.603  1.4830 -2.4650 -0.5278
 1463SOL    HW215849   4.479   4.028   3.544 -1.7856 -2.0356  0.7424
 1464SOL     OW15850   1.870   4.673  17.196 -0.2185  0.5701  0.5164
 1464SOL    HW115851   1.944   4.676  17.136 -0.4242 -1.9690  0.1281
 1464SOL    HW215852   1.921   4.671  17.277  1.6796 -1.9706 -0.7368
 1465SOL     OW15853   1.886   0.205   4.739 -0.3241 -0.4530 -0.5912
 1465SOL    HW115854   1.933   0.288   4.732 -0.7772  0.1414  3.3138
 1465SOL    HW215855   1.864   0.187   4.648  0.0331 -2.2948 -0.3119
 1466SOL     OW15856   2.102   4.216   6.945 -0.4400  0.0089 -0.7189
 1466SOL    HW115857   2.116   4.309   6.924  1.4802  0.6351  3.3619
 1466SOL    HW215858   2.154   4.181   6.873  1.3024 -1.5675  1.3244
 1467SOL     OW15859   0.861   0.144   6.504 -0.9965 -0.7588 -0.0575
 1467SOL    HW115860   0.920   0.122   6.576 -0.1354 -0.4098 -0.6645
 1467SOL    HW215861   0.827   0.063   6.466 -0.4314 -0.3974 -1.3195
 1468SOL     OW15862   3.840   3.663   3.647 -0.5211 -0.2033 -0.2058
 1468SOL    HW115863   3.911   3.674   3.584 -0.3257  1.1044  0.2506
 1468SOL    HW215864   3.835   3.752   3.681 -0.0853 -0.5329  0.7188
 1469SOL     OW15865   0.666   4.015   1.377  0.5812  0.2822 -0.3592
 1469SOL    HW115866   0.640   4.079   1.311 -0.4026  0.1215 -0.1260
 1469SOL    HW215867   0.683   4.072   1.452 -1.3539 -2.2417  1.9644
 1470SOL     OW15868   0.685   3.964   4.194 -0.2811 -0.0999 -0.2056
 1470SOL    HW115869   0.618   3.995   4.254 -1.2737 -0.9088 -0.9015
 1470SOL    HW215870   0.639   3.898   4.142 -1.0699  0.3719 -0.1020
 1471SOL     OW15871   2.620   2.111   1.249  0.3561  0.4081 -0.2318
 1471SOL    HW115872   2.593   2.153   1.167  0.1456  0.2973 -0.2188
 1471SOL    HW215873   2.607   2.182   1.312  2.8978  0.3480  0.3671
 1472SOL     OW15874   0.771   0.401   0.099 -0.2844 -0.0278 -0.7254
 1472SOL    HW115875   0.763   0.306   0.095  1.2459 -0.2848  2.1437
 1472SOL    HW215876   0.844   0.421   0.040  0.2760 -0.4188 -0.1619
 1473SOL     OW15877   4.218   0.339  11.548 -0.6017 -0.5870  0.2246
 1473SOL    HW115878   4.290   0.349  11.486  0.0377  0.8572  1.1973
 1473SOL    HW215879   4.166   0.418  11.538  0.2270  0.1040  1.4601
 1474SOL     OW15880   3.494   1.198   6.230 -0.5030 -0.0287 -0.1313
 1474SOL    HW115881   3.524   1.124   6.177  0.1859  0.9354 -1.0936
 1474SOL    HW215882   3.567   1.221   6.287 -1.0702 -0.8532  0.9198
 1475SOL     OW15883   4.391   2.777   6.941 -0.1173  0.0545 -0.3909
 1475SOL    HW115884   4.417   2.844   6.878 -0.6908  1.4326  0.8344
 1475SOL    HW215885   4.298   2.771   6.923 -0.3145 -0.1936  0.7132
 1476SOL     OW15886   0.298   1.963  16.639  0.2738  0.6638  0.0393
 1476SOL    HW115887   0.234   1.919  16.695  2.4382  1.8124  3.3905
 1476SOL    HW215888   0.288   2.051  16.677  2.3587  0.2683  1.4761
 1477SOL     OW15889   4.512   4.132   8.886 -0.0950 -0.3080 -0.1681
 1477SOL    HW115890   4.503   4.096   8.974  1.1254  2.4391  1.0822
 1477SOL    HW215891   4.477   4.064   8.830  1.8740 -1.2059 -0.3028
 1478SOL     OW15892   4.288   0.498   8.252  0.2505  0.1678  0.2794
 1478SOL    HW115893   4.323   0.454   8.330  0.6611  0.2520  0.1375
 1478SOL    HW215894   4.364   0.553   8.234  0.6244 -0.1232  0.9312
 1479SOL     OW15895   0.053   1.559   2.817  0.4110 -0.4067 -0.1702
 1479SOL    HW115896   4.686   1.555   2.843  0.3895  0.8606 -0.0820
 1479SOL    HW215897   0.080   1.621   2.884 -2.4717  1.3000 -0.5903
 1480SOL     OW15898   2.541   0.767   7.052 -0.3466 -0.0738  0.2863
 1480SOL    HW115899   2.453   0.757   7.089 -1.6755 -0.3435 -2.9832
 1480SOL    HW215900   2.557   0.861   7.063 -2.6021  0.3656 -0.1066
 1481SOL     OW15901   3.466   0.974   5.296  0.4569  0.3211  0.0620
 1481SOL    HW115902   3.555   0.942   5.280  0.8579  2.3092 -1.6070
 1481SOL    HW215903   3.461   0.960   5.391 -0.5300 -0.6685 -0.1382
 1482SOL     OW15904   4.212   0.156   7.156 -0.1693  0.0853  0.0721
 1482SOL    HW115905   4.219   0.062   7.171 -1.5975 -0.0587 -0.1018
 1482SOL    HW215906   4.126   0.172   7.195  1.1895 -0.7237  3.3860
 1483SOL     OW15907   3.707   2.224   6.716 -0.0404  0.1421  0.2593
 1483SOL    HW115908   3.726   2.171   6.639 -3.4080  0.8448 -1.0646
 1483SOL    HW215909   3.618   2.252   6.696  0.4691  0.0396 -2.1262
 1484SOL     OW15910   0.192   1.896   9.204  0.3012  0.3525  0.2396
 1484SOL    HW115911   0.108   1.854   9.186  0.1003  0.6546  0.4801
 1484SOL    HW215912   0.243   1.883   9.124  0.5880 -0.9407  0.6259
 1485SOL     OW15913   2.523   0.407   2.692 -0.1272  0.2004 -0.3975
 1485SOL    HW115914   2.434   0.384   2.666 -0.5165 -0.0302  1.1410
 1485SOL    HW215915   2.561   0.324   2.663 -0.3341  1.0585 -3.0829
 1486SOL     OW15916   2.537   0.472   7.480 -0.4721  0.5219  0.1543
 1486SOL    HW115917   2.632   0.468   7.477 -0.4661  0.7183  0.1056
 1486SOL    HW215918   2.526   0.547   7.537 -0.9445 -0.5902  1.5189
 1487SOL     OW15919   3.053   0.953  15.205  0.5613 -0.6009  0.2466
 1487SOL    HW115920   3.106   0.945  15.126 -1.6314  0.0840 -1.2883
 1487SOL    HW215921   3.114   0.970  15.276  1.1678  0.3766 -0.5067
 1488SOL     OW15922   4.487   2.452   5.101 -0.3974 -0.0740 -0.3123
 1488SOL    HW115923   4.457   2.447   5.191 -0.6155 -0.0458 -0.3849
 1488SOL    HW215924   4.549   2.380   5.115 -0.6567 -0.2675 -0.1681
 1489SOL     OW15925   4.105   3.592   5.813 -0.2753  0.1975 -0.1330
 1489SOL    HW115926   4.113   3.501   5.786  2.1683 -0.0282  1.3333
 1489SOL    HW215927   4.040   3.574   5.881  0.3042  2.2677  0.9828
 1490SOL     OW15928   0.198   4.702   8.308 -0.0190  0.4450  0.0800
 1490SOL    HW115929   0.212   0.068   8.340 -1.9229 -0.0363  2.2638
 1490SOL    HW215930   0.287   4.672   8.324  0.0639  0.7526  0.1965
 1491SOL     OW15931   1.945   1.352   0.165  0.3970  0.0351 -0.1411
 1491SOL    HW115932   1.951   1.258   0.183  0.2128  0.2126  0.8497
 1491SOL    HW215933   1.868   1.358   0.108  0.0111 -0.8355  0.2689
 1492SOL     OW15934   1.902   2.353   6.274  0.4917 -0.1186 -0.1148
 1492SOL    HW115935   1.968   2.405   6.321  1.2479  0.2024 -1.5296
 1492SOL    HW215936   1.955   2.298   6.217  0.2373  0.2813 -0.7381
 1493SOL     OW15937   3.765   4.188   5.074 -0.1548 -0.7180 -0.3780
 1493SOL    HW115938   3.736   4.271   5.036  0.9717  0.2676  0.9112
 1493SOL    HW215939   3.830   4.158   5.011 -0.0508  2.8381 -1.9328
 1494SOL     OW15940   3.596   1.992  10.643 -0.1042  0.1097 -0.1002
 1494SOL    HW115941   3.647   1.928  10.693 -2.1206  1.0690  3.1050
 1494SOL    HW215942   3.529   2.010  10.708 -0.8766 -1.0530 -0.5578
 1495SOL     OW15943   0.487   0.838   6.009  0.2905 -0.0937  0.0923
 1495SOL    HW115944   0.506   0.860   5.917  0.2656  0.8438  0.3069
 1495SOL    HW215945   0.478   0.743   6.008 -0.1381 -0.0526 -0.5519
 1496SOL     OW15946   2.091   3.211   7.983  0.2884  0.2825  0.4781
 1496SOL    HW115947   2.080   3.241   8.073  0.8448  3.5413 -0.5416
 1496SOL    HW215948   2.160   3.273   7.960  0.1981 -0.7993 -2.7585
 1497SOL     OW15949   0.334   4.645  16.437  0.2067  0.3632 -0.2012
 1497SOL    HW115950   0.306   4.619  16.349  2.2577  0.5962 -0.9404
 1497SOL    HW215951   0.251   4.650  16.484 -0.3905 -1.6035 -1.0329
 1498SOL     OW15952   2.883   1.832   8.085  0.0444  0.6562  0.5538
 1498SOL    HW115953   2.856   1.874   8.003 -3.4431  0.1665  1.4582
 1498SOL    HW215954   2.928   1.903   8.130 -1.1981  1.5468  0.4024
 1499SOL     OW15955   3.608   0.035   8.333  0.1702  0.4779 -0.7938
 1499SOL    HW115956   3.583   0.010   8.422  1.1258 -1.2828 -1.0201
 1499SOL    HW215957   3.625   4.672   8.297  0.2177  1.2820 -2.7206
 1500SOL     OW15958   1.857   1.674   3.614 -0.2278 -0.1430 -0.3465
 1500SOL    HW115959   1.842   1.734   3.541  0.9455  0.6174  0.0436
 1500SOL    HW215960   1.823   1.731   3.682  0.4751 -1.6471  1.2571
 1501SOL     OW15961   2.407   1.982   2.205 -0.0010 -0.1574  0.0391
 1501SOL    HW115962   2.350   1.905   2.209  2.2474 -1.7863  1.0945
 1501SOL    HW215963   2.376   2.031   2.281  1.5877  1.5345 -0.4020
 1502SOL     OW15964   1.225   1.461  11.487  0.2674 -0.5831 -0.1092
 1502SOL    HW115965   1.314   1.439  11.512 -0.1496 -2.2807 -0.0929
 1502SOL    HW215966   1.245   1.535  11.430 -1.4362  0.0498  0.0907
 1503SOL     OW15967   2.809   3.855  17.257 -0.1917 -0.1471 -0.0014
 1503SOL    HW115968   2.880   3.822  17.201 -1.2646  0.5811 -1.7599
 1503SOL    HW215969   2.741   3.792  17.236  0.9526 -1.2126 -0.5516
 1504SOL     OW15970   2.969   4.339   8.017  0.1694 -0.0189  0.1217
 1504SOL    HW115971   2.881   4.308   7.996  0.0313 -0.0206  0.7085
 1504SOL    HW215972   2.972   4.349   8.112  0.2825  1.6090 -0.0553
 1505SOL     OW15973   1.295   3.492  16.108  0.4325 -0.0639  0.3209
 1505SOL    HW115974   1.246   3.482  16.190 -0.0389 -1.1466 -0.0898
 1505SOL    HW215975   1.373   3.538  16.138 -2.4024  3.5881  2.2101
 1506SOL     OW15976   3.107   4.459  12.790  0.9432  0.4730  0.2431
 1506SOL    HW115977   3.098   4.406  12.711 -1.4330 -0.0805  0.8928
 1506SOL    HW215978   3.194   4.425  12.814  2.0385  2.7885 -0.4403
 1507SOL     OW15979   0.638   3.403   5.196  0.1945  0.4938  0.3346
 1507SOL    HW115980   0.610   3.457   5.270  1.2158 -0.3343  1.3039
 1507SOL    HW215981   0.563   3.344   5.187  1.8512 -1.6364  0.5234
 1508SOL     OW15982   4.146   2.836   6.832  0.1988 -0.0168 -0.0291
 1508SOL    HW115983   4.092   2.759   6.850 -1.0466  0.5269 -1.3286
 1508SOL    HW215984   4.093   2.907   6.869  1.7213  1.3648 -0.5236
 1509SOL     OW15985   0.651   2.471   8.060  0.2230  0.0911  0.0709
 1509SOL    HW115986   0.582   2.477   8.126  0.1617  0.6175 -0.0362
 1509SOL    HW215987   0.732   2.488   8.107  0.4910 -1.8725  0.2785
 1510SOL     OW15988   2.655   1.879   6.984  0.0263 -0.4905 -0.0675
 1510SOL    HW115989   2.573   1.905   7.024 -0.1011  0.9297 -1.2375
 1510SOL    HW215990   2.628   1.848   6.898 -0.4158  2.0939 -0.8591
 1511SOL     OW15991   1.259   3.858   7.006 -0.2187 -0.4990  0.2854
 1511SOL    HW115992   1.299   3.944   7.012 -0.5232 -0.4646  1.8199
 1511SOL    HW215993   1.293   3.821   7.088  1.0178 -0.1774 -0.0922
 1512SOL     OW15994   1.374   2.491   0.082  0.1531 -0.3524  0.4609
 1512SOL    HW115995   1.301   2.472   0.023  1.9761 -0.1358 -1.8437
 1512SOL    HW215996   1.425   2.534   0.014  0.7769 -2.6200 -0.5086
 1513SOL     OW15997   3.134   4.201   8.667 -0.0269 -0.1059 -0.1338
 1513SOL    HW115998   3.061   4.258   8.646 -1.6167 -2.3957 -0.8510
 1513SOL    HW215999   3.105   4.116   8.634 -0.5260 -0.3742  0.9969
 1514SOL     OW16000   1.376   3.131  10.663 -0.6909 -0.5653 -0.4073
 1514SOL    HW116001   1.293   3.084  10.658 -0.1973 -1.4015 -0.6818
 1514SOL    HW216002   1.383   3.169  10.575 -1.6851 -0.8117 -0.5863
 1515SOL     OW16003   1.274   2.392  15.785 -0.2519 -0.6287 -0.2160
 1515SOL    HW116004   1.347   2.356  15.836  0.4057  0.1923 -0.5828
 1515SOL    HW216005   1.296   2.378  15.693  0.9250 -0.7202  0.0783
 1516SOL     OW16006   4.317   0.791  16.960  0.0779 -0.4371  0.5103
 1516SOL    HW116007   4.350   0.752  16.879  2.8678 -0.5295  1.7015
 1516SOL    HW216008   4.261   0.859  16.922  1.1851  0.9760  1.4326
 1517SOL     OW16009   2.651   0.981  10.507 -0.0601  0.2044 -0.1419
 1517SOL    HW116010   2.577   0.969  10.447 -0.9813 -1.7959  1.3762
 1517SOL    HW216011   2.604   1.034  10.572  0.3124  1.2002 -0.6856
 1518SOL     OW16012   2.669   0.049   7.584  0.5673 -0.0136  0.0617
 1518SOL    HW116013   2.710   0.035   7.669 -0.3551 -0.0725  0.4976
 1518SOL    HW216014   2.733   0.109   7.545  1.8116 -0.1868  1.8174
 1519SOL     OW16015   4.447   4.527   8.219  0.3865 -0.0617  0.4444
 1519SOL    HW116016   4.431   4.445   8.171  2.1756 -1.1048  1.6325
 1519SOL    HW216017   4.470   4.586   8.148  0.8819  0.5697  1.1323
 1520SOL     OW16018   3.067   1.766   1.647 -0.0981 -0.2887 -0.3403
 1520SOL    HW116019   3.013   1.722   1.711 -3.1071  1.4579 -1.6654
 1520SOL    HW216020   3.153   1.770   1.688 -0.0513 -4.1525 -0.0719
 1521SOL     OW16021   1.696   2.411   0.607 -0.3915  0.2425 -0.0789
 1521SOL    HW116022   1.629   2.456   0.659 -1.7407 -2.5749  0.6076
 1521SOL    HW216023   1.743   2.488   0.573  1.2452 -1.7867 -2.4087
 1522SOL     OW16024   0.283   3.296   8.715 -0.0197  0.2386  0.0660
 1522SOL    HW116025   0.347   3.344   8.663  0.1116 -0.0723 -0.0581
 1522SOL    HW216026   0.204   3.337   8.680  0.4451  0.6231 -0.5357
 1523SOL     OW16027   2.667   1.324  12.063 -0.1673 -0.1397  0.1426
 1523SOL    HW116028   2.667   1.339  11.969  2.0457 -0.2968  0.1230
 1523SOL    HW216029   2.685   1.414  12.090  0.0783  0.7103 -2.8287
 1524SOL     OW16030   0.853   3.358  10.423  0.0239  0.0889 -0.3795
 1524SOL    HW116031   0.870   3.437  10.474 -0.4286  0.9595 -1.5583
 1524SOL    HW216032   0.900   3.295  10.478 -0.0693  1.4415  1.2258
 1525SOL     OW16033   4.646   1.153   1.321 -0.4342  0.0445 -0.0451
 1525SOL    HW116034   4.659   1.110   1.236  1.0916  0.2119  0.1011
 1525SOL    HW216035   4.566   1.202   1.306 -0.7938 -0.2136  1.0012
 1526SOL     OW16036   4.284   2.056   4.087 -0.0961 -0.1619 -0.3592
 1526SOL    HW116037   4.377   2.077   4.082  0.2021 -1.4611 -0.3449
 1526SOL    HW216038   4.287   1.960   4.084 -0.6803 -0.1996  0.3183
 1527SOL     OW16039   4.704   0.032   5.057 -0.4143 -0.1755 -0.0763
 1527SOL    HW116040   0.034   4.698   5.004  2.9638  2.2939  0.7317
 1527SOL    HW216041   4.619   0.011   5.017 -0.2660  1.5546 -1.2725
 1528SOL     OW16042   3.673   1.358   3.299 -1.0991 -0.2409 -0.0889
 1528SOL    HW116043   3.608   1.417   3.336 -2.8503 -3.3726  1.7763
 1528SOL    HW216044   3.662   1.370   3.204 -0.9755 -0.7597 -0.1695
 1529SOL     OW16045   0.656   1.513  11.668 -0.0428  0.4972 -0.7206
 1529SOL    HW116046   0.733   1.456  11.660 -1.3265 -1.0375 -2.1182
 1529SOL    HW216047   0.665   1.573  11.594  3.8945 -1.2265 -1.6717
 1530SOL     OW16048   3.894   2.864   6.280  0.5506  0.0670 -0.3997
 1530SOL    HW116049   3.801   2.857   6.301  0.5066  1.0218 -0.2777
 1530SOL    HW216050   3.927   2.774   6.273 -0.5327 -0.3616  0.0525
 1531SOL     OW16051   2.194   3.854   3.399  0.3101 -0.2655  0.0226
 1531SOL    HW116052   2.207   3.947   3.418 -1.5111  0.1872 -1.0180
 1531SOL    HW216053   2.126   3.843   3.465 -0.0433  0.7341 -0.1693
 1532SOL     OW16054   2.485   2.993   3.356 -0.2490 -0.1295  0.8961
 1532SOL    HW116055   2.526   2.932   3.417  0.9198 -0.2220  0.0223
 1532SOL    HW216056   2.481   2.951   3.270  0.6830  3.0997 -0.7702
 1533SOL     OW16057   3.809   3.096  13.686  0.1527 -0.1582 -0.2950
 1533SOL    HW116058   3.832   3.180  13.725  0.9885 -0.5371  0.0401
 1533SOL    HW216059   3.734   3.117  13.631 -0.8683 -0.1040  1.0984
 1534SOL     OW16060   0.466   0.188   8.212 -0.1275 -0.3754 -0.0469
 1534SOL    HW116061   0.490   0.096   8.204  0.3135 -0.4157  1.5949
 1534SOL    HW216062   0.372   0.189   8.194 -0.2538  0.4471  0.6515
 1535SOL     OW16063   2.579   1.955  15.471 -0.1575 -0.9444  0.3457
 1535SOL    HW116064   2.510   1.913  15.523 -0.9069 -0.0105  0.0990
 1535SOL    HW216065   2.559   1.942  15.378 -1.0637  2.6791  0.0122
 1536SOL     OW16066   3.775   2.262   1.959 -0.0098 -0.1825  0.2558
 1536SOL    HW116067   3.692   2.219   1.936 -1.1847  2.0262  0.3438
 1536SOL    HW216068   3.846   2.207   1.925  0.0923  0.3950 -0.4880
 1537SOL     OW16069   1.591   2.838  17.593 -0.3037  0.1244 -0.1591
 1537SOL    HW116070   1.556   2.866  17.678 -1.7093  0.8638 -0.9800
 1537SOL    HW216071   1.586   2.918  17.541 -0.4343 -0.8619 -1.6606
 1538SOL     OW16072   2.152   1.032   2.784  0.0863 -0.0571 -0.4825
 1538SOL    HW116073   2.203   0.952   2.797  1.7974  0.9287 -1.1475
 1538SOL    HW216074   2.214   1.093   2.743 -0.2093  1.5529  1.4732
 1539SOL     OW16075   2.329   3.646   7.806 -0.0053 -1.2176  0.3134
 1539SOL    HW116076   2.377   3.706   7.749 -0.8040 -1.5491 -0.6889
 1539SOL    HW216077   2.306   3.691   7.887  1.8823  2.2628 -1.0916
 1540SOL     OW16078   2.522   1.382  10.827  0.2674 -0.0289 -0.1259
 1540SOL    HW116079   2.447   1.344  10.873  1.6247 -2.0692  0.4022
 1540SOL    HW216080   2.532   1.467  10.870 -0.2837  0.4176 -0.8811
 1541SOL     OW16081   0.411   0.664   1.606 -0.2852  0.1590  0.1698
 1541SOL    HW116082   0.474   0.735   1.594 -1.0579  0.7291 -0.4729
 1541SOL    HW216083   0.447   0.600   1.669  3.7530  0.5995 -1.6834
 1542SOL     OW16084   3.220   4.316  14.065 -0.2617  0.0704 -0.0516
 1542SOL    HW116085   3.144   4.258  14.055 -0.0246 -0.2181 -0.1985
 1542SOL    HW216086   3.275   4.301  13.988 -0.7662  2.5281 -0.8991
 1543SOL     OW16087   2.376   2.930   1.042 -0.3340  0.5202 -0.7936
 1543SOL    HW116088   2.461   2.905   1.076 -1.5868 -1.1056  1.1433
 1543SOL    HW216089   2.398   3.012   0.998  0.2864  0.9252  0.2559
 1544SOL     OW16090   4.575   3.360   3.300  0.0471 -0.3015  0.7416
 1544SOL    HW116091   4.567   3.378   3.206  0.8071 -0.8569  0.5703
 1544SOL    HW216092   4.534   3.439   3.332 -0.0580 -0.5837  1.2962
 1545SOL     OW16093   1.065   2.597  13.567 -0.2272 -0.4680 -0.1839
 1545SOL    HW116094   1.107   2.520  13.529 -2.2863 -0.2400 -2.8939
 1545SOL    HW216095   1.118   2.603  13.647  1.5254 -0.4467 -1.3357
 1546SOL     OW16096   2.977   0.908   6.767  0.0513 -0.5578  0.1181
 1546SOL    HW116097   2.979   0.858   6.848 -1.0557 -2.6237 -1.1358
 1546SOL    HW216098   2.885   0.930   6.752 -0.6742 -2.1266  2.2976
 1547SOL     OW16099   2.585   1.679  11.903 -0.3648 -0.2896 -0.7076
 1547SOL    HW116100   2.568   1.771  11.924 -1.9962 -1.1856  1.9793
 1547SOL    HW216101   2.657   1.658  11.963  0.8702  2.8331 -1.1248
 1548SOL     OW16102   2.360   3.614   6.159 -0.0075  0.7035 -0.2570
 1548SOL    HW116103   2.396   3.569   6.235  0.0767 -0.9854 -1.3038
 1548SOL    HW216104   2.346   3.699   6.202  2.7099  1.6393 -1.1937
 1549SOL     OW16105   1.483   3.540   3.520 -0.1245 -0.7798 -0.7105
 1549SOL    HW116106   1.456   3.449   3.532 -0.1332 -0.2566  3.1953
 1549SOL    HW216107   1.415   3.589   3.567 -0.3641 -1.5482 -0.2532
 1550SOL     OW16108   3.627   2.641   9.519  0.3642  0.1163  0.1273
 1550SOL    HW116109   3.637   2.730   9.485 -1.2637  0.7483  1.3081
 1550SOL    HW216110   3.693   2.594   9.469  2.5193  0.3059  2.7936
 1551SOL     OW16111   0.115   0.246   4.897 -0.2813 -0.1496 -0.2782
 1551SOL    HW116112   0.046   0.199   4.851  0.0491 -0.2527 -0.6590
 1551SOL    HW216113   0.114   0.191   4.975 -0.7783 -0.4700 -0.5107
 1552SOL     OW16114   2.850   3.265  15.491  0.2317 -0.0916  0.4654
 1552SOL    HW116115   2.913   3.328  15.456 -0.5542  0.7770  0.5943
 1552SOL    HW216116   2.904   3.219  15.555  0.0854  1.8169  1.9739
 1553SOL     OW16117   4.415   4.405   3.731  0.2381  0.6690  0.2631
 1553SOL    HW116118   4.415   4.382   3.824  0.1293 -0.9375 -0.1328
 1553SOL    HW216119   4.357   4.481   3.731 -0.3653  0.2110 -1.9274
 1554SOL     OW16120   3.851   4.038   8.006 -0.1029  0.4237  0.7330
 1554SOL    HW116121   3.916   4.103   8.029  1.4552 -1.1052  0.6536
 1554SOL    HW216122   3.848   4.033   7.911 -0.8792  2.3826  0.6555
 1555SOL     OW16123   1.144   2.689   7.291  0.2879 -0.0069  0.0302
 1555SOL    HW116124   1.154   2.675   7.385 -1.3480  2.0332  0.4945
 1555SOL    HW216125   1.158   2.599   7.259 -0.1156  0.0170 -0.2141
 1556SOL     OW16126   1.959   0.328   9.876 -0.0250 -0.3746  0.0075
 1556SOL    HW116127   1.879   0.357   9.831  0.5471 -1.2584 -1.5649
 1556SOL    HW216128   1.927   0.263   9.938 -2.9114  0.0977 -1.0024
 1557SOL     OW16129   0.584   3.193   7.424 -0.4135 -0.0219  0.0932
 1557SOL    HW116130   0.604   3.274   7.378 -0.9304 -1.6092 -2.9287
 1557SOL    HW216131   0.597   3.129   7.354  0.1043  0.8667 -0.6265
 1558SOL     OW16132   4.458   0.459   6.024  0.2170  0.2099 -0.4002
 1558SOL    HW116133   4.548   0.440   6.051  0.4522 -0.8618 -1.9014
 1558SOL    HW216134   4.418   0.479   6.108  1.6159  2.2393 -0.2337
 1559SOL     OW16135   1.131   2.371  17.043 -0.2680 -0.4890  0.7215
 1559SOL    HW116136   1.127   2.457  17.084  0.3425  0.6541 -1.6513
 1559SOL    HW216137   1.057   2.368  16.983  0.8726  0.2248 -0.7045
 1560SOL     OW16138   4.152   0.741   4.188 -0.3410  0.3326  0.1384
 1560SOL    HW116139   4.102   0.823   4.186 -1.2353 -0.2381 -0.9610
 1560SOL    HW216140   4.123   0.706   4.103  2.1228 -0.0918 -0.5239
 1561SOL     OW16141   3.119   2.127  10.579 -0.4392  0.1307 -0.3041
 1561SOL    HW116142   3.213   2.106  10.585 -0.1558  1.0888 -1.4534
 1561SOL    HW216143   3.094   2.078  10.500  2.0533  0.3580 -1.2360
 1562SOL     OW16144   1.906   0.209   9.277  0.5045  0.2009 -0.1951
 1562SOL    HW116145   1.998   0.198   9.252  0.7547  0.2555  0.6927
 1562SOL    HW216146   1.901   0.300   9.306 -4.1603 -0.4903  1.1138
 1563SOL     OW16147   1.294   1.310   5.309 -0.2783  0.4124 -0.4802
 1563SOL    HW116148   1.365   1.373   5.303 -0.6959  1.1652  2.0880
 1563SOL    HW216149   1.308   1.255   5.233 -0.7306 -0.5527  0.1382
 1564SOL     OW16150   2.508   2.220   5.414 -0.4265  0.3331  0.0783
 1564SOL    HW116151   2.601   2.242   5.419 -0.0728 -1.2644  0.3613
 1564SOL    HW216152   2.478   2.256   5.497  1.4889  3.1494 -0.4708
 1565SOL     OW16153   4.095   3.699  14.885 -0.5655 -0.3269  0.9249
 1565SOL    HW116154   4.121   3.640  14.815 -1.0937  1.6193 -0.9384
 1565SOL    HW216155   4.086   3.777  14.829  0.1156 -0.4099  0.7034
 1566SOL     OW16156   2.501   0.391   8.000  0.0591 -0.2936 -0.0242
 1566SOL    HW116157   2.442   0.369   7.928  2.0420 -0.4825 -1.6008
 1566SOL    HW216158   2.577   0.334   7.989 -0.7796 -1.2496 -0.7947
 1567SOL     OW16159   2.936   0.258   6.534 -0.6558 -0.4958 -0.1642
 1567SOL    HW116160   2.978   0.203   6.600  1.2431 -0.9309 -1.7296
 1567SOL    HW216161   2.932   0.346   6.571 -1.2112 -0.2146 -0.9143
 1568SOL     OW16162   3.378   1.445   1.007 -0.2335 -0.6041 -0.2808
 1568SOL    HW116163   3.436   1.520   1.017 -0.2206 -0.2447 -2.9103
 1568SOL    HW216164   3.444   1.377   0.992  0.9145 -0.1879  3.0892
 1569SOL     OW16165   4.379   0.088   9.093  0.2637  0.3141 -0.2158
 1569SOL    HW116166   4.293   0.094   9.133  0.1570  0.9578 -0.5376
 1569SOL    HW216167   4.362   0.153   9.024  1.9374 -1.6851 -2.5383
 1570SOL     OW16168   0.805   2.578   5.591  0.7432  0.3793  0.3941
 1570SOL    HW116169   0.719   2.536   5.590  1.0062 -0.2055  1.6392
 1570SOL    HW216170   0.853   2.501   5.622 -3.2430 -2.2503  0.0945
 1571SOL     OW16171   4.602   0.653   8.667  0.2700 -0.2537  0.4631
 1571SOL    HW116172   4.595   0.561   8.643 -0.1400 -0.5564  1.7284
 1571SOL    HW216173   4.511   0.674   8.689 -0.5936 -0.9913 -2.4428
 1572SOL     OW16174   1.420   3.411   1.275  0.8229 -0.3391  0.3350
 1572SOL    HW116175   1.436   3.497   1.312 -2.1448  1.3489 -2.2752
 1572SOL    HW216176   1.354   3.446   1.215  1.9931 -1.8143 -1.8367
 1573SOL     OW16177   1.150   2.944   3.210 -0.1076  0.5437 -0.4618
 1573SOL    HW116178   1.178   2.967   3.299 -0.7011  0.5173 -0.2655
 1573SOL    HW216179   1.079   3.007   3.193 -0.8432  0.0672  0.8229
 1574SOL     OW16180   3.255   2.937   0.052  0.1821  0.0716  0.3782
 1574SOL    HW116181   3.279   2.953   0.143 -0.8149  0.7289  0.5339
 1574SOL    HW216182   3.201   3.013   0.027  2.5347  1.5182 -0.3063
 1575SOL     OW16183   2.895   4.304   8.520  0.5376 -0.3941 -0.0792
 1575SOL    HW116184   2.833   4.367   8.484  1.5903  0.6076 -0.1473
 1575SOL    HW216185   2.933   4.362   8.586  1.1465 -2.3433  1.2929
 1576SOL     OW16186   1.532   0.077   5.469 -0.1644  0.3002  0.4199
 1576SOL    HW116187   1.614   0.099   5.426 -0.5455  1.5914  0.3658
 1576SOL    HW216188   1.560   0.027   5.546  0.5830 -2.1201 -1.4364
 1577SOL     OW16189   4.078   3.648   3.487 -0.0713  0.4612 -0.0005
 1577SOL    HW116190   4.072   3.652   3.391 -0.6865 -0.8816 -0.0076
 1577SOL    HW216191   4.135   3.720   3.515  1.6488 -1.0585  0.4210
 1578SOL     OW16192   0.064   0.470  13.384  0.3166 -0.8687 -0.4270
 1578SOL    HW116193   0.098   0.535  13.446  1.3445  0.1578 -2.0694
 1578SOL    HW216194   0.064   0.388  13.434 -1.3841 -0.7514 -0.2265
 1579SOL     OW16195   3.921   4.057   6.474 -0.0386 -0.5692 -0.2652
 1579SOL    HW116196   3.980   3.997   6.429 -2.4849 -1.9789 -1.5628
 1579SOL    HW216197   3.866   4.091   6.404 -1.0633 -0.2978  0.6664
 1580SOL     OW16198   3.898   1.215   3.377 -0.2678  0.2231  0.1006
 1580SOL    HW116199   3.822   1.269   3.354 -0.1893  0.5594  0.6343
 1580SOL    HW216200   3.918   1.177   3.292  0.1252  0.1030  0.2488
 1581SOL     OW16201   1.391   3.673  10.309 -0.1547 -0.2181 -0.3685
 1581SOL    HW116202   1.448   3.747  10.329 -2.1031  1.2898 -0.3886
 1581SOL    HW216203   1.309   3.710  10.342 -0.6874 -0.9728 -0.8424
 1582SOL     OW16204   0.900   2.318   3.565  0.3813  0.0100 -0.1824
 1582SOL    HW116205   0.854   2.392   3.525  2.0341  1.3819  0.4956
 1582SOL    HW216206   0.881   2.247   3.504  1.1832 -0.4755  0.1439
 1583SOL     OW16207   2.439   3.014   5.419  0.1007  0.0955  0.2699
 1583SOL    HW116208   2.407   2.959   5.347 -2.3237 -0.1073  1.5168
 1583SOL    HW216209   2.361   3.028   5.473  1.7151 -1.5909  2.9937
 1584SOL     OW16210   1.032   3.121   6.658  0.0651 -0.2061 -0.3434
 1584SOL    HW116211   1.068   3.037   6.630 -0.7577 -0.2678 -1.2485
 1584SOL    HW216212   0.939   3.099   6.659 -0.2078  1.0182  1.1014
 1585SOL     OW16213   1.881   4.599  11.951 -0.6687 -0.0927  0.6427
 1585SOL    HW116214   1.885   4.693  11.934 -2.3292 -0.9044 -4.0990
 1585SOL    HW216215   1.882   4.566  11.861  0.2835 -0.8222  0.9130
 1586SOL     OW16216   2.226   0.146  14.907  0.2115  0.5423  0.2689
 1586SOL    HW116217   2.216   0.068  14.854  2.7029 -0.6565  1.5537
 1586SOL    HW216218   2.151   0.201  14.884 -0.0862  0.3467  0.7608
 1587SOL     OW16219   4.523   3.276   4.676  0.6505 -0.2481 -0.1583
 1587SOL    HW116220   4.428   3.265   4.685  0.7265 -0.6751  0.0927
 1587SOL    HW216221   4.541   3.367   4.701 -0.4234 -0.2630  0.6703
 1588SOL     OW16222   1.921   2.498  14.800 -0.1803 -0.4561 -0.4477
 1588SOL    HW116223   2.013   2.479  14.788  0.0755 -2.0232  3.8267
 1588SOL    HW216224   1.921   2.558  14.876 -0.0197 -1.4355  0.3229
 1589SOL     OW16225   0.016   1.395   6.992 -0.1040 -0.4529 -0.7114
 1589SOL    HW116226   0.044   1.313   7.033 -0.2213 -0.5188 -0.7633
 1589SOL    HW216227   0.055   1.381   6.905 -0.6689 -3.5220 -0.4860
 1590SOL     OW16228   2.674   0.916  10.127  0.4770  0.6357 -0.3478
 1590SOL    HW116229   2.705   1.004  10.104 -1.2187  1.3681  0.1285
 1590SOL    HW216230   2.735   0.864  10.076  1.0320 -0.8930  1.8433
 1591SOL     OW16231   4.137   4.235   4.987 -0.5345  0.3329  0.2664
 1591SOL    HW116232   4.066   4.177   4.960 -1.4753  2.0852 -1.0020
 1591SOL    HW216233   4.115   4.310   4.932 -0.9776  0.5470  0.7402
 1592SOL     OW16234   4.474   0.915  15.767 -0.2253  0.2636  0.3046
 1592SOL    HW116235   4.397   0.884  15.721  0.2631 -1.4267  0.6417
 1592SOL    HW216236   4.426   0.946  15.843  2.3094  0.8612  1.6779
 1593SOL     OW16237   1.748   3.556   4.895 -0.4196  0.0801 -0.2922
 1593SOL    HW116238   1.760   3.626   4.959 -0.7838  0.4294 -0.6055
 1593SOL    HW216239   1.825   3.580   4.844 -2.6879  1.6329 -3.0315
 1594SOL     OW16240   0.897   1.956   5.501  0.0863 -0.4433 -0.2115
 1594SOL    HW116241   0.910   1.884   5.439 -1.5588 -0.3120 -0.6951
 1594SOL    HW216242   0.887   2.030   5.441 -0.1227 -0.8828 -0.7101
 1595SOL     OW16243   1.583   4.672   2.035  0.2137  0.0776  0.1104
 1595SOL    HW116244   1.626   4.597   1.994 -1.3413 -0.8948  0.2444
 1595SOL    HW216245   1.576   4.648   2.127 -2.7153  1.5370  0.2837
 1596SOL     OW16246   2.517   3.145   2.147 -0.3948 -0.0866  0.4367
 1596SOL    HW116247   2.536   3.195   2.226 -0.2762  0.3375  0.1420
 1596SOL    HW216248   2.485   3.217   2.093  2.2637  1.6907  1.2685
 1597SOL     OW16249   3.293   0.893   5.840  0.0037  0.1547 -0.8885
 1597SOL    HW116250   3.356   0.836   5.883 -1.0615 -0.4421 -0.1344
 1597SOL    HW216251   3.225   0.911   5.904 -0.7498  3.0391 -2.4880
 1598SOL     OW16252   2.886   3.544  15.208 -0.6035  0.4391 -0.2980
 1598SOL    HW116253   2.937   3.509  15.281 -1.1252  1.7666  0.6949
 1598SOL    HW216254   2.877   3.469  15.148 -0.1100 -0.7556  1.1029
 1599SOL     OW16255   0.111   0.845   8.659  0.4987  0.0166 -0.3818
 1599SOL    HW116256   0.200   0.867   8.687  0.4153 -1.1892  0.8871
 1599SOL    HW216257   0.087   0.787   8.732  1.7634  1.6338  1.3010
 1600SOL     OW16258   2.217   1.880  10.436  0.0628 -0.4983  0.2001
 1600SOL    HW116259   2.123   1.892  10.430  0.3852  1.1482 -1.4922
 1600SOL    HW216260   2.220   1.790  10.402  2.0449 -0.5866  0.5757
 1601SOL     OW16261   3.628   4.387   4.956 -0.2513 -0.6686  0.1220
 1601SOL    HW116262   3.537   4.357   4.956  0.2960 -2.3654  0.2500
 1601SOL    HW216263   3.660   4.357   4.871 -0.7518 -0.8281 -0.0072
 1602SOL     OW16264   3.589   1.445  14.345  0.0703  0.1232 -0.2872
 1602SOL    HW116265   3.587   1.507  14.417  0.0015 -3.2196  2.5671
 1602SOL    HW216266   3.506   1.406  14.372  0.4550  0.1198  0.8863
 1603SOL     OW16267   0.184   1.089   1.382 -0.1035  0.8465 -0.1824
 1603SOL    HW116268   0.190   1.138   1.300 -1.1668 -1.4281 -1.6394
 1603SOL    HW216269   0.089   1.080   1.381 -0.1917  1.6740  1.5579
 1604SOL     OW16270   1.639   2.917  17.208  0.4260  0.0788 -0.3011
 1604SOL    HW116271   1.622   2.997  17.159  0.7869  0.3035 -0.0645
 1604SOL    HW216272   1.626   2.951  17.297 -0.3599  2.4865 -1.3358
 1605SOL     OW16273   2.163   1.921  15.423 -0.3649  0.2107 -0.0305
 1605SOL    HW116274   2.068   1.919  15.409 -0.5090  1.9473  0.5720
 1605SOL    HW216275   2.205   1.921  15.338 -1.0256  0.2772 -0.3553
 1606SOL     OW16276   1.071   0.955   5.882  0.5133 -0.0173 -0.0971
 1606SOL    HW116277   1.104   0.897   5.813  0.7672  1.5198 -1.2446
 1606SOL    HW216278   1.060   0.885   5.947  1.9943  0.2825  0.4798
 1607SOL     OW16279   2.831   2.811  15.255 -0.6364  0.1599  0.0186
 1607SOL    HW116280   2.832   2.888  15.197  2.7097 -0.2816 -0.5420
 1607SOL    HW216281   2.783   2.847  15.329 -1.4269  0.8019 -0.8059
 1608SOL     OW16282   0.612   1.981  17.598  0.4781  0.2521 -0.8529
 1608SOL    HW116283   0.655   2.040  17.661  0.6106  0.7993 -1.4487
 1608SOL    HW216284   0.599   1.899  17.646  1.5881 -0.5175 -1.8694
 1609SOL     OW16285   0.866   2.975   3.450 -0.0030 -0.2641  0.0594
 1609SOL    HW116286   0.845   2.897   3.399  1.3306  0.5267 -1.7060
 1609SOL    HW216287   0.939   2.954   3.508  0.4174 -1.3366 -0.8406
 1610SOL     OW16288   4.054   1.073   8.926 -0.4415 -0.0604  0.2126
 1610SOL    HW116289   4.045   0.979   8.908 -2.7180 -0.0962  1.5427
 1610SOL    HW216290   4.021   1.072   9.016 -0.7347 -0.1443  0.1045
 1611SOL     OW16291   4.456   0.910   2.394 -0.2834 -0.3032 -0.1909
 1611SOL    HW116292   4.540   0.953   2.412 -0.8784  1.2530 -1.1334
 1611SOL    HW216293   4.485   0.822   2.373  0.2496 -0.0798 -0.4029
 1612SOL     OW16294   2.879   2.018   1.231 -0.4193 -0.7057 -0.0636
 1612SOL    HW116295   2.897   1.984   1.318 -1.2320 -1.1750 -0.0830
 1612SOL    HW216296   2.787   2.043   1.240 -0.6668 -1.0430 -1.7125
 1613SOL     OW16297   3.323   0.108  16.402  0.3250  0.4587  0.0497
 1613SOL    HW116298   3.333   0.186  16.349  2.2564  0.3793  0.2680
 1613SOL    HW216299   3.228   0.101  16.409  0.4787 -0.0691  1.8686
 1614SOL     OW16300   1.846   1.318   9.645 -0.2700  0.3337  0.5848
 1614SOL    HW116301   1.791   1.259   9.697 -0.3812 -1.7957 -1.9561
 1614SOL    HW216302   1.804   1.402   9.664 -0.6428  0.2154  0.2941
 1615SOL     OW16303   0.836   3.959   8.812 -0.1495  0.1512  0.3271
 1615SOL    HW116304   0.754   3.990   8.852 -0.3363 -0.0741  0.1130
 1615SOL    HW216305   0.805   3.873   8.784 -0.1949  0.3584 -0.2518
 1616SOL     OW16306   0.966   2.239   2.042  1.0792  0.3165  0.8957
 1616SOL    HW116307   1.033   2.266   1.979 -0.0665 -0.4594 -0.6545
 1616SOL    HW216308   0.997   2.148   2.047  2.2146  0.6187 -0.5589
 1617SOL     OW16309   0.247   3.680   4.060  0.2649 -0.2027  0.3521
 1617SOL    HW116310   0.165   3.635   4.082 -0.0125  1.1143  1.9966
 1617SOL    HW216311   0.300   3.602   4.043 -0.7666 -0.3498 -2.1754
 1618SOL     OW16312   3.261   0.523   5.477  0.1065  0.7864  0.5764
 1618SOL    HW116313   3.273   0.581   5.552 -1.8490 -1.9472  2.9721
 1618SOL    HW216314   3.189   0.561   5.427  0.4438  0.7586  0.0662
 1619SOL     OW16315   1.840   1.069   4.756  0.1526  0.9364  0.4927
 1619SOL    HW116316   1.756   1.114   4.761 -1.0716 -1.2920 -0.2646
 1619SOL    HW216317   1.818   0.979   4.776  2.6864  0.2387  0.2172
 1620SOL     OW16318   2.900   3.520   4.160  0.0180 -0.4822 -0.0709
 1620SOL    HW116319   2.933   3.602   4.197  0.9245 -1.0151  0.3004
 1620SOL    HW216320   2.805   3.534   4.160  0.6247  3.6113  0.9930
 1621SOL     OW16321   3.186   2.276   7.677  0.5806  0.3033  0.1941
 1621SOL    HW116322   3.168   2.268   7.583  1.5468 -0.0769  0.0356
 1621SOL    HW216323   3.154   2.188   7.697  1.6465  0.1111  1.0537
 1622SOL     OW16324   1.534   3.920   4.978 -0.0642 -0.5616 -0.3747
 1622SOL    HW116325   1.497   4.007   4.990  2.0597  0.4777 -1.4541
 1622SOL    HW216326   1.513   3.903   4.886 -2.2035  1.0936 -0.1874
 1623SOL     OW16327   2.524   2.395   7.869  0.9314  0.0449  0.1722
 1623SOL    HW116328   2.486   2.394   7.781 -1.1094  0.1159  1.0627
 1623SOL    HW216329   2.548   2.303   7.880 -2.1864 -0.2544  4.3322
 1624SOL     OW16330   2.543   1.819   8.174  0.3623  0.2614  0.1439
 1624SOL    HW116331   2.479   1.802   8.243  1.2919  0.7568  1.1392
 1624SOL    HW216332   2.590   1.880   8.231  2.2620 -0.4703 -0.6319
 1625SOL     OW16333   4.365   3.626   4.278 -0.1097 -0.4342 -0.1048
 1625SOL    HW116334   4.313   3.575   4.340 -0.9248 -0.6464 -0.9618
 1625SOL    HW216335   4.453   3.604   4.309  0.4790 -1.2426 -2.3538
 1626SOL     OW16336   0.120   0.978   6.622  0.6713  0.3171  0.1911
 1626SOL    HW116337   0.215   0.974   6.607  0.4524 -3.2581 -0.3494
 1626SOL    HW216338   0.120   0.967   6.717  2.4699 -1.1873  0.0276
 1627SOL     OW16339   3.254   1.795   7.885  0.6154 -0.4992  0.4434
 1627SOL    HW116340   3.215   1.722   7.933 -0.9464 -0.4412 -0.7265
 1627SOL    HW216341   3.332   1.815   7.936  0.1838 -1.8045  1.6184
 1628SOL     OW16342   4.155   4.160   6.927  0.0537 -0.2387 -0.3806
 1628SOL    HW116343   4.120   4.123   6.847  0.3795 -2.3404  0.4540
 1628SOL    HW216344   4.083   4.146   6.988 -0.0558 -0.3511 -0.5392
 1629SOL     OW16345   3.624   4.384   6.628 -0.0990  0.2581 -0.2863
 1629SOL    HW116346   3.578   4.388   6.712  1.3558 -2.9731  0.6692
 1629SOL    HW216347   3.714   4.386   6.662  1.4474 -1.7767 -4.1891
 1630SOL     OW16348   1.754   0.056  16.228  0.1143 -0.2846 -0.7038
 1630SOL    HW116349   1.775   0.143  16.192 -1.9768 -0.0019 -1.2138
 1630SOL    HW216350   1.817   0.050  16.300 -0.7333  0.3909  0.0904
 1631SOL     OW16351   1.910   4.307   8.542  1.0501  0.4859  0.7017
 1631SOL    HW116352   1.835   4.303   8.601  1.7147 -0.3132  1.4731
 1631SOL    HW216353   1.962   4.238   8.582  0.9048  1.0539  1.8694
 1632SOL     OW16354   0.866   1.031   0.418 -0.5265  0.5986 -0.0556
 1632SOL    HW116355   0.879   0.968   0.489 -0.3537  0.7265  0.0260
 1632SOL    HW216356   0.883   0.970   0.346 -2.2546 -1.7020  1.4657
 1633SOL     OW16357   4.112   2.826   2.317 -0.1422  0.3560  0.1875
 1633SOL    HW116358   4.136   2.748   2.267  1.6345  0.6626  0.5882
 1633SOL    HW216359   4.018   2.820   2.296  0.2120 -2.8414 -0.5018
 1634SOL     OW16360   1.857   2.233   3.925 -0.0329  0.2648  0.4053
 1634SOL    HW116361   1.790   2.178   3.966  1.0657 -1.5860 -0.2899
 1634SOL    HW216362   1.798   2.296   3.882  1.0764  1.3419  0.4716
 1635SOL     OW16363   0.073   2.190   2.713 -0.3297  0.1447 -0.0009
 1635SOL    HW116364   0.041   2.176   2.624 -1.0728  0.4700  0.2210
 1635SOL    HW216365   0.039   2.277   2.735 -0.1863  0.4909 -1.1443
 1636SOL     OW16366   3.797   1.820   5.652 -0.3193  0.1500  0.3746
 1636SOL    HW116367   3.810   1.726   5.658 -1.0218  0.1188  1.3762
 1636SOL    HW216368   3.840   1.846   5.570 -1.0864  1.3766  0.3707
 1637SOL     OW16369   0.873   1.420  10.703  0.1500  0.3854  0.4985
 1637SOL    HW116370   0.809   1.383  10.643  0.3007  0.8633  0.0485
 1637SOL    HW216371   0.879   1.349  10.768  0.7587  0.5950  0.6728
 1638SOL     OW16372   4.482   2.688  16.623 -0.2650 -0.3093  0.1483
 1638SOL    HW116373   4.521   2.600  16.623  0.0474 -0.1736 -1.7565
 1638SOL    HW216374   4.513   2.724  16.707 -0.8513  1.0775 -0.2319
 1639SOL     OW16375   0.923   1.118   1.957  0.2528 -0.4895 -0.5534
 1639SOL    HW116376   0.948   1.056   2.026  1.2753  1.6239  0.9624
 1639SOL    HW216377   0.838   1.146   1.990 -0.3052 -2.6624 -0.1045
 1640SOL     OW16378   0.849   4.703   4.276 -0.2750 -0.2533  0.3002
 1640SOL    HW116379   0.906   4.634   4.309  0.1835  0.3396  0.7358
 1640SOL    HW216380   0.845   4.687   4.181 -1.4342  0.8036  0.1714
 1641SOL     OW16381   4.070   3.842   5.207  0.0297  0.2451 -0.0374
 1641SOL    HW116382   4.149   3.880   5.169  0.0655  1.1163  0.9141
 1641SOL    HW216383   4.027   3.926   5.222 -0.2922 -0.1207  1.0811
 1642SOL     OW16384   4.633   1.671   6.814  0.0842  0.1433 -0.2948
 1642SOL    HW116385   4.657   1.661   6.906 -0.2060 -1.1404 -0.3522
 1642SOL    HW216386   4.546   1.631   6.820 -0.8600  2.5920  2.1336
 1643SOL     OW16387   0.743   2.609   8.874 -0.4890 -0.0120  0.0567
 1643SOL    HW116388   0.650   2.630   8.885 -0.5357 -1.2775  2.0087
 1643SOL    HW216389   0.779   2.693   8.901 -1.2293  0.5427 -0.6831
 1644SOL     OW16390   2.397   1.834  12.194  0.1303  0.1331 -0.0650
 1644SOL    HW116391   2.467   1.862  12.253 -1.3423 -0.4085  1.9372
 1644SOL    HW216392   2.419   1.876  12.111 -0.4690  0.7066  0.0620
 1645SOL     OW16393   1.050   2.493   6.195 -0.1127 -0.2200  0.7894
 1645SOL    HW116394   1.098   2.445   6.127  1.5041 -0.3426  2.0257
 1645SOL    HW216395   0.968   2.507   6.148  0.3287 -3.4728 -0.9335
 1646SOL     OW16396   1.208   1.852   2.473  0.1081 -0.3652  0.1308
 1646SOL    HW116397   1.117   1.822   2.477 -0.5588  1.5891 -0.6489
 1646SOL    HW216398   1.217   1.888   2.562  1.1325  1.0551 -0.5496
 1647SOL     OW16399   1.210   0.921   2.424 -0.4601  0.6540  0.8200
 1647SOL    HW116400   1.251   0.953   2.343  1.7259 -0.9546  1.2557
 1647SOL    HW216401   1.269   0.849   2.450 -2.2486 -0.8208  0.7844
 1648SOL     OW16402   2.124   0.250   0.286 -0.3267 -0.4799  0.2897
 1648SOL    HW116403   2.089   0.312   0.350  0.0172  0.9332 -0.9205
 1648SOL    HW216404   2.182   0.304   0.232  0.1854 -1.9532 -0.6304
 1649SOL     OW16405   4.098   2.763   8.729  0.0122  0.1882  0.2052
 1649SOL    HW116406   4.047   2.682   8.721  0.8669 -0.3966  0.5800
 1649SOL    HW216407   4.108   2.755   8.824 -0.3410  1.0973  0.3189
 1650SOL     OW16408   1.168   0.451  13.410  0.0327 -0.6649 -0.2883
 1650SOL    HW116409   1.074   0.456  13.425  0.1060  1.9441 -0.7298
 1650SOL    HW216410   1.190   0.373  13.463 -0.3221 -2.8882 -3.4104
 1651SOL     OW16411   3.119   4.251   6.332 -0.1609 -0.0448  0.5781
 1651SOL    HW116412   3.048   4.263   6.395  0.6063  1.0384  1.2360
 1651SOL    HW216413   3.174   4.179   6.362  0.4345 -0.2033 -0.8765
 1652SOL     OW16414   4.275   0.458   5.093 -0.7072  0.2266  0.4763
 1652SOL    HW116415   4.307   0.368   5.081 -1.1834 -0.0942  1.5593
 1652SOL    HW216416   4.355   0.507   5.113 -0.2892 -0.4469  0.4706
 1653SOL     OW16417   3.174   2.778   6.227 -0.4846  0.2291  0.5148
 1653SOL    HW116418   3.114   2.852   6.238  0.3076  0.7517  1.3667
 1653SOL    HW216419   3.256   2.811   6.264 -0.9463  1.0507  0.8148
 1654SOL     OW16420   4.069   1.444  13.916 -0.1183 -0.4576  0.0926
 1654SOL    HW116421   4.052   1.387  13.991  1.7468 -1.4466 -0.2428
 1654SOL    HW216422   3.985   1.438  13.870 -0.3411  2.3900  0.1204
 1655SOL     OW16423   4.425   4.204   7.403  0.1955  0.0856 -0.3031
 1655SOL    HW116424   4.419   4.250   7.320  0.4727  0.2843 -0.2117
 1655SOL    HW216425   4.333   4.203   7.430  0.2595 -1.5589 -0.1312
 1656SOL     OW16426   1.523   4.684   7.488  0.0369 -0.0981 -0.1762
 1656SOL    HW116427   1.466   0.021   7.535 -2.0702 -0.5637 -2.1340
 1656SOL    HW216428   1.532   0.014   7.410  3.8753 -0.7841 -0.2338
 1657SOL     OW16429   0.147   4.605   6.184  0.3358 -0.3335  0.7979
 1657SOL    HW116430   0.242   4.609   6.169 -0.2328 -0.2283 -2.6973
 1657SOL    HW216431   0.120   4.634   6.097  1.8884  1.3330  0.8578
 1658SOL     OW16432   2.320   3.548  16.498 -0.1060 -0.0025 -0.1171
 1658SOL    HW116433   2.372   3.586  16.569 -2.5176  1.7536  0.6798
 1658SOL    HW216434   2.378   3.476  16.470 -1.6256 -1.5708  0.7423
 1659SOL     OW16435   0.506   2.584   4.670 -0.2267 -1.1641 -0.0489
 1659SOL    HW116436   0.430   2.642   4.667 -1.1119 -2.4135 -2.0858
 1659SOL    HW216437   0.467   2.531   4.740  1.0904 -2.3287 -0.1969
 1660SOL     OW16438   3.747   0.180   7.926  0.1149 -0.4592 -0.3489
 1660SOL    HW116439   3.665   0.225   7.947  0.4803 -0.8434  1.8979
 1660SOL    HW216440   3.787   0.247   7.870  0.6705 -0.5491 -0.0625
 1661SOL     OW16441   3.544   2.302   0.781  0.1771  0.1284  0.5599
 1661SOL    HW116442   3.640   2.292   0.783  0.0369 -0.6906  3.3300
 1661SOL    HW216443   3.516   2.214   0.759 -2.2635  1.3862 -1.3885
 1662SOL     OW16444   2.629   1.712   1.050 -0.1653  0.0321  0.9405
 1662SOL    HW116445   2.589   1.798   1.056 -1.8567 -0.5561 -1.9931
 1662SOL    HW216446   2.681   1.701   1.130 -0.5198 -0.0681  1.1558
 1663SOL     OW16447   4.073   1.797  11.215  0.1107 -0.3673  0.1391
 1663SOL    HW116448   4.160   1.817  11.249 -0.9807  1.4979  1.8850
 1663SOL    HW216449   4.013   1.863  11.253  0.8827  1.3561 -1.6377
 1664SOL     OW16450   2.051   2.937  15.733  0.5587  0.2557 -0.0457
 1664SOL    HW116451   2.036   2.861  15.789  1.5244  0.8615  1.0344
 1664SOL    HW216452   2.002   2.909  15.655 -1.3166 -1.1030  1.6285
 1665SOL     OW16453   1.234   1.437   9.191  0.2459  0.0707 -0.3401
 1665SOL    HW116454   1.265   1.508   9.248  0.5173 -0.8958  0.7206
 1665SOL    HW216455   1.188   1.384   9.256 -2.7374  1.3329 -1.4134
 1666SOL     OW16456   2.161   4.033   5.712  0.2477  0.8070  0.1188
 1666SOL    HW116457   2.252   4.050   5.687 -0.3694  0.9582 -2.0636
 1666SOL    HW216458   2.184   3.960   5.769 -2.8050  0.2720  0.6512
 1667SOL     OW16459   2.885   0.661   2.713  0.4226  0.4078 -0.1747
 1667SOL    HW116460   2.829   0.651   2.636  0.7282  0.2310 -0.3744
 1667SOL    HW216461   2.847   0.592   2.767 -0.7105 -0.0071 -1.4973
 1668SOL     OW16462   1.389   3.708   8.643  0.9733  0.4102  0.1996
 1668SOL    HW116463   1.465   3.754   8.677  1.8793  0.1882 -1.5163
 1668SOL    HW216464   1.440   3.647   8.590  0.2051  3.1074 -3.6347
 1669SOL     OW16465   2.914   3.877   3.718  0.8883  0.1153 -0.1872
 1669SOL    HW116466   2.893   3.818   3.646 -0.1885 -1.1641  1.2072
 1669SOL    HW216467   2.837   3.933   3.723  1.0150  0.3810 -1.1731
 1670SOL     OW16468   4.603   0.956   2.705 -0.5395 -0.2795  0.4157
 1670SOL    HW116469   4.662   0.939   2.632  2.6660 -0.5309  3.0715
 1670SOL    HW216470   4.639   1.041   2.732  0.4492 -0.7713  0.6311
 1671SOL     OW16471   2.205   4.132   3.517  0.3126 -0.5270 -0.0227
 1671SOL    HW116472   2.120   4.166   3.543  0.9224  2.1234 -1.5124
 1671SOL    HW216473   2.256   4.137   3.598  1.3311  1.8395 -0.8031
 1672SOL     OW16474   0.568   4.316   5.398  0.1051  0.2069 -0.2685
 1672SOL    HW116475   0.487   4.306   5.349  0.2798  1.5856 -0.8402
 1672SOL    HW216476   0.554   4.378   5.469  1.6147 -0.0926  0.3115
 1673SOL     OW16477   2.072   2.512   1.481  0.7681 -0.0534 -0.8951
 1673SOL    HW116478   2.108   2.487   1.567  1.1369  0.0351 -1.0239
 1673SOL    HW216479   2.056   2.603   1.504  0.6207 -0.3479  0.2180
 1674SOL     OW16480   1.877   4.039  11.246 -0.2869  0.3023 -0.1628
 1674SOL    HW116481   1.878   4.121  11.296  0.8276 -0.6294  1.3329
 1674SOL    HW216482   1.815   4.059  11.177 -1.1325  1.5205  0.9471
 1675SOL     OW16483   2.830   1.319   2.197 -0.3184 -0.4465 -0.0957
 1675SOL    HW116484   2.830   1.314   2.292 -1.2334 -1.2160 -0.1354
 1675SOL    HW216485   2.925   1.317   2.182 -0.4267  0.5668 -0.9275
 1676SOL     OW16486   2.207   3.045   6.654 -0.7897  0.3772 -0.0065
 1676SOL    HW116487   2.246   2.990   6.722 -3.9941 -2.7091 -0.6858
 1676SOL    HW216488   2.146   3.088   6.713  0.7278  1.0203  1.0992
 1677SOL     OW16489   4.050   3.887   3.923 -0.0635 -0.1304 -0.0684
 1677SOL    HW116490   4.085   3.872   4.011  0.6322  0.8216 -0.1842
 1677SOL    HW216491   4.128   3.895   3.868 -0.8524 -0.0908 -1.1744
 1678SOL     OW16492   3.891   3.075   6.137 -0.2462 -0.4712  0.6001
 1678SOL    HW116493   3.838   3.122   6.202 -0.8816 -1.5046  0.8221
 1678SOL    HW216494   3.915   3.002   6.194  1.2804 -0.3266  0.1497
 1679SOL     OW16495   2.757   3.171   3.995 -0.1940 -0.8432  0.1484
 1679SOL    HW116496   2.834   3.212   3.955  0.5311 -1.8309  0.5392
 1679SOL    HW216497   2.784   3.132   4.077  0.6092  0.2088  0.3804
 1680SOL     OW16498   1.779   3.194   4.654  0.1905  0.3692 -0.2477
 1680SOL    HW116499   1.853   3.140   4.626 -0.0870  1.1597 -2.5230
 1680SOL    HW216500   1.780   3.190   4.750 -2.1221  0.3205 -0.2178
 1681SOL     OW16501   1.228   1.527   8.632 -0.2400  0.1308  0.2521
 1681SOL    HW116502   1.200   1.440   8.662  1.3848 -0.5788 -0.2431
 1681SOL    HW216503   1.227   1.525   8.537 -2.1496 -1.0942  0.3055
 1682SOL     OW16504   4.442   4.652   6.454 -0.1673  0.0034  0.0240
 1682SOL    HW116505   4.525   4.696   6.435 -0.3633  0.9009  1.2556
 1682SOL    HW216506   4.456   4.568   6.410 -0.3400  0.2694 -0.5444
 1683SOL     OW16507   4.196   2.433   9.146  0.1361  0.0311  0.1418
 1683SOL    HW116508   4.203   2.514   9.095 -0.2023  0.0707  0.1579
 1683SOL    HW216509   4.279   2.429   9.192  0.7007 -1.2305 -0.9765
 1684SOL     OW16510   4.031   2.814   7.148  0.0779 -0.0578 -0.1166
 1684SOL    HW116511   3.953   2.842   7.196 -0.0434  0.6915 -0.7484
 1684SOL    HW216512   3.994   2.749   7.089 -0.4729 -0.4240  0.6340
 1685SOL     OW16513   4.190   0.047  12.540  0.1691  0.1793 -0.5511
 1685SOL    HW116514   4.209   0.022  12.631  1.7871 -1.3224 -1.3121
 1685SOL    HW216515   4.197   4.686  12.497  0.7457 -0.5536  0.9840
 1686SOL     OW16516   4.547   0.271  15.595 -0.3183 -0.1380 -0.1081
 1686SOL    HW116517   4.599   0.215  15.653  0.9993  1.7668  0.5557
 1686SOL    HW216518   4.517   0.200  15.537  2.1248 -1.6993  0.5175
 1687SOL     OW16519   1.237   3.945  10.248  0.1700 -0.2165  0.1812
 1687SOL    HW116520   1.209   4.002  10.319 -2.5787  1.5761 -2.3018
 1687SOL    HW216521   1.328   3.926  10.270 -0.4474 -0.2112  2.7470
 1688SOL     OW16522   2.372   3.678   7.463 -0.0037 -0.1546  0.0590
 1688SOL    HW116523   2.279   3.683   7.484 -0.1923 -1.2806 -0.5384
 1688SOL    HW216524   2.409   3.735   7.531 -2.8894  1.1471  0.5076
 1689SOL     OW16525   3.238   1.425   8.472 -0.8573  0.2008 -0.2542
 1689SOL    HW116526   3.200   1.378   8.546  1.1600  1.4202  1.5368
 1689SOL    HW216527   3.256   1.354   8.410  1.4066  0.2706  0.3306
 1690SOL     OW16528   0.305   2.699   4.175  0.2799 -0.7723 -0.2050
 1690SOL    HW116529   0.254   2.627   4.139  0.5425 -1.9201  1.7023
 1690SOL    HW216530   0.368   2.657   4.234 -1.2855 -2.2589  0.4228
 1691SOL     OW16531   3.068   3.030   4.397  0.4146 -0.6822 -0.2505
 1691SOL    HW116532   3.037   3.090   4.465 -1.8193 -0.2562 -1.6562
 1691SOL    HW216533   3.161   3.034   4.422  0.2999  0.6048 -0.0323
 1692SOL     OW16534   4.640   0.058   7.042  0.7206 -0.0651 -0.2066
 1692SOL    HW116535   4.662   0.148   7.065 -1.1836 -0.4021  2.8164
 1692SOL    HW216536   0.002   0.025   7.018  0.2609 -0.3558 -1.5090
 1693SOL     OW16537   3.439   2.776   2.388  0.2121 -0.2415 -0.2753
 1693SOL    HW116538   3.451   2.715   2.461 -1.0198 -0.5481 -0.3254
 1693SOL    HW216539   3.435   2.858   2.436  1.7170  1.0140 -2.2904
 1694SOL     OW16540   1.078   3.674  11.861 -0.3371  0.2163  0.0115
 1694SOL    HW116541   1.093   3.581  11.845 -1.4626  0.2278 -1.0614
 1694SOL    HW216542   1.003   3.675  11.921 -0.6926 -3.6704 -0.3283
 1695SOL     OW16543   2.266   0.405   2.626 -0.0639 -0.0271 -0.4363
 1695SOL    HW116544   2.275   0.317   2.587  3.7816 -0.6609  1.9293
 1695SOL    HW216545   2.257   0.456   2.545  1.6643  0.6708 -0.1692
 1696SOL     OW16546   3.769   0.652  12.881 -0.1142  0.0188 -0.1637
 1696SOL    HW116547   3.766   0.559  12.900  0.7863 -0.3330 -1.7139
 1696SOL    HW216548   3.682   0.679  12.910  0.9597  1.4459  1.7205
 1697SOL     OW16549   1.129   1.885   6.184  0.6248 -0.0978  0.4361
 1697SOL    HW116550   1.165   1.913   6.100  2.0217  0.6561  1.2938
 1697SOL    HW216551   1.095   1.797   6.163 -1.4289  0.9869 -0.7994
 1698SOL     OW16552   0.296   0.814  10.526  0.6900  0.2529 -0.0977
 1698SOL    HW116553   0.348   0.819  10.606 -0.0549 -2.4003  0.5567
 1698SOL    HW216554   0.327   0.899  10.496  2.0196 -0.1042  0.2642
 1699SOL     OW16555   2.936   4.599   3.205  0.2114 -0.2534  0.2615
 1699SOL    HW116556   3.027   4.571   3.204  0.5618  0.8577  0.2287
 1699SOL    HW216557   2.896   4.542   3.270  0.3043 -1.2095 -0.5315
 1700SOL     OW16558   2.794   2.509   1.095 -0.0463  0.5623  0.2250
 1700SOL    HW116559   2.829   2.420   1.094  2.4232  1.5248  0.5504
 1700SOL    HW216560   2.822   2.547   1.012 -0.0639 -1.1551 -0.5472
 1701SOL     OW16561   2.028   1.058   3.237  0.0783  0.2671  0.4009
 1701SOL    HW116562   1.944   1.103   3.234 -0.5834 -0.9383  0.5969
 1701SOL    HW216563   1.994   0.974   3.205 -0.9306  1.2783 -1.1482
 1702SOL     OW16564   3.958   4.007  14.950  0.0530 -0.0822 -0.4263
 1702SOL    HW116565   3.874   4.025  14.992  1.2454 -0.3607  2.0451
 1702SOL    HW216566   3.923   3.951  14.881  1.4037 -1.1217 -0.2719
 1703SOL     OW16567   2.223   1.872   3.556 -0.9596 -0.1889 -0.0239
 1703SOL    HW116568   2.193   1.903   3.470 -2.3710  0.6490  0.7768
 1703SOL    HW216569   2.192   1.782   3.553 -0.9641 -0.1713 -0.6403
 1704SOL     OW16570   4.258   2.459   9.661 -0.0281 -0.6512  0.5318
 1704SOL    HW116571   4.345   2.429   9.689  0.5318 -0.7519 -1.3134
 1704SOL    HW216572   4.203   2.388   9.696 -1.6664 -0.1240 -0.9556
 1705SOL     OW16573   1.336   1.531   3.137  0.0284  0.1181  0.3639
 1705SOL    HW116574   1.416   1.483   3.114  0.6635  1.9234 -1.2015
 1705SOL    HW216575   1.330   1.520   3.232  2.8680  1.6168  0.7121
 1706SOL     OW16576   3.777   1.643   3.896  0.1747 -0.4034  0.1093
 1706SOL    HW116577   3.700   1.700   3.886  0.4615  0.3017  1.8812
 1706SOL    HW216578   3.827   1.643   3.815  1.6073  0.3408  1.0002
 1707SOL     OW16579   3.394   3.232  12.803  0.0544  0.1790 -0.1030
 1707SOL    HW116580   3.421   3.201  12.890 -0.6682 -2.3105 -0.7585
 1707SOL    HW216581   3.310   3.269  12.832  0.9541  1.8435  0.3291
 1708SOL     OW16582   3.062   2.571  12.458  0.3263  0.8639 -0.2221
 1708SOL    HW116583   3.066   2.501  12.522  1.2230 -0.4391 -1.7205
 1708SOL    HW216584   3.145   2.617  12.474 -0.6541  1.4165  3.2365
 1709SOL     OW16585   1.654   2.953  12.135  0.0424  0.0437 -0.6500
 1709SOL    HW116586   1.579   2.970  12.192  0.6592  2.2460 -0.4785
 1709SOL    HW216587   1.697   3.038  12.130  0.8688 -0.1842  2.4052
 1710SOL     OW16588   1.529   3.880  15.206 -0.1335 -0.1683  0.1325
 1710SOL    HW116589   1.589   3.806  15.215  1.3084  0.7973 -1.5053
 1710SOL    HW216590   1.571   3.921  15.130  0.7903  1.6903  1.6655
 1711SOL     OW16591   0.867   0.488   8.097  0.2254  0.4132  0.0246
 1711SOL    HW116592   0.824   0.403   8.093 -0.2518  0.7012 -0.8541
 1711SOL    HW216593   0.786   0.540   8.100  1.7252  2.8791 -2.0209
 1712SOL     OW16594   0.509   2.502   3.941  0.2431  0.1658 -0.0074
 1712SOL    HW116595   0.579   2.527   4.002  0.8423 -1.4957 -0.0290
 1712SOL    HW216596   0.556   2.501   3.858 -2.4822 -2.7225 -1.4820
 1713SOL     OW16597   3.069   2.093  10.310  0.4774 -0.2850 -0.3454
 1713SOL    HW116598   3.023   2.168  10.273  0.1493 -0.1320  0.3694
 1713SOL    HW216599   3.127   2.059  10.241  0.3557 -0.0015 -0.5888
 1714SOL     OW16600   4.594   4.341   0.197 -0.1039  0.3023 -0.2503
 1714SOL    HW116601   4.670   4.343   0.140  1.3760 -0.0022  1.7039
 1714SOL    HW216602   4.610   4.268   0.256  1.1745 -0.3508 -1.4192
 1715SOL     OW16603   1.236   3.398   4.166  0.3787 -0.5989  0.1042
 1715SOL    HW116604   1.155   3.349   4.177 -0.8524  1.2710 -0.6089
 1715SOL    HW216605   1.294   3.384   4.241 -0.0448 -0.7443  0.4099
 1716SOL     OW16606   1.808   2.406   4.266  0.4772  0.7151  0.6233
 1716SOL    HW116607   1.884   2.389   4.210 -1.1546  0.3436 -1.4927
 1716SOL    HW216608   1.816   2.500   4.283  0.1368  1.3685 -2.8200
 1717SOL     OW16609   1.219   3.496   6.005 -0.3512 -0.0524  0.2105
 1717SOL    HW116610   1.294   3.552   6.022 -1.5159  2.5904 -3.5252
 1717SOL    HW216611   1.258   3.419   5.963 -1.5784 -1.5713  1.8354
 1718SOL     OW16612   3.439   3.840   5.135  0.6966 -0.0187  0.0943
 1718SOL    HW116613   3.484   3.795   5.064 -0.6437 -0.6143 -0.3785
 1718SOL    HW216614   3.503   3.835   5.206  3.5329 -0.3071 -2.5020
 1719SOL     OW16615   4.139   2.807  16.294  0.0334  0.3081 -0.3343
 1719SOL    HW116616   4.136   2.711  16.300  1.3615  0.2983  0.1820
 1719SOL    HW216617   4.051   2.826  16.326  0.3086 -0.8954  1.1742
 1720SOL     OW16618   0.834   2.490   2.555 -0.4402  0.0904 -0.1615
 1720SOL    HW116619   0.909   2.544   2.580 -1.0182 -0.5015  2.9282
 1720SOL    HW216620   0.763   2.545   2.524 -0.6223 -0.3296 -0.4929
 1721SOL     OW16621   2.618   3.636   7.845  0.2588  0.2205 -0.1508
 1721SOL    HW116622   2.613   3.718   7.797 -1.2211 -0.0232 -0.4281
 1721SOL    HW216623   2.578   3.578   7.780 -0.9469 -1.1888  1.8368
 1722SOL     OW16624   1.752   0.034   3.194 -0.6493  0.9825  0.3102
 1722SOL    HW116625   1.847   0.025   3.189 -0.6679  1.0489 -0.1435
 1722SOL    HW216626   1.745   0.129   3.181  0.0852  1.2414  1.7935
 1723SOL     OW16627   1.357   3.175  13.037 -0.6257  0.2404  0.2504
 1723SOL    HW116628   1.298   3.247  13.018 -0.2400  0.4442 -0.1939
 1723SOL    HW216629   1.403   3.207  13.115  2.0614  1.2231 -1.7224
 1724SOL     OW16630   4.213   2.988  15.752  0.1003  0.1440 -0.2543
 1724SOL    HW116631   4.193   3.026  15.838 -2.2232 -3.6142  0.8582
 1724SOL    HW216632   4.300   3.023  15.734  0.4770 -0.1869  0.9326
 1725SOL     OW16633   0.137   1.330  10.126  0.7781 -0.1895 -0.2431
 1725SOL    HW116634   0.185   1.376  10.195  0.7716 -2.6199  1.3905
 1725SOL    HW216635   0.049   1.328  10.163  0.0807  2.4453 -1.7643
 1726SOL     OW16636   0.398   2.120  14.052 -0.2572 -0.0321  0.0838
 1726SOL    HW116637   0.423   2.168  14.131  3.0559 -2.7974  0.7113
 1726SOL    HW216638   0.481   2.129  14.004  0.2740  1.1552  1.2421
 1727SOL     OW16639   1.344   1.566   2.777  0.1565 -0.1362  0.0046
 1727SOL    HW116640   1.256   1.542   2.806 -0.4829  0.8382 -1.0902
 1727SOL    HW216641   1.326   1.547   2.684 -2.7634 -0.9417  0.7175
 1728SOL     OW16642   1.409   0.322   7.175 -0.6343  0.7015  0.0663
 1728SOL    HW116643   1.319   0.343   7.201 -1.0960 -0.0688 -0.9256
 1728SOL    HW216644   1.397   0.323   7.080 -1.4531  1.5535  0.1758
 1729SOL     OW16645   2.576   0.431  15.436  0.7089  0.0438 -0.1839
 1729SOL    HW116646   2.539   0.504  15.386 -1.4423 -1.8444 -1.3147
 1729SOL    HW216647   2.505   0.370  15.416 -1.3972  1.9498  1.4255
 1730SOL     OW16648   0.263   1.543   9.582  0.1203  0.1074  0.2022
 1730SOL    HW116649   0.285   1.554   9.489  0.7244 -3.6829 -0.0864
 1730SOL    HW216650   0.296   1.620   9.628  0.2492 -0.8794  1.7672
 1731SOL     OW16651   2.626   0.210  12.551 -0.3941 -0.5802  0.2985
 1731SOL    HW116652   2.721   0.203  12.554 -0.5126 -0.4032  4.2617
 1731SOL    HW216653   2.598   0.297  12.524  1.5533 -0.1593 -0.3570
 1732SOL     OW16654   2.022   0.780  10.158  0.1307  0.4957  0.1505
 1732SOL    HW116655   2.080   0.705  10.144  2.2972  1.5500  3.6143
 1732SOL    HW216656   2.021   0.827  10.074 -1.6635  0.2220  0.0165
 1733SOL     OW16657   0.233   2.020  11.296 -0.2711 -0.5517  0.0517
 1733SOL    HW116658   0.253   2.028  11.202  1.0308 -1.6451  0.2250
 1733SOL    HW216659   0.256   1.928  11.310  0.6879 -0.5875 -1.6746
 1734SOL     OW16660   3.826   4.310   5.364 -0.0299  0.6128 -0.0488
 1734SOL    HW116661   3.892   4.346   5.424 -0.5956 -0.1267  1.0145
 1734SOL    HW216662   3.741   4.329   5.404  0.6757  1.9159  0.8398
 1735SOL     OW16663   0.144   0.615   0.902  0.3824  0.5393 -0.3170
 1735SOL    HW116664   0.066   0.562   0.885  0.5661  0.3131 -0.4594
 1735SOL    HW216665   0.131   0.680   0.832 -1.0877  2.5791  1.8637
 1736SOL     OW16666   3.159   0.929   6.306  0.5387 -0.3498  0.3424
 1736SOL    HW116667   3.217   0.855   6.287 -0.6880 -1.6542  1.6398
 1736SOL    HW216668   3.129   0.905   6.393 -0.5967  2.1896  0.6429
 1737SOL     OW16669   3.239   0.001   7.846 -0.3760 -0.5343  0.1720
 1737SOL    HW116670   3.251   4.717   7.940 -0.1143 -0.6342  0.1322
 1737SOL    HW216671   3.292   4.652   7.811 -1.6918 -1.6125  0.4225
 1738SOL     OW16672   1.407   0.793  16.174 -0.1221 -0.6345  0.3482
 1738SOL    HW116673   1.370   0.874  16.208 -0.1927  0.5382 -2.5689
 1738SOL    HW216674   1.339   0.738  16.135  0.5893 -0.1813 -1.5165
 1739SOL     OW16675   2.170   2.921  17.012  0.0927 -0.0323  0.2891
 1739SOL    HW116676   2.153   2.852  16.949 -0.8039  1.7409 -1.4157
 1739SOL    HW216677   2.243   2.971  16.976 -1.5520  1.6485 -0.7563
 1740SOL     OW16678   0.706   2.757   8.414  0.0669 -0.2923  0.4101
 1740SOL    HW116679   0.636   2.791   8.470 -0.5646  1.7719 -1.6297
 1740SOL    HW216680   0.719   2.670   8.452  0.4349 -0.5501 -0.3125
 1741SOL     OW16681   2.933   1.998   2.154  0.4629 -0.5576  0.0298
 1741SOL    HW116682   2.980   2.071   2.115 -3.6922  2.2698  0.2483
 1741SOL    HW216683   2.898   1.950   2.078 -1.1864  4.3925 -2.3482
 1742SOL     OW16684   2.496   1.499   3.325 -0.1367  0.4527  0.4087
 1742SOL    HW116685   2.460   1.411   3.324  1.5835 -0.2310 -0.5520
 1742SOL    HW216686   2.555   1.492   3.250 -0.9839 -1.3921 -0.0895
 1743SOL     OW16687   2.185   4.022  15.294  0.0011  0.6018 -0.1183
 1743SOL    HW116688   2.275   3.989  15.292 -0.9182 -1.8950 -0.0766
 1743SOL    HW216689   2.161   3.990  15.381  1.1743  1.3188  0.4624
 1744SOL     OW16690   3.086   1.764   2.683 -0.4333 -0.0307 -0.4541
 1744SOL    HW116691   3.123   1.683   2.648  1.5276  0.1074  1.2855
 1744SOL    HW216692   3.122   1.832   2.626 -0.5408  0.7962  0.4606
 1745SOL     OW16693   0.005   4.357   3.008  0.4439 -0.3119 -0.2691
 1745SOL    HW116694   4.663   4.424   3.024  0.7743 -0.1340  0.3258
 1745SOL    HW216695   0.049   4.364   3.092  1.3705  1.5639 -0.9062
 1746SOL     OW16696   0.317   2.376   2.036 -0.2499 -0.3240 -0.2871
 1746SOL    HW116697   0.243   2.315   2.037 -0.0985 -0.5390 -1.8969
 1746SOL    HW216698   0.298   2.436   1.964 -2.7078  0.7780  1.2716
 1747SOL     OW16699   0.179   3.169   2.689 -0.1181 -0.1860 -0.0119
 1747SOL    HW116700   0.266   3.130   2.699 -0.6201 -1.7632 -1.7525
 1747SOL    HW216701   0.135   3.094   2.650  1.8908  0.0849 -2.7746
 1748SOL     OW16702   3.191   0.421   5.915  0.2035 -0.2351  0.2389
 1748SOL    HW116703   3.287   0.411   5.917  0.1858 -0.1592  1.2480
 1748SOL    HW216704   3.167   0.405   5.824  1.5533  0.7764 -0.3100
 1749SOL     OW16705   1.372   1.640   8.838 -0.1168  0.6674  0.4440
 1749SOL    HW116706   1.310   1.587   8.788  1.3453 -0.7184  0.1174
 1749SOL    HW216707   1.395   1.708   8.774  1.0222 -0.0844  0.0609
 1750SOL     OW16708   0.687   4.342   7.193  0.3748  0.0177  0.2206
 1750SOL    HW116709   0.649   4.258   7.169  1.6505 -0.7887  1.0085
 1750SOL    HW216710   0.742   4.351   7.115  0.6768  0.3419  0.4725
 1751SOL     OW16711   2.225   3.649   2.517  0.4580 -0.4981  0.6180
 1751SOL    HW116712   2.172   3.625   2.441  1.1202  0.0962 -0.0387
 1751SOL    HW216713   2.290   3.701   2.470 -0.4567 -0.3799 -0.5235
 1752SOL     OW16714   4.305   4.671   0.780 -0.1579 -0.2976 -0.1690
 1752SOL    HW116715   4.371   4.719   0.831 -0.0532  0.5315 -1.0862
 1752SOL    HW216716   4.327   4.581   0.807  0.7237 -0.0136  0.0797
 1753SOL     OW16717   2.557   4.130   4.852  0.1331 -0.8717 -0.0938
 1753SOL    HW116718   2.607   4.049   4.864  3.0042  0.8222 -0.4757
 1753SOL    HW216719   2.519   4.122   4.765 -1.2234 -0.5380  0.4736
 1754SOL     OW16720   2.844   1.672   1.856 -0.0201  0.1804  0.3676
 1754SOL    HW116721   2.763   1.710   1.821  0.8730 -0.4768 -2.4407
 1754SOL    HW216722   2.795   1.635   1.929  0.3748 -1.3240 -0.1358
 1755SOL     OW16723   4.577   0.971  12.103 -0.2657  0.4193 -0.4675
 1755SOL    HW116724   4.555   0.934  12.189 -1.2626 -0.3954 -1.0772
 1755SOL    HW216725   4.588   1.062  12.129 -2.8472  0.5886  0.0723
 1756SOL     OW16726   3.075   1.071   2.566 -0.2972 -0.5085  0.1946
 1756SOL    HW116727   3.148   1.092   2.624  0.1767 -1.3015 -0.1187
 1756SOL    HW216728   3.117   1.059   2.481 -0.2484 -3.1635  0.6104
 1757SOL     OW16729   2.948   3.455   1.721 -0.1671  0.5545 -0.1638
 1757SOL    HW116730   2.994   3.446   1.638 -0.7963 -1.3365 -0.3098
 1757SOL    HW216731   2.891   3.531   1.702  0.4242  0.7261 -1.2505
 1758SOL     OW16732   0.520   1.299  10.216 -0.4811  0.0485  0.6287
 1758SOL    HW116733   0.572   1.282  10.137  0.1923 -0.6002  1.2250
 1758SOL    HW216734   0.548   1.390  10.228  0.8534 -0.3130  0.2020
 1759SOL     OW16735   3.144   0.675  16.541 -0.2343  0.5325 -0.3359
 1759SOL    HW116736   3.088   0.730  16.487 -1.3922  1.2665  1.6242
 1759SOL    HW216737   3.078   0.614  16.574  2.1408 -1.9043 -0.1280
 1760SOL     OW16738   3.581   0.984   2.629 -0.5075  0.8221  0.1991
 1760SOL    HW116739   3.616   0.896   2.646  1.3665  1.9197  2.1079
 1760SOL    HW216740   3.584   0.989   2.533 -1.1369  1.5459  0.2219
 1761SOL     OW16741   0.644   4.468   8.234 -0.1838 -0.3447  0.1354
 1761SOL    HW116742   0.627   4.374   8.221 -2.3371  0.2666 -1.4432
 1761SOL    HW216743   0.736   4.481   8.216  0.8187 -3.9188  2.5784
 1762SOL     OW16744   0.657   0.739   3.347 -0.3138 -0.1444 -0.2626
 1762SOL    HW116745   0.726   0.776   3.402 -1.1763 -0.8302  1.2807
 1762SOL    HW216746   0.712   0.673   3.305 -0.3396  0.6407 -1.5284
 1763SOL     OW16747   4.284   1.510   2.177  0.8689 -0.1225  0.1375
 1763SOL    HW116748   4.254   1.577   2.237  1.0806  2.0313 -2.1720
 1763SOL    HW216749   4.345   1.467   2.238  0.1503  0.9609  1.6221
 1764SOL     OW16750   3.920   2.436   2.357  0.4563  0.7160  0.3840
 1764SOL    HW116751   3.944   2.345   2.337  0.1705  1.1196 -1.7781
 1764SOL    HW216752   3.885   2.462   2.272  0.4861 -0.9165 -0.1258
 1765SOL     OW16753   3.639   3.050   3.766 -0.2063  0.0381 -0.2849
 1765SOL    HW116754   3.649   2.970   3.716 -1.7373  0.0213 -0.5794
 1765SOL    HW216755   3.596   3.019   3.846 -0.6139 -3.0013 -1.6834
 1766SOL     OW16756   0.984   0.712   6.879 -0.3563 -0.4366 -0.0532
 1766SOL    HW116757   0.996   0.619   6.862  0.1253  0.0543 -2.3203
 1766SOL    HW216758   0.917   0.708   6.947 -0.0431 -0.5811  0.2484
 1767SOL     OW16759   2.025   1.198   8.656 -0.3409 -0.4714  0.0096
 1767SOL    HW116760   2.100   1.257   8.647  1.9413 -3.5238 -0.6567
 1767SOL    HW216761   2.036   1.158   8.741 -2.1067 -0.8435  0.0547
 1768SOL     OW16762   4.192   3.050   2.451 -0.0386  0.4790 -0.0232
 1768SOL    HW116763   4.269   3.030   2.504 -1.4879 -0.3510  1.7838
 1768SOL    HW216764   4.162   2.965   2.418  0.6043 -0.2370  1.2168
 1769SOL     OW16765   4.444   0.943  10.350 -0.2179  0.6661 -0.6899
 1769SOL    HW116766   4.452   0.927  10.256  0.6702 -0.7321 -0.3752
 1769SOL    HW216767   4.360   0.987  10.362 -0.3768  0.2867 -0.4121
 1770SOL     OW16768   0.229   3.766  11.788 -0.7587  0.2144 -0.1880
 1770SOL    HW116769   0.318   3.794  11.809 -0.9013 -0.1915  0.9303
 1770SOL    HW216770   0.178   3.796  11.863 -1.0227 -0.3555 -0.1353
 1771SOL     OW16771   0.406   1.574   6.758 -0.2786  0.1928 -0.3480
 1771SOL    HW116772   0.374   1.653   6.714 -1.1946 -0.6092 -1.1236
 1771SOL    HW216773   0.495   1.571   6.723  0.7520  0.1929  2.2923
 1772SOL     OW16774   3.803   4.650   7.963  0.2135  0.2181  0.2841
 1772SOL    HW116775   3.801   0.022   7.968  0.1309  0.1403  1.7218
 1772SOL    HW216776   3.790   4.646   7.868  0.5729 -1.6230  0.3106
 1773SOL     OW16777   2.077   2.829   3.944  0.0334  0.1183 -0.1321
 1773SOL    HW116778   2.025   2.761   3.902 -2.0970  0.2217  2.3535
 1773SOL    HW216779   2.165   2.794   3.929 -0.4415 -0.5486 -1.3258
 1774SOL     OW16780   2.873   4.415   9.343 -0.2929 -0.3782  0.6117
 1774SOL    HW116781   2.807   4.361   9.387  0.7963 -2.6170 -0.5092
 1774SOL    HW216782   2.833   4.425   9.257  0.1424  2.2050  0.6978
 1775SOL     OW16783   2.649   1.584   3.763  0.1944  0.6198  0.5928
 1775SOL    HW116784   2.719   1.554   3.706  0.4629  0.3972  1.0366
 1775SOL    HW216785   2.632   1.670   3.725  2.3570  0.2008 -1.3346
 1776SOL     OW16786   2.696   1.075   8.510 -0.1570 -0.1138  0.6553
 1776SOL    HW116787   2.642   1.063   8.431 -2.9829 -0.8768  2.7236
 1776SOL    HW216788   2.781   1.089   8.469 -1.2633  1.0681 -1.3069
 1777SOL     OW16789   0.466   3.814   5.891  0.2958  0.0073 -0.0824
 1777SOL    HW116790   0.391   3.770   5.852  0.2035 -1.1171  1.3567
 1777SOL    HW216791   0.473   3.893   5.837 -2.4389  0.6864  0.5755
 1778SOL     OW16792   3.620   2.069  16.987  0.4855 -0.0092 -0.0769
 1778SOL    HW116793   3.680   2.062  17.061  0.8690  1.0673 -0.2916
 1778SOL    HW216794   3.680   2.118  16.931  0.8690  0.2429  0.5651
 1779SOL     OW16795   1.399   4.506   6.222  0.3080 -0.3794 -0.6815
 1779SOL    HW116796   1.310   4.476   6.207 -0.3406  1.4831 -0.6573
 1779SOL    HW216797   1.407   4.495   6.317  0.5233  0.0905 -0.6427
 1780SOL     OW16798   1.182   2.460  13.239  0.0653 -0.3334  0.1291
 1780SOL    HW116799   1.246   2.529  13.224 -1.4221  1.1403  0.6895
 1780SOL    HW216800   1.243   2.385  13.239 -2.1447 -2.1328  1.2001
 1781SOL     OW16801   2.976   1.676   3.425 -0.3495  0.0346  0.2147
 1781SOL    HW116802   2.966   1.611   3.355  2.2253 -3.1608  2.7955
 1781SOL    HW216803   3.060   1.714   3.396  0.9026 -3.6282 -0.9727
 1782SOL     OW16804   0.272   1.546   3.342  0.5892 -0.3885 -0.1457
 1782SOL    HW116805   0.180   1.560   3.322  0.3940  1.5145  2.0652
 1782SOL    HW216806   0.311   1.600   3.273  0.0732  0.9112  0.5926
 1783SOL     OW16807   1.445   1.397  15.384 -0.7603 -0.1144  0.0970
 1783SOL    HW116808   1.406   1.476  15.421  1.4577  1.3703 -0.7951
 1783SOL    HW216809   1.448   1.332  15.455  1.8552  1.7773  1.7166
 1784SOL     OW16810   4.596   2.914   3.351  0.7668 -0.3504 -0.7271
 1784SOL    HW116811   4.671   2.909   3.292  1.4176  0.1100  0.0664
 1784SOL    HW216812   4.524   2.883   3.296  2.8544 -0.7191 -3.2459
 1785SOL     OW16813   1.964   2.629   8.553 -0.7154  0.6042  0.0275
 1785SOL    HW116814   1.952   2.712   8.599 -0.0267 -0.1444  1.5474
 1785SOL    HW216815   2.006   2.653   8.470 -1.4759  0.6267 -0.3589
 1786SOL     OW16816   1.850   1.770   9.693 -0.4078  0.4857  0.5133
 1786SOL    HW116817   1.847   1.743   9.601 -3.8187 -0.0156  0.7806
 1786SOL    HW216818   1.924   1.830   9.686 -0.6656  0.5810 -1.4420
 1787SOL     OW16819   3.143   0.268   3.460 -0.3417  0.0327  0.1825
 1787SOL    HW116820   3.071   0.275   3.397  0.7688  1.1235 -0.9928
 1787SOL    HW216821   3.100   0.283   3.544 -0.0294  1.3912  0.1090
 1788SOL     OW16822   3.522   2.777   6.006 -0.2661 -0.0705 -0.1291
 1788SOL    HW116823   3.586   2.846   6.018 -1.9340  1.1595  1.7746
 1788SOL    HW216824   3.555   2.723   5.934  0.9435  1.4035 -0.6862
 1789SOL     OW16825   3.556   3.716   5.340 -0.0431 -0.2205 -0.6742
 1789SOL    HW116826   3.470   3.677   5.352  1.2311 -2.4326  1.2489
 1789SOL    HW216827   3.574   3.742   5.431  1.7053 -1.6882 -0.5906
 1790SOL     OW16828   4.548   4.141  12.650  0.2396 -0.5687  0.1751
 1790SOL    HW116829   4.617   4.191  12.606 -0.0327  0.4739  0.9367
 1790SOL    HW216830   4.582   4.052  12.654 -0.6777 -0.9341 -0.0760
 1791SOL     OW16831   0.281   2.999   1.132  0.0172 -0.2838 -0.8748
 1791SOL    HW116832   0.266   3.008   1.226 -0.3562  0.1895 -0.9839
 1791SOL    HW216833   0.241   2.914   1.114  0.4299 -0.4464 -1.0191
 1792SOL     OW16834   0.777   2.313  13.057  0.3693 -0.2217 -0.2340
 1792SOL    HW116835   0.765   2.292  12.965 -0.1935 -2.8083  0.4270
 1792SOL    HW216836   0.708   2.378  13.064 -0.4683 -1.0444 -0.8891
 1793SOL     OW16837   4.386   0.022  15.624 -0.2115  0.4072  0.3736
 1793SOL    HW116838   4.363   0.095  15.681  0.8857  1.6877 -0.8254
 1793SOL    HW216839   4.418   4.684  15.690  0.5163  1.1282  0.7025
 1794SOL     OW16840   0.059   4.166   7.922 -0.4903 -0.1217  0.1345
 1794SOL    HW116841   0.018   4.211   7.996  2.3209  0.2411  1.4743
 1794SOL    HW216842   4.709   4.168   7.862 -0.2499  0.5146 -0.1387
 1795SOL     OW16843   3.088   3.790  11.830  0.0091 -0.1323 -0.2236
 1795SOL    HW116844   3.062   3.736  11.755 -2.6628  0.3873  0.3386
 1795SOL    HW216845   3.109   3.876  11.794  1.5615 -1.0659 -1.5567
 1796SOL     OW16846   1.299   1.500   3.800 -0.1040  0.2687  0.0759
 1796SOL    HW116847   1.363   1.548   3.747  0.0899  0.4583  0.4795
 1796SOL    HW216848   1.320   1.408   3.790 -0.9218 -0.0095  0.8532
 1797SOL     OW16849   0.361   4.210   7.932  0.2705 -0.2694 -0.3781
 1797SOL    HW116850   0.376   4.154   7.856 -1.4632  1.1705 -1.7762
 1797SOL    HW216851   0.426   4.278   7.913 -1.1316  0.8454 -1.1398
 1798SOL     OW16852   4.166   2.636   5.587 -0.0944 -0.2195 -0.8423
 1798SOL    HW116853   4.162   2.658   5.494  1.0638  0.3455 -0.7574
 1798SOL    HW216854   4.106   2.562   5.596 -0.0242 -0.1245  0.4001
 1799SOL     OW16855   0.967   4.397  17.020  0.2625  0.0909 -0.5287
 1799SOL    HW116856   0.983   4.492  17.019 -2.2943  0.5318 -1.2070
 1799SOL    HW216857   1.037   4.363  17.075  0.8848 -0.7183 -1.8095
 1800SOL     OW16858   3.803   4.077   5.620  0.3698  0.4560  0.2259
 1800SOL    HW116859   3.725   4.098   5.568  1.8761 -0.1738 -2.2891
 1800SOL    HW216860   3.758   4.032   5.692 -2.3820 -0.5575 -2.0928
 1801SOL     OW16861   4.165   2.542   6.994 -0.5707  0.8059  0.0029
 1801SOL    HW116862   4.216   2.496   7.061 -1.0892 -1.2893 -1.0334
 1801SOL    HW216863   4.174   2.470   6.932  2.4169  0.2610  1.0979
 1802SOL     OW16864   4.548   1.581   7.616  0.3229 -0.1329 -0.1045
 1802SOL    HW116865   4.609   1.566   7.689 -2.3344 -1.1183  1.8994
 1802SOL    HW216866   4.596   1.642   7.560  0.8347  1.4995  2.1154
 1803SOL     OW16867   3.392   4.011   9.061  0.3732 -0.2021  0.6228
 1803SOL    HW116868   3.415   4.018   9.154  2.4062  0.6559  0.0534
 1803SOL    HW216869   3.381   4.100   9.027 -1.7556 -1.3324 -1.6289
 1804SOL     OW16870   1.327   1.412  10.298 -0.0477 -1.0452 -0.0495
 1804SOL    HW116871   1.342   1.341  10.360  2.1115  0.1377  0.7617
 1804SOL    HW216872   1.321   1.481  10.365 -0.4395  0.2318 -1.3955
 1805SOL     OW16873   4.294   4.156   7.865 -0.2665  0.4852 -0.6163
 1805SOL    HW116874   4.231   4.150   7.793  1.2524  0.8925 -1.9835
 1805SOL    HW216875   4.300   4.251   7.873  0.4188  0.2910  1.1930
 1806SOL     OW16876   2.606   4.109  17.686 -0.4101  0.0992 -0.0970
 1806SOL    HW116877   2.671   4.050  17.648 -0.8022  1.2659 -2.5377
 1806SOL    HW216878   2.615   4.085   0.081 -0.8155  1.0476  0.1933
 1807SOL     OW16879   2.519   0.769  14.331 -0.2407  0.4735  0.1018
 1807SOL    HW116880   2.546   0.861  14.324 -0.6719  0.5270 -0.7513
 1807SOL    HW216881   2.471   0.755  14.250  0.8681 -0.8141 -0.3419
 1808SOL     OW16882   1.135   1.223   5.031  0.0478 -0.2597 -0.1701
 1808SOL    HW116883   1.164   1.312   5.049  2.1011 -1.1120  0.7790
 1808SOL    HW216884   1.046   1.221   5.064  0.5802 -1.0793  1.2370
 1809SOL     OW16885   1.623   1.353   0.013 -0.2894  0.5821  0.1608
 1809SOL    HW116886   1.581   1.269   0.028 -0.2371  0.3854 -0.8144
 1809SOL    HW216887   1.698   1.334  17.655  0.9908  1.5985  1.5289
 1810SOL     OW16888   3.951   2.148   8.931 -0.3677 -0.2274 -0.0712
 1810SOL    HW116889   3.999   2.181   9.006 -0.5694 -0.7981  0.3109
 1810SOL    HW216890   3.994   2.063   8.927  2.3758  1.1923 -0.3937
 1811SOL     OW16891   1.530   3.208   6.044  0.3045  0.6193 -0.4515
 1811SOL    HW116892   1.478   3.269   6.097 -0.5441  0.7221 -1.4142
 1811SOL    HW216893   1.483   3.125   6.054  1.0672  0.2895  0.3763
 1812SOL     OW16894   1.572   3.455   7.421  0.0988  0.2597  0.2280
 1812SOL    HW116895   1.480   3.483   7.412 -0.0825  0.1064  1.6580
 1812SOL    HW216896   1.611   3.536   7.386 -1.1857  1.4156  1.4525
 1813SOL     OW16897   1.701   3.804   3.912  0.6063  0.0288 -0.0442
 1813SOL    HW116898   1.624   3.750   3.928  1.2402 -0.3049  1.8328
 1813SOL    HW216899   1.698   3.869   3.982 -0.2770 -1.4023  1.2262
 1814SOL     OW16900   4.516   4.421   6.342  0.3378  0.6867 -0.2848
 1814SOL    HW116901   4.452   4.349   6.338  0.2225  0.8147 -0.7365
 1814SOL    HW216902   4.599   4.377   6.363 -0.2658  0.3400  1.3558
 1815SOL     OW16903   0.388   2.456   6.413 -0.0595 -0.1084 -0.1044
 1815SOL    HW116904   0.465   2.493   6.371  1.4270 -4.6543 -1.4220
 1815SOL    HW216905   0.322   2.475   6.346  0.8175 -0.9332 -1.2032
 1816SOL     OW16906   2.762   1.416   7.733 -0.6858  0.5972  0.6382
 1816SOL    HW116907   2.823   1.351   7.767 -0.7334 -1.1731 -2.5875
 1816SOL    HW216908   2.816   1.490   7.707 -2.5894  1.9626  0.5372
 1817SOL     OW16909   4.344   1.439   8.961  0.1322  0.0377  0.5114
 1817SOL    HW116910   4.375   1.420   8.873 -1.1367  0.5664 -0.0359
 1817SOL    HW216911   4.257   1.400   8.965 -0.2462  0.8654  0.1135
 1818SOL     OW16912   3.318   2.974   0.327  0.3901 -0.0188 -0.3608
 1818SOL    HW116913   3.365   3.056   0.340  2.0932 -0.9790 -0.5693
 1818SOL    HW216914   3.272   2.981   0.411  1.1992 -0.8194  0.1401
 1819SOL     OW16915   0.036   0.717   4.455 -0.3745 -0.3464 -0.3882
 1819SOL    HW116916   0.058   0.809   4.444 -0.6794 -0.3442 -0.9664
 1819SOL    HW216917   0.060   0.680   4.370 -1.4719 -1.3551 -0.2696
 1820SOL     OW16918   3.667   2.019   5.775 -0.2819  0.1469  0.3287
 1820SOL    HW116919   3.693   1.936   5.735  1.2268  0.6873  0.2160
 1820SOL    HW216920   3.695   2.079   5.706  1.4407 -0.9594  0.0701
 1821SOL     OW16921   1.138   3.922   6.613  1.1266  0.1764 -0.4527
 1821SOL    HW116922   1.174   4.010   6.619  2.5906 -0.5043  0.8759
 1821SOL    HW216923   1.203   3.875   6.665 -0.2167  1.6025  2.5334
 1822SOL     OW16924   4.673   1.303   9.016  0.3161 -0.1414  0.1874
 1822SOL    HW116925   4.678   1.248   8.938  0.4526 -0.5582  0.4955
 1822SOL    HW216926   4.719   1.380   8.982  1.3256 -0.2752  1.2564
 1823SOL     OW16927   0.210   3.741  15.735  0.1976 -0.4892  0.1617
 1823SOL    HW116928   0.186   3.793  15.812 -0.1114 -2.1728  1.2152
 1823SOL    HW216929   0.138   3.679  15.728  0.9069 -1.3796  0.6368
 1824SOL     OW16930   0.750   1.611   0.857  0.1810  0.9893 -0.1189
 1824SOL    HW116931   0.742   1.664   0.937  1.4358  1.0465 -0.0406
 1824SOL    HW216932   0.699   1.665   0.797  1.3107  1.2489 -0.8399
 1825SOL     OW16933   3.584   1.495   3.678  0.9404  0.9399 -0.0626
 1825SOL    HW116934   3.570   1.528   3.767 -2.9114 -2.0279  0.4683
 1825SOL    HW216935   3.643   1.424   3.702  0.1578 -0.1070 -1.2069
 1826SOL     OW16936   4.116   1.558  10.290 -0.2296  0.4288  0.6347
 1826SOL    HW116937   4.030   1.544  10.328 -0.9035 -0.5730 -1.3012
 1826SOL    HW216938   4.146   1.627  10.351 -2.1009  0.1256  1.8982
 1827SOL     OW16939   2.095   4.690  12.768  0.0800  0.2669 -0.0560
 1827SOL    HW116940   2.099   0.001  12.679  0.3198 -0.4793 -0.3373
 1827SOL    HW216941   2.007   4.653  12.772 -0.0099  0.2164 -3.0125
 1828SOL     OW16942   1.493   0.287  11.965  0.0929  0.1844  0.6569
 1828SOL    HW116943   1.473   0.276  11.872  1.0443 -0.2286  0.4940
 1828SOL    HW216944   1.539   0.205  11.984  0.1263 -0.1677 -0.9402
 1829SOL     OW16945   2.819   1.840   7.299  0.0269 -0.2259 -0.3308
 1829SOL    HW116946   2.781   1.915   7.252 -0.2531 -0.1760 -0.0248
 1829SOL    HW216947   2.782   1.848   7.387  1.6724 -0.9435  0.4245
 1830SOL     OW16948   1.791   4.103   1.085  0.1126 -0.4405 -0.0407
 1830SOL    HW116949   1.872   4.054   1.100 -0.2806 -0.7895  0.9826
 1830SOL    HW216950   1.809   4.122   0.993  3.3824 -0.3522  0.6314
 1831SOL     OW16951   3.768   2.860   5.515  0.0745  0.5187  0.0124
 1831SOL    HW116952   3.860   2.888   5.514 -0.0031  0.8315  0.8452
 1831SOL    HW216953   3.722   2.915   5.578 -0.1978  0.2029  0.0891
 1832SOL     OW16954   4.710   0.930   8.285 -0.7167 -0.1025  0.5840
 1832SOL    HW116955   0.003   0.857   8.226  0.4567  0.5787  0.0628
 1832SOL    HW216956   0.005   0.891   8.370  0.5879 -0.4896  0.1102
 1833SOL     OW16957   2.703   3.194  17.692 -0.2395  0.5036 -0.5153
 1833SOL    HW116958   2.620   3.146  17.688  0.3014 -0.4621 -0.3173
 1833SOL    HW216959   2.760   3.123   0.024 -0.0346  1.1582  0.6618
 1834SOL     OW16960   0.790   3.398   1.614 -0.9875 -0.2422 -0.2939
 1834SOL    HW116961   0.870   3.409   1.563 -0.5069 -1.2942  0.2357
 1834SOL    HW216962   0.805   3.329   1.679  0.2333 -0.7644 -1.1455
 1835SOL     OW16963   3.044   1.959   7.102 -0.4657 -0.0532  0.2109
 1835SOL    HW116964   3.055   1.864   7.105 -0.4933 -0.1064 -1.0390
 1835SOL    HW216965   2.949   1.969   7.100 -0.4237  0.3397  0.1165
 1836SOL     OW16966   4.217   0.557   9.090  0.3239  0.0103 -0.2796
 1836SOL    HW116967   4.180   0.637   9.129 -0.6195 -0.6261  0.1369
 1836SOL    HW216968   4.257   0.525   9.171  1.2183 -0.0522 -0.7551
 1837SOL     OW16969   1.346   2.914   2.671 -0.5593 -0.2014  0.3425
 1837SOL    HW116970   1.402   2.922   2.594 -0.4349 -1.2765  0.3158
 1837SOL    HW216971   1.387   2.971   2.736 -0.8215  0.9163 -0.4700
 1838SOL     OW16972   2.698   2.658   7.262  0.2742 -0.3502 -0.2354
 1838SOL    HW116973   2.729   2.606   7.336  4.0316  0.8604 -0.9507
 1838SOL    HW216974   2.772   2.717   7.246 -0.0441  0.5490  1.6599
 1839SOL     OW16975   3.687   2.894  13.461  0.4104 -0.2752  0.3434
 1839SOL    HW116976   3.766   2.870  13.510  1.2235 -0.4650 -1.0912
 1839SOL    HW216977   3.674   2.988  13.474 -2.0195 -0.6934  1.0678
 1840SOL     OW16978   3.935   4.127  17.586 -0.1782 -0.0109  0.2064
 1840SOL    HW116979   3.864   4.191  17.582 -0.3036 -0.2795 -1.7119
 1840SOL    HW216980   3.991   4.154  17.659  1.5204 -1.0945 -0.6999
 1841SOL     OW16981   4.019   4.031   6.742 -0.5262  0.1158 -0.5710
 1841SOL    HW116982   3.992   3.939   6.735  1.0683 -0.5007  1.3043
 1841SOL    HW216983   3.995   4.063   6.655  1.4948  0.2831 -1.0728
 1842SOL     OW16984   2.129   2.355  17.673  0.2396 -0.4557 -0.6322
 1842SOL    HW116985   2.120   2.384   0.066 -0.7473 -2.2794 -0.1482
 1842SOL    HW216986   2.219   2.322  17.681  1.4751  2.8873 -0.6303
 1843SOL     OW16987   0.311   4.305  14.090  0.3561 -0.0877  0.1078
 1843SOL    HW116988   0.321   4.395  14.121  2.4330 -0.9175  1.8236
 1843SOL    HW216989   0.402   4.275  14.086  0.4874  0.3175  0.0842
 1844SOL     OW16990   2.738   0.068   7.100  0.1160 -0.0594  0.0421
 1844SOL    HW116991   2.793   0.145   7.086 -1.2139  0.2265 -3.5895
 1844SOL    HW216992   2.764   0.039   7.188 -0.5063  0.7931  0.5101
 1845SOL     OW16993   3.211   2.335   8.756  0.2463 -0.6434 -0.1620
 1845SOL    HW116994   3.300   2.301   8.748  0.1455 -0.6463 -1.2402
 1845SOL    HW216995   3.217   2.404   8.823  0.3418 -1.3678  0.5702
 1846SOL     OW16996   1.869   1.955  15.672  0.7892 -0.3068  0.3644
 1846SOL    HW116997   1.829   2.041  15.660 -0.8963 -1.1971 -0.4303
 1846SOL    HW216998   1.866   1.924  15.582  0.0584  0.8390 -0.0111
 1847SOL     OW16999   3.188   4.475   5.808  0.4358 -0.4775  0.7257
 1847SOL    HW117000   3.265   4.504   5.760 -1.5823 -0.3322 -2.4396
 1847SOL    HW217001   3.127   4.452   5.738  1.1330 -1.5307  0.4661
 1848SOL     OW17002   4.575   2.944  17.608  0.3957  0.9225  0.1896
 1848SOL    HW117003   4.633   2.904  17.544  2.3718  1.2864  1.7470
 1848SOL    HW217004   4.634   2.985  17.672  0.5959  0.2472  0.4309
 1849SOL     OW17005   4.489   0.791   3.147 -0.0793  0.0410  0.4294
 1849SOL    HW117006   4.529   0.769   3.062  0.8507  0.6365  0.7190
 1849SOL    HW217007   4.503   0.885   3.148  2.2782 -0.2832 -1.2845
 1850SOL     OW17008   0.120   3.826   2.444  0.1067  0.1504  0.1660
 1850SOL    HW117009   0.096   3.742   2.405  1.2240 -0.0333 -0.1136
 1850SOL    HW217010   0.145   3.878   2.367  0.3030  1.1130  0.8707
 1851SOL     OW17011   4.280   2.808  11.091 -0.5504 -0.8417  0.2171
 1851SOL    HW117012   4.199   2.859  11.096  0.3138  0.5627 -0.2198
 1851SOL    HW217013   4.323   2.846  11.014  1.4672 -0.4318  1.5697
 1852SOL     OW17014   3.822   1.265   9.327 -0.3055  0.6998  0.0363
 1852SOL    HW117015   3.866   1.349   9.342 -0.0142  0.9332 -2.1413
 1852SOL    HW217016   3.732   1.280   9.355 -0.6675 -0.8712 -0.2656
 1853SOL     OW17017   0.653   0.804  12.674  0.0299 -0.2224 -0.6829
 1853SOL    HW117018   0.682   0.820  12.584 -2.3447  0.7458 -1.2656
 1853SOL    HW217019   0.743   0.806  12.707 -0.7491 -0.2167  1.4574
 1854SOL     OW17020   0.105   4.697   7.385 -0.1702 -0.1601  0.0891
 1854SOL    HW117021   0.011   4.686   7.371 -0.2591  0.6371  0.0656
 1854SOL    HW217022   0.148   4.648   7.314 -0.3901 -1.5887  0.9402
 1855SOL     OW17023   2.225   0.942   2.470  0.9893  0.4227 -0.6914
 1855SOL    HW117024   2.213   0.875   2.537  1.5712  2.6483  1.6099
 1855SOL    HW217025   2.294   0.899   2.419 -0.2577 -1.8454 -0.5025
 1856SOL     OW17026   0.331   0.579   7.575  0.2603 -0.1402  0.6752
 1856SOL    HW117027   0.419   0.601   7.546 -0.2478  0.5846 -0.2819
 1856SOL    HW217028   0.319   0.642   7.646 -0.1097 -0.0120  0.4963
 1857SOL     OW17029   1.411   2.813   1.926 -0.0742  0.7442  0.4125
 1857SOL    HW117030   1.465   2.737   1.950  2.4499  2.3916 -0.0260
 1857SOL    HW217031   1.339   2.767   1.884 -0.2842  2.0802 -0.6716
 1858SOL     OW17032   1.525   3.586   6.052 -0.0632 -0.0425 -0.0627
 1858SOL    HW117033   1.585   3.519   6.084  0.4696  0.8687  0.8749
 1858SOL    HW217034   1.485   3.618   6.133  1.2431 -0.7863  0.8722
 1859SOL     OW17035   0.931   3.826  10.534 -0.4686 -0.4497  0.3080
 1859SOL    HW117036   1.019   3.827  10.570 -1.1882  0.3491  2.0473
 1859SOL    HW217037   0.927   3.768  10.457 -0.4545  0.8637 -0.6861
 1860SOL     OW17038   3.116   4.627   4.904 -0.4320 -0.4410 -0.0508
 1860SOL    HW117039   3.089   4.650   4.815  1.9275 -0.8046 -0.8457
 1860SOL    HW217040   3.033   4.582   4.923 -0.6922 -0.7877 -1.9925
 1861SOL     OW17041   4.711   3.627  17.305 -0.0408 -0.0345  0.4785
 1861SOL    HW117042   4.627   3.625  17.351 -0.2177 -1.7302  0.0726
 1861SOL    HW217043   4.724   3.722  17.305  1.6420 -0.2531 -1.5013
 1862SOL     OW17044   4.130   1.555   7.265 -0.1930  0.1669 -0.2374
 1862SOL    HW117045   4.213   1.600   7.283 -0.9894  1.5555 -0.0832
 1862SOL    HW217046   4.149   1.533   7.174  0.2711  0.3411 -0.1848
 1863SOL     OW17047   1.908   0.827  13.920  0.0148 -0.8406 -0.3122
 1863SOL    HW117048   1.830   0.774  13.940  0.0869 -0.7974  0.0793
 1863SOL    HW217049   1.870   0.891  13.860 -0.2561 -0.4046  0.3305
 1864SOL     OW17050   1.411   4.269   1.983 -0.0317  0.1772 -0.1550
 1864SOL    HW117051   1.500   4.293   1.955  0.5556 -1.9911 -0.1563
 1864SOL    HW217052   1.440   4.206   2.050  2.1892  0.2279 -1.0542
 1865SOL     OW17053   1.266   1.727   5.127  0.4445  0.0823  0.0269
 1865SOL    HW117054   1.360   1.714   5.141  0.3849  0.9420  1.2523
 1865SOL    HW217055   1.264   1.799   5.063  1.7154 -1.9337 -2.2986
 1866SOL     OW17056   1.448   1.799   2.863 -0.1503 -0.5085  0.6990
 1866SOL    HW117057   1.424   1.809   2.955 -1.4437 -1.0423  0.4059
 1866SOL    HW217058   1.426   1.713   2.829  0.6586 -0.7321  0.7465
 1867SOL     OW17059   2.863   3.854   6.940  0.1119  0.4109  0.1620
 1867SOL    HW117060   2.872   3.860   6.845 -0.9054  1.5970  0.1318
 1867SOL    HW217061   2.825   3.767   6.950 -2.3962  1.4543 -0.3813
 1868SOL     OW17062   3.138   0.685  10.901 -0.1224  0.6951 -0.1452
 1868SOL    HW117063   3.207   0.682  10.834  0.6472  1.5718  0.5985
 1868SOL    HW217064   3.192   0.713  10.975  0.5096 -0.8789  0.0065
 1869SOL     OW17065   2.323   4.681   7.548 -0.0887 -0.5521 -0.1771
 1869SOL    HW117066   2.377   0.025   7.588 -0.3784  0.2598 -1.1642
 1869SOL    HW217067   2.396   4.628   7.516  0.7327  1.3175 -1.4054
 1870SOL     OW17068   1.289   1.414   2.453 -0.2566 -0.3296  0.0339
 1870SOL    HW117069   1.205   1.393   2.412 -1.0215  2.9137 -0.0785
 1870SOL    HW217070   1.335   1.330   2.445  0.0045 -0.2009  0.1949
 1871SOL     OW17071   2.004   2.560  11.003  0.3908 -0.1868  0.1710
 1871SOL    HW117072   1.965   2.563  10.916  1.1951  2.0677 -0.0878
 1871SOL    HW217073   2.084   2.515  10.978  0.6002  0.5970 -0.5469
 1872SOL     OW17074   0.275   3.682   6.135 -0.4987  0.3385 -0.2289
 1872SOL    HW117075   0.338   3.711   6.069  0.6431  2.1834  1.7144
 1872SOL    HW217076   0.216   3.754   6.158 -1.2602 -0.0874 -0.8394
 1873SOL     OW17077   1.170   1.762  12.878 -0.0566  0.0528 -0.1070
 1873SOL    HW117078   1.119   1.711  12.941  3.4559 -1.6576  1.3949
 1873SOL    HW217079   1.107   1.831  12.858  0.4697  0.5532 -0.0264
 1874SOL     OW17080   3.837   3.726  16.672  0.3492 -0.5323  0.1541
 1874SOL    HW117081   3.907   3.698  16.731  1.2828  1.7491  0.1415
 1874SOL    HW217082   3.891   3.723  16.593 -0.1806  3.7241 -0.3498
 1875SOL     OW17083   0.107   3.782   0.656 -0.4466 -0.2097 -0.2128
 1875SOL    HW117084   0.041   3.712   0.658  0.2272 -0.8017  0.9346
 1875SOL    HW217085   0.157   3.753   0.732  0.8243  0.6507 -0.7399
 1876SOL     OW17086   3.851   3.037   2.406  0.3366 -0.2277 -0.1086
 1876SOL    HW117087   3.810   2.972   2.463  0.3144 -1.0943 -1.1075
 1876SOL    HW217088   3.899   2.987   2.340  0.8849  0.6539 -0.3687
 1877SOL     OW17089   0.082   2.387   7.059  0.4181 -0.2313 -0.2031
 1877SOL    HW117090   0.062   2.450   7.129 -1.1760 -0.8966 -0.0627
 1877SOL    HW217091   0.120   2.446   6.995 -1.1263  0.1516 -0.7750
 1878SOL     OW17092   1.171   2.088   5.925  0.0858  0.2260 -0.6628
 1878SOL    HW117093   1.160   2.173   5.968 -1.7885  0.6804 -2.0478
 1878SOL    HW217094   1.096   2.087   5.866  0.3513 -1.8934 -0.9549
 1879SOL     OW17095   2.411   1.341  12.241  0.2731 -0.1513 -0.0213
 1879SOL    HW117096   2.342   1.406  12.229  0.2812  0.0206  0.8261
 1879SOL    HW217097   2.472   1.363  12.172  1.1594  0.5251  0.9857
 1880SOL     OW17098   2.269   3.094   3.499  0.5556 -0.0118  0.2021
 1880SOL    HW117099   2.361   3.066   3.493  0.8640  0.3394  3.1680
 1880SOL    HW217100   2.238   3.021   3.552 -0.1023 -1.2765 -1.9254
 1881SOL     OW17101   0.404   3.701   4.331  0.5916  0.2532  0.2334
 1881SOL    HW117102   0.368   3.790   4.335  0.5420  0.1945  1.1950
 1881SOL    HW217103   0.409   3.682   4.425 -1.3697  1.2020  0.5526
 1882SOL     OW17104   2.600   2.999  12.003  0.1782 -0.2314 -0.4610
 1882SOL    HW117105   2.588   2.986  11.909  0.3120 -2.6687 -0.1420
 1882SOL    HW217106   2.548   3.076  12.025  0.3428 -0.1672 -0.2898
 1883SOL     OW17107   2.235   0.600   8.945  0.2551  0.3551  0.2121
 1883SOL    HW117108   2.288   0.674   8.913  1.6190 -1.6384 -2.1507
 1883SOL    HW217109   2.154   0.651   8.952 -0.4044 -0.6428 -0.2379
 1884SOL     OW17110   3.238   3.760   6.831  0.0086  0.1353  0.0929
 1884SOL    HW117111   3.188   3.810   6.896  0.7631 -0.5532  1.1807
 1884SOL    HW217112   3.326   3.793   6.848 -0.1138  0.6684 -0.3081
 1885SOL     OW17113   0.922   2.691  10.851 -0.6039 -0.3003  0.4195
 1885SOL    HW117114   1.001   2.665  10.899 -0.7963 -1.5346  0.0629
 1885SOL    HW217115   0.867   2.614  10.841 -0.1006 -0.8468  1.8153
 1886SOL     OW17116   4.156   3.651   0.036  0.4107 -0.8818  0.1386
 1886SOL    HW117117   4.224   3.605   0.085  0.8875  1.1653  1.4081
 1886SOL    HW217118   4.161   3.609  17.648 -0.9857 -0.8683  0.0503
 1887SOL     OW17119   1.392   4.703  11.261 -0.4192  0.2762 -0.4526
 1887SOL    HW117120   1.376   0.060  11.213  0.8957  0.1957 -1.0524
 1887SOL    HW217121   1.437   4.659  11.188  0.7944  0.7764 -0.0196
 1888SOL     OW17122   0.822   0.855   2.902 -0.2288  0.9564 -0.4089
 1888SOL    HW117123   0.900   0.853   2.846  0.4218  1.5176  0.4717
 1888SOL    HW217124   0.745   0.834   2.849 -0.3526 -1.2561  0.6217
 1889SOL     OW17125   4.007   0.276   4.469  0.4052  0.0568 -0.6100
 1889SOL    HW117126   4.065   0.342   4.506 -0.3156  0.3121  0.0850
 1889SOL    HW217127   3.916   0.306   4.466  0.0600 -0.9915 -0.4762
 1890SOL     OW17128   0.588   0.372   8.601  0.5608 -1.2209  0.3146
 1890SOL    HW117129   0.573   0.284   8.566 -1.3038 -0.7708 -0.0089
 1890SOL    HW217130   0.511   0.377   8.658 -0.6163 -2.1774 -1.1765
 1891SOL     OW17131   2.360   4.092   8.133 -0.2143  0.1395 -0.1224
 1891SOL    HW117132   2.264   4.096   8.133 -0.2214 -0.0804 -0.3025
 1891SOL    HW217133   2.387   4.090   8.225 -0.0968 -0.5297 -0.1735
 1892SOL     OW17134   1.527   1.414   8.141  0.1760 -0.3352 -0.5766
 1892SOL    HW117135   1.551   1.489   8.195  1.1713 -0.4509 -0.8625
 1892SOL    HW217136   1.541   1.347   8.208  1.2391 -0.3893 -0.8598
 1893SOL     OW17137   3.892   0.889   7.115 -0.3960 -0.4327 -0.0368
 1893SOL    HW117138   3.914   0.972   7.156 -0.3435 -0.4616 -0.0058
 1893SOL    HW217139   3.797   0.891   7.113 -0.3711  1.9631  1.6537
 1894SOL     OW17140   0.829   0.799   4.367 -0.0980  0.2286 -0.1691
 1894SOL    HW117141   0.903   0.768   4.315 -1.4946  2.4197 -3.4631
 1894SOL    HW217142   0.823   0.726   4.429  0.7962 -0.0316 -0.3963
 1895SOL     OW17143   4.469   4.557  15.426 -0.6253 -0.0953 -0.1096
 1895SOL    HW117144   4.556   4.518  15.433  0.2343  1.5815 -1.4545
 1895SOL    HW217145   4.462   4.616  15.501 -0.7414  0.8266 -0.8402
 1896SOL     OW17146   1.573   0.469   6.794 -0.0415  0.2078 -0.3544
 1896SOL    HW117147   1.505   0.402   6.798  0.8478 -0.7001 -0.3674
 1896SOL    HW217148   1.521   0.549   6.794 -1.2317 -0.5531  1.6040
 1897SOL     OW17149   0.058   1.715  17.263 -0.1583  1.2730  0.3691
 1897SOL    HW117150   0.145   1.701  17.225  0.2288  1.5383  1.1768
 1897SOL    HW217151   4.717   1.730  17.194 -0.5714 -1.9027  0.0737
 1898SOL     OW17152   4.493   4.277   8.106 -0.8500  0.0735  0.1231
 1898SOL    HW117153   4.468   4.193   8.143  0.2034 -0.1409  0.3538
 1898SOL    HW217154   4.587   4.275   8.124 -1.0831 -0.4819  1.2592
 1899SOL     OW17155   4.504   2.184   8.737  0.3277  0.2109 -0.0985
 1899SOL    HW117156   4.546   2.179   8.823 -0.6401 -0.9808  0.3004
 1899SOL    HW217157   4.470   2.274   8.732  2.0185  0.9158  0.8241
 1900SOL     OW17158   0.358   1.890  13.319  0.7141  0.0392 -0.1996
 1900SOL    HW117159   0.449   1.861  13.313  0.4019 -0.8703 -0.4822
 1900SOL    HW217160   0.363   1.919  13.410  3.6368 -0.6558 -0.1156
 1901SOL     OW17161   1.496   1.179   9.976  0.0301  0.6408  0.5733
 1901SOL    HW117162   1.444   1.107   9.940 -1.0750  0.1500  3.1337
 1901SOL    HW217163   1.422   1.232  10.006 -0.5032  0.8017 -1.0676
 1902SOL     OW17164   2.516   0.032  15.273  0.6275 -0.1182 -0.5854
 1902SOL    HW117165   2.496   4.673  15.230  1.3734 -0.3448 -0.4878
 1902SOL    HW217166   2.582   0.061  15.210 -0.1494  0.2120 -1.2547
 1903SOL     OW17167   3.760   2.387   3.896 -0.3831  0.8544 -0.0388
 1903SOL    HW117168   3.824   2.447   3.859 -0.7975  0.6103 -1.1381
 1903SOL    HW217169   3.805   2.360   3.976 -1.3566 -3.4125 -0.9272
 1904SOL     OW17170   1.805   3.340   5.054  0.0543  0.3836  0.7687
 1904SOL    HW117171   1.788   3.407   4.988  0.2028  1.3664  1.7270
 1904SOL    HW217172   1.770   3.395   5.124 -0.4512  0.6914  0.2670
 1905SOL     OW17173   3.140   0.472  13.246  0.0489  0.4931 -0.3736
 1905SOL    HW117174   3.138   0.377  13.258  1.7676  0.7372  1.7956
 1905SOL    HW217175   3.224   0.501  13.283  0.4589 -1.4361  0.1883
 1906SOL     OW17176   1.445   0.916   5.643 -0.2696  0.2337  0.1428
 1906SOL    HW117177   1.404   0.989   5.598 -1.3443  0.2506  1.1501
 1906SOL    HW217178   1.508   0.959   5.702  1.4605  0.1551 -1.6469
 1907SOL     OW17179   0.465   4.652   1.410 -0.0721 -0.2870  0.5036
 1907SOL    HW117180   0.496   4.687   1.327 -1.6622 -2.2059 -0.8757
 1907SOL    HW217181   0.395   4.712   1.436  0.9039  1.2209 -0.3371
 1908SOL     OW17182   4.039   2.152  13.566  0.5813 -0.5098  0.0248
 1908SOL    HW117183   4.127   2.188  13.556  0.7601 -0.1064  3.0186
 1908SOL    HW217184   4.011   2.156  13.475 -0.5928 -2.2715  0.3174
 1909SOL     OW17185   3.154   4.071   2.529  0.5367  0.0907  0.2689
 1909SOL    HW117186   3.174   4.000   2.467 -0.8854 -0.4377  0.4015
 1909SOL    HW217187   3.166   4.029   2.615 -0.8500  0.7881  0.7908
 1910SOL     OW17188   3.528   1.002  11.630  0.1167 -0.2839  0.0209
 1910SOL    HW117189   3.464   1.000  11.559 -1.2000  4.8134  1.0360
 1910SOL    HW217190   3.614   1.007  11.588 -0.3411  1.3911 -0.7251
 1911SOL     OW17191   0.737   3.429   2.949  0.0431 -0.1092 -0.0384
 1911SOL    HW117192   0.644   3.411   2.936 -0.1141  0.3099  0.4899
 1911SOL    HW217193   0.760   3.365   3.017 -1.8561 -0.8701 -0.1024
 1912SOL     OW17194   3.834   3.213   8.536 -0.3607  0.7983  0.1573
 1912SOL    HW117195   3.761   3.157   8.510  0.3494 -0.8078  1.5971
 1912SOL    HW217196   3.832   3.280   8.468 -0.0904  0.4220 -0.2213
 1913SOL     OW17197   3.332   3.630   7.890  0.3806  0.3226  0.5712
 1913SOL    HW117198   3.404   3.691   7.909  0.2548  0.1833  1.5078
 1913SOL    HW217199   3.380   3.549   7.906  0.7320  0.2084 -1.0348
 1914SOL     OW17200   0.274   4.522   7.240  0.5516  0.4354 -0.2991
 1914SOL    HW117201   0.248   4.431   7.257  0.5220  0.2031 -1.6288
 1914SOL    HW217202   0.367   4.523   7.263  0.1539 -1.6918  1.4419
 1915SOL     OW17203   2.525   3.297   4.011  0.0677  0.0137 -0.2160
 1915SOL    HW117204   2.470   3.231   3.969  1.1514 -1.7632  1.1697
 1915SOL    HW217205   2.604   3.243   4.020 -1.5089 -1.7944  2.6513
 1916SOL     OW17206   0.098   3.497   6.272 -0.6851 -0.5977  0.4944
 1916SOL    HW117207   0.007   3.522   6.256 -0.2686  0.6557  0.0943
 1916SOL    HW217208   0.150   3.566   6.232  0.4317 -0.5556  2.0103
 1917SOL     OW17209   2.746   4.177   7.301  0.0881  0.1871 -0.0861
 1917SOL    HW117210   2.699   4.156   7.220 -0.2331  0.0209  0.1444
 1917SOL    HW217211   2.740   4.272   7.307 -0.4843  0.1076  0.5285
 1918SOL     OW17212   3.876   1.963  11.327 -0.4146 -0.5120  0.2392
 1918SOL    HW117213   3.789   1.962  11.286  0.8080  0.9251 -2.3500
 1918SOL    HW217214   3.893   2.057  11.331  1.3638 -0.7878 -1.0532
 1919SOL     OW17215   3.931   1.188  11.337 -0.0968 -0.0479  0.2105
 1919SOL    HW117216   3.883   1.138  11.404  2.5539  0.3987  2.4143
 1919SOL    HW217217   3.955   1.264  11.391 -0.2365 -0.0731  0.3083
 1920SOL     OW17218   3.391   2.330   2.118  0.4216  0.5440 -0.0589
 1920SOL    HW117219   3.303   2.347   2.085  0.1916  1.5439  1.0769
 1920SOL    HW217220   3.430   2.298   2.036  0.9909  1.5303 -0.1711
 1921SOL     OW17221   0.954   2.118  13.814  0.7606 -0.5587  0.2082
 1921SOL    HW117222   0.963   2.138  13.720  0.0060  0.1693  0.2938
 1921SOL    HW217223   0.957   2.207  13.847  2.1474 -1.0950  1.5324
 1922SOL     OW17224   2.795   2.789  12.040 -0.0981  0.5126 -0.2488
 1922SOL    HW117225   2.713   2.834  12.019 -0.3991 -0.8114 -1.9207
 1922SOL    HW217226   2.843   2.864  12.075 -0.2398  0.5092 -0.0444
 1923SOL     OW17227   0.206   3.782   7.719 -0.6078  0.1745  0.2219
 1923SOL    HW117228   0.147   3.852   7.690 -0.2816 -0.2734 -1.5416
 1923SOL    HW217229   0.245   3.754   7.636  1.0492  0.3209  0.9658
 1924SOL     OW17230   1.599   3.055   0.469  0.0696  0.1357  0.0222
 1924SOL    HW117231   1.508   3.024   0.465 -1.0819  3.6320 -0.9145
 1924SOL    HW217232   1.628   3.009   0.548 -2.0314 -2.2689 -0.6020
 1925SOL     OW17233   2.699   3.060   2.887 -0.1195  0.2130  0.1239
 1925SOL    HW117234   2.699   2.966   2.900 -1.9632  0.1985 -0.0365
 1925SOL    HW217235   2.618   3.071   2.836 -1.6619  0.5626  2.6662
 1926SOL     OW17236   2.463   2.033   7.093  0.3901 -0.9908 -0.1686
 1926SOL    HW117237   2.456   2.089   7.171  0.5503  0.8625 -1.4830
 1926SOL    HW217238   2.410   2.088   7.036  1.2961  0.1992  0.1299
 1927SOL     OW17239   1.899   2.402   2.235 -0.0335  0.7131 -0.3147
 1927SOL    HW117240   1.948   2.328   2.201 -0.8847  0.2017 -0.4193
 1927SOL    HW217241   1.920   2.464   2.165  4.2274 -1.8146 -1.2017
 1928SOL     OW17242   2.690   1.759   3.202 -0.4209 -0.5466  0.5104
 1928SOL    HW117243   2.725   1.671   3.217  3.2281  0.7984 -0.2714
 1928SOL    HW217244   2.681   1.790   3.292 -0.5024  2.2569 -0.4658
 1929SOL     OW17245   2.249   4.110   6.746  0.1283 -0.0939 -0.1936
 1929SOL    HW117246   2.205   4.102   6.661 -1.5249 -1.6350  0.7869
 1929SOL    HW217247   2.338   4.097   6.713 -0.3456 -1.3866 -0.9627
 1930SOL     OW17248   0.826   3.009  12.969  0.1238 -0.1102  0.2468
 1930SOL    HW117249   0.811   3.008  13.063  0.3310  2.9897  0.2874
 1930SOL    HW217250   0.914   2.973  12.961  0.3021  0.6266 -1.1843
 1931SOL     OW17251   0.722   3.277  12.215 -0.1408 -0.1192  0.1150
 1931SOL    HW117252   0.716   3.206  12.151 -0.7935  2.3191 -2.5257
 1931SOL    HW217253   0.802   3.251  12.261  0.9191  1.2883 -0.9144
 1932SOL     OW17254   4.698   2.623   4.838  0.2423 -0.4506  0.0512
 1932SOL    HW117255   4.609   2.605   4.806  0.6984 -1.3538 -0.7339
 1932SOL    HW217256   0.008   2.535   4.822  0.3345  0.4551 -4.8009
 1933SOL     OW17257   1.986   0.309   2.296  0.2114 -0.5231  0.0037
 1933SOL    HW117258   1.968   0.321   2.389 -1.6177  0.1193 -0.4401
 1933SOL    HW217259   1.931   0.374   2.253  0.1487  0.0328  0.9255
 1934SOL     OW17260   2.841   1.874   4.242  0.3604 -0.2966 -0.1378
 1934SOL    HW117261   2.773   1.836   4.298  1.7470 -0.8017  1.1907
 1934SOL    HW217262   2.868   1.795   4.195  1.2010  0.6215 -1.1937
 1935SOL     OW17263   2.219   0.899   0.852 -0.1279  0.1928 -0.3459
 1935SOL    HW117264   2.268   0.922   0.773  1.4490  0.1100  0.6065
 1935SOL    HW217265   2.196   0.986   0.885  0.4487 -0.0399  0.6546
 1936SOL     OW17266   1.816   0.863   8.602 -0.0039 -0.3646  0.2574
 1936SOL    HW117267   1.905   0.861   8.636  0.4161 -1.9861 -0.9853
 1936SOL    HW217268   1.822   0.806   8.526  0.5466  0.6175 -0.4264
 1937SOL     OW17269   1.287   2.618   4.319 -0.6524  0.0688  0.4992
 1937SOL    HW117270   1.360   2.656   4.270  0.3488 -0.7552  1.3273
 1937SOL    HW217271   1.245   2.568   4.249 -1.5137 -1.0946  1.8276
 1938SOL     OW17272   3.849   4.484   1.721  0.6745 -0.2837  0.2082
 1938SOL    HW117273   3.753   4.490   1.721  0.6166 -1.2780 -1.1857
 1938SOL    HW217274   3.858   4.509   1.630 -1.3342  1.2950  0.4480
 1939SOL     OW17275   0.134   2.631   2.713 -0.3010 -0.2165 -0.0191
 1939SOL    HW117276   0.121   2.651   2.805 -2.3239 -1.4987 -0.0281
 1939SOL    HW217277   0.230   2.629   2.720 -0.2671 -0.9452 -0.6609
 1940SOL     OW17278   4.112   1.522   4.339 -0.0648 -0.0989 -0.0972
 1940SOL    HW117279   4.147   1.611   4.339 -0.8502  0.2233  2.3228
 1940SOL    HW217280   4.142   1.481   4.421  1.2470  1.4861  0.2087
 1941SOL     OW17281   3.769   3.426   5.725 -0.1348 -0.4514  0.3079
 1941SOL    HW117282   3.728   3.409   5.640 -0.2123  1.3854 -0.0168
 1941SOL    HW217283   3.739   3.347   5.769 -2.1398  0.2967  0.2956
 1942SOL     OW17284   0.987   0.418  10.218  0.4408 -0.0828 -0.9639
 1942SOL    HW117285   0.969   0.477  10.291 -0.5724 -0.2464 -1.0778
 1942SOL    HW217286   1.077   0.440  10.192  1.0856 -0.0325  1.3519
 1943SOL     OW17287   0.937   3.007   6.935 -0.5829 -0.2207 -0.1358
 1943SOL    HW117288   0.885   2.937   6.974 -0.3615 -1.4809 -2.0694
 1943SOL    HW217289   0.873   3.067   6.897 -2.8015 -2.3541  0.2157
 1944SOL     OW17290   3.793   3.854   6.071 -0.1678 -0.3684 -0.2026
 1944SOL    HW117291   3.807   3.948   6.068 -1.8118 -0.1252 -0.6136
 1944SOL    HW217292   3.845   3.814   6.001 -1.9308 -3.0822  0.0192
 1945SOL     OW17293   3.908   2.365   4.129 -0.1067 -0.4772  0.2493
 1945SOL    HW117294   3.866   2.315   4.199  0.3358 -3.1619 -1.4010
 1945SOL    HW217295   3.912   2.448   4.176 -1.4939 -1.3806  1.9740
 1946SOL     OW17296   1.256   0.932  17.115 -0.2987 -0.2494 -0.4974
 1946SOL    HW117297   1.339   0.968  17.081 -0.5489 -0.4280 -1.2936
 1946SOL    HW217298   1.246   0.853  17.063  0.6792  0.6723 -2.1007
 1947SOL     OW17299   0.544   1.946   6.484 -0.4953  0.0559  0.6050
 1947SOL    HW117300   0.560   1.904   6.400 -0.6378 -1.4815  1.3500
 1947SOL    HW217301   0.597   2.021   6.456 -0.9385 -0.5904 -1.9252
 1948SOL     OW17302   2.103   3.498  16.642  0.1597  0.3346 -0.6062
 1948SOL    HW117303   2.169   3.541  16.587 -0.6472 -2.0184 -3.4099
 1948SOL    HW217304   2.022   3.523  16.597 -0.9063 -0.2990  0.9518
 1949SOL     OW17305   4.628   3.054   2.981 -0.3718  0.2096 -0.1556
 1949SOL    HW117306   4.645   2.989   2.914 -1.2839 -0.1293 -0.0607
 1949SOL    HW217307   4.536   3.078   2.965  0.1458  2.1071 -0.2975
 1950SOL     OW17308   3.741   3.597   1.253 -0.1678 -0.3542 -0.4441
 1950SOL    HW117309   3.728   3.534   1.324  1.0302 -0.5897 -0.4388
 1950SOL    HW217310   3.836   3.595   1.242  0.0933 -0.9951  1.8944
 1951SOL     OW17311   0.305   1.763   8.656 -0.1786 -0.6041  0.0917
 1951SOL    HW117312   0.251   1.823   8.708  0.4378  1.0337 -1.1346
 1951SOL    HW217313   0.375   1.826   8.636 -0.8633  0.3599  0.7345
 1952SOL     OW17314   4.660   3.340   2.780  0.1695  0.2256  0.1398
 1952SOL    HW117315   4.612   3.272   2.829 -1.1196  0.2823 -1.0434
 1952SOL    HW217316   0.006   3.291   2.738  1.0899  2.4645 -0.9138
 1953SOL     OW17317   2.037   1.646   4.292  0.1783  0.4913 -0.2592
 1953SOL    HW117318   2.065   1.663   4.381  1.0960 -0.1914 -0.4131
 1953SOL    HW217319   1.944   1.656   4.308  0.5029  1.4413  0.9941
 1954SOL     OW17320   2.359   2.099  10.463  0.2062 -0.3620  0.3347
 1954SOL    HW117321   2.328   2.009  10.455 -1.9060  0.2494  1.5717
 1954SOL    HW217322   2.302   2.107  10.540 -0.3172  1.2297 -0.2293
 1955SOL     OW17323   1.230   2.294   2.992 -0.0866 -0.4874  0.3820
 1955SOL    HW117324   1.224   2.210   3.037  1.7974 -0.1893  1.1970
 1955SOL    HW217325   1.324   2.315   2.993 -0.1492 -0.2228  1.3498
 1956SOL     OW17326   2.161   0.110   4.554 -0.6170 -0.0091 -0.6682
 1956SOL    HW117327   2.076   0.126   4.596  0.5715  0.9970  1.3528
 1956SOL    HW217328   2.167   0.016   4.571 -0.3522  0.4553  1.7317
 1957SOL     OW17329   1.526   4.215   2.724 -0.0954  0.2249  0.6055
 1957SOL    HW117330   1.545   4.127   2.756  1.6510 -0.3898 -2.1582
 1957SOL    HW217331   1.529   4.271   2.802 -0.7111 -1.2159  1.6624
 1958SOL     OW17332   2.348   3.607   3.447  0.3422 -0.0269 -0.4019
 1958SOL    HW117333   2.283   3.676   3.448 -0.4592 -0.8305  2.9575
 1958SOL    HW217334   2.417   3.632   3.509  0.7773  1.2659 -1.4101
 1959SOL     OW17335   0.234   1.811   4.637 -0.6097  0.3642  0.3177
 1959SOL    HW117336   0.229   1.725   4.678 -1.7651  0.5184  0.4811
 1959SOL    HW217337   0.156   1.852   4.673 -3.4191 -1.7761 -3.3787
 1960SOL     OW17338   3.393   3.425  14.814  0.1052  0.1740  0.5264
 1960SOL    HW117339   3.412   3.443  14.906  0.5402  1.5494  0.1705
 1960SOL    HW217340   3.304   3.390  14.815  0.1375 -0.0301 -2.0027
 1961SOL     OW17341   2.197   3.464   4.728 -0.7402 -0.0330 -0.0132
 1961SOL    HW117342   2.200   3.509   4.812  1.9516  0.5227 -0.4111
 1961SOL    HW217343   2.261   3.512   4.675 -1.2184 -1.5414 -1.9575
 1962SOL     OW17344   1.311   4.373   1.098  0.4847 -0.0855  0.4917
 1962SOL    HW117345   1.275   4.285   1.089  0.8675 -0.1152 -0.7443
 1962SOL    HW217346   1.343   4.363   1.187  3.4074 -1.5722 -0.7199
 1963SOL     OW17347   0.021   0.070  15.774 -0.1245 -0.7313  0.1969
 1963SOL    HW117348   0.057   0.043  15.859 -2.2847 -0.2997  1.2412
 1963SOL    HW217349   0.060   0.006  15.714 -0.5057  0.8537 -1.7184
 1964SOL     OW17350   2.322   0.257  10.215 -0.2469  0.4415  0.1399
 1964SOL    HW117351   2.376   0.190  10.257 -1.1796 -1.3952 -1.6204
 1964SOL    HW217352   2.240   0.211  10.200 -0.7182  0.8545  1.3751
 1965SOL     OW17353   1.427   2.512   9.708  0.1315  0.0479 -0.3933
 1965SOL    HW117354   1.422   2.607   9.700 -0.9635  0.1873  1.8090
 1965SOL    HW217355   1.363   2.503   9.779 -0.5339  1.6780 -0.7900
 1966SOL     OW17356   2.453   0.258  10.633 -0.1131  0.1607  0.5300
 1966SOL    HW117357   2.376   0.219  10.675  1.4879 -2.5203  0.9152
 1966SOL    HW217358   2.518   0.188  10.637  1.1510  1.3596  1.1963
 1967SOL     OW17359   0.943   3.153   6.295 -0.3994 -0.5261 -0.4080
 1967SOL    HW117360   0.937   3.196   6.380  0.9305 -1.2313  0.0394
 1967SOL    HW217361   1.018   3.198   6.256  0.4647 -1.5906  0.0280
 1968SOL     OW17362   4.121   3.408   8.898  0.1606 -0.0760 -0.1739
 1968SOL    HW117363   4.052   3.383   8.836  0.1299  2.2695 -1.0760
 1968SOL    HW217364   4.198   3.428   8.844  0.7174 -0.9255  0.3056
 1969SOL     OW17365   4.153   1.137  13.673  0.1173  0.3052 -0.1323
 1969SOL    HW117366   4.211   1.211  13.654  0.3598 -0.4499 -2.3573
 1969SOL    HW217367   4.068   1.179  13.656  1.0920  1.8659 -1.1762
 1970SOL     OW17368   0.764   3.974  14.879  0.3671 -0.0528  0.4347
 1970SOL    HW117369   0.681   3.954  14.921  0.6595 -0.3274  0.8788
 1970SOL    HW217370   0.784   3.894  14.832 -1.9740 -0.4790  0.1829
 1971SOL     OW17371   1.294   4.225  16.241 -0.2744  0.1095 -0.8746
 1971SOL    HW117372   1.253   4.293  16.294 -1.4500 -2.0294  0.9738
 1971SOL    HW217373   1.375   4.230  16.292 -0.5758  2.6104 -0.6325
 1972SOL     OW17374   0.434   1.770   3.490  0.5135 -0.1355  0.0117
 1972SOL    HW117375   0.417   1.699   3.552  0.1375 -1.2356 -1.3473
 1972SOL    HW217376   0.488   1.727   3.423 -0.2608  0.3223 -0.9144
 1973SOL     OW17377   3.683   0.976  11.028  0.2532 -0.1713  0.2601
 1973SOL    HW117378   3.766   0.939  11.057 -0.5383 -1.1118  1.3031
 1973SOL    HW217379   3.701   1.068  11.046  1.0074 -0.3080  0.1886
 1974SOL     OW17380   1.845   0.005  12.334 -0.2209 -0.2388  0.4265
 1974SOL    HW117381   1.919   4.679  12.368  0.2665 -0.0379 -0.3508
 1974SOL    HW217382   1.849   0.073  12.401 -1.7507 -0.7179  1.0137
 1975SOL     OW17383   4.206   3.350   8.051  0.1780  0.5053 -0.1130
 1975SOL    HW117384   4.203   3.443   8.074 -1.2155  0.5211 -0.3311
 1975SOL    HW217385   4.112   3.330   8.044  0.2927 -0.0131 -0.1877
 1976SOL     OW17386   3.595   4.190  11.046  0.2776 -0.2223 -0.4058
 1976SOL    HW117387   3.616   4.277  11.012  0.9822 -0.0852  0.3991
 1976SOL    HW217388   3.664   4.167  11.108 -0.2493 -0.4975  0.0804
 1977SOL     OW17389   1.327   4.688   2.231 -0.1151  0.3250 -0.1253
 1977SOL    HW117390   1.332   0.033   2.165  1.4094  0.0457 -0.3109
 1977SOL    HW217391   1.237   4.664   2.209 -1.5562  4.1565  1.6527
 1978SOL     OW17392   3.502   4.475  11.486  0.0277  0.2385 -0.0714
 1978SOL    HW117393   3.549   4.551  11.453  0.9270 -0.4549 -0.4008
 1978SOL    HW217394   3.484   4.421  11.409  0.5049  2.9930 -2.0857
 1979SOL     OW17395   2.718   2.615   7.561 -0.3442  0.4547 -0.4013
 1979SOL    HW117396   2.780   2.687   7.559  1.3703 -0.9589  1.2666
 1979SOL    HW217397   2.719   2.593   7.655 -0.9151 -0.7656 -0.6660
 1980SOL     OW17398   3.820   3.675   5.178  0.1628  0.1990  0.3059
 1980SOL    HW117399   3.874   3.749   5.206  2.1957 -0.9026 -0.6781
 1980SOL    HW217400   3.744   3.701   5.230  0.5519  1.6896  0.1230
 1981SOL     OW17401   3.288   4.648  15.818 -0.4082  0.3847  1.0352
 1981SOL    HW117402   3.367   4.699  15.837  0.2894  0.9959 -3.5084
 1981SOL    HW217403   3.216   4.699  15.855 -0.0511  0.4862  1.5941
 1982SOL     OW17404   0.220   4.619   7.623  0.1630  0.1299 -0.4838
 1982SOL    HW117405   0.207   4.657   7.536  0.2634 -0.4736 -0.7620
 1982SOL    HW217406   0.207   4.525   7.612  1.8714 -0.0349 -1.1778
 1983SOL     OW17407   2.463   1.246  14.318 -0.6075  0.1600 -0.4490
 1983SOL    HW117408   2.518   1.293  14.256  2.0362  0.6851  2.2995
 1983SOL    HW217409   2.397   1.311  14.341  0.4970  1.4595 -0.9419
 1984SOL     OW17410   0.216   3.913   6.499 -0.2358 -0.4770 -0.6085
 1984SOL    HW117411   0.161   3.932   6.423  0.5491 -0.5136 -1.1816
 1984SOL    HW217412   0.294   3.966   6.483 -0.5881  0.4338  0.6715
 1985SOL     OW17413   3.970   3.740   4.497 -0.0253 -0.0401 -0.1223
 1985SOL    HW117414   3.883   3.715   4.466 -0.1471 -0.5362  0.5967
 1985SOL    HW217415   4.015   3.760   4.415 -1.7515  1.1293 -0.7920
 1986SOL     OW17416   4.291   0.751   5.398 -0.0930 -0.0478 -0.3994
 1986SOL    HW117417   4.379   0.777   5.370  0.7180 -1.0995  1.1672
 1986SOL    HW217418   4.312   0.727   5.488  2.0984 -0.8136 -1.1218
 1987SOL     OW17419   4.155   4.298   7.454  0.2076  0.8001  0.3257
 1987SOL    HW117420   4.112   4.380   7.427 -0.4281 -0.1995 -1.6880
 1987SOL    HW217421   4.085   4.233   7.454  1.8998 -1.0081 -1.1345
 1988SOL     OW17422   2.329   2.655   7.135 -0.1015 -0.1711 -0.0679
 1988SOL    HW117423   2.320   2.726   7.198 -0.9951  0.1276 -0.5230
 1988SOL    HW217424   2.238   2.624   7.126 -0.1192  0.1404 -0.9829
 1989SOL     OW17425   2.534   2.822  14.874 -0.1141  0.0515 -0.0295
 1989SOL    HW117426   2.454   2.816  14.823  0.3523  0.5993 -0.8403
 1989SOL    HW217427   2.551   2.917  14.872  0.5203 -0.0665 -0.2331
 1990SOL     OW17428   3.568   3.045  10.749 -0.1960  0.7119 -0.6886
 1990SOL    HW117429   3.617   2.974  10.708 -0.4944  0.7217 -1.0535
 1990SOL    HW217430   3.648   3.068  10.798 -1.5620  2.2432  0.8188
 1991SOL     OW17431   0.322   2.389   4.179 -0.6005 -0.4293  0.0339
 1991SOL    HW117432   0.358   2.406   4.092 -0.0364 -1.6449  0.0391
 1991SOL    HW217433   0.399   2.393   4.235 -1.0436 -1.2394  0.7133
 1992SOL     OW17434   3.258   2.685  15.515  0.3421 -0.4892 -0.0631
 1992SOL    HW117435   3.245   2.595  15.484  1.2454 -1.0848  1.2483
 1992SOL    HW217436   3.210   2.694  15.597 -0.4181  2.2033 -0.8035
 1993SOL     OW17437   2.950   3.851  10.058  0.0150  0.2709  0.4120
 1993SOL    HW117438   2.976   3.794   9.986  1.3151  1.2386  0.1165
 1993SOL    HW217439   2.961   3.801  10.139  0.6005 -0.3077 -0.0201
 1994SOL     OW17440   3.530   4.542   1.403  0.2654  0.1951 -1.0788
 1994SOL    HW117441   3.579   4.524   1.322 -1.6103  2.9784 -2.8637
 1994SOL    HW217442   3.447   4.496   1.393 -0.0484  0.4345  0.5547
 1995SOL     OW17443   4.133   1.498   1.008 -0.0993 -0.4913 -0.2274
 1995SOL    HW117444   4.085   1.499   0.925 -3.8965 -0.5883  1.9546
 1995SOL    HW217445   4.126   1.584   1.049  1.5822 -0.5585  0.1821
 1996SOL     OW17446   1.082   2.522   8.063 -0.2734  0.4054  0.6483
 1996SOL    HW117447   1.016   2.515   8.132 -1.6343  1.1188 -0.5805
 1996SOL    HW217448   1.023   2.513   7.988  0.6822 -1.9667  0.1699
 1997SOL     OW17449   3.815   3.167   2.827 -0.0251  0.7246  0.1607
 1997SOL    HW117450   3.742   3.147   2.769 -0.5420  0.5138  0.8741
 1997SOL    HW217451   3.863   3.084   2.829 -1.7738 -0.2600  1.7682
 1998SOL     OW17452   0.204   4.173   8.411 -0.4140 -0.2240 -0.2983
 1998SOL    HW117453   0.171   4.204   8.496  3.1631  1.2636  0.5327
 1998SOL    HW217454   0.215   4.259   8.370  0.9664  0.6084  1.7672
 1999SOL     OW17455   2.332   3.242   3.197 -0.2257  0.0789  0.6456
 1999SOL    HW117456   2.271   3.173   3.171  1.0958 -0.7438 -0.3350
 1999SOL    HW217457   2.361   3.192   3.273 -0.0431  1.7030  1.6438
 2000SOL     OW17458   0.828   2.563   6.021 -0.0212 -0.4422  0.2960
 2000SOL    HW117459   0.735   2.548   6.006 -0.4478  0.5457  2.0155
 2000SOL    HW217460   0.858   2.493   5.963  2.0903  0.4543  0.3008
 2001SOL     OW17461   2.390   3.859  13.453  0.3952  0.2665  0.5383
 2001SOL    HW117462   2.397   3.809  13.535 -0.7513  1.7319  1.5301
 2001SOL    HW217463   2.364   3.946  13.482 -0.9675  0.1539 -0.3845
 2002SOL     OW17464   2.162   2.358  13.935  0.0105  0.1516  0.2777
 2002SOL    HW117465   2.109   2.427  13.973 -4.1237 -4.1917  2.3969
 2002SOL    HW217466   2.110   2.306  13.874  1.7718  0.3655 -1.3958
 2003SOL     OW17467   3.666   3.827   4.731 -0.6503 -0.0576 -0.4619
 2003SOL    HW117468   3.756   3.813   4.762 -1.1584 -0.3418  0.8824
 2003SOL    HW217469   3.678   3.899   4.669  0.2010  0.8768  0.7804
 2004SOL     OW17470   2.975   4.242  15.570 -0.0300 -0.0125  0.0575
 2004SOL    HW117471   2.953   4.309  15.506  2.7264  0.3309 -0.5437
 2004SOL    HW217472   2.916   4.259  15.643 -0.2332 -1.1946  0.1654
 2005SOL     OW17473   3.018   3.659   0.699  0.1483  0.1742 -0.3747
 2005SOL    HW117474   2.989   3.612   0.777  2.6814 -1.0812 -0.1635
 2005SOL    HW217475   3.046   3.742   0.737 -0.8443  2.3233 -4.3484
 2006SOL     OW17476   0.456   3.446   4.254  0.7867 -0.5362 -0.1399
 2006SOL    HW117477   0.424   3.529   4.289  1.0260  0.0635 -1.3786
 2006SOL    HW217478   0.440   3.379   4.320 -0.1431  0.2917  0.4687
 2007SOL     OW17479   0.794   3.925   5.995 -0.6859 -0.0418 -0.7954
 2007SOL    HW117480   0.760   3.941   5.906 -1.1108 -0.5285 -0.7219
 2007SOL    HW217481   0.878   3.970   5.992 -1.3247  1.0928 -2.1392
 2008SOL     OW17482   3.769   2.926  13.010 -0.4483  0.5073 -0.1480
 2008SOL    HW117483   3.708   2.852  13.005 -1.0966  0.9682  0.9626
 2008SOL    HW217484   3.812   2.915  13.095  1.8363 -0.8097 -1.4797
 2009SOL     OW17485   2.695   0.169   8.219 -0.3471 -0.2484  0.0029
 2009SOL    HW117486   2.635   0.167   8.294 -1.5808  0.6205 -0.9780
 2009SOL    HW217487   2.752   0.242   8.243 -0.7340  0.2373 -0.5732
 2010SOL     OW17488   2.180   0.080  11.218  0.7514 -0.1680 -0.4449
 2010SOL    HW117489   2.198   0.041  11.132 -0.0568 -0.8379 -0.3126
 2010SOL    HW217490   2.267   0.075  11.257  0.2622 -1.6773  0.4555
 2011SOL     OW17491   4.699   4.143   4.645 -0.2477 -0.3217  0.2971
 2011SOL    HW117492   4.702   4.237   4.626 -1.2106 -0.4196 -0.3313
 2011SOL    HW217493   0.068   4.123   4.652  0.2460  1.9127  0.4059
 2012SOL     OW17494   0.491   1.515   7.218  1.2612  0.5654 -0.5403
 2012SOL    HW117495   0.399   1.510   7.195  0.9889  1.8496  0.2862
 2012SOL    HW217496   0.533   1.526   7.133  1.7640 -1.7795 -0.6166
 2013SOL     OW17497   0.939   1.636   1.489 -0.1647 -0.1159  0.3013
 2013SOL    HW117498   0.965   1.610   1.400  1.2183 -0.2835  0.7465
 2013SOL    HW217499   0.863   1.690   1.467 -0.1340 -0.5318 -0.8006
 2014SOL     OW17500   2.830   3.623  17.672 -0.1728 -0.3064  0.5480
 2014SOL    HW117501   2.784   3.602   0.055 -0.0631 -1.3133  0.3443
 2014SOL    HW217502   2.903   3.562  17.675  0.1723  0.0225 -0.8464
 2015SOL     OW17503   3.931   2.661   6.899  0.0682 -0.7105 -0.2049
 2015SOL    HW117504   3.996   2.607   6.942 -0.6777 -1.1083  0.4168
 2015SOL    HW217505   3.866   2.596   6.871 -0.3281  0.1060 -1.1788
 2016SOL     OW17506   0.144   1.322   9.611 -0.3556  0.0730 -0.6745
 2016SOL    HW117507   0.174   1.412   9.618  0.7219 -0.3539  0.1680
 2016SOL    HW217508   0.227   1.275   9.612 -1.1067 -1.3064 -1.1805
 2017SOL     OW17509   0.658   1.370   5.203 -0.0638  0.0952  0.3002
 2017SOL    HW117510   0.648   1.320   5.284 -0.5658 -0.6647 -0.2304
 2017SOL    HW217511   0.753   1.371   5.195 -0.2960  2.7763 -1.8561
 2018SOL     OW17512   1.943   4.171   4.978 -0.2483  0.1708  0.1341
 2018SOL    HW117513   2.032   4.188   4.947 -0.0684 -1.8265 -0.4630
 2018SOL    HW217514   1.950   4.077   4.961 -3.8761  0.2100 -1.5248
 2019SOL     OW17515   1.085   0.337   7.884  0.0276  0.3228 -0.8146
 2019SOL    HW117516   1.095   0.256   7.933 -0.4942  0.8066  0.0848
 2019SOL    HW217517   0.998   0.317   7.849  1.0464  0.2831 -3.3605
 2020SOL     OW17518   1.608   1.731   3.393 -0.7259  0.0899 -0.4617
 2020SOL    HW117519   1.548   1.711   3.466 -1.9824  2.2085 -0.9326
 2020SOL    HW217520   1.660   1.650   3.397  3.9301  3.0781 -1.1985
 2021SOL     OW17521   4.605   1.021   3.630  0.2514 -0.5974  0.2619
 2021SOL    HW117522   4.513   1.034   3.605 -0.1338 -1.3789  1.2706
 2021SOL    HW217523   4.641   1.001   3.544 -0.0116  1.0537 -0.2372
 2022SOL     OW17524   2.655   2.210   2.275 -0.4709 -0.5143  0.0962
 2022SOL    HW117525   2.561   2.223   2.280 -0.5883 -0.0967 -3.0637
 2022SOL    HW217526   2.688   2.247   2.193  0.5711 -1.2632  0.1799
 2023SOL     OW17527   3.837   0.615  15.766 -0.1986  0.4972 -0.9494
 2023SOL    HW117528   3.926   0.598  15.797 -1.4546 -1.4704  1.6105
 2023SOL    HW217529   3.797   0.601  15.852  0.4853 -0.4031 -0.7769
 2024SOL     OW17530   2.907   2.230  15.294 -0.5428 -0.3561  0.3928
 2024SOL    HW117531   2.962   2.232  15.216 -0.8503  2.1806  0.2244
 2024SOL    HW217532   2.902   2.324  15.313  0.6033 -0.1927 -0.1427
 2025SOL     OW17533   1.309   2.931   3.454  0.0324 -0.3427 -0.1711
 2025SOL    HW117534   1.347   2.847   3.478 -0.7710 -0.4998  0.5678
 2025SOL    HW217535   1.225   2.922   3.500  0.8869  0.9724  1.6586
 2026SOL     OW17536   4.017   0.717  13.625 -0.4553 -0.4811  0.7047
 2026SOL    HW117537   4.078   0.695  13.555  1.1675 -0.0129  1.9777
 2026SOL    HW217538   3.946   0.660  13.594 -0.3360 -0.8605  1.1322
 2027SOL     OW17539   0.868   3.994   6.682  0.1911  0.7323 -0.2967
 2027SOL    HW117540   0.889   3.991   6.776  4.2702 -1.1542 -1.2936
 2027SOL    HW217541   0.951   4.003   6.636  1.0854 -4.6069  0.2887
 2028SOL     OW17542   3.870   1.231  13.652 -0.3992 -0.4677 -0.3007
 2028SOL    HW117543   3.822   1.308  13.681  0.6190 -0.3021  0.9042
 2028SOL    HW217544   3.816   1.164  13.694 -3.5156  1.8042 -0.6999
 2029SOL     OW17545   2.558   2.270   1.011 -0.7314  0.1698  0.1549
 2029SOL    HW117546   2.467   2.298   1.018 -0.0675  1.8825  1.9759
 2029SOL    HW217547   2.608   2.350   1.000  0.2275 -0.4722 -0.1743
 2030SOL     OW17548   2.430   2.508   6.828  0.6376  0.0810 -0.0253
 2030SOL    HW117549   2.504   2.568   6.813 -0.7433  1.4373 -1.3617
 2030SOL    HW217550   2.431   2.501   6.923  0.0703  1.0458  0.0529
 2031SOL     OW17551   0.149   1.882   7.908  0.4165  0.1191 -0.6202
 2031SOL    HW117552   0.208   1.810   7.930  1.5894  1.7093  1.3827
 2031SOL    HW217553   0.096   1.887   7.987  1.7463 -3.2310  0.4827
 2032SOL     OW17554   1.324   0.988   4.535  0.3168 -0.4413  0.3737
 2032SOL    HW117555   1.257   1.042   4.576  1.9936  1.1347  1.0280
 2032SOL    HW217556   1.278   0.913   4.498  0.6724 -0.4928  0.0286
 2033SOL     OW17557   4.185   2.142   3.365  0.2602  0.4046 -0.2502
 2033SOL    HW117558   4.109   2.085   3.375  0.1314  0.5836 -0.1882
 2033SOL    HW217559   4.170   2.196   3.287  1.0332  1.2301  0.1700
 2034SOL     OW17560   0.759   3.086  12.002 -0.5128 -0.5330  0.0430
 2034SOL    HW117561   0.755   3.090  11.906 -0.4508 -0.6441  0.0359
 2034SOL    HW217562   0.852   3.086  12.026  0.0614 -0.0650 -2.2043
 2035SOL     OW17563   1.614   2.225  15.420 -0.2321  0.0320 -0.2910
 2035SOL    HW117564   1.598   2.237  15.326  1.3585 -0.7832 -0.6796
 2035SOL    HW217565   1.532   2.259  15.456 -0.4105  0.0709 -0.7261
 2036SOL     OW17566   0.767   0.568   2.568 -0.2908  0.0895  0.3852
 2036SOL    HW117567   0.840   0.630   2.569  0.5767 -0.9135 -1.3623
 2036SOL    HW217568   0.753   0.552   2.475 -2.2822 -1.4313  0.9476
 2037SOL     OW17569   2.962   2.350   3.159 -0.3943 -0.0160  0.3042
 2037SOL    HW117570   2.911   2.270   3.169  1.1435 -0.4756  4.1930
 2037SOL    HW217571   2.952   2.363   3.064  0.2223  0.3374  0.2851
 2038SOL     OW17572   3.078   1.525   7.920 -0.4850  0.1209  0.0873
 2038SOL    HW117573   3.020   1.472   7.975 -0.7712  1.1202  0.7646
 2038SOL    HW217574   3.164   1.488   7.941  1.2724  3.2678 -1.5971
 2039SOL     OW17575   2.061   2.253   0.937 -0.0302 -0.4014  0.0976
 2039SOL    HW117576   1.999   2.233   0.867  0.4515 -1.4558 -0.0347
 2039SOL    HW217577   2.034   2.341   0.964 -0.6912 -0.0290 -1.8049
 2040SOL     OW17578   1.907   3.082  16.110  0.3978  0.6284 -0.0842
 2040SOL    HW117579   1.915   2.988  16.127 -0.9100  0.7476  1.1279
 2040SOL    HW217580   1.994   3.112  16.136 -0.1541 -0.4584  3.0975
 2041SOL     OW17581   2.392   1.770   4.262 -0.3722 -0.0614  0.7035
 2041SOL    HW117582   2.427   1.858   4.251 -0.7657 -0.1652 -1.3610
 2041SOL    HW217583   2.469   1.725   4.296 -0.1158 -0.7524 -0.8075
 2042SOL     OW17584   0.558   1.455   2.782  0.5107  0.4726 -0.3132
 2042SOL    HW117585   0.618   1.391   2.745  0.4710 -0.1695  0.7356
 2042SOL    HW217586   0.505   1.486   2.709 -0.9790 -0.9222  0.1730
 2043SOL     OW17587   2.735   2.475  10.615 -0.2329 -0.7988 -0.0946
 2043SOL    HW117588   2.754   2.558  10.659 -0.9977  0.5105 -2.2191
 2043SOL    HW217589   2.819   2.477  10.570  0.1659 -0.1227  0.6695
 2044SOL     OW17590   2.472   0.733   6.374 -0.0290 -0.2185  0.1644
 2044SOL    HW117591   2.402   0.732   6.310  0.2926  0.4187 -0.1921
 2044SOL    HW217592   2.475   0.827   6.388 -0.4386 -0.1308 -0.3670
 2045SOL     OW17593   4.482   2.805   9.028 -0.4165  0.2203  0.0537
 2045SOL    HW117594   4.519   2.794   9.116 -0.6266 -0.1226  0.0973
 2045SOL    HW217595   4.562   2.839   8.987  0.2310 -0.2780  0.8861
 2046SOL     OW17596   4.084   0.567   4.929  0.6190  0.8295  0.3721
 2046SOL    HW117597   4.118   0.657   4.932 -0.2368  1.1117  1.6159
 2046SOL    HW217598   4.145   0.526   4.990  0.6873  0.5292  0.1000
 2047SOL     OW17599   2.885   4.524   9.715 -0.0752 -1.2415  0.4959
 2047SOL    HW117600   2.846   4.540   9.801  2.9832  2.0192  1.2782
 2047SOL    HW217601   2.891   4.429   9.723 -0.2082 -1.2777  0.1518
 2048SOL     OW17602   4.098   0.281   6.331 -0.1772 -0.0317 -0.5760
 2048SOL    HW117603   4.159   0.336   6.380 -0.2953  0.1635 -0.6483
 2048SOL    HW217604   4.148   0.199   6.336 -0.8260 -0.5344 -2.2344
 2049SOL     OW17605   2.996   1.869   6.334  0.5281  0.4363  0.3035
 2049SOL    HW117606   2.933   1.808   6.297 -0.4735  0.9618  1.1464
 2049SOL    HW217607   3.050   1.895   6.260  0.0877  1.1538  0.2296
 2050SOL     OW17608   3.265   0.184   6.061 -0.3023  0.2361  0.4000
 2050SOL    HW117609   3.205   0.224   5.998 -1.3809 -0.3976  1.0305
 2050SOL    HW217610   3.204   0.131   6.112 -2.0063  1.1700 -0.6585
 2051SOL     OW17611   3.789   3.614  10.778  0.1056 -0.1044  0.0559
 2051SOL    HW117612   3.824   3.530  10.749  1.7323  0.3908  0.5959
 2051SOL    HW217613   3.697   3.594  10.797  0.8522 -2.2734  1.5218
 2052SOL     OW17614   1.633   0.076   7.875  0.1520 -0.5553  0.0724
 2052SOL    HW117615   1.661   0.086   7.784  0.5083  0.6664  0.3088
 2052SOL    HW217616   1.701   0.025   7.918  0.0102  0.4403  1.4953
 2053SOL     OW17617   4.475   3.544   7.758  0.1602 -0.1619 -0.7643
 2053SOL    HW117618   4.487   3.451   7.773 -1.1202 -0.5176 -1.9898
 2053SOL    HW217619   4.538   3.583   7.819  1.4001  0.5960 -2.5309
 2054SOL     OW17620   3.124   4.610   2.255  0.2020  0.7896 -0.1080
 2054SOL    HW117621   3.184   4.600   2.330 -1.3474 -1.7096  0.7777
 2054SOL    HW217622   3.170   4.556   2.191  1.4021  0.7250  0.8012
 2055SOL     OW17623   4.723   1.269  15.110 -0.1213  0.2687 -0.5756
 2055SOL    HW117624   0.059   1.318  15.165  0.1263  0.0779 -0.6744
 2055SOL    HW217625   4.664   1.342  15.090  0.4409  1.6008  2.7130
 2056SOL     OW17626   4.437   0.922   7.375  0.2156 -0.3483 -0.3981
 2056SOL    HW117627   4.441   1.014   7.402 -0.4582 -1.0816  2.2418
 2056SOL    HW217628   4.521   0.883   7.399 -0.0915 -0.3206  0.7456
 2057SOL     OW17629   4.249   1.236   7.054 -0.4154 -0.1804  0.3950
 2057SOL    HW117630   4.304   1.163   7.025 -1.3787 -0.3602 -0.9587
 2057SOL    HW217631   4.201   1.191   7.123 -0.3266 -1.5510 -0.4385
 2058SOL     OW17632   2.724   0.739  12.606  0.1097  0.1145  0.2272
 2058SOL    HW117633   2.688   0.664  12.654 -1.0276  1.1499  0.9942
 2058SOL    HW217634   2.657   0.757  12.540  0.9731  2.8335  0.0775
 2059SOL     OW17635   2.001   2.820  13.013  0.1897  1.1260 -0.0902
 2059SOL    HW117636   2.041   2.902  13.043 -1.4248  1.6279  0.7247
 2059SOL    HW217637   1.908   2.842  13.022  0.2917  2.0433 -1.2517
 2060SOL     OW17638   4.701   0.399   8.555 -0.5868  0.4613  0.5037
 2060SOL    HW117639   4.708   0.381   8.462  2.0985 -0.4700  0.8655
 2060SOL    HW217640   4.646   0.326   8.584 -0.2403  0.3793  0.9750
 2061SOL     OW17641   1.399   1.931   5.892 -0.3112  0.4103  0.0937
 2061SOL    HW117642   1.386   1.836   5.888 -1.3869  0.5979 -1.0107
 2061SOL    HW217643   1.309   1.961   5.883 -1.5388 -2.4757  2.7978
 2062SOL     OW17644   4.308   1.727  14.284 -0.1907 -0.4640  0.3409
 2062SOL    HW117645   4.380   1.666  14.271  0.8372  0.5679  1.2753
 2062SOL    HW217646   4.357   1.801  14.320 -1.0516  0.5061 -0.4816
 2063SOL     OW17647   2.550   0.811   2.676  0.2296 -0.4393 -0.1246
 2063SOL    HW117648   2.454   0.817   2.686  0.3981  0.0680  1.3065
 2063SOL    HW217649   2.565   0.736   2.620  0.8237  1.9560 -3.1697
 2064SOL     OW17650   2.125   1.361   3.623  0.0106  0.1220 -0.0927
 2064SOL    HW117651   2.199   1.301   3.612  0.7648  0.9670  0.3486
 2064SOL    HW217652   2.067   1.314   3.683  0.6055 -0.7152 -0.1741
 2065SOL     OW17653   0.422   4.153   3.271  0.4167 -0.2268  0.0936
 2065SOL    HW117654   0.332   4.122   3.283 -0.1252  0.2913 -2.6032
 2065SOL    HW217655   0.402   4.232   3.220 -0.7216  0.4222  1.5369
 2066SOL     OW17656   2.058   3.287   5.137 -0.4584  0.8419  0.3522
 2066SOL    HW117657   1.977   3.308   5.091 -1.0094  0.3206  1.0817
 2066SOL    HW217658   2.014   3.250   5.213 -0.4634 -0.0450 -0.0751
 2067SOL     OW17659   3.689   1.454  10.728 -0.1716  0.3952 -0.4361
 2067SOL    HW117660   3.664   1.485  10.815 -1.8540 -2.2788  0.0213
 2067SOL    HW217661   3.662   1.520  10.664  0.3840 -0.8687 -1.9685
 2068SOL     OW17662   2.591   2.860  17.178  0.3061 -0.2062 -0.0379
 2068SOL    HW117663   2.590   2.773  17.217 -3.4029 -0.9299 -1.7356
 2068SOL    HW217664   2.570   2.845  17.085  1.5880 -0.2654 -0.3135
 2069SOL     OW17665   3.608   4.721   5.754  0.6615  0.1877 -0.4976
 2069SOL    HW117666   3.657   0.064   5.707 -0.6231  1.4272 -0.0887
 2069SOL    HW217667   3.626   0.027   5.843  1.8409  0.9110 -0.9919
 2070SOL     OW17668   1.355   4.549   3.679  0.4069 -0.0494  0.1157
 2070SOL    HW117669   1.307   4.596   3.748  1.0443  0.1813  0.3956
 2070SOL    HW217670   1.320   4.603   3.608 -1.1848 -1.0566  0.1189
 2071SOL     OW17671   0.971   3.724  10.253 -0.1708 -0.3035 -0.2787
 2071SOL    HW117672   1.054   3.760  10.221 -1.9113  1.4605 -2.8094
 2071SOL    HW217673   0.952   3.660  10.184  1.7626 -3.2134  1.8633
 2072SOL     OW17674   2.965   4.401  17.487 -0.1467 -0.0098  0.8797
 2072SOL    HW117675   3.002   4.428  17.402 -1.3824  2.4042  1.1107
 2072SOL    HW217676   3.042   4.418  17.541  1.8062 -1.7461 -1.3326
 2073SOL     OW17677   2.713   0.993   9.535  0.1014  0.2235 -0.6159
 2073SOL    HW117678   2.632   1.021   9.578  1.1835  1.9698  0.2905
 2073SOL    HW217679   2.783   1.044   9.578 -0.6360  1.3687 -0.7755
 2074SOL     OW17680   3.058   2.209   8.376  0.1934  0.3079  0.1242
 2074SOL    HW117681   3.064   2.187   8.469 -1.0412 -1.5872 -0.2622
 2074SOL    HW217682   3.130   2.271   8.363 -1.3624  2.3392  1.1171
 2075SOL     OW17683   1.224   0.524   5.564  0.1425 -0.1403  0.3334
 2075SOL    HW117684   1.197   0.516   5.472 -1.5939  0.4752  0.7900
 2075SOL    HW217685   1.319   0.527   5.551 -0.1047 -0.8025 -1.5843
 2076SOL     OW17686   4.277   0.915   6.056  0.3207 -0.1415 -0.5911
 2076SOL    HW117687   4.251   0.850   5.991  0.9492  0.0556 -1.0480
 2076SOL    HW217688   4.372   0.909   6.040  0.4286  0.1948 -0.0864
 2077SOL     OW17689   3.044   1.315  10.035 -0.2825 -0.2166 -0.1831
 2077SOL    HW117690   3.002   1.383   9.982  0.5320 -0.4289 -1.1058
 2077SOL    HW217691   3.112   1.366  10.078 -0.9309 -0.7421  1.4590
 2078SOL     OW17692   4.635   1.352   3.567 -0.5140 -0.2913 -0.1539
 2078SOL    HW117693   4.603   1.293   3.499  1.4407 -2.8651  1.1479
 2078SOL    HW217694   4.661   1.289   3.634 -0.6104  0.6248  0.7409
 2079SOL     OW17695   2.282   2.154   3.642 -0.4329 -0.0950 -0.4795
 2079SOL    HW117696   2.257   2.086   3.704 -0.8499  0.4510 -0.0529
 2079SOL    HW217697   2.299   2.098   3.566  0.2857  0.0882 -0.4535
 2080SOL     OW17698   0.582   4.033  15.904  0.2679 -0.3616  0.1238
 2080SOL    HW117699   0.565   3.939  15.903  1.5122 -0.5799 -1.3954
 2080SOL    HW217700   0.678   4.033  15.907  0.2477  1.0673  0.6935
 2081SOL     OW17701   2.014   0.280   1.802 -0.0064 -0.4717  0.0702
 2081SOL    HW117702   2.107   0.260   1.789  0.1688  0.7969 -0.5913
 2081SOL    HW217703   1.984   0.196   1.835 -0.8636 -0.3627 -0.4427
 2082SOL     OW17704   1.233   1.233   6.369  0.2122 -0.3720  0.2000
 2082SOL    HW117705   1.302   1.198   6.426  0.0975  0.6872  0.9971
 2082SOL    HW217706   1.182   1.152   6.366 -1.9825  0.9309  1.9343
 2083SOL     OW17707   0.527   4.617   4.918  0.0076  0.3280 -0.2170
 2083SOL    HW117708   0.481   4.584   4.995  2.0068 -0.6760  0.5260
 2083SOL    HW217709   0.594   4.670   4.960 -0.4383  0.0534  0.8340
 2084SOL     OW17710   3.353   1.740  15.465  0.3600 -0.0543  0.1980
 2084SOL    HW117711   3.278   1.800  15.473 -1.9085 -2.8118 -0.5062
 2084SOL    HW217712   3.390   1.748  15.553 -1.8136 -0.3299  1.1402
 2085SOL     OW17713   0.546   2.916  11.434 -0.2775  0.6380 -0.5606
 2085SOL    HW117714   0.613   2.981  11.455  1.9254 -1.3755 -1.2722
 2085SOL    HW217715   0.484   2.983  11.405  0.8858  1.8309 -0.3230
 2086SOL     OW17716   1.001   2.835   0.075 -0.3207 -0.1426 -0.3111
 2086SOL    HW117717   0.989   2.929   0.057  1.7674  0.4704  1.4815
 2086SOL    HW217718   0.989   2.839   0.170 -0.3784 -0.6307 -0.2989
 2087SOL     OW17719   4.079   0.924   3.234  0.1878 -0.1512  0.0856
 2087SOL    HW117720   4.019   0.963   3.170 -0.9556 -2.2172 -0.1121
 2087SOL    HW217721   4.158   0.975   3.214 -0.5940  0.6920 -0.8758
 2088SOL     OW17722   1.298   4.635   5.023  0.3763  0.3323  0.6654
 2088SOL    HW117723   1.304   4.633   5.119 -1.8956 -0.5627  0.7853
 2088SOL    HW217724   1.382   4.593   5.005 -1.0275 -1.6631 -1.2691
 2089SOL     OW17725   1.044   0.095   5.140  0.2415  0.3087  1.0510
 2089SOL    HW117726   0.957   0.130   5.161  0.3179  1.2196 -0.1621
 2089SOL    HW217727   1.030   0.015   5.191  1.4093 -2.2500 -2.7422
 2090SOL     OW17728   1.059   0.170   4.037 -0.1239 -0.2037 -0.5891
 2090SOL    HW117729   0.978   0.186   3.989 -0.9378  1.2350  1.2916
 2090SOL    HW217730   1.044   0.080   4.067 -2.9678 -0.1916 -1.9147
 2091SOL     OW17731   1.644   1.127  11.613  0.1419 -0.4078 -0.1825
 2091SOL    HW117732   1.626   1.041  11.575 -1.3311 -0.0332 -0.3305
 2091SOL    HW217733   1.634   1.104  11.705  1.1795 -0.0941  0.0001
 2092SOL     OW17734   4.050   3.517  14.664 -0.3339 -0.0507  0.1333
 2092SOL    HW117735   4.127   3.472  14.700 -1.0482 -1.2810  0.1293
 2092SOL    HW217736   4.058   3.476  14.577  1.1034  0.8139 -0.1468
 2093SOL     OW17737   2.786   2.863   8.311  0.0093  0.0954  0.2926
 2093SOL    HW117738   2.812   2.778   8.347 -1.4371 -0.3157  0.3681
 2093SOL    HW217739   2.693   2.852   8.293 -0.5457 -0.9913  3.7790
 2094SOL     OW17740   3.795   4.604   8.621 -0.1518 -1.2181 -0.1870
 2094SOL    HW117741   3.767   4.595   8.530 -0.9899  2.5077 -0.3139
 2094SOL    HW217742   3.771   4.521   8.661 -2.6665 -0.9165 -1.0669
 2095SOL     OW17743   4.685   2.760  15.156 -0.0940 -0.9207  0.3204
 2095SOL    HW117744   0.029   2.721  15.101 -0.5906 -2.0469  0.5057
 2095SOL    HW217745   0.010   2.803  15.225  2.4654 -0.3353 -1.8772
 2096SOL     OW17746   0.565   2.882  10.150 -0.0090 -0.0620  0.1502
 2096SOL    HW117747   0.559   2.914  10.061 -2.5746 -1.8532 -0.3047
 2096SOL    HW217748   0.600   2.793  10.138 -0.8924  0.1386 -3.9097
 2097SOL     OW17749   0.277   2.030   3.962 -0.4083  0.1030 -0.4895
 2097SOL    HW117750   0.256   2.020   3.869  2.8378 -1.0511 -1.1233
 2097SOL    HW217751   0.372   2.024   3.955 -0.4660 -1.1095 -0.3479
 2098SOL     OW17752   4.305   1.017   0.432  0.1387  0.7633 -0.1584
 2098SOL    HW117753   4.346   0.937   0.400  0.2085 -1.0139  4.3956
 2098SOL    HW217754   4.256   0.989   0.509 -0.3271  1.4160 -0.2092
 2099SOL     OW17755   2.084   1.159   7.018  0.1010 -0.3571 -0.0251
 2099SOL    HW117756   2.012   1.103   7.048  1.4975 -1.4059  1.3623
 2099SOL    HW217757   2.161   1.115   7.054  0.4699 -0.3461 -0.8171
 2100SOL     OW17758   2.953   0.503  10.905 -0.0537  0.2987 -0.0089
 2100SOL    HW117759   3.018   0.573  10.915  1.1919 -0.8322 -0.2092
 2100SOL    HW217760   2.916   0.513  10.818 -0.6416  2.2249  0.4567
 2101SOL     OW17761   1.307   4.141   0.423  0.3154 -0.1217 -0.0549
 2101SOL    HW117762   1.296   4.214   0.362 -1.4297  0.6372  1.1717
 2101SOL    HW217763   1.277   4.165   0.511 -2.3852 -0.8794 -0.7672
 2102SOL     OW17764   4.263   1.898   2.591 -0.1365 -0.2459  0.7107
 2102SOL    HW117765   4.263   1.806   2.563 -1.5015 -0.4143  1.2715
 2102SOL    HW217766   4.317   1.929   2.518  0.4079 -1.0249  0.7814
 2103SOL     OW17767   0.488   1.044  10.340  0.4190 -0.9336  0.2370
 2103SOL    HW117768   0.512   1.022  10.431  2.4831  0.8947  0.1378
 2103SOL    HW217769   0.535   1.126  10.327  0.1649 -0.7703  0.3567
 2104SOL     OW17770   4.713   0.672   6.940  0.2805  0.4009 -0.8515
 2104SOL    HW117771   0.046   0.611   6.986 -3.1977 -1.6454  0.7651
 2104SOL    HW217772   4.673   0.698   7.024  1.0097 -3.2859  0.6183
 2105SOL     OW17773   0.061   4.160   9.028 -0.0412 -0.2067  0.2592
 2105SOL    HW117774   4.712   4.127   8.977 -0.5703  0.3647  0.6453
 2105SOL    HW217775   0.014   4.233   9.069  0.9775  0.6780 -0.1461
 2106SOL     OW17776   0.674   2.160  13.306 -0.6098  0.3697 -0.2018
 2106SOL    HW117777   0.740   2.190  13.243 -0.1133 -0.9373 -0.3079
 2106SOL    HW217778   0.615   2.235  13.314 -0.1833  0.9670 -2.6555
 2107SOL     OW17779   1.766   2.174   2.746 -0.2997  0.7522 -0.6674
 2107SOL    HW117780   1.711   2.134   2.813  0.6132 -1.0705 -1.0202
 2107SOL    HW217781   1.829   2.229   2.793  0.0893 -0.3691  0.1183
 2108SOL     OW17782   3.050   3.516   2.948 -0.5419  0.5494  0.2485
 2108SOL    HW117783   2.995   3.593   2.960 -1.5365 -0.1046 -0.1283
 2108SOL    HW217784   3.006   3.457   3.009 -0.3510 -0.1381 -0.2877
 2109SOL     OW17785   3.376   3.953  12.364  0.0886  0.3774 -0.1844
 2109SOL    HW117786   3.388   3.875  12.310  3.3212 -0.4490  1.7488
 2109SOL    HW217787   3.419   4.014  12.304 -0.3514 -2.3360 -3.2948
 2110SOL     OW17788   1.305   0.915   2.742  0.3827 -0.1935  0.3119
 2110SOL    HW117789   1.389   0.906   2.787  1.0125 -2.0751 -1.2438
 2110SOL    HW217790   1.324   0.887   2.653 -1.6896 -0.0550 -0.1739
 2111SOL     OW17791   2.576   2.023   3.406  0.1977 -0.3971  0.0965
 2111SOL    HW117792   2.531   1.945   3.374 -0.8606  0.2024  0.1276
 2111SOL    HW217793   2.658   1.983   3.435  1.3845  1.7566 -0.3044
 2112SOL     OW17794   1.332   1.395  11.845  0.9243  0.3015  0.0279
 2112SOL    HW117795   1.397   1.398  11.775  2.0016  0.9557  1.0763
 2112SOL    HW217796   1.272   1.329  11.809 -0.1141  1.7515 -0.9123
 2113SOL     OW17797   1.240   4.047   7.516 -0.0147  0.6522 -0.1657
 2113SOL    HW117798   1.165   4.078   7.567 -0.4183 -0.0567 -0.3241
 2113SOL    HW217799   1.207   4.073   7.430 -0.1261 -0.8242 -0.5581
 2114SOL     OW17800   0.912   4.421  15.996  0.3333  0.3990  0.2479
 2114SOL    HW117801   0.950   4.505  15.968  2.9913 -1.3901 -1.5313
 2114SOL    HW217802   0.986   4.362  15.980 -0.2604 -1.0118  2.7719
 2115SOL     OW17803   0.267   0.717   6.229  0.4127 -0.1516 -0.0478
 2115SOL    HW117804   0.226   0.715   6.316 -1.3412 -1.3716 -0.9211
 2115SOL    HW217805   0.199   0.759   6.176  0.2210 -0.8397 -0.3443
 2116SOL     OW17806   2.102   1.485  12.000 -0.0937  0.3660 -0.2199
 2116SOL    HW117807   2.147   1.503  12.083  0.3661 -0.1710 -0.3540
 2116SOL    HW217808   2.010   1.503  12.020  0.7204  2.8490  1.2778
 2117SOL     OW17809   3.724   3.414   5.455 -0.1351 -0.0463  0.7565
 2117SOL    HW117810   3.758   3.499   5.427 -2.1261  0.1450 -1.0470
 2117SOL    HW217811   3.672   3.392   5.378 -0.2741 -0.8767  1.0879
 2118SOL     OW17812   2.695   3.920  13.517 -0.0247 -0.2107  0.4272
 2118SOL    HW117813   2.713   3.867  13.439  0.9225 -0.2206  0.6545
 2118SOL    HW217814   2.600   3.909  13.520 -0.4721  2.6256 -2.4185
 2119SOL     OW17815   4.066   1.209  15.875  0.4264 -0.6052  0.1186
 2119SOL    HW117816   4.079   1.141  15.810 -2.6792  1.6873 -2.9088
 2119SOL    HW217817   3.972   1.213  15.894 -0.0769 -0.2393 -2.5934
 2120SOL     OW17818   4.499   3.661   8.802  0.0310  0.7677  0.2788
 2120SOL    HW117819   4.493   3.657   8.707  1.4686  1.7047  0.1509
 2120SOL    HW217820   4.417   3.618   8.827  0.1347  0.5070  0.1728
 2121SOL     OW17821   1.250   1.739   4.634  0.6901  0.1201 -0.4033
 2121SOL    HW117822   1.281   1.656   4.597 -0.5476 -1.4451  2.0836
 2121SOL    HW217823   1.251   1.791   4.553  2.7724  1.2681  0.3748
 2122SOL     OW17824   1.808   1.941   0.692 -0.0201  0.0060  0.3190
 2122SOL    HW117825   1.719   1.956   0.724  0.5805 -1.8790  2.7805
 2122SOL    HW217826   1.831   2.034   0.695 -1.4232  0.3486  0.7111
 2123SOL     OW17827   0.965   3.878   1.093 -0.3957  0.1770 -0.1861
 2123SOL    HW117828   0.972   3.934   1.171  0.0274  0.4468 -0.4176
 2123SOL    HW217829   1.001   3.933   1.023  1.4852  0.9786  1.4052
 2124SOL     OW17830   1.423   1.047   1.882 -0.2788  0.1253 -0.5867
 2124SOL    HW117831   1.428   0.951   1.883 -0.9581  0.0942  0.5859
 2124SOL    HW217832   1.352   1.075   1.825 -0.4603  1.9019  0.4863
 2125SOL     OW17833   3.034   1.516   1.499  0.3076  0.2272 -0.1555
 2125SOL    HW117834   2.940   1.503   1.511  0.6978 -0.0153  2.5420
 2125SOL    HW217835   3.043   1.608   1.523  1.3808 -0.0885  0.6521
 2126SOL     OW17836   2.308   1.002   0.628  0.1090  0.2066  0.1598
 2126SOL    HW117837   2.284   0.945   0.555  0.5455 -1.2466  1.1346
 2126SOL    HW217838   2.403   1.014   0.621 -0.1207  2.1607  0.5856
 2127SOL     OW17839   1.520   2.074   2.394 -0.5389 -0.0155  0.1548
 2127SOL    HW117840   1.608   2.109   2.382 -0.7477 -0.1604 -1.7178
 2127SOL    HW217841   1.530   2.023   2.475  1.0360 -0.3027 -0.2127
 2128SOL     OW17842   4.710   1.817  17.508  0.1943 -0.1553 -0.0865
 2128SOL    HW117843   0.027   1.739  17.546  2.7027  0.5817 -1.2484
 2128SOL    HW217844   4.706   1.788  17.416 -0.7809 -2.0536  0.5467
 2129SOL     OW17845   1.844   4.168   0.831  0.5284 -0.2488 -0.0799
 2129SOL    HW117846   1.756   4.139   0.805 -0.3177  0.6711  1.7593
 2129SOL    HW217847   1.831   4.255   0.792 -1.1758 -0.4090  0.1231
 2130SOL     OW17848   2.745   0.947  15.371 -0.5558  0.1969 -0.0565
 2130SOL    HW117849   2.706   1.034  15.368  2.8844  1.8381  2.1138
 2130SOL    HW217850   2.700   0.908  15.296 -1.1751  1.4298 -0.3210
 2131SOL     OW17851   3.177   2.382   4.325 -0.2207 -0.1831 -0.1480
 2131SOL    HW117852   3.228   2.330   4.262 -0.9244 -0.8127 -0.1924
 2131SOL    HW217853   3.178   2.466   4.278 -1.1368  1.7762  3.3857
 2132SOL     OW17854   4.665   3.399   1.431 -0.2404  0.0658 -0.4285
 2132SOL    HW117855   0.028   3.375   1.463 -0.2590 -0.0732 -0.4847
 2132SOL    HW217856   4.622   3.314   1.435 -1.4811  0.7280  0.1910
 2133SOL     OW17857   2.510   3.053   2.688  0.7953  0.3838 -0.7684
 2133SOL    HW117858   2.496   3.011   2.604  0.8026 -1.4829  0.1774
 2133SOL    HW217859   2.426   3.099   2.700  0.2384 -0.9778  0.5696
 2134SOL     OW17860   2.253   3.170  17.496 -0.2586  0.5638  0.6183
 2134SOL    HW117861   2.165   3.201  17.476 -0.1309  0.6257  0.1633
 2134SOL    HW217862   2.254   3.108  17.423 -1.2283 -1.1174  2.0426
 2135SOL     OW17863   2.314   1.055   1.667 -0.2882 -0.6410 -0.0867
 2135SOL    HW117864   2.401   1.033   1.701  0.0067  0.9175  0.1678
 2135SOL    HW217865   2.286   0.966   1.647 -3.4271  0.8140 -2.1478
 2136SOL     OW17866   3.368   4.200   3.223  0.0823  0.2711  0.1979
 2136SOL    HW117867   3.311   4.148   3.278  0.6522  0.5521  1.0557
 2136SOL    HW217868   3.442   4.139   3.224  0.4012  0.6356 -0.7846
 2137SOL     OW17869   2.616   0.169   2.454 -0.3782  0.0312 -0.1122
 2137SOL    HW117870   2.674   0.096   2.472  1.9883  2.3417  1.6456
 2137SOL    HW217871   2.673   0.212   2.390  0.7284  0.6301  1.2738
 2138SOL     OW17872   4.617   0.920   1.657 -0.4505  0.1890  0.1883
 2138SOL    HW117873   4.635   0.897   1.565 -1.1506  0.0043  0.0979
 2138SOL    HW217874   4.594   0.833   1.691  1.4752 -0.0365  0.9018
 2139SOL     OW17875   2.634   1.092   9.010  0.3243  0.2690 -0.3585
 2139SOL    HW117876   2.720   1.050   9.008 -0.2096 -0.7736 -1.1608
 2139SOL    HW217877   2.640   1.113   9.103 -1.1681  0.3755 -0.2927
 2140SOL     OW17878   3.797   3.319   3.906  0.1774 -0.2484  0.0155
 2140SOL    HW117879   3.746   3.241   3.885 -1.2005  0.5687  0.3611
 2140SOL    HW217880   3.763   3.344   3.991 -1.5973 -0.3388 -0.6777
 2141SOL     OW17881   4.546   4.016  16.405  0.4476  0.3967  0.6442
 2141SOL    HW117882   4.544   3.931  16.447  0.4019 -0.7982 -1.7652
 2141SOL    HW217883   4.621   4.006  16.346 -0.1921 -0.6162  0.0063
 2142SOL     OW17884   3.857   0.040   6.551 -0.5249  0.6324  0.1512
 2142SOL    HW117885   3.821   0.098   6.485  0.0819  0.5655 -0.2380
 2142SOL    HW217886   3.885   4.690   6.498  1.2310  0.0458  1.8992
 2143SOL     OW17887   2.684   3.698  15.318  0.8749 -0.2687 -0.0894
 2143SOL    HW117888   2.718   3.630  15.260  1.1293 -1.0137  0.9309
 2143SOL    HW217889   2.683   3.660  15.406 -4.6599 -0.4586 -0.2379
 2144SOL     OW17890   0.892   0.421   9.813 -0.3958 -0.0477  1.2119
 2144SOL    HW117891   0.799   0.422   9.789  0.0977 -0.2763 -0.7132
 2144SOL    HW217892   0.926   0.378   9.735  0.4549  2.1867  0.3570
 2145SOL     OW17893   2.869   4.551   9.010  0.2685 -0.2819  0.0761
 2145SOL    HW117894   2.866   4.633   9.060 -0.3841 -1.0162  1.2295
 2145SOL    HW217895   2.845   4.577   8.921 -0.8138  2.9876  1.3442
 2146SOL     OW17896   2.585   2.244   3.549 -0.9641  0.0843  0.2609
 2146SOL    HW117897   2.570   2.158   3.510 -0.5932 -0.0043  0.3145
 2146SOL    HW217898   2.562   2.298   3.474 -0.0373 -0.6867 -0.5691
 2147SOL     OW17899   1.915   3.512   6.548 -0.3669 -0.3552  0.0744
 2147SOL    HW117900   1.923   3.482   6.638 -0.8840 -1.1639 -0.1491
 2147SOL    HW217901   1.962   3.596   6.545  0.4171 -0.8600 -1.8103
 2148SOL     OW17902   3.059   4.151   4.056  0.1690 -0.1454 -0.1717
 2148SOL    HW117903   3.130   4.090   4.075 -0.6858 -1.3058 -0.6832
 2148SOL    HW217904   3.109   4.232   4.053 -2.2462  1.3171 -1.2170
 2149SOL     OW17905   1.363   4.094   2.543 -0.1651 -0.1350  0.0895
 2149SOL    HW117906   1.284   4.134   2.580 -1.0895 -1.4104 -0.4981
 2149SOL    HW217907   1.439   4.140   2.579 -1.2285  0.3286  1.7213
 2150SOL     OW17908   1.524   3.856   4.307  0.1658  0.2680 -0.0291
 2150SOL    HW117909   1.608   3.849   4.260  1.8619  2.6597  2.6739
 2150SOL    HW217910   1.500   3.942   4.273  0.9090  1.0397  1.3785
 2151SOL     OW17911   4.051   4.255   8.061  0.1519 -0.4293  0.0249
 2151SOL    HW117912   4.122   4.291   8.007 -1.1096  0.2752 -1.1543
 2151SOL    HW217913   4.038   4.327   8.124 -3.8566 -0.3017 -0.9559
 2152SOL     OW17914   1.629   2.631   7.568 -0.2124 -0.5911 -0.3682
 2152SOL    HW117915   1.701   2.574   7.540 -0.5722 -0.0877 -2.3492
 2152SOL    HW217916   1.647   2.672   7.652 -0.7580 -1.2059  0.0512
 2153SOL     OW17917   4.305   4.358  13.892 -0.3051  0.4035  0.5128
 2153SOL    HW117918   4.216   4.377  13.921  0.0280  1.3460  0.9274
 2153SOL    HW217919   4.320   4.277  13.940  0.9191  0.9996  1.1559
 2154SOL     OW17920   1.721   2.484   4.841  0.7463 -0.4689  0.6490
 2154SOL    HW117921   1.733   2.456   4.750  0.3547  2.0097 -0.1569
 2154SOL    HW217922   1.807   2.471   4.881  0.4724  0.8575  1.6680
 2155SOL     OW17923   0.400   2.609   2.777 -0.0262  0.3815 -0.0612
 2155SOL    HW117924   0.426   2.523   2.742  2.0021  0.1595  1.9676
 2155SOL    HW217925   0.476   2.664   2.761  0.0371 -0.2712 -2.1350
 2156SOL     OW17926   4.042   2.024   2.550 -0.1442  0.4260 -0.0979
 2156SOL    HW117927   4.122   1.976   2.569  0.8372  0.9595 -2.8597
 2156SOL    HW217928   4.063   2.093   2.612 -0.8716  0.8959 -0.3698
 2157SOL     OW17929   3.821   4.230   1.782 -0.0177  0.1539 -0.0871
 2157SOL    HW117930   3.826   4.320   1.749  3.7217 -0.8935 -2.3697
 2157SOL    HW217931   3.787   4.240   1.871  2.8305  0.0644  1.0075
 2158SOL     OW17932   0.575   0.718  16.799 -0.3908  0.3299 -0.4513
 2158SOL    HW117933   0.603   0.676  16.718  0.4491 -1.6650  0.8720
 2158SOL    HW217934   0.518   0.790  16.771  0.1571  1.2026  0.6756
 2159SOL     OW17935   3.953   3.276   3.244 -0.5270  0.2908  0.3605
 2159SOL    HW117936   3.895   3.290   3.318 -1.3783 -0.7273 -0.1161
 2159SOL    HW217937   3.901   3.315   3.173  0.3392 -0.1325 -0.5148
 2160SOL     OW17938   3.763   3.510  10.294 -0.0350 -0.1765 -0.1708
 2160SOL    HW117939   3.758   3.446  10.223  0.1866 -1.4552  0.9673
 2160SOL    HW217940   3.677   3.552  10.293 -0.8820 -1.8885  0.7795
 2161SOL     OW17941   2.127   0.377   4.477 -0.3024  0.4567  0.1218
 2161SOL    HW117942   2.119   0.283   4.462  1.1443  0.5979 -1.5689
 2161SOL    HW217943   2.204   0.381   4.534  0.1399 -0.1284 -0.4305
 2162SOL     OW17944   2.570   2.900  13.866  0.5894  0.0849  0.0893
 2162SOL    HW117945   2.598   2.825  13.918 -2.2287  0.3111  1.9494
 2162SOL    HW217946   2.650   2.946  13.889  0.8076  0.1131 -0.7382
 2163SOL     OW17947   2.457   3.714  16.693  0.8057  0.1215 -0.0764
 2163SOL    HW117948   2.495   3.755  16.771 -0.1516  2.4667 -0.8494
 2163SOL    HW217949   2.399   3.780  16.654 -1.4006 -0.7342  1.7806
 2164SOL     OW17950   2.024   1.983   5.234  0.2403  0.2447 -0.2139
 2164SOL    HW117951   2.024   1.897   5.274 -0.8609 -0.4875 -1.8074
 2164SOL    HW217952   2.091   2.032   5.282 -1.4708  1.9544  0.4513
 2165SOL     OW17953   4.669   4.182   7.142 -0.2652  0.0317 -0.6685
 2165SOL    HW117954   4.588   4.160   7.097 -0.0526 -2.6635  0.2583
 2165SOL    HW217955   4.627   4.253   7.190 -0.3146 -1.6566  1.8134
 2166SOL     OW17956   1.978   0.071  16.384  0.3753  0.5364  0.5163
 2166SOL    HW117957   2.056   0.128  16.386  1.0170 -0.2998 -0.9874
 2166SOL    HW217958   2.022   4.716  16.353 -0.8783  0.7909 -1.9356
 2167SOL     OW17959   2.067   4.525  16.310  0.0345  0.0790  0.3339
 2167SOL    HW117960   2.129   4.476  16.365 -1.7707 -0.2637  2.0834
 2167SOL    HW217961   2.041   4.453  16.253  2.8246 -0.9925  0.4080
 2168SOL     OW17962   2.626   4.003   5.166  0.1779  0.4239  0.5196
 2168SOL    HW117963   2.623   4.057   5.087  0.5902 -1.9002 -1.0703
 2168SOL    HW217964   2.532   3.987   5.172  0.5319 -0.2001  4.3422
 2169SOL     OW17965   1.032   4.253   5.423  0.6735 -0.2185  0.3995
 2169SOL    HW117966   0.973   4.197   5.373  0.4411 -1.3027  1.8700
 2169SOL    HW217967   1.108   4.198   5.441  0.8446  0.2157  1.0341
 2170SOL     OW17968   4.374   0.391   7.527  0.0503 -0.0903 -0.5109
 2170SOL    HW117969   4.292   0.438   7.541 -0.8907 -3.0701  4.1838
 2170SOL    HW217970   4.421   0.414   7.606  0.6991  0.0432 -0.9420
 2171SOL     OW17971   4.134   2.908   4.112  0.1757 -0.2080  0.1977
 2171SOL    HW117972   4.209   2.875   4.063  0.3604  0.8410 -0.2237
 2171SOL    HW217973   4.081   2.829   4.102  0.7507 -0.2961 -2.2805
 2172SOL     OW17974   3.309   2.214  13.318 -0.1160 -0.4823  0.4195
 2172SOL    HW117975   3.243   2.151  13.288 -0.8076 -0.9218  2.9075
 2172SOL    HW217976   3.319   2.273  13.243 -1.1974  1.2249  1.6255
 2173SOL     OW17977   3.824   3.536   6.600 -0.2372  0.3621 -0.5242
 2173SOL    HW117978   3.819   3.446   6.632 -2.5890  0.1827 -1.3561
 2173SOL    HW217979   3.852   3.533   6.509 -0.2294  0.4468 -0.5245
 2174SOL     OW17980   0.442   1.759  16.489  0.4771 -0.0238  0.4001
 2174SOL    HW117981   0.375   1.821  16.518  1.1008  0.4916  0.7185
 2174SOL    HW217982   0.520   1.808  16.513  0.8731 -1.2551  1.6621
 2175SOL     OW17983   3.431   3.897   3.610 -0.1969 -0.0039  0.2169
 2175SOL    HW117984   3.501   3.918   3.548  0.6784  1.7302  1.7826
 2175SOL    HW217985   3.406   3.988   3.628  0.3217  0.0417  0.7159
 2176SOL     OW17986   4.167   1.065   0.944  0.5127  0.3539  0.3846
 2176SOL    HW117987   4.260   1.045   0.934  0.8562  1.9849  0.2244
 2176SOL    HW217988   4.172   1.037   1.036  0.7362 -0.9341 -0.0344
 2177SOL     OW17989   0.915   2.352  13.300  0.5450 -0.8041 -0.1384
 2177SOL    HW117990   0.888   2.325  13.212  0.2865  1.1492 -0.6420
 2177SOL    HW217991   0.993   2.399  13.274 -0.0605 -1.0479 -2.3743
 2178SOL     OW17992   2.165   3.189   4.800  0.0073  0.1449  0.4813
 2178SOL    HW117993   2.201   3.273   4.771  0.6531 -0.0104  0.8327
 2178SOL    HW217994   2.133   3.165   4.714 -0.3677  1.6938  0.1918
 2179SOL     OW17995   3.417   3.243   6.818  0.6411  0.2293 -0.9615
 2179SOL    HW117996   3.418   3.220   6.725  1.9207 -2.1502 -0.3605
 2179SOL    HW217997   3.412   3.338   6.814 -0.5397  0.1670 -1.2856
 2180SOL     OW17998   3.481   1.729   6.542  0.1713 -0.2517  0.2512
 2180SOL    HW117999   3.508   1.703   6.630  1.9154 -0.0405 -0.2097
 2180SOL    HW218000   3.386   1.730   6.546  0.1828 -1.2414  0.8156
 2181SOL     OW18001   3.276   2.040  11.165 -0.3168  0.2425 -0.2639
 2181SOL    HW118002   3.305   2.024  11.255 -0.1978  1.1184 -0.1362
 2181SOL    HW218003   3.293   1.957  11.121  0.6416 -0.6740  1.8088
 2182SOL     OW18004   1.525   1.736   4.105  0.2228 -0.3884 -0.3027
 2182SOL    HW118005   1.486   1.709   4.188 -0.0099 -1.0253 -0.6201
 2182SOL    HW218006   1.453   1.793   4.078  0.9864  0.3948 -0.6816
 2183SOL     OW18007   0.871   0.990   3.176  0.2873  0.0002 -0.2568
 2183SOL    HW118008   0.810   1.005   3.248 -1.0297 -0.6273 -1.2474
 2183SOL    HW218009   0.811   0.974   3.103  1.8135 -1.5255 -1.1684
 2184SOL     OW18010   3.501   3.211   8.669  0.3279  0.4568  0.1391
 2184SOL    HW118011   3.559   3.177   8.601  2.1789  0.6896  1.5874
 2184SOL    HW218012   3.411   3.211   8.638  0.0463 -1.0538  0.9831
 2185SOL     OW18013   2.132   1.278  14.160  0.1629  0.0675  0.2287
 2185SOL    HW118014   2.108   1.192  14.194  0.9059  0.1801  1.0320
 2185SOL    HW218015   2.049   1.321  14.137  0.7623  0.9378 -0.3077
 2186SOL     OW18016   0.645   0.904   8.350 -0.0117 -0.1758  0.1021
 2186SOL    HW118017   0.670   0.944   8.433 -1.2615  1.2731 -0.2301
 2186SOL    HW218018   0.568   0.862   8.388 -1.6897  1.7734 -1.1313
 2187SOL     OW18019   2.152   4.359   7.201 -0.4452  0.2721  0.0863
 2187SOL    HW118020   2.195   4.337   7.284 -0.4597  1.5965  0.4475
 2187SOL    HW218021   2.164   4.278   7.151 -1.5653 -0.4309  0.9671
 2188SOL     OW18022   2.554   3.111  10.434  0.2914  0.1346  0.1529
 2188SOL    HW118023   2.556   3.016  10.419  0.2261  0.3600 -1.2787
 2188SOL    HW218024   2.644   3.136  10.416  0.1268 -0.1154 -1.0264
 2189SOL     OW18025   2.584   1.509   7.038  0.0609  0.4958 -0.4770
 2189SOL    HW118026   2.536   1.464   6.969  2.7616 -0.6346 -1.5932
 2189SOL    HW218027   2.515   1.543   7.096 -0.3073 -0.0514 -0.5935
 2190SOL     OW18028   3.236   0.745  14.115 -0.2093  0.0424  0.3076
 2190SOL    HW118029   3.199   0.783  14.195  0.6950  2.7298 -0.5708
 2190SOL    HW218030   3.331   0.757  14.122  0.0922 -3.2087  2.0044
 2191SOL     OW18031   0.021   3.536  13.555 -0.2733 -0.5517 -0.1580
 2191SOL    HW118032   0.087   3.527  13.487  0.4344  1.1986  0.2852
 2191SOL    HW218033   4.667   3.493  13.521 -0.6120 -0.8800  1.0375
 2192SOL     OW18034   0.239   2.308   5.694  0.2241  0.5233 -0.0077
 2192SOL    HW118035   0.226   2.401   5.676  0.7202  0.5231 -0.3732
 2192SOL    HW218036   0.316   2.317   5.750  1.9696  1.9464 -2.6349
 2193SOL     OW18037   0.816   2.798  16.522 -0.3187  0.4919  0.1898
 2193SOL    HW118038   0.855   2.830  16.604  1.4607 -2.4707  0.5000
 2193SOL    HW218039   0.853   2.862  16.462  0.6225 -0.4843 -0.2642
 2194SOL     OW18040   1.781   2.158  17.572 -0.3450 -0.1546 -0.0566
 2194SOL    HW118041   1.750   2.248  17.582 -0.9389 -0.3953  0.2801
 2194SOL    HW218042   1.734   2.122  17.648 -3.7390 -2.3812 -3.1877
 2195SOL     OW18043   4.155   0.040  13.045 -0.1737 -0.0836 -0.4479
 2195SOL    HW118044   4.133   0.019  13.136  2.9716  4.4535  1.3986
 2195SOL    HW218045   4.160   0.135  13.056  1.7209 -0.3449  0.9230
 2196SOL     OW18046   0.384   4.084  15.701 -0.3097  0.3141 -0.3034
 2196SOL    HW118047   0.451   4.043  15.757  0.5278 -1.9454 -2.9666
 2196SOL    HW218048   0.318   4.105  15.767  0.2525  1.3679 -0.0820
 2197SOL     OW18049   3.511   4.707  10.874 -0.2317 -0.5873 -0.0543
 2197SOL    HW118050   3.602   4.681  10.884 -0.5573 -1.8647 -0.4110
 2197SOL    HW218051   3.504   0.032  10.792  0.5985  1.0902  0.8720
 2198SOL     OW18052   2.248   4.413  11.831  0.5017  0.0007 -0.2973
 2198SOL    HW118053   2.227   4.330  11.873 -3.6105  1.9304  1.5579
 2198SOL    HW218054   2.159   4.448  11.819  0.4162 -0.7001 -1.6216
 2199SOL     OW18055   3.105   4.438   8.954  0.3091 -0.3373 -0.0582
 2199SOL    HW118056   3.033   4.440   9.018  1.0238 -1.1216  0.7705
 2199SOL    HW218057   3.150   4.519   8.977 -2.0353  1.2395 -1.0223
 2200SOL     OW18058   2.326   0.647   5.084 -0.6794  0.0034 -0.6132
 2200SOL    HW118059   2.357   0.564   5.120  2.9220  1.7367  0.2968
 2200SOL    HW218060   2.405   0.681   5.042 -0.5086 -1.1218 -1.2100
 2201SOL     OW18061   2.927   3.592   0.938 -0.6942 -0.2612 -0.2288
 2201SOL    HW118062   2.836   3.565   0.952 -1.0749  0.0673 -2.0904
 2201SOL    HW218063   2.978   3.537   0.998  0.1644 -0.3658 -1.0637
 2202SOL     OW18064   2.650   3.793  14.739 -0.4971 -0.3979  0.2550
 2202SOL    HW118065   2.711   3.783  14.812  1.2602 -0.9390 -1.2887
 2202SOL    HW218066   2.705   3.786  14.661 -3.4006  2.4787 -2.1069
 2203SOL     OW18067   0.785   0.368   4.091 -0.5691 -0.3475  0.2531
 2203SOL    HW118068   0.810   0.456   4.063  1.4877 -0.8495  0.5516
 2203SOL    HW218069   0.763   0.327   4.008  0.6953  0.2302 -0.3583
 2204SOL     OW18070   0.864   1.128   5.066 -0.2615 -0.5996 -0.0628
 2204SOL    HW118071   0.787   1.119   5.010  0.2801 -0.7790 -0.7768
 2204SOL    HW218072   0.837   1.200   5.122 -0.1450  1.2760 -2.4255
 2205SOL     OW18073   4.591   0.682   7.561 -0.3875 -0.1938  0.1529
 2205SOL    HW118074   4.525   0.631   7.514  0.9898 -0.2729 -1.7075
 2205SOL    HW218075   4.660   0.617   7.576 -1.3032 -1.4624 -1.1254
 2206SOL     OW18076   0.080   3.426   8.593  0.2440  0.4523  0.1056
 2206SOL    HW118077   4.716   3.402   8.565  0.2305  0.9801 -0.3219
 2206SOL    HW218078   0.105   3.506   8.547  4.0516 -0.4746  0.6124
 2207SOL     OW18079   0.486   0.567   4.379 -0.2669 -0.0967 -0.2671
 2207SOL    HW118080   0.432   0.506   4.429 -0.9928  1.2731  0.6297
 2207SOL    HW218081   0.435   0.549   4.300 -3.2253 -1.1582  1.8900
 2208SOL     OW18082   3.387   3.706   8.997 -0.6806  0.3724  1.0074
 2208SOL    HW118083   3.373   3.771   9.066  1.5226  1.3484  0.5486
 2208SOL    HW218084   3.328   3.638   9.028  0.7519 -1.6236 -0.6707
 2209SOL     OW18085   3.277   1.000  13.243  0.4598 -0.0587  0.5516
 2209SOL    HW118086   3.252   1.076  13.296 -1.1703  0.0829 -0.4390
 2209SOL    HW218087   3.190   0.962  13.234  1.7964 -2.6530 -1.2956
 2210SOL     OW18088   3.759   1.108   4.245 -0.6623  0.0081 -0.1821
 2210SOL    HW118089   3.699   1.119   4.318 -0.7193 -1.7017  0.0272
 2210SOL    HW218090   3.713   1.159   4.179  1.1304  2.1807  0.2727
 2211SOL     OW18091   1.795   1.431   3.740  0.0578 -0.4660  0.0150
 2211SOL    HW118092   1.780   1.504   3.800 -0.2143 -0.6566  0.1839
 2211SOL    HW218093   1.838   1.476   3.667 -0.1755  0.2960  0.3481
 2212SOL     OW18094   4.372   4.182   0.581 -0.0808 -0.0757  0.8531
 2212SOL    HW118095   4.365   4.166   0.676  1.1091  0.8864  1.1012
 2212SOL    HW218096   4.330   4.267   0.580 -2.2580 -1.1890 -1.3975
 2213SOL     OW18097   4.022   1.545   0.552 -0.2222 -0.2091  0.4002
 2213SOL    HW118098   4.075   1.487   0.498  0.9748  0.7589  0.5208
 2213SOL    HW218099   4.056   1.633   0.535  1.8368 -0.9787  0.5817
 2214SOL     OW18100   1.214   3.349   9.290  0.2792 -0.2082  0.0305
 2214SOL    HW118101   1.170   3.282   9.342  0.0275 -0.4688 -0.5267
 2214SOL    HW218102   1.219   3.421   9.354 -2.9959  0.7502 -0.7822
 2215SOL     OW18103   2.063   3.894  10.820  0.2417  0.2844 -0.2200
 2215SOL    HW118104   2.047   3.902  10.914  1.1125 -0.0346 -0.0447
 2215SOL    HW218105   1.981   3.929  10.784  0.3742  0.8717  0.0480
 2216SOL     OW18106   0.833   4.165  15.109 -0.2893  0.2043  0.4113
 2216SOL    HW118107   0.833   4.111  15.188 -1.0386 -0.6316 -0.1579
 2216SOL    HW218108   0.778   4.117  15.047  1.8132 -0.2819 -1.0584
 2217SOL     OW18109   2.882   4.364  16.256 -0.5699 -0.1976  0.0463
 2217SOL    HW118110   2.864   4.355  16.350  0.7571  0.8961  0.3962
 2217SOL    HW218111   2.966   4.318  16.247 -1.4658 -1.8590  0.1554
 2218SOL     OW18112   3.659   1.755   7.164  0.0162  0.0563 -0.1325
 2218SOL    HW118113   3.750   1.755   7.192 -0.3759 -1.0089  1.1314
 2218SOL    HW218114   3.642   1.661   7.160  0.5060 -0.0553  0.4420
 2219SOL     OW18115   3.262   2.470   6.436 -0.4311 -0.1273  0.3124
 2219SOL    HW118116   3.186   2.411   6.438 -1.8970  1.7050 -1.2539
 2219SOL    HW218117   3.310   2.450   6.356  0.2691 -0.0694  0.7209
 2220SOL     OW18118   4.103   3.773   7.924  0.5959 -0.1405  0.7364
 2220SOL    HW118119   4.063   3.792   7.839  1.5986  3.2418  1.0342
 2220SOL    HW218120   4.117   3.853   7.975 -0.3447  1.0854 -0.9382
 2221SOL     OW18121   0.556   3.058   3.034 -0.9373 -0.5023  0.5267
 2221SOL    HW118122   0.524   3.037   2.946  1.8971 -0.3001 -0.5413
 2221SOL    HW218123   0.643   3.019   3.038  0.6740  2.9284 -1.4641
 2222SOL     OW18124   1.433   3.042   3.686 -0.2326  0.7933  0.4818
 2222SOL    HW118125   1.478   3.124   3.667  1.1267  0.4194  2.1438
 2222SOL    HW218126   1.353   3.051   3.635 -2.4971 -0.6111  3.7861
 2223SOL     OW18127   3.288   2.677   3.142  0.0478  0.4167  0.1704
 2223SOL    HW118128   3.219   2.744   3.136 -0.5321 -0.1609  0.3833
 2223SOL    HW218129   3.241   2.615   3.198  0.9554 -0.7058 -0.3197
 2224SOL     OW18130   1.498   3.526   8.472  0.3319  0.5359 -0.3399
 2224SOL    HW118131   1.589   3.521   8.441  0.0442 -0.5726 -1.0066
 2224SOL    HW218132   1.461   3.459   8.414 -1.9182  0.8099  0.7809
 2225SOL     OW18133   3.015   4.434  14.449 -0.0736  0.0454  0.0439
 2225SOL    HW118134   3.064   4.453  14.529 -2.0695  0.8165  1.0927
 2225SOL    HW218135   3.087   4.405  14.394 -0.0647  2.6286 -1.3031
 2226SOL     OW18136   1.213   3.412   5.526  0.0415  0.4791  1.0284
 2226SOL    HW118137   1.242   3.323   5.548 -0.5779 -0.0520 -0.3344
 2226SOL    HW218138   1.153   3.432   5.598 -0.9199 -0.5907  0.5204
 2227SOL     OW18139   4.342   1.179   5.467 -0.1837  0.0376 -0.3934
 2227SOL    HW118140   4.289   1.227   5.404 -1.4892  0.4843  1.0363
 2227SOL    HW218141   4.350   1.246   5.534  3.2249  0.8165 -1.5908
 2228SOL     OW18142   3.459   3.968  13.177 -0.1382 -0.0216 -0.9420
 2228SOL    HW118143   3.526   3.900  13.173  2.0859  2.1194  0.2665
 2228SOL    HW218144   3.495   4.020  13.248  0.2814  0.9580 -1.8866
 2229SOL     OW18145   3.705   0.852   1.279 -0.0499 -0.2026 -0.5526
 2229SOL    HW118146   3.730   0.841   1.371 -2.3607 -0.6263  0.0411
 2229SOL    HW218147   3.623   0.901   1.291 -0.1130 -0.4174 -0.1105
 2230SOL     OW18148   4.054   2.031   8.587 -0.0242  0.3625 -0.3455
 2230SOL    HW118149   4.040   1.960   8.648 -1.5279  1.5666  0.6992
 2230SOL    HW218150   4.105   2.089   8.644  1.4453 -1.1006 -0.1886
 2231SOL     OW18151   3.051   3.912   3.083 -0.6119  0.1443 -0.7578
 2231SOL    HW118152   3.085   3.967   3.155  0.3236 -0.9139 -0.3934
 2231SOL    HW218153   3.134   3.907   3.035 -0.7002  0.6332 -0.9665
 2232SOL     OW18154   1.902   1.970   8.045  0.1089  0.3357 -0.1254
 2232SOL    HW118155   1.809   1.949   8.035 -0.4904  3.7070 -1.6831
 2232SOL    HW218156   1.882   2.052   8.089 -1.5691 -1.2021  1.9594
 2233SOL     OW18157   2.502   1.595   9.191 -0.1411  0.6244 -0.0828
 2233SOL    HW118158   2.517   1.604   9.097 -1.2450  3.7161  0.0287
 2233SOL    HW218159   2.419   1.643   9.189 -0.2343  0.4857  0.5211
 2234SOL     OW18160   0.935   2.518  15.693  0.0121  0.2098 -0.3322
 2234SOL    HW118161   0.840   2.509  15.689 -0.0386  0.2057  0.8994
 2234SOL    HW218162   0.954   2.428  15.720 -2.0973  0.1120  0.7816
 2235SOL     OW18163   2.615   4.634   3.398 -0.0613 -0.0312 -0.2854
 2235SOL    HW118164   2.579   4.715   3.360  0.7763  0.5060  0.0670
 2235SOL    HW218165   2.587   4.565   3.338  0.1168  0.9852 -1.5582
 2236SOL     OW18166   0.705   2.192   5.572 -0.0551  0.6376 -0.1634
 2236SOL    HW118167   0.698   2.263   5.508  0.9908  0.1692 -0.7821
 2236SOL    HW218168   0.667   2.117   5.526  2.3501 -0.6964  0.0336
 2237SOL     OW18169   2.207   2.989   6.231 -0.3277  0.6756  0.1886
 2237SOL    HW118170   2.236   3.073   6.267  2.7805  0.1492 -0.9910
 2237SOL    HW218171   2.156   2.960   6.307  1.6481 -0.4528  1.1073
 2238SOL     OW18172   1.173   1.456   1.701 -0.0759 -0.6973  0.2041
 2238SOL    HW118173   1.096   1.410   1.733  0.4226 -1.1996  0.6777
 2238SOL    HW218174   1.144   1.545   1.679 -0.1424 -1.1128 -1.4473
 2239SOL     OW18175   0.497   2.573   5.718  0.0535  0.0082 -0.2089
 2239SOL    HW118176   0.511   2.524   5.637  0.9110 -0.4963  0.2483
 2239SOL    HW218177   0.512   2.662   5.686  1.3555 -0.3098 -0.4937
 2240SOL     OW18178   0.934   4.402   6.369 -0.0053 -0.6038  0.1511
 2240SOL    HW118179   0.997   4.410   6.297 -2.1713  2.0857 -1.4573
 2240SOL    HW218180   0.878   4.338   6.325  0.0192 -0.8368  0.4582
 2241SOL     OW18181   0.574   1.650   4.332  0.5120  0.4153  0.3728
 2241SOL    HW118182   0.662   1.662   4.367  0.6482 -0.0063  0.1732
 2241SOL    HW218183   0.562   1.558   4.355 -1.2647  0.2711 -1.1353
 2242SOL     OW18184   0.342   0.105   1.916 -0.1624 -0.5281 -0.3267
 2242SOL    HW118185   0.373   0.025   1.958  2.1712  1.6005  1.9999
 2242SOL    HW218186   0.366   0.171   1.981  0.0717 -0.9231 -0.0148
 2243SOL     OW18187   4.716   3.254   6.088 -0.1593  0.2847 -0.0320
 2243SOL    HW118188   0.046   3.314   6.141 -0.4559  2.7838 -2.5431
 2243SOL    HW218189   4.675   3.209   6.161  2.2162  1.2183  1.8824
 2244SOL     OW18190   1.849   3.405   8.466  0.9806  0.0063  0.5585
 2244SOL    HW118191   1.810   3.336   8.519  2.2775 -0.2122  1.2168
 2244SOL    HW218192   1.929   3.414   8.518  1.1245 -1.2501  0.5378
 2245SOL     OW18193   2.690   0.607   7.952 -0.4222  0.5003  0.1233
 2245SOL    HW118194   2.764   0.562   7.994  0.1830  1.8338  0.4593
 2245SOL    HW218195   2.615   0.547   7.950 -0.0020 -0.0153 -0.6173
 2246SOL     OW18196   1.521   0.493  15.256  0.1535  0.1758 -0.4156
 2246SOL    HW118197   1.431   0.461  15.267 -0.2724  2.0922  1.6833
 2246SOL    HW218198   1.571   0.430  15.307 -0.9284 -0.7309 -0.4685
 2247SOL     OW18199   2.930   1.191   7.650 -0.1814  1.2082  0.6667
 2247SOL    HW118200   3.007   1.245   7.632  1.3125 -1.2475 -0.1883
 2247SOL    HW218201   2.948   1.108   7.607  0.6733  1.6523  0.1597
 2248SOL     OW18202   4.339   2.428   8.143  0.3976  0.7047 -0.6138
 2248SOL    HW118203   4.270   2.412   8.208  0.0145  0.8010 -1.0000
 2248SOL    HW218204   4.408   2.450   8.206 -0.6466  2.5617 -0.1088
 2249SOL     OW18205   0.768   1.673   4.752  0.2074  0.1035  0.0098
 2249SOL    HW118206   0.860   1.696   4.764  0.3496  0.1803 -1.1617
 2249SOL    HW218207   0.726   1.749   4.793  1.2400  0.4783  0.3688
 2250SOL     OW18208   3.524   0.438  16.037 -0.4655 -0.4752  0.2343
 2250SOL    HW118209   3.611   0.475  16.050  0.0344 -1.5915  0.0768
 2250SOL    HW218210   3.529   0.433  15.941 -0.2664  2.6514  0.0664
 2251SOL     OW18211   2.991   1.515   6.572  0.1259 -0.2926 -0.2912
 2251SOL    HW118212   3.052   1.492   6.502  0.3123 -0.2490 -0.1440
 2251SOL    HW218213   3.027   1.483   6.654 -0.3741 -1.4018 -0.4952
 2252SOL     OW18214   1.803   0.349   8.235  0.3629 -0.3757  0.1230
 2252SOL    HW118215   1.868   0.373   8.301  1.2861 -0.5448 -0.7389
 2252SOL    HW218216   1.830   0.393   8.155  1.9973  0.2718  1.0305
 2253SOL     OW18217   1.597   2.043   1.921 -0.1691 -0.3026 -0.1228
 2253SOL    HW118218   1.555   2.051   2.007 -0.0914 -0.7193 -0.0493
 2253SOL    HW218219   1.550   1.962   1.903 -2.9661  1.5986 -1.3873
 2254SOL     OW18220   3.939   4.059   4.906 -0.1280 -0.1471  0.4521
 2254SOL    HW118221   3.959   4.052   4.813 -0.5304 -3.0193  0.5979
 2254SOL    HW218222   3.939   3.968   4.934 -0.8015 -0.5058 -0.7320
 2255SOL     OW18223   0.304   2.032   7.304 -0.0162  0.0133  0.5028
 2255SOL    HW118224   0.396   2.033   7.277 -0.8950  4.1933 -2.4083
 2255SOL    HW218225   0.280   2.117   7.265 -0.2282  0.2794  1.2235
 2256SOL     OW18226   2.440   1.217   1.981 -0.4676  0.1143  0.2201
 2256SOL    HW118227   2.462   1.310   1.977  2.8686 -0.8246 -2.9334
 2256SOL    HW218228   2.517   1.179   2.023 -1.1916 -0.2383  1.2572
 2257SOL     OW18229   3.819   3.634   7.303  0.2809 -0.2505 -0.3890
 2257SOL    HW118230   3.805   3.539   7.298 -0.1746 -0.0599 -3.0879
 2257SOL    HW218231   3.896   3.641   7.359 -1.4422  2.4775  1.6149
 2258SOL     OW18232   1.563   2.944  12.428  0.6890  0.4155 -0.2346
 2258SOL    HW118233   1.508   3.017  12.456  1.6731  0.3790  1.8138
 2258SOL    HW218234   1.642   2.972  12.475  0.2858 -0.8383  1.1682
 2259SOL     OW18235   4.035   2.214  11.319  0.5963 -0.1143 -0.0772
 2259SOL    HW118236   4.124   2.179  11.306  0.2898 -0.5044 -1.1516
 2259SOL    HW218237   4.056   2.293  11.369 -0.9401 -0.3494  0.9334
 2260SOL     OW18238   2.775   0.421   4.445 -0.3984 -0.1411 -0.0384
 2260SOL    HW118239   2.797   0.417   4.538  1.0183  1.3075 -0.3064
 2260SOL    HW218240   2.817   0.502   4.416 -0.9809  0.8779  1.9875
 2261SOL     OW18241   2.083   2.166   7.214  0.4781 -0.6107 -0.4533
 2261SOL    HW118242   2.027   2.195   7.285  0.2511  1.8319 -1.6323
 2261SOL    HW218243   2.050   2.210   7.135  0.6516  0.6374  0.1733
 2262SOL     OW18244   0.474   4.541   3.728 -0.5153 -0.1378  0.2917
 2262SOL    HW118245   0.512   4.457   3.754  3.3068  1.3040 -0.5638
 2262SOL    HW218246   0.395   4.557   3.781  0.0546  0.8126  0.8625
 2263SOL     OW18247   1.168   3.768   9.707 -0.2707 -0.0798  0.0179
 2263SOL    HW118248   1.244   3.757   9.764 -0.5813 -0.0481  0.4356
 2263SOL    HW218249   1.156   3.679   9.674 -2.5344 -0.7995  2.7801
 2264SOL     OW18250   0.130   2.543   8.133  0.1893 -0.3425 -0.0732
 2264SOL    HW118251   0.196   2.581   8.074 -1.1282  3.4635  0.8676
 2264SOL    HW218252   0.121   2.627   8.179 -2.6102 -1.6355  1.7549
 2265SOL     OW18253   3.882   1.668   3.406  0.0769 -0.6452 -0.2928
 2265SOL    HW118254   3.798   1.634   3.376 -0.6932  1.8186 -0.9651
 2265SOL    HW218255   3.926   1.688   3.323  1.3401 -1.6280  0.1343
 2266SOL     OW18256   3.425   1.858   4.770 -0.5286 -0.2609 -0.1922
 2266SOL    HW118257   3.496   1.795   4.759  0.0763  0.6073 -1.2698
 2266SOL    HW218258   3.469   1.940   4.748 -1.4898  0.3491  0.1019
 2267SOL     OW18259   3.864   4.260   3.329 -0.2514 -0.2047  0.5042
 2267SOL    HW118260   3.832   4.226   3.413 -0.1926 -3.4400 -0.7583
 2267SOL    HW218261   3.784   4.291   3.286  1.1727  1.3105 -1.0599
 2268SOL     OW18262   0.027   3.365   5.144  0.2395  0.1050 -0.0781
 2268SOL    HW118263   0.054   3.294   5.086  1.2268 -1.5459  2.4060
 2268SOL    HW218264   4.719   3.318   5.221 -0.8866 -0.9887 -1.2077
 2269SOL     OW18265   1.572   1.413   2.774  0.0101 -0.4897  0.2763
 2269SOL    HW118266   1.613   1.487   2.730 -0.2274  0.2876  1.3652
 2269SOL    HW218267   1.488   1.447   2.806 -0.8755 -0.8493 -1.6660
 2270SOL     OW18268   4.319   0.770  15.414  0.2474  0.4981  0.1734
 2270SOL    HW118269   4.292   0.762  15.323 -0.2608 -0.6369  0.4230
 2270SOL    HW218270   4.401   0.819  15.409  1.2211 -1.1782 -0.6210
 2271SOL     OW18271   0.250   3.380   7.194 -0.2940 -0.3122 -0.6558
 2271SOL    HW118272   0.254   3.440   7.119  4.4579 -0.5178 -0.5645
 2271SOL    HW218273   0.159   3.352   7.195 -0.7560  1.1579 -0.0364
 2272SOL     OW18274   4.386   4.425  12.638  0.4982  0.1464 -0.4537
 2272SOL    HW118275   4.348   4.437  12.725 -0.7328 -2.0879 -0.7111
 2272SOL    HW218276   4.327   4.354  12.614 -0.2085  0.5604  0.0568
 2273SOL     OW18277   0.470   0.902   0.673  0.1642 -0.9145 -0.0585
 2273SOL    HW118278   0.456   0.890   0.579 -0.7590 -0.9159  0.0848
 2273SOL    HW218279   0.509   0.990   0.667 -2.3838  0.2477  0.5120
 2274SOL     OW18280   1.699   3.162  17.664  0.1092  0.3022 -0.7717
 2274SOL    HW118281   1.694   3.130   0.056 -3.0176 -0.2907 -1.1700
 2274SOL    HW218282   1.711   3.256  17.677  0.4422  0.0863  0.4906
 2275SOL     OW18283   2.373   0.832   8.888 -0.8502  0.3462 -0.3838
 2275SOL    HW118284   2.384   0.921   8.854 -0.3632 -0.6118 -2.7485
 2275SOL    HW218285   2.361   0.842   8.982 -1.1161  1.0800 -0.4909
 2276SOL     OW18286   2.240   2.874  11.716 -0.7313  0.2155  0.0068
 2276SOL    HW118287   2.169   2.902  11.659  0.4845  2.7724 -0.2443
 2276SOL    HW218288   2.190   2.860  11.797  0.8883 -0.1317  0.9603
 2277SOL     OW18289   2.842   2.336   3.526 -0.2452 -0.4179  0.3692
 2277SOL    HW118290   2.840   2.428   3.553  1.9855 -0.3503  0.2522
 2277SOL    HW218291   2.748   2.322   3.535  0.0768 -2.1463  1.0968
 2278SOL     OW18292   3.484   4.321   5.749 -0.2347  0.1576  0.0462
 2278SOL    HW118293   3.577   4.342   5.741  0.5238 -2.5776  1.7943
 2278SOL    HW218294   3.453   4.405   5.716 -0.1480  0.6138  1.0963
 2279SOL     OW18295   2.837   4.633   2.842 -0.1307  0.3024 -0.4075
 2279SOL    HW118296   2.786   4.603   2.917 -0.6896  1.2455 -0.4111
 2279SOL    HW218297   2.914   4.577   2.849 -1.7749 -2.0491 -1.1600
 2280SOL     OW18298   4.569   1.506   0.130  0.6488  0.0421  0.3198
 2280SOL    HW118299   4.543   1.519   0.222 -0.4901  0.0786 -0.0108
 2280SOL    HW218300   4.508   1.437   0.103  1.2925 -0.5265  0.3337
 2281SOL     OW18301   2.455   2.401   7.612 -0.4618  0.4396 -0.0506
 2281SOL    HW118302   2.502   2.318   7.599 -0.4362  0.6087 -1.0071
 2281SOL    HW218303   2.459   2.428   7.520  0.9925  0.8019  0.1233
 2282SOL     OW18304   2.120   4.118  17.150  0.0828  0.2906 -0.7496
 2282SOL    HW118305   2.197   4.092  17.201  1.1365 -0.0895 -2.5705
 2282SOL    HW218306   2.159   4.143  17.067  1.3722  0.3115 -0.1304
 2283SOL     OW18307   0.799   4.655   6.348  0.6267  0.0836 -0.4760
 2283SOL    HW118308   0.781   4.660   6.254  1.9253  1.0550 -0.6685
 2283SOL    HW218309   0.845   4.571   6.358  1.0908  0.4187  0.1620
 2284SOL     OW18310   2.052   1.393   8.079  0.5545  0.3018  0.3876
 2284SOL    HW118311   2.063   1.300   8.059 -3.2803 -0.4242  1.6333
 2284SOL    HW218312   2.088   1.438   8.003 -1.0470 -1.7750 -1.5864
 2285SOL     OW18313   1.850   0.907   2.301  0.0144  0.1970  0.7745
 2285SOL    HW118314   1.915   0.838   2.291  1.1049  1.4334 -0.5994
 2285SOL    HW218315   1.911   0.980   2.298 -0.8377  0.8443 -0.8513
 2286SOL     OW18316   1.492   2.018   7.633 -0.1950  0.0483  0.3500
 2286SOL    HW118317   1.451   2.069   7.703  0.7461  1.3266 -0.0247
 2286SOL    HW218318   1.422   2.004   7.569  1.3813 -0.2280 -1.3149
 2287SOL     OW18319   0.268   1.650  12.025 -0.4951  0.0157  0.5336
 2287SOL    HW118320   0.300   1.688  11.943  1.1013  1.9458  2.0455
 2287SOL    HW218321   0.280   1.557  12.007  1.3698  0.6928 -1.8074
 2288SOL     OW18322   0.028   2.105   9.473 -0.6804 -0.5480  0.4456
 2288SOL    HW118323   0.091   2.034   9.487  0.3930 -0.2544 -2.8983
 2288SOL    HW218324   4.670   2.064   9.446  0.1070 -1.0455 -1.1963
 2289SOL     OW18325   1.001   2.516   0.688 -0.2682 -0.4785  0.4112
 2289SOL    HW118326   0.955   2.590   0.648  0.5809 -0.6909 -0.9638
 2289SOL    HW218327   1.084   2.514   0.640 -0.3963  1.0991  0.1414
 2290SOL     OW18328   4.264   1.158   0.214  0.0824  0.8358 -0.3474
 2290SOL    HW118329   4.356   1.141   0.194 -0.2820 -0.6669 -0.7524
 2290SOL    HW218330   4.245   1.079   0.266 -2.1268  1.1091 -0.7126
 2291SOL     OW18331   3.508   3.822  11.656  0.1166 -0.0510 -0.1789
 2291SOL    HW118332   3.488   3.908  11.692  0.6281  0.5011 -1.1985
 2291SOL    HW218333   3.444   3.766  11.700  0.5932  0.8814  1.6902
 2292SOL     OW18334   3.264   4.711  11.409 -0.3947 -0.4015 -0.2341
 2292SOL    HW118335   3.354   0.012  11.390 -0.0089 -1.2717  0.3826
 2292SOL    HW218336   3.239   0.067  11.454 -0.9708 -0.1626 -0.9961
 2293SOL     OW18337   2.254   1.142   3.105 -0.5398 -0.2680 -0.8992
 2293SOL    HW118338   2.286   1.069   3.052 -1.6090 -1.2437 -0.2065
 2293SOL    HW218339   2.172   1.108   3.142 -0.4210 -1.8400 -2.0793
 2294SOL     OW18340   2.157   1.902  12.325  0.4856 -0.2320 -0.2156
 2294SOL    HW118341   2.101   1.955  12.269  1.8656  0.6529 -0.7714
 2294SOL    HW218342   2.231   1.877  12.268 -0.1623  1.0688 -1.6104
 2295SOL     OW18343   1.087   4.145   6.374 -0.2626 -0.7712  0.1691
 2295SOL    HW118344   1.163   4.100   6.335  0.7003  0.0774  1.0848
 2295SOL    HW218345   1.112   4.232   6.403 -0.3423 -0.8182  0.3763
 2296SOL     OW18346   1.037   1.049   9.266 -0.3377  0.9477  0.0861
 2296SOL    HW118347   1.059   1.125   9.319  0.6324  0.8088 -0.1187
 2296SOL    HW218348   0.960   1.018   9.315  0.7264 -0.0682  1.1101
 2297SOL     OW18349   3.061   3.251  15.238 -0.4520  0.5719  0.0386
 2297SOL    HW118350   3.000   3.271  15.167 -0.8345  1.4616  0.6242
 2297SOL    HW218351   3.056   3.317  15.307  0.0012 -1.7733  2.3155
 2298SOL     OW18352   0.777   2.570   4.103 -0.1378 -0.3853  1.0058
 2298SOL    HW118353   0.836   2.503   4.070  0.0202  0.1885  0.1273
 2298SOL    HW218354   0.828   2.615   4.170  0.5035  0.6532 -0.1659
 2299SOL     OW18355   4.158   4.430   6.505 -0.0667  0.4998  0.2515
 2299SOL    HW118356   4.115   4.431   6.591 -0.0174 -0.6808  0.2973
 2299SOL    HW218357   4.228   4.366   6.516  0.4139  0.9272 -0.3924
 2300SOL     OW18358   3.743   0.971   4.949  0.2022 -0.2140  0.2329
 2300SOL    HW118359   3.816   1.009   4.900 -0.8275  0.4526 -0.7802
 2300SOL    HW218360   3.679   0.979   4.879  1.5363  1.5069 -0.7777
 2301SOL     OW18361   0.235   4.223  14.658  0.1831 -0.2873 -0.2595
 2301SOL    HW118362   0.278   4.234  14.573 -1.3335 -1.5293 -1.1955
 2301SOL    HW218363   0.312   4.237  14.713 -0.8362 -0.2161  1.1593
 2302SOL     OW18364   1.798   2.669   0.515  0.5347  0.2626  0.5532
 2302SOL    HW118365   1.894   2.670   0.514  0.5673 -2.1061 -0.7777
 2302SOL    HW218366   1.772   2.623   0.435  1.7493  1.3658 -0.4762
 2303SOL     OW18367   2.963   0.201   1.133 -0.3560 -0.5615  0.3475
 2303SOL    HW118368   2.978   0.205   1.039  1.9751 -0.2664  0.7311
 2303SOL    HW218369   3.049   0.169   1.163 -1.0486  0.2045  3.1196
 2304SOL     OW18370   2.614   0.121   3.877 -0.0320  0.0578  0.2999
 2304SOL    HW118371   2.698   0.114   3.923  1.4197 -1.2020 -2.5246
 2304SOL    HW218372   2.629   0.198   3.823 -0.0040  0.3105  0.6667
 2305SOL     OW18373   0.660   2.576   3.109 -0.1913 -0.5430  0.4086
 2305SOL    HW118374   0.694   2.592   3.021 -0.0175 -0.1601  0.5447
 2305SOL    HW218375   0.567   2.582   3.087 -0.2287  0.6353  0.9242
 2306SOL     OW18376   3.755   4.029   4.500 -0.3335 -0.0590 -0.2075
 2306SOL    HW118377   3.661   4.049   4.499 -0.2070  0.4643 -1.4079
 2306SOL    HW218378   3.773   4.082   4.423  2.6991 -0.6350  0.1307
 2307SOL     OW18379   3.143   4.310  16.190 -0.3410  0.1056  0.8738
 2307SOL    HW118380   3.209   4.256  16.234  0.9250  0.0709 -1.0493
 2307SOL    HW218381   3.095   4.238  16.148  1.8927 -1.2155  0.5884
 2308SOL     OW18382   3.602   0.328  13.253  0.2569  0.4314 -1.1553
 2308SOL    HW118383   3.648   0.245  13.249  0.1190  0.3738 -1.5245
 2308SOL    HW218384   3.667   0.398  13.252  0.6566  0.1001  0.5511
 2309SOL     OW18385   3.007   4.688   4.647 -0.1070 -0.0104  0.8535
 2309SOL    HW118386   2.963   0.049   4.658 -0.7146  0.0276 -1.7038
 2309SOL    HW218387   2.937   4.630   4.616  0.0424  1.1951 -1.8063
 2310SOL     OW18388   4.056   3.560   7.452 -0.0760 -0.3672 -0.5269
 2310SOL    HW118389   4.063   3.467   7.433  2.8676 -0.1902 -0.2937
 2310SOL    HW218390   4.142   3.586   7.485  0.4179  0.9820 -2.8498
 2311SOL     OW18391   3.476   3.621   3.174 -0.4009  0.5615 -0.0892
 2311SOL    HW118392   3.488   3.554   3.241 -2.5029  1.3123  1.0607
 2311SOL    HW218393   3.381   3.633   3.184 -0.1915  0.2900  2.3292
 2312SOL     OW18394   3.257   4.583   2.507  0.2746 -0.4503  0.1370
 2312SOL    HW118395   3.338   4.607   2.461  0.6317 -1.8827  0.0215
 2312SOL    HW218396   3.266   4.625   2.592  0.3979  0.9062 -0.5493
 2313SOL     OW18397   4.024   4.066   0.313  0.2291  0.2600  0.1175
 2313SOL    HW118398   4.072   3.985   0.298  0.4394  0.1016  1.6049
 2313SOL    HW218399   3.936   4.046   0.282  0.1783  0.4237  0.1532
 2314SOL     OW18400   3.283   1.380   2.906  0.3528  0.2507  0.2557
 2314SOL    HW118401   3.275   1.302   2.962  1.9317  1.2362  1.8247
 2314SOL    HW218402   3.340   1.347   2.836 -1.7988  2.1269 -2.3908
 2315SOL     OW18403   1.979   0.470   0.450  0.5746 -0.8159  0.3680
 2315SOL    HW118404   2.063   0.469   0.495 -0.9278 -2.4564  3.1180
 2315SOL    HW218405   1.930   0.533   0.503 -0.7520  0.6100 -2.5230
 2316SOL     OW18406   2.006   0.735  13.672 -0.2634 -0.1954  0.3318
 2316SOL    HW118407   1.985   0.754  13.763 -0.2265  1.1345  0.0672
 2316SOL    HW218408   1.981   0.642  13.668  1.2281 -0.6194  0.8095
 2317SOL     OW18409   2.007   3.562   7.155 -0.6129 -0.2424  0.0281
 2317SOL    HW118410   2.006   3.538   7.248 -1.5551 -0.1909  0.0350
 2317SOL    HW218411   1.947   3.637   7.153  0.9119  1.0046  1.1731
 2318SOL     OW18412   4.339   1.133   4.143 -0.0269  0.0393  0.6039
 2318SOL    HW118413   4.320   1.227   4.141 -0.6885 -0.0810  1.1264
 2318SOL    HW218414   4.282   1.110   4.216  0.3773  0.4626  1.0538
 2319SOL     OW18415   0.378   4.248   7.480  0.2785  1.0746 -0.1883
 2319SOL    HW118416   0.295   4.246   7.433  0.2208 -2.2204  0.0631
 2319SOL    HW218417   0.343   4.306   7.548  0.3960  0.3493  0.4943
 2320SOL     OW18418   1.960   1.755  13.389 -0.1011  0.2159 -0.3134
 2320SOL    HW118419   1.921   1.768  13.302 -0.8596  0.5209  0.0689
 2320SOL    HW218420   1.921   1.828  13.436 -1.5120 -0.7300 -0.0187
 2321SOL     OW18421   4.680   2.542   9.195  0.3445  0.2508  0.4257
 2321SOL    HW118422   0.008   2.511   9.268 -0.1968 -0.7918  0.3701
 2321SOL    HW218423   4.706   2.634   9.198 -0.9450  0.6661 -0.8650
 2322SOL     OW18424   0.774   2.019  14.490 -0.1259 -0.2067  0.5960
 2322SOL    HW118425   0.803   1.928  14.499  1.3114  0.2333  0.4973
 2322SOL    HW218426   0.759   2.044  14.582  0.1480 -0.7915  0.7977
 2323SOL     OW18427   1.869   4.174   8.911 -0.3551  0.0754 -0.2089
 2323SOL    HW118428   1.798   4.167   8.975 -0.2825 -1.3414 -0.2797
 2323SOL    HW218429   1.823   4.196   8.830 -2.4452  0.5393  1.1142
 2324SOL     OW18430   4.561   2.514   6.431 -0.2908  0.0029  0.1300
 2324SOL    HW118431   4.640   2.568   6.431 -0.1324 -0.2055 -1.4862
 2324SOL    HW218432   4.554   2.494   6.524  0.1078 -0.1017  0.1389
 2325SOL     OW18433   3.937   2.176   6.901 -0.2654 -0.0073  0.3258
 2325SOL    HW118434   3.949   2.081   6.909  1.2515  0.1380 -0.2157
 2325SOL    HW218435   3.859   2.191   6.848 -1.4137 -1.4491  1.6080
 2326SOL     OW18436   2.068   3.262   5.976 -0.1304  0.1718  0.1352
 2326SOL    HW118437   2.049   3.350   6.009 -0.7963 -0.2055  0.7530
 2326SOL    HW218438   1.995   3.213   6.013 -0.2544 -0.3803 -0.8565
 2327SOL     OW18439   2.325   0.509   2.381  0.4958 -0.0456 -0.2404
 2327SOL    HW118440   2.401   0.557   2.347  0.7044  0.6208  1.1485
 2327SOL    HW218441   2.341   0.421   2.348 -0.2963 -0.6699  1.0663
 2328SOL     OW18442   2.602   0.718   8.620  0.6313  0.2527  0.2162
 2328SOL    HW118443   2.656   0.795   8.637  2.2722 -0.9744  0.5350
 2328SOL    HW218444   2.578   0.727   8.528  0.2532  1.4589  0.4350
 2329SOL     OW18445   2.240   2.348  10.875 -0.1919 -0.4302 -0.5578
 2329SOL    HW118446   2.266   2.303  10.955 -1.2032 -0.8966 -0.4881
 2329SOL    HW218447   2.217   2.273  10.820  1.6236 -0.8911 -0.6966
 2330SOL     OW18448   1.890   4.142  10.786  0.3236  0.4840 -0.0699
 2330SOL    HW118449   1.844   4.059  10.771  1.5419  0.1599 -1.9719
 2330SOL    HW218450   1.853   4.190  10.712 -2.2285 -1.2462  0.0758
 2331SOL     OW18451   4.166   1.342  15.191 -0.3391  0.2015  0.2123
 2331SOL    HW118452   4.153   1.271  15.128 -0.6207  0.5203 -0.0872
 2331SOL    HW218453   4.262   1.335  15.195 -0.3132 -0.2156 -1.1802
 2332SOL     OW18454   1.426   0.512   2.885  0.2172  0.0728 -0.6539
 2332SOL    HW118455   1.490   0.505   2.813 -1.1987  0.8591 -1.9752
 2332SOL    HW218456   1.421   0.423   2.922  0.4768 -0.3765 -1.6915
 2333SOL     OW18457   4.619   1.309   5.776  1.2345  0.1641 -0.4216
 2333SOL    HW118458   4.533   1.327   5.814  0.9220 -1.3848 -0.4012
 2333SOL    HW218459   4.680   1.300   5.849 -0.0281 -0.0522  0.6073
 2334SOL     OW18460   3.650   1.637   2.168 -0.0448 -0.0376 -0.0958
 2334SOL    HW118461   3.668   1.717   2.218 -0.1277 -0.6210  0.8641
 2334SOL    HW218462   3.668   1.672   2.081  1.1042  4.0216  1.7477
 2335SOL     OW18463   1.371   3.800   9.915  0.0157  0.0849 -0.2412
 2335SOL    HW118464   1.424   3.872   9.880 -0.4234  1.1732  1.3140
 2335SOL    HW218465   1.434   3.728   9.908  1.5682  1.2988  1.4986
 2336SOL     OW18466   0.772   3.135  12.707 -0.2843  0.3898  0.1704
 2336SOL    HW118467   0.735   3.111  12.792 -0.6857 -0.1683 -0.1680
 2336SOL    HW218468   0.793   3.051  12.667 -1.4967  0.2779 -0.2033
 2337SOL     OW18469   1.089   3.290  16.051  0.0670  0.2646  0.1458
 2337SOL    HW118470   1.029   3.328  15.987  1.3276  0.2540 -1.0397
 2337SOL    HW218471   1.121   3.364  16.102  0.5696  0.3885 -0.3544
 2338SOL     OW18472   0.326   0.412   2.671  0.4517  0.1421  0.7446
 2338SOL    HW118473   0.347   0.319   2.680  0.7999  0.2940  1.5182
 2338SOL    HW218474   0.308   0.409   2.577  0.8784  0.2677  0.6601
 2339SOL     OW18475   3.551   3.484   2.775  0.2096 -0.6203  0.3607
 2339SOL    HW118476   3.611   3.548   2.812 -1.4590  0.7370  0.7392
 2339SOL    HW218477   3.560   3.415   2.841  1.9217 -0.6458  0.0820
 2340SOL     OW18478   3.974   1.438   0.799 -0.0155 -0.4123 -0.1845
 2340SOL    HW118479   3.956   1.478   0.714 -1.8428 -1.6368 -0.3820
 2340SOL    HW218480   3.908   1.370   0.782 -0.3359 -0.7800  2.5526
 2341SOL     OW18481   4.635   0.269   1.328 -0.3039  0.8077 -0.0416
 2341SOL    HW118482   4.567   0.214   1.367  0.2531 -0.0636 -0.2883
 2341SOL    HW218483   4.690   0.288   1.404  1.5345 -0.2212 -1.1175
 2342SOL     OW18484   0.890   2.495   8.288  0.2308 -0.0002  0.4422
 2342SOL    HW118485   0.930   2.513   8.373  0.7623  0.7910  0.0223
 2342SOL    HW218486   0.841   2.416   8.311  1.6000 -0.9142  0.2025
 2343SOL     OW18487   1.172   3.983   4.623  0.2153  0.6272 -0.4308
 2343SOL    HW118488   1.094   4.032   4.596 -0.6206 -0.4854 -0.0266
 2343SOL    HW218489   1.232   4.041   4.576 -0.6984  1.7882 -0.1688
 2344SOL     OW18490   3.800   0.103  13.119  0.3532 -0.1213  0.5007
 2344SOL    HW118491   3.798   0.091  13.024 -1.0235 -3.0924  0.9205
 2344SOL    HW218492   3.805   0.011  13.147 -0.1042 -0.4612 -0.5188
 2345SOL     OW18493   0.882   1.512   7.024 -0.0672 -0.5546  0.3177
 2345SOL    HW118494   0.887   1.514   7.120  1.3164  2.1478  0.1922
 2345SOL    HW218495   0.930   1.432   7.003  0.9316 -0.6087  2.7803
 2346SOL     OW18496   0.080   4.721   1.953 -0.4700 -0.5737  0.2613
 2346SOL    HW118497   0.054   4.690   1.867 -0.8144  0.2472  0.0729
 2346SOL    HW218498   0.161   0.042   1.929 -2.4535  1.8443 -1.8946
 2347SOL     OW18499   1.188   3.453  10.306  0.7136  0.1643  0.5014
 2347SOL    HW118500   1.134   3.376  10.325  1.1304 -0.3107 -0.2349
 2347SOL    HW218501   1.165   3.502  10.385  1.2388 -0.6584  1.1584
 2348SOL     OW18502   1.096   0.332   3.431 -0.3042 -0.6324  0.5271
 2348SOL    HW118503   1.100   0.238   3.451  0.8408 -0.8200 -0.5898
 2348SOL    HW218504   1.048   0.356   3.510  0.2683 -2.4731  1.4238
 2349SOL     OW18505   4.131   0.248   6.691 -0.3241  0.3784 -0.4726
 2349SOL    HW118506   4.087   0.167   6.716 -0.6481  0.5271 -0.5491
 2349SOL    HW218507   4.170   0.274   6.774  0.8655  0.3029 -1.0043
 2350SOL     OW18508   2.275   0.565  15.405 -0.9545  0.5631  0.3925
 2350SOL    HW118509   2.289   0.628  15.476  0.3582 -0.2993  0.8974
 2350SOL    HW218510   2.247   0.629  15.338 -0.7790  2.7032  2.3541
 2351SOL     OW18511   3.740   2.509   6.764 -0.9226  0.2558  0.9063
 2351SOL    HW118512   3.714   2.420   6.743 -0.9498  0.3478  0.5479
 2351SOL    HW218513   3.823   2.515   6.716 -0.4601  0.8489  1.7690
 2352SOL     OW18514   0.717   1.433   9.055  0.1123 -0.6305 -0.3215
 2352SOL    HW118515   0.808   1.430   9.087  0.6536 -3.0006 -2.1087
 2352SOL    HW218516   0.721   1.506   8.992  0.5243 -0.4490 -0.0859
 2353SOL     OW18517   1.897   1.008   3.850  0.0825 -0.5591  0.5351
 2353SOL    HW118518   1.913   1.086   3.904  0.3537  0.1614 -0.5690
 2353SOL    HW218519   1.943   0.943   3.902  0.7369  0.0542  0.7305
 2354SOL     OW18520   1.732   0.091   3.450 -0.3260 -0.2875  0.0892
 2354SOL    HW118521   1.657   0.149   3.464 -1.3183 -1.9242  1.5623
 2354SOL    HW218522   1.724   0.054   3.363 -3.8421 -0.9920  0.7220
 2355SOL     OW18523   0.412   0.748  12.794  0.8248 -0.2697  0.0558
 2355SOL    HW118524   0.410   0.831  12.840 -0.4801  0.1304 -0.7240
 2355SOL    HW218525   0.478   0.765  12.727  0.5627  1.9850  0.3833
 2356SOL     OW18526   2.621   1.838  17.248  0.1141  0.2846 -0.0607
 2356SOL    HW118527   2.580   1.826  17.334 -0.7819  0.1196 -0.5161
 2356SOL    HW218528   2.663   1.753  17.238  1.6548  1.2200 -1.6325
 2357SOL     OW18529   0.296   2.266  13.847 -0.0115 -0.8355 -1.0735
 2357SOL    HW118530   0.377   2.262  13.796  0.4931  1.0735 -0.4259
 2357SOL    HW218531   0.322   2.211  13.920  0.0944 -0.0698 -0.5305
 2358SOL     OW18532   3.962   3.390   7.698  0.0704 -0.4510  0.2768
 2358SOL    HW118533   4.034   3.452   7.710 -0.7197  1.0908 -2.9639
 2358SOL    HW218534   4.023   3.316   7.702 -0.5028 -0.9985 -1.1112
 2359SOL     OW18535   3.231   4.064   6.491 -0.4884  0.3246  0.1114
 2359SOL    HW118536   3.308   4.020   6.527  1.2605  3.0853 -0.2924
 2359SOL    HW218537   3.208   4.126   6.560 -1.0481 -0.3154  0.5065
 2360SOL     OW18538   2.464   2.726  11.844 -0.3392  0.6238  0.3010
 2360SOL    HW118539   2.530   2.795  11.834 -0.4144  0.3847 -1.8117
 2360SOL    HW218540   2.411   2.749  11.767 -0.0063  2.9524  0.7408
 2361SOL     OW18541   2.490   0.918   7.862 -0.6320  0.5339  0.2349
 2361SOL    HW118542   2.493   0.982   7.933 -0.0430  1.2385 -0.4126
 2361SOL    HW218543   2.572   0.935   7.816 -1.1650 -1.4016 -1.4256
 2362SOL     OW18544   1.713   0.451   9.802 -0.8725  0.3138  0.0252
 2362SOL    HW118545   1.646   0.404   9.851 -0.8290 -0.5506 -0.7496
 2362SOL    HW218546   1.680   0.455   9.712 -0.0357  0.1330 -0.2937
 2363SOL     OW18547   4.091   0.255   8.427  0.2015  0.4292 -0.0873
 2363SOL    HW118548   4.006   0.218   8.452 -0.2683  1.1301 -0.6169
 2363SOL    HW218549   4.065   0.277   8.337 -0.8702  0.2712  0.1811
 2364SOL     OW18550   3.858   2.411   7.041  0.3016  0.5224  0.0888
 2364SOL    HW118551   3.764   2.393   7.041 -0.1543  2.8593 -0.1270
 2364SOL    HW218552   3.903   2.335   7.004  0.1996  1.6949 -2.4944
 2365SOL     OW18553   2.756   3.695   6.259  0.1030 -0.0148  0.6466
 2365SOL    HW118554   2.789   3.608   6.285 -2.9081 -1.1134  0.7935
 2365SOL    HW218555   2.829   3.752   6.282 -0.9094  1.0508  1.1963
 2366SOL     OW18556   2.727   0.268   3.013 -0.4489  0.3010 -0.1104
 2366SOL    HW118557   2.737   0.230   2.926  0.6270  1.0213 -0.2960
 2366SOL    HW218558   2.686   0.195   3.060  0.7936 -0.0441  0.4277
 2367SOL     OW18559   2.030   3.476   7.436 -0.6202  0.3254 -0.4585
 2367SOL    HW118560   2.071   3.533   7.502 -0.3829 -1.0104  0.5417
 2367SOL    HW218561   2.000   3.406   7.494 -0.8660 -1.1727 -2.3837
 2368SOL     OW18562   3.229   3.251   2.585 -0.1848 -0.4831  0.0522
 2368SOL    HW118563   3.189   3.267   2.499 -3.5171  0.5874  1.7866
 2368SOL    HW218564   3.236   3.339   2.622 -0.4351 -1.2263  1.8401
 2369SOL     OW18565   4.610   3.594   4.416 -0.1079  0.4091  0.4991
 2369SOL    HW118566   4.634   3.511   4.374  0.9343  0.1068  1.7051
 2369SOL    HW218567   4.689   3.645   4.402 -0.3721  0.5969 -0.2626
 2370SOL     OW18568   0.099   4.417   0.041 -0.3434  0.1412  0.0814
 2370SOL    HW118569   0.067   4.493  17.690 -2.1778 -1.3172 -0.9898
 2370SOL    HW218570   0.168   4.380  17.684  0.9122 -0.2322  1.8936
 2371SOL     OW18571   3.733   1.086   7.822 -0.1364 -0.1077 -0.4762
 2371SOL    HW118572   3.772   1.011   7.866 -1.8293  0.9133  2.7200
 2371SOL    HW218573   3.803   1.150   7.830  0.2640 -0.7034  0.7012
 2372SOL     OW18574   1.462   2.915  12.928  0.2458  0.2784  0.2248
 2372SOL    HW118575   1.472   2.946  12.838  0.1019 -1.7190 -0.4750
 2372SOL    HW218576   1.424   2.995  12.963  1.1074  0.0928  1.5687
 2373SOL     OW18577   4.243   4.698   7.538  0.8507 -0.7770 -0.5324
 2373SOL    HW118578   4.259   0.054   7.588  3.3242 -1.1544 -0.6977
 2373SOL    HW218579   4.300   4.639   7.588  1.1665  0.1685  0.2216
 2374SOL     OW18580   0.819   3.161  15.633 -0.0178 -0.2868  0.1598
 2374SOL    HW118581   0.914   3.145  15.626 -0.0651 -1.5294  2.3477
 2374SOL    HW218582   0.806   3.255  15.621 -1.9022 -0.7890 -1.6209
 2375SOL     OW18583   3.398   2.646   3.738 -0.1174 -0.1873 -0.2618
 2375SOL    HW118584   3.364   2.683   3.656 -0.1330  2.1884  0.7925
 2375SOL    HW218585   3.491   2.667   3.723 -0.6474  1.7360 -0.9714
 2376SOL     OW18586   0.791   0.217   5.212  0.2152 -0.9235  0.1981
 2376SOL    HW118587   0.751   0.213   5.299 -1.9383  0.6425 -0.7453
 2376SOL    HW218588   0.761   0.138   5.167 -0.7497 -0.4915  0.0984
 2377SOL     OW18589   0.281   3.234   6.233 -0.4617  0.0720 -0.2095
 2377SOL    HW118590   0.332   3.315   6.239  3.8456 -2.8604  2.5671
 2377SOL    HW218591   0.297   3.209   6.142 -2.5519  1.9134 -1.0766
 2378SOL     OW18592   4.596   2.728   7.570  0.3303  0.1959  0.4798
 2378SOL    HW118593   4.521   2.786   7.555  0.5965  0.3284 -0.3426
 2378SOL    HW218594   4.586   2.669   7.495 -1.2501  0.6947  0.2831
 2379SOL     OW18595   2.475   4.034  14.791 -0.6265  0.0384 -0.1963
 2379SOL    HW118596   2.543   4.063  14.852 -0.0198  1.3542 -1.4940
 2379SOL    HW218597   2.522   3.973  14.734 -3.6185 -0.2037 -2.3797
 2380SOL     OW18598   4.470   1.612  14.758 -0.1723 -0.4948  0.1856
 2380SOL    HW118599   4.425   1.557  14.822 -0.3572 -1.1569 -0.5002
 2380SOL    HW218600   4.389   1.651  14.726  0.3828 -0.0045 -0.6451
 2381SOL     OW18601   0.518   1.623  15.119 -0.2880 -0.1155  0.6334
 2381SOL    HW118602   0.439   1.598  15.071  0.1825 -0.0122 -0.1993
 2381SOL    HW218603   0.572   1.547  15.098 -0.1647 -0.3641  1.8479
 2382SOL     OW18604   0.146   1.406   6.743  0.1827  0.6431 -0.6563
 2382SOL    HW118605   0.102   1.491   6.737  0.8472  1.0206 -0.1686
 2382SOL    HW218606   0.239   1.425   6.756 -0.0041  0.0892  1.5091
 2383SOL     OW18607   4.058   1.158   3.929 -0.2150 -0.3458  0.7712
 2383SOL    HW118608   4.059   1.254   3.936 -1.1015 -0.3720  1.2505
 2383SOL    HW218609   4.019   1.161   3.842 -0.5271 -1.5511  0.8781
 2384SOL     OW18610   1.239   0.750  12.156 -0.5817  0.2484  0.1239
 2384SOL    HW118611   1.308   0.734  12.220  0.4099  1.6354 -0.5947
 2384SOL    HW218612   1.169   0.698  12.195  0.0378 -2.0114 -1.8029
 2385SOL     OW18613   3.277   2.278   3.650 -0.3363 -0.5844  0.2787
 2385SOL    HW118614   3.316   2.345   3.595 -0.4073 -1.6019 -1.0050
 2385SOL    HW218615   3.209   2.239   3.594 -0.9744 -0.7843  1.1800
 2386SOL     OW18616   2.457   3.245   6.797  0.0224  0.0159  0.2274
 2386SOL    HW118617   2.492   3.239   6.886  0.3830 -2.8499 -0.0974
 2386SOL    HW218618   2.367   3.212   6.802 -0.0555 -0.0116 -1.2849
 2387SOL     OW18619   3.653   0.104   5.989  0.0549  0.1694  0.2364
 2387SOL    HW118620   3.603   0.168   6.040 -0.1031 -0.1605  0.4958
 2387SOL    HW218621   3.740   0.105   6.028 -1.3099  0.1207  3.2938
 2388SOL     OW18622   0.432   1.842  14.122  0.4671  0.0777 -0.3554
 2388SOL    HW118623   0.425   1.827  14.216  1.5036  1.1143 -0.1034
 2388SOL    HW218624   0.431   1.938  14.116 -1.4264  0.2195  2.2192
 2389SOL     OW18625   4.102   2.626   5.303 -0.1093  0.3000  0.0136
 2389SOL    HW118626   4.177   2.686   5.302 -0.7439  1.0652 -2.2826
 2389SOL    HW218627   4.156   2.547   5.308  2.3181  2.0976  1.9018
 2390SOL     OW18628   2.275   0.389   4.719 -0.0701  0.3849 -0.5687
 2390SOL    HW118629   2.241   0.311   4.764  0.8847  1.6783  2.4234
 2390SOL    HW218630   2.361   0.396   4.762 -1.2700 -0.7041  1.9971
 2391SOL     OW18631   3.943   3.537   0.661 -0.3009  0.2241  0.3329
 2391SOL    HW118632   3.865   3.563   0.710  0.1185 -1.0443  1.6773
 2391SOL    HW218633   4.004   3.511   0.731 -0.1227  1.5876  0.6833
 2392SOL     OW18634   4.205   4.110   6.134 -0.4367 -0.3990 -0.1668
 2392SOL    HW118635   4.161   4.195   6.133 -2.4709 -1.4699 -0.2690
 2392SOL    HW218636   4.210   4.093   6.040  2.3380 -0.3953 -0.0213
 2393SOL     OW18637   1.273   0.265   5.073  0.1927 -0.1456  0.2790
 2393SOL    HW118638   1.230   0.181   5.086 -0.2231  0.3337  1.9430
 2393SOL    HW218639   1.349   0.248   5.129  0.1945  2.3074  1.0100
 2394SOL     OW18640   3.779   2.554   5.486 -0.4703  0.4539 -0.2287
 2394SOL    HW118641   3.786   2.648   5.503 -1.7574  0.0809  2.2576
 2394SOL    HW218642   3.864   2.532   5.524  0.4313  2.6283 -0.9658
 2395SOL     OW18643   3.359   2.492  14.569  0.4176 -0.0137  0.0604
 2395SOL    HW118644   3.367   2.439  14.648  1.8485 -1.0423 -0.7688
 2395SOL    HW218645   3.434   2.472  14.513  0.8201  0.6697  0.3640
 2396SOL     OW18646   3.111   4.186   6.993  0.0159  0.0782 -0.4674
 2396SOL    HW118647   3.067   4.148   7.069  0.6404 -0.8859 -0.5856
 2396SOL    HW218648   3.028   4.213   6.953  1.1116  1.2539 -1.9393
 2397SOL     OW18649   4.190   3.395   3.305  0.1789  0.1207 -0.0884
 2397SOL    HW118650   4.124   3.328   3.287 -1.3146  1.7479 -0.5855
 2397SOL    HW218651   4.145   3.476   3.283 -1.1512 -1.2019 -2.1982
 2398SOL     OW18652   3.098   2.707   4.480  0.3346 -0.9202 -0.1405
 2398SOL    HW118653   3.157   2.761   4.532 -0.5029 -0.0189 -0.1287
 2398SOL    HW218654   3.019   2.760   4.486  1.0463 -0.1272  1.9968
 2399SOL     OW18655   4.199   0.943   8.516 -0.0784  0.3396 -0.1903
 2399SOL    HW118656   4.260   0.960   8.444  1.1414 -2.5800  0.1610
 2399SOL    HW218657   4.232   0.988   8.594 -0.2717 -0.1810  0.1869
 2400SOL     OW18658   2.426   1.447   5.780 -0.5670 -0.0886 -0.1435
 2400SOL    HW118659   2.436   1.442   5.875 -0.6415 -0.8720 -0.1749
 2400SOL    HW218660   2.517   1.433   5.754 -0.6163  0.7037 -0.7555
 2401SOL     OW18661   3.053   3.113   0.017  0.3263  0.4739 -0.3040
 2401SOL    HW118662   2.980   3.070   0.062  1.1597  1.8431  2.3866
 2401SOL    HW218663   3.048   3.077  17.627  0.0990 -2.3090  0.8417
 2402SOL     OW18664   4.044   2.894  13.663  0.1295 -0.3278  0.7159
 2402SOL    HW118665   3.963   2.945  13.675  0.3558  0.0047  0.8367
 2402SOL    HW218666   4.047   2.841  13.743 -1.9784  0.5471  1.3665
 2403SOL     OW18667   0.426   3.472   3.888  0.2648  0.4973 -0.4817
 2403SOL    HW118668   0.410   3.393   3.939  0.7490  0.6883 -0.0322
 2403SOL    HW218669   0.446   3.426   3.806 -2.0647  1.0076 -1.3366
 2404SOL     OW18670   3.135   1.590   5.786  0.0357 -0.4324  0.2497
 2404SOL    HW118671   3.190   1.514   5.806  1.4023  0.0121 -1.8259
 2404SOL    HW218672   3.182   1.646   5.849  0.1612  1.5189 -1.5904
 2405SOL     OW18673   3.665   2.350   1.689  0.2142 -0.4409  0.1536
 2405SOL    HW118674   3.644   2.434   1.647 -0.2593 -0.7733 -0.2754
 2405SOL    HW218675   3.760   2.347   1.678  0.0956  0.0986 -0.9633
 2406SOL     OW18676   2.658   1.340   5.701  0.1692 -0.1562  0.2810
 2406SOL    HW118677   2.741   1.321   5.744  0.1207 -3.2150 -0.9745
 2406SOL    HW218678   2.640   1.257   5.657 -0.3478  0.2257 -0.2349
 2407SOL     OW18679   3.414   2.038   2.885  0.3352 -0.1902  0.3206
 2407SOL    HW118680   3.433   2.114   2.830  0.6208 -0.4030  0.1253
 2407SOL    HW218681   3.320   2.051   2.901 -0.1141 -1.4814 -1.1762
 2408SOL     OW18682   1.666   4.488  12.304  0.3121 -0.1648  0.3589
 2408SOL    HW118683   1.727   4.561  12.316  0.1624 -0.1881  1.2215
 2408SOL    HW218684   1.731   4.440  12.252  0.9910 -1.4246  2.3897
 2409SOL     OW18685   2.480   4.714  12.652 -0.5635  0.1244 -0.0143
 2409SOL    HW118686   2.508   0.060  12.592 -0.4130  0.4653  0.4538
 2409SOL    HW218687   2.465   0.040  12.732  1.7906  1.2488 -0.2582
 2410SOL     OW18688   2.554   4.265   2.440 -0.3706 -0.5294  0.0435
 2410SOL    HW118689   2.499   4.247   2.363 -1.1483 -0.0361  0.4810
 2410SOL    HW218690   2.519   4.196   2.497 -1.7382  1.0587  1.1095
 2411SOL     OW18691   3.967   4.456  17.103  0.1209  0.3761  0.9108
 2411SOL    HW118692   4.022   4.380  17.119  0.1266  0.2407  0.2732
 2411SOL    HW218693   4.018   4.503  17.036 -1.9124  0.9332 -0.2670
 2412SOL     OW18694   0.470   0.597  15.860  0.8791 -0.1410 -0.8144
 2412SOL    HW118695   0.566   0.597  15.868  0.9525  0.5218 -1.7434
 2412SOL    HW218696   0.465   0.654  15.783  0.9792  1.6174  0.4976
 2413SOL     OW18697   1.942   1.515   7.331  0.6146  0.3065  0.3912
 2413SOL    HW118698   1.863   1.528   7.278  0.7201 -2.9324 -0.5336
 2413SOL    HW218699   2.009   1.557   7.276 -1.8187  2.5626 -0.8715
 2414SOL     OW18700   3.289   4.463  17.148  0.7081  0.4794  0.7755
 2414SOL    HW118701   3.329   4.418  17.074  0.9732  0.9591  0.6246
 2414SOL    HW218702   3.278   4.552  17.114 -0.2963 -0.9049 -2.4839
 2415SOL     OW18703   3.689   2.391   1.304  0.1510  0.2852  0.1672
 2415SOL    HW118704   3.727   2.393   1.216  1.1361  1.6009  0.6170
 2415SOL    HW218705   3.771   2.373   1.349  1.5218  4.0041 -0.8249
 2416SOL     OW18706   2.692   3.289   8.906 -0.2345  0.4327  0.4602
 2416SOL    HW118707   2.598   3.276   8.921 -0.7948  2.6615 -1.1830
 2416SOL    HW218708   2.717   3.216   8.963  0.6753 -0.9823 -1.7793
 2417SOL     OW18709   1.891   1.439  10.883 -0.6188 -0.0789 -0.0150
 2417SOL    HW118710   1.805   1.417  10.920 -0.3353  0.0742  0.7463
 2417SOL    HW218711   1.871   1.504  10.816  0.9304 -3.0842 -3.3164
 2418SOL     OW18712   0.204   1.812   2.366  0.3954 -0.2134 -0.2135
 2418SOL    HW118713   0.142   1.749   2.330 -1.1326  2.8738 -2.9764
 2418SOL    HW218714   0.172   1.805   2.456 -0.2843  2.1920 -0.2680
 2419SOL     OW18715   3.522   0.932   7.368  0.4139 -0.0400  0.2029
 2419SOL    HW118716   3.458   0.875   7.410 -1.6639  1.7755 -0.4824
 2419SOL    HW218717   3.556   0.981   7.443  0.6668  0.7735 -0.4325
 2420SOL     OW18718   3.948   2.333   3.549 -0.3631 -0.2062  0.1403
 2420SOL    HW118719   4.007   2.406   3.569 -1.5166  1.2837 -1.8416
 2420SOL    HW218720   3.997   2.314   3.469 -2.9526  0.9864 -1.7094
 2421SOL     OW18721   1.692   1.846   5.436 -0.3874  0.4648 -0.0592
 2421SOL    HW118722   1.736   1.928   5.458 -0.8396  0.4283  0.9531
 2421SOL    HW218723   1.670   1.803   5.518 -1.4370 -0.1436 -0.6698
 2422SOL     OW18724   2.417   2.622   6.310  0.1657 -0.5975  0.2438
 2422SOL    HW118725   2.453   2.538   6.341 -0.6312 -1.0860 -0.1571
 2422SOL    HW218726   2.414   2.605   6.216  0.2027 -0.3509  0.2000
 2423SOL     OW18727   0.026   0.692   6.074 -0.2318 -0.0897  0.8406
 2423SOL    HW118728   0.096   0.634   6.046 -0.1016  0.5027 -0.0399
 2423SOL    HW218729   4.702   0.633   6.133  0.9048 -3.0816 -1.2614
 2424SOL     OW18730   1.707   2.094   3.554  0.3034 -0.1806 -0.0421
 2424SOL    HW118731   1.753   2.011   3.540 -1.4256 -1.6024  2.5940
 2424SOL    HW218732   1.640   2.068   3.617 -0.6034  0.4821 -0.7367
 2425SOL     OW18733   3.552   2.721   4.687  0.4559  0.2751 -0.3625
 2425SOL    HW118734   3.537   2.721   4.781  1.2451  2.2716 -0.2471
 2425SOL    HW218735   3.621   2.786   4.672  1.4763 -0.3238  1.7784
 2426SOL     OW18736   2.678   1.997   5.229 -0.2284 -0.0862 -0.1313
 2426SOL    HW118737   2.754   1.953   5.191 -0.4740  0.4327 -1.2285
 2426SOL    HW218738   2.684   1.976   5.322  3.1867  0.1818 -0.2998
 2427SOL     OW18739   2.251   0.504   7.430  0.3635  0.2821  0.1343
 2427SOL    HW118740   2.304   0.434   7.392  0.7239  0.2217  0.7674
 2427SOL    HW218741   2.169   0.491   7.382 -1.2193  1.5173  2.5241
 2428SOL     OW18742   2.549   0.146  11.068 -0.2105  0.1953  0.1446
 2428SOL    HW118743   2.607   0.082  11.107 -1.0027 -0.9031 -0.4728
 2428SOL    HW218744   2.473   0.139  11.126 -0.8215 -1.2328 -0.8261
 2429SOL     OW18745   1.386   1.163   4.930 -0.1296 -0.5098 -0.6294
 2429SOL    HW118746   1.414   1.244   4.888 -0.5263  0.2754  0.6256
 2429SOL    HW218747   1.295   1.185   4.950  0.2987  0.0882  0.6485
 2430SOL     OW18748   2.419   1.796   3.359 -0.0835  0.1563 -0.5086
 2430SOL    HW118749   2.410   1.725   3.423  1.2763  1.6540  1.3067
 2430SOL    HW218750   2.388   1.747   3.282  0.7879 -1.2844  0.0622
 2431SOL     OW18751   0.029   4.647   8.072 -0.3486  0.1647  0.8910
 2431SOL    HW118752   0.081   4.659   7.993 -1.4475 -1.2256 -0.0377
 2431SOL    HW218753   0.097   4.666   8.137 -1.4898  1.5911  1.6599
 2432SOL     OW18754   1.816   0.789   7.187  0.4848 -0.0727  0.2752
 2432SOL    HW118755   1.805   0.694   7.193  1.5062 -0.0909  1.9232
 2432SOL    HW218756   1.821   0.810   7.280  0.8351  0.2128  0.1932
 2433SOL     OW18757   0.543   3.152  16.021 -0.3159 -0.5621  0.0544
 2433SOL    HW118758   0.624   3.136  15.974  0.0993  1.6341  0.0379
 2433SOL    HW218759   0.575   3.145  16.111  0.2110  1.2234  0.0065
 2434SOL     OW18760   2.339   2.062   1.196  0.7801 -0.2608  0.6554
 2434SOL    HW118761   2.245   2.066   1.182  0.9188  2.9843  0.6698
 2434SOL    HW218762   2.349   2.138   1.254 -0.8984 -0.3745  1.1001
 2435SOL     OW18763   2.321   1.453  14.690  0.8992 -0.7322  0.4989
 2435SOL    HW118764   2.304   1.440  14.596  0.8937 -0.9343  0.5280
 2435SOL    HW218765   2.403   1.501  14.677  1.9018 -2.0346  2.0504
 2436SOL     OW18766   4.522   0.945   8.531 -0.3024  0.7095 -1.0660
 2436SOL    HW118767   4.567   0.860   8.526 -0.3416  0.5875  0.8535
 2436SOL    HW218768   4.476   0.936   8.614 -1.0254  0.7255 -1.4567
 2437SOL     OW18769   1.883   4.717   7.968  0.0500  0.0798 -0.1708
 2437SOL    HW118770   1.922   4.630   7.964  0.4884  0.2109  1.0663
 2437SOL    HW218771   1.920   0.037   7.893  1.0405 -0.6743 -0.1177
 2438SOL     OW18772   4.459   3.715   0.398 -0.7396 -0.3366 -0.6119
 2438SOL    HW118773   4.402   3.792   0.393  0.1544  0.3809  0.4530
 2438SOL    HW218774   4.548   3.745   0.415 -0.6882  0.3022 -2.0094
 2439SOL     OW18775   0.564   3.785   1.887  0.3407  0.3962  0.0202
 2439SOL    HW118776   0.607   3.838   1.820  0.3328  1.6149  0.9883
 2439SOL    HW218777   0.587   3.697   1.857  0.2482 -0.5177  2.6546
 2440SOL     OW18778   3.354   4.515  11.009 -0.0522 -0.6195  0.6901
 2440SOL    HW118779   3.405   4.562  10.943 -1.2266 -0.0461  0.1882
 2440SOL    HW218780   3.263   4.544  10.999  0.5317  1.0062 -0.0477
 2441SOL     OW18781   4.521   0.224   4.071 -0.3797 -0.5949  0.3317
 2441SOL    HW118782   4.440   0.219   4.020 -1.0702  0.5844  1.3374
 2441SOL    HW218783   4.560   0.304   4.035  4.1782 -2.5072  1.0132
 2442SOL     OW18784   1.547   0.306   5.166 -0.2286  0.3358 -0.1867
 2442SOL    HW118785   1.544   0.401   5.158  0.9633  0.2484 -1.6287
 2442SOL    HW218786   1.601   0.297   5.245 -0.6515  3.3646  0.4647
 2443SOL     OW18787   2.167   0.508   9.832  0.0282 -0.2113  0.4490
 2443SOL    HW118788   2.221   0.531   9.907 -0.1242  1.7138 -0.0239
 2443SOL    HW218789   2.103   0.452   9.874  2.3744 -2.3781  1.1345
 2444SOL     OW18790   1.009   2.445   7.497  0.2388 -0.0216 -0.5743
 2444SOL    HW118791   1.082   2.504   7.517 -0.6634 -0.1519  3.1199
 2444SOL    HW218792   1.025   2.376   7.561 -0.5340  0.3809  0.0531
 2445SOL     OW18793   1.588   2.312   4.413  0.4239  0.0824  0.5757
 2445SOL    HW118794   1.646   2.283   4.483 -1.3040 -1.6802  1.2859
 2445SOL    HW218795   1.652   2.350   4.353 -0.0763 -0.0454 -0.0414
 2446SOL     OW18796   1.314   3.774  15.046 -0.4045 -0.0770  0.4089
 2446SOL    HW118797   1.306   3.683  15.017 -0.9644 -0.2125  0.9874
 2446SOL    HW218798   1.328   3.826  14.966 -0.7860  1.1973  1.1697
 2447SOL     OW18799   4.529   2.817  11.550 -0.2785  0.3024 -0.5585
 2447SOL    HW118800   4.593   2.886  11.569  0.0902 -0.1041 -0.3215
 2447SOL    HW218801   4.522   2.812  11.455  1.5813  0.9236 -0.7320
 2448SOL     OW18802   2.446   3.192  13.152  0.2138  0.6888  0.0784
 2448SOL    HW118803   2.455   3.148  13.236 -2.2530  0.2926  0.1161
 2448SOL    HW218804   2.530   3.239  13.152  1.2330 -1.1256  1.4708
 2449SOL     OW18805   3.477   4.034  11.815 -0.2291  0.7106 -0.0277
 2449SOL    HW118806   3.492   4.058  11.907  2.3069  1.1446 -0.5548
 2449SOL    HW218807   3.438   4.118  11.790 -0.7781  0.2434 -0.7379
 2450SOL     OW18808   4.722   1.000   5.041 -0.0426 -0.1512  0.3054
 2450SOL    HW118809   0.036   0.985   4.955 -0.3832  0.8426 -0.0124
 2450SOL    HW218810   0.032   0.922   5.085  1.2070 -1.0080 -2.2015
 2451SOL     OW18811   1.655   4.720  15.056  0.0296 -0.0381 -0.0577
 2451SOL    HW118812   1.729   4.665  15.031 -0.7914 -0.8104 -0.7724
 2451SOL    HW218813   1.683   0.083  15.030 -2.2991  0.0220 -2.3446
 2452SOL     OW18814   1.344   3.202   6.850  0.2715  0.4713 -0.3847
 2452SOL    HW118815   1.353   3.150   6.770  0.2825  0.0584 -0.1147
 2452SOL    HW218816   1.403   3.273   6.827 -0.9340  1.8793  0.8597
 2453SOL     OW18817   2.105   1.872   3.269 -0.1622  0.4777 -0.4066
 2453SOL    HW118818   2.123   1.779   3.275  0.5366  0.5579 -1.2031
 2453SOL    HW218819   2.176   1.897   3.210  0.2854  3.2646  1.3027
 2454SOL     OW18820   2.332   2.005  14.947  0.2887  0.2561  0.7151
 2454SOL    HW118821   2.331   2.099  14.929 -1.1414  0.4242  1.7226
 2454SOL    HW218822   2.425   1.983  14.939 -0.0219 -0.7006 -0.2922
 2455SOL     OW18823   0.425   1.578   2.556 -0.6276 -0.6613  0.3894
 2455SOL    HW118824   0.438   1.582   2.461  0.6596 -1.4889  0.5348
 2455SOL    HW218825   0.341   1.531   2.554 -0.1676 -1.4545 -0.2423
 2456SOL     OW18826   2.992   4.591   7.844  0.2881  0.2480  0.0734
 2456SOL    HW118827   2.996   4.509   7.893  1.2528  0.1439 -0.1778
 2456SOL    HW218828   3.085   4.614   7.841  0.7646 -1.7690 -0.2931
 2457SOL     OW18829   3.609   0.953   3.979  0.3436  0.1442 -0.0367
 2457SOL    HW118830   3.666   0.956   4.056 -2.3610  1.6928  1.8726
 2457SOL    HW218831   3.561   0.873   4.000 -1.2417  0.8012 -1.1488
 2458SOL     OW18832   3.885   2.726   4.971  0.1860 -0.3486  0.4111
 2458SOL    HW118833   3.809   2.783   4.959 -0.9117 -2.1744 -1.2494
 2458SOL    HW218834   3.948   2.756   4.906 -0.1851  0.6452  0.5139
 2459SOL     OW18835   3.258   1.248  13.449 -1.1983 -0.1160 -0.9118
 2459SOL    HW118836   3.163   1.248  13.436 -1.4282  0.2104  0.7537
 2459SOL    HW218837   3.283   1.339  13.430  2.1436 -0.8126  0.1368
 2460SOL     OW18838   1.502   4.378   9.337  0.1711  0.4107  0.0507
 2460SOL    HW118839   1.567   4.315   9.307  0.9516  0.8184  0.9134
 2460SOL    HW218840   1.527   4.402   9.426  1.4546 -1.0932  0.0872
 2461SOL     OW18841   4.543   2.424   2.217  0.3191  0.0661  0.3706
 2461SOL    HW118842   4.500   2.357   2.270  0.8237 -1.2126 -0.8194
 2461SOL    HW218843   4.597   2.466   2.284  1.3438  1.9650 -1.6199
 2462SOL     OW18844   2.857   1.063   8.005 -0.1347  0.4956  0.3144
 2462SOL    HW118845   2.911   1.143   8.003  1.1268 -0.3891 -0.8232
 2462SOL    HW218846   2.918   1.007   8.053  0.6556 -0.2304 -1.5379
 2463SOL     OW18847   1.642   0.861   7.721 -0.1544 -0.2852 -0.2993
 2463SOL    HW118848   1.596   0.930   7.767 -0.2778 -0.6294  0.0907
 2463SOL    HW218849   1.710   0.825   7.777  0.1162  0.1044 -0.3835
 2464SOL     OW18850   0.788   1.912  13.701 -0.4120  0.9298  0.0599
 2464SOL    HW118851   0.743   1.971  13.640 -1.6941  1.5511  1.6006
 2464SOL    HW218852   0.851   1.965  13.751  1.0976  0.7309 -1.6273
 2465SOL     OW18853   3.585   4.337   5.454 -0.5915 -0.1703 -0.0690
 2465SOL    HW118854   3.503   4.385   5.438  1.3027  2.8503 -0.7843
 2465SOL    HW218855   3.569   4.244   5.437 -1.3986 -0.2353  1.0468
 2466SOL     OW18856   1.648   1.728   1.542  0.2155  0.6743 -0.4418
 2466SOL    HW118857   1.711   1.775   1.487  0.4115 -1.2070 -1.8669
 2466SOL    HW218858   1.721   1.687   1.589 -0.6185  0.9217  1.0299
 2467SOL     OW18859   1.159   2.786   4.031  0.2715  0.1781  0.1463
 2467SOL    HW118860   1.127   2.844   4.100 -2.1458  1.3986 -2.0281
 2467SOL    HW218861   1.244   2.773   4.073  1.8604  3.1449 -2.1825
 2468SOL     OW18862   2.874   0.867   9.048  0.2412 -0.4038 -0.3396
 2468SOL    HW118863   2.877   0.892   9.141  2.6282 -0.0982 -0.4812
 2468SOL    HW218864   2.790   0.822   9.042 -0.2169  0.5951 -1.2970
 2469SOL     OW18865   0.249   0.145   3.288 -0.4603 -0.1632  0.1977
 2469SOL    HW118866   0.258   0.185   3.201  2.0203 -0.9654  0.0831
 2469SOL    HW218867   0.173   0.193   3.321  0.2461 -0.0861  1.6785
 2470SOL     OW18868   0.677   2.899   5.029  0.5444 -1.0287 -0.0813
 2470SOL    HW118869   0.621   2.859   5.095  0.7715  1.7908  1.8074
 2470SOL    HW218870   0.727   2.962   5.080  0.1730 -1.5738  0.9475
 2471SOL     OW18871   1.367   2.311   2.433  0.4457 -0.2778 -0.2542
 2471SOL    HW118872   1.393   2.335   2.522  0.3311 -0.0618 -0.2796
 2471SOL    HW218873   1.434   2.246   2.414  1.5315  1.0454 -0.9337
 2472SOL     OW18874   1.796   1.541   9.811  0.6663  0.2628 -0.2199
 2472SOL    HW118875   1.808   1.619   9.758 -2.4334  2.6895  2.6529
 2472SOL    HW218876   1.869   1.547   9.872  0.1463  2.5387  0.1716
 2473SOL     OW18877   0.624   1.636   8.704 -0.0815  0.5085  0.5933
 2473SOL    HW118878   0.568   1.577   8.653 -1.3917 -0.2331  2.9424
 2473SOL    HW218879   0.680   1.686   8.645 -1.7833  0.3682 -1.1596
 2474SOL     OW18880   0.811   0.050   4.866  0.0912  0.4465 -0.2679
 2474SOL    HW118881   0.888   4.718   4.876 -0.2149  0.1939  0.6498
 2474SOL    HW218882   0.828   0.081   4.777 -1.9714  2.1003 -0.0832
 2475SOL     OW18883   0.261   2.581  15.484 -0.4953  0.2052  0.7006
 2475SOL    HW118884   0.212   2.615  15.410  0.9049 -0.2309 -0.4274
 2475SOL    HW218885   0.327   2.648  15.500 -1.0321  1.2237 -1.3814
 2476SOL     OW18886   2.144   1.596   3.270 -0.2852 -0.2419  0.8361
 2476SOL    HW118887   2.097   1.513   3.267 -3.7023  1.6955  0.6759
 2476SOL    HW218888   2.149   1.596   3.366  1.4738  3.9703  0.7838
 2477SOL     OW18889   1.298   0.611   1.362 -0.4698  0.7206 -0.1016
 2477SOL    HW118890   1.390   0.631   1.382 -0.4977  1.3801 -0.6125
 2477SOL    HW218891   1.298   0.516   1.363  0.8884  0.7194  0.3880
 2478SOL     OW18892   0.118   3.364   0.079 -0.4697 -0.1736 -0.0749
 2478SOL    HW118893   0.167   3.387   0.158  1.3769 -3.1681 -0.3439
 2478SOL    HW218894   0.188   3.370   0.013  0.6568 -1.8546  0.9848
 2479SOL     OW18895   2.405   2.761  15.806 -0.1040 -0.8124  0.4011
 2479SOL    HW118896   2.362   2.767  15.891 -0.2795  1.9284  0.1191
 2479SOL    HW218897   2.323   2.730  15.767 -0.4449  0.5872  0.0224
 2480SOL     OW18898   2.239   2.854   3.640 -0.0231 -0.0021  0.0799
 2480SOL    HW118899   2.181   2.780   3.622  0.0864 -0.3044  1.0014
 2480SOL    HW218900   2.300   2.821   3.705 -0.0831 -0.0629  0.1055
 2481SOL     OW18901   2.633   1.821  15.202 -0.2177 -0.2592  0.2992
 2481SOL    HW118902   2.680   1.738  15.192 -1.7414 -1.0523 -0.2268
 2481SOL    HW218903   2.700   1.889  15.197 -2.1758  1.7613  1.8113
 2482SOL     OW18904   0.634   3.722   2.898  0.1479 -0.7569  0.1500
 2482SOL    HW118905   0.690   3.796   2.918  1.4996 -1.1101 -2.3265
 2482SOL    HW218906   0.692   3.647   2.908  0.0245 -1.0671 -1.4431
 2483SOL     OW18907   2.853   0.905   2.467 -0.1176  0.0092  0.5068
 2483SOL    HW118908   2.917   0.834   2.461 -0.1619 -0.1412  1.7003
 2483SOL    HW218909   2.916   0.973   2.492 -1.7240  1.1329  1.4803
 2484SOL     OW18910   2.995   0.675   2.397 -0.1026 -0.6289 -0.3296
 2484SOL    HW118911   2.994   0.592   2.445  1.2741 -0.8423 -0.6644
 2484SOL    HW218912   2.927   0.666   2.331 -0.1713 -1.1058 -0.1943
 2485SOL     OW18913   0.955   1.889   6.435 -0.2597 -0.2916 -0.1240
 2485SOL    HW118914   0.981   1.860   6.348  2.0502  0.2308  0.3809
 2485SOL    HW218915   0.968   1.983   6.425 -0.4990 -0.2758 -0.2942
 2486SOL     OW18916   1.745   3.579   5.645  0.1438  0.6053 -0.1233
 2486SOL    HW118917   1.705   3.632   5.713 -2.7905 -0.5809 -0.9029
 2486SOL    HW218918   1.700   3.495   5.656 -1.3853  1.0673 -2.7070
 2487SOL     OW18919   4.536   1.440  13.021  0.2704  0.1838  0.2485
 2487SOL    HW118920   4.550   1.351  13.054  1.3642  1.2702  2.6710
 2487SOL    HW218921   4.621   1.462  12.984 -0.3027  0.5151 -0.8442
 2488SOL     OW18922   1.786   3.271   7.292 -0.1158 -0.1678  0.4042
 2488SOL    HW118923   1.712   3.328   7.312 -1.1852 -1.5350  0.3214
 2488SOL    HW218924   1.823   3.277   7.380  0.7441 -0.9388  0.0979
 2489SOL     OW18925   4.581   2.178  17.668 -0.6181 -0.1977 -0.3313
 2489SOL    HW118926   4.575   2.255   0.026  1.5366  0.3412 -0.8542
 2489SOL    HW218927   4.494   2.139  17.677 -1.8010  2.5974  0.4168
 2490SOL     OW18928   4.240   0.716   7.612  0.0952  0.1067  0.3509
 2490SOL    HW118929   4.277   0.712   7.700  0.0652  2.2376  0.4562
 2490SOL    HW218930   4.225   0.809   7.599 -2.4988 -0.0587  2.1382
 2491SOL     OW18931   3.125   4.295   3.748 -0.1694 -0.8037 -0.0961
 2491SOL    HW118932   3.066   4.369   3.737  0.0337 -0.8567 -1.4976
 2491SOL    HW218933   3.065   4.230   3.784  0.7056 -1.1805  0.6838
 2492SOL     OW18934   4.476   0.486  13.503  0.3468  0.5807  0.3083
 2492SOL    HW118935   4.436   0.567  13.536 -1.5814 -0.5701  0.7543
 2492SOL    HW218936   4.557   0.496  13.554 -0.3203 -0.2557  1.5049
 2493SOL     OW18937   3.212   2.936   6.689  0.7087  0.2131  0.4368
 2493SOL    HW118938   3.174   2.882   6.620  3.6042  0.8643 -1.6674
 2493SOL    HW218939   3.292   2.892   6.716  0.2237 -0.8112  0.1843
 2494SOL     OW18940   4.089   1.837  12.580 -0.3764  0.2064  0.3896
 2494SOL    HW118941   4.159   1.898  12.559 -0.8658  1.1722  1.5423
 2494SOL    HW218942   4.101   1.810  12.672  3.3277  1.4507  0.2584
 2495SOL     OW18943   1.262   3.492   6.478 -0.4407  0.1473  0.4677
 2495SOL    HW118944   1.220   3.455   6.556  0.4905 -0.8321  0.5089
 2495SOL    HW218945   1.326   3.555   6.513  0.4348 -0.4903 -0.0083
 2496SOL     OW18946   1.614   4.677   6.622  0.2255  0.1189  0.3809
 2496SOL    HW118947   1.625   0.038   6.579 -2.1600  0.4581  0.4321
 2496SOL    HW218948   1.533   4.691   6.671  1.5392  1.6478  2.1046
 2497SOL     OW18949   2.207   1.165   9.879  0.0573  0.0006  0.0202
 2497SOL    HW118950   2.142   1.100   9.851  0.9867  0.3427 -2.9090
 2497SOL    HW218951   2.286   1.111   9.868  0.1022  0.1588 -0.4115
 2498SOL     OW18952   4.711   0.415   7.872  0.2833  0.1658 -0.4067
 2498SOL    HW118953   0.078   0.391   7.858  0.2312 -1.3344  1.7199
 2498SOL    HW218954   4.689   0.337   7.924  3.0940 -0.7278 -0.5493
 2499SOL     OW18955   1.659   3.573   7.069 -0.6416 -0.2259  0.3327
 2499SOL    HW118956   1.585   3.525   7.104 -1.2280  0.9794  0.7473
 2499SOL    HW218957   1.638   3.666   7.082 -3.0769 -0.6688 -0.5357
 2500SOL     OW18958   0.938   2.155  16.293  0.0704 -0.1148  0.0032
 2500SOL    HW118959   0.916   2.073  16.337  2.6263 -1.6363 -1.5737
 2500SOL    HW218960   0.866   2.152  16.230 -0.5434  0.8729  0.6590
 2501SOL     OW18961   3.289   3.030   3.721 -0.4139  0.1603 -0.3503
 2501SOL    HW118962   3.341   3.111   3.715 -0.3937 -0.0789 -3.4732
 2501SOL    HW218963   3.281   3.031   3.816  1.0329 -0.7165 -0.2226
 2502SOL     OW18964   3.293   1.716  12.649  0.0876 -0.5292 -0.2134
 2502SOL    HW118965   3.304   1.680  12.737 -1.2582 -1.0078 -0.2307
 2502SOL    HW218966   3.211   1.764  12.663 -0.1901 -0.9956 -0.2389
 2503SOL     OW18967   1.270   0.938  16.554 -0.2900 -0.0776  0.3387
 2503SOL    HW118968   1.269   1.010  16.617 -0.1690  1.3223 -1.2547
 2503SOL    HW218969   1.309   0.993  16.486  3.7093 -1.1988  1.7110
 2504SOL     OW18970   0.043   0.311   6.040 -0.3906 -0.1603  0.2929
 2504SOL    HW118971   0.131   0.277   6.050  0.2220  0.7615 -1.8900
 2504SOL    HW218972   0.067   0.389   5.989  1.3311 -2.2345 -2.0612
 2505SOL     OW18973   2.819   0.184   2.721  0.3158 -0.5742 -0.3788
 2505SOL    HW118974   2.819   0.097   2.760  0.7080 -1.3999 -2.2110
 2505SOL    HW218975   2.893   0.176   2.661  1.1497 -0.6905  0.6830
 2506SOL     OW18976   0.023   1.561  17.613  0.4044 -0.6425 -0.1019
 2506SOL    HW118977   4.703   1.531  17.693  0.1229 -0.6673 -0.2666
 2506SOL    HW218978   0.114   1.539  17.636  0.6406  1.6619  1.1850
 2507SOL     OW18979   4.679   2.294  13.975 -0.0029 -0.0883 -0.5333
 2507SOL    HW118980   4.710   2.354  14.042  4.0702 -1.4825 -1.1563
 2507SOL    HW218981   4.588   2.292  14.002  0.6246 -1.7156  1.4184
 2508SOL     OW18982   0.052   4.186   6.477 -0.0094  0.9014  0.1724
 2508SOL    HW118983   0.008   4.261   6.516  3.1737  1.3411  2.9066
 2508SOL    HW218984   0.102   4.231   6.409 -0.3376  2.8080  1.1993
 2509SOL     OW18985   0.032   2.522   6.699  0.1215  0.0978 -0.8161
 2509SOL    HW118986   4.665   2.500   6.717  0.4207 -0.2370  0.2518
 2509SOL    HW218987   0.054   2.596   6.754  1.6868  0.6459 -2.1939
 2510SOL     OW18988   0.384   2.835  13.418 -0.2969  0.1832 -0.1768
 2510SOL    HW118989   0.462   2.889  13.431 -0.9676  0.9583  0.6135
 2510SOL    HW218990   0.325   2.888  13.472  0.1879  0.2412  0.2884
 2511SOL     OW18991   1.664   1.857   4.545  0.4187  0.8845 -0.0796
 2511SOL    HW118992   1.641   1.858   4.452  0.9910 -1.4776 -0.2299
 2511SOL    HW218993   1.704   1.772   4.560 -0.5300  0.3009 -0.8213
 2512SOL     OW18994   3.815   1.416   9.627 -0.1824 -0.3038  0.0086
 2512SOL    HW118995   3.871   1.456   9.561 -3.7700  0.9336 -2.3364
 2512SOL    HW218996   3.889   1.368   9.663 -0.8658 -2.0533 -0.9344
 2513SOL     OW18997   4.688   3.940   0.880 -0.5876 -0.0765 -0.6647
 2513SOL    HW118998   0.054   3.908   0.865  0.1573 -0.8223  5.4043
 2513SOL    HW218999   4.668   3.872   0.944  0.0300 -0.5138 -0.9295
 2514SOL     OW19000   1.895   1.440   6.326 -0.2702  0.2172 -0.2190
 2514SOL    HW119001   1.953   1.483   6.389 -0.4134  1.1284 -0.7082
 2514SOL    HW219002   1.827   1.506   6.314  0.4526  0.4813 -2.9357
 2515SOL     OW19003   4.538   1.716  15.093 -0.3560  0.0019 -0.0172
 2515SOL    HW119004   4.518   1.757  15.177 -0.0301 -0.3119  0.2153
 2515SOL    HW219005   4.493   1.772  15.030 -0.1109 -1.2514 -1.3161
 2516SOL     OW19006   1.281   0.661   7.341  0.2289  0.5353  0.4217
 2516SOL    HW119007   1.372   0.634   7.348  0.4957  0.9932 -1.6217
 2516SOL    HW219008   1.259   0.633   7.252 -3.0195 -1.2907  1.7812
 2517SOL     OW19009   1.770   0.682   2.509  0.6508 -0.4613 -0.3584
 2517SOL    HW119010   1.842   0.705   2.450  1.1340  1.5553  0.9997
 2517SOL    HW219011   1.781   0.764   2.556  1.6202 -0.7720 -0.0394
 2518SOL     OW19012   2.228   3.588  12.622  0.0552  0.0530  0.1411
 2518SOL    HW119013   2.308   3.642  12.622 -1.5448  2.4233  1.4782
 2518SOL    HW219014   2.238   3.551  12.534  0.4251  2.0608 -0.6700
 2519SOL     OW19015   0.704   3.737   5.629 -0.3879  0.4478 -0.0588
 2519SOL    HW119016   0.738   3.821   5.661  0.3700 -0.0373  0.4223
 2519SOL    HW219017   0.609   3.751   5.627 -0.4396 -0.1437 -1.6123
 2520SOL     OW19018   1.011   2.251   9.232 -0.2923 -0.5543 -0.5277
 2520SOL    HW119019   1.055   2.227   9.150  0.5119  1.9004 -0.8200
 2520SOL    HW219020   0.963   2.326   9.197 -0.4146 -0.9791 -1.2740
 2521SOL     OW19021   1.280   4.199   4.531  0.0668  0.3561  0.4623
 2521SOL    HW119022   1.358   4.210   4.585 -1.1204 -3.7604  3.0372
 2521SOL    HW219023   1.294   4.286   4.493 -0.9611  1.1594  1.9034
 2522SOL     OW19024   0.497   4.285   4.774 -0.1648  0.2386  0.1661
 2522SOL    HW119025   0.545   4.364   4.752  1.4306 -0.7056  0.2345
 2522SOL    HW219026   0.572   4.224   4.778 -1.6708 -1.6368 -0.0880
 2523SOL     OW19027   1.848   0.063   6.324  0.3013  0.3785 -0.3280
 2523SOL    HW119028   1.830   0.092   6.235  0.4985  0.0985 -0.4612
 2523SOL    HW219029   1.943   0.069   6.329  0.2337  2.2180 -1.3233
 2524SOL     OW19030   4.039   3.503   8.367  0.3472  0.5715  0.0420
 2524SOL    HW119031   4.075   3.575   8.418  2.4356  1.1961 -2.2762
 2524SOL    HW219032   4.095   3.505   8.289 -0.7772 -1.7306 -0.8393
 2525SOL     OW19033   2.737   1.598   2.090  0.3290  0.2806 -0.0384
 2525SOL    HW119034   2.757   1.651   2.167 -0.8996  0.6241  0.0326
 2525SOL    HW219035   2.739   1.510   2.128  1.2228  0.0486 -0.6109
 2526SOL     OW19036   2.779   0.471   5.002  0.4959 -0.2645  0.3032
 2526SOL    HW119037   2.791   0.521   5.083 -1.0522 -1.0359  1.0101
 2526SOL    HW219038   2.788   0.538   4.934  3.0573  1.3900  2.2865
 2527SOL     OW19039   3.875   2.321  13.789  0.9318 -0.6009 -0.2770
 2527SOL    HW119040   3.787   2.345  13.760  0.1270 -3.4276 -0.2092
 2527SOL    HW219041   3.914   2.283  13.710 -1.0515 -0.3318 -1.3928
 2528SOL     OW19042   0.097   4.232   9.623  0.5108  0.5815  0.0937
 2528SOL    HW119043   0.088   4.201   9.533 -1.4705 -0.8425  0.7892
 2528SOL    HW219044   0.173   4.287   9.605  1.1720 -0.6998 -1.0633
 2529SOL     OW19045   2.518   2.393   6.448  0.0212 -0.5562  0.0483
 2529SOL    HW119046   2.608   2.384   6.481  0.1525 -0.6773 -0.3431
 2529SOL    HW219047   2.468   2.400   6.529  1.5425  0.5837  0.8949
 2530SOL     OW19048   2.233   1.843   5.717 -0.4565 -0.1306 -0.0162
 2530SOL    HW119049   2.234   1.758   5.761 -0.4201  1.5586  3.1983
 2530SOL    HW219050   2.216   1.810   5.629 -0.6556 -0.5027  0.1614
 2531SOL     OW19051   1.800   4.531  14.905  0.2563 -0.2996 -0.2139
 2531SOL    HW119052   1.781   4.524  14.811 -0.4119 -0.5997 -0.0550
 2531SOL    HW219053   1.805   4.439  14.932 -1.3904  0.0931  1.4647
 2532SOL     OW19054   3.175   4.044  17.262 -0.2680  0.1488 -0.2457
 2532SOL    HW119055   3.229   4.123  17.267 -0.2719  0.1521 -0.2557
 2532SOL    HW219056   3.123   4.058  17.342 -0.2202  1.2097 -0.4023
 2533SOL     OW19057   4.166   0.630   0.599  0.4553  0.4688  0.5164
 2533SOL    HW119058   4.156   0.576   0.520  1.1487 -0.4219  1.0355
 2533SOL    HW219059   4.233   0.580   0.645 -1.4919 -2.9930 -0.3564
 2534SOL     OW19060   3.962   2.358  10.192  0.4898 -0.3813  0.2044
 2534SOL    HW119061   3.938   2.327  10.280 -0.7566 -3.5340 -1.2710
 2534SOL    HW219062   4.020   2.283  10.184  0.8029  0.0692 -1.6990
 2535SOL     OW19063   1.305   0.699   9.491  0.5421  0.2290 -0.3267
 2535SOL    HW119064   1.280   0.693   9.583  2.7464 -3.0104  0.0545
 2535SOL    HW219065   1.227   0.726   9.443 -0.4575 -0.6468  0.8298
 2536SOL     OW19066   1.750   1.859   9.981  0.1851 -0.2558  0.0699
 2536SOL    HW119067   1.757   1.788   9.917  1.3890 -0.0506 -0.0149
 2536SOL    HW219068   1.837   1.851  10.020  0.1130 -1.5069 -0.0006
 2537SOL     OW19069   2.745   4.599   6.878  0.2738  0.0665 -0.1688
 2537SOL    HW119070   2.749   4.652   6.958 -3.0398  0.6073 -0.3629
 2537SOL    HW219071   2.704   4.523   6.920 -1.8315  0.0427 -2.2679
 2538SOL     OW19072   4.462   1.923  14.885  0.0116 -0.3090  0.1948
 2538SOL    HW119073   4.376   1.942  14.924  0.8081 -0.5672  2.0797
 2538SOL    HW219074   4.457   1.974  14.804 -2.7074 -0.0339  0.5321
 2539SOL     OW19075   0.529   0.363   3.315  0.3618  0.4145  0.1200
 2539SOL    HW119076   0.606   0.328   3.270  2.1198  1.0871  2.6156
 2539SOL    HW219077   0.502   0.291   3.372  2.0526 -0.6703 -0.4545
 2540SOL     OW19078   4.582   2.608   1.200  0.0959  0.7823  0.0007
 2540SOL    HW119079   4.574   2.703   1.196  0.6867  0.8585  0.8216
 2540SOL    HW219080   4.491   2.580   1.210 -0.7778  3.5437 -0.2120
 2541SOL     OW19081   3.658   4.467  12.408 -0.6462  0.8085  0.4216
 2541SOL    HW119082   3.609   4.513  12.476 -0.2497 -0.4665  1.5903
 2541SOL    HW219083   3.749   4.495  12.417  0.0026 -1.3744  0.7475
 2542SOL     OW19084   3.589   0.421   8.464  0.0091  0.3702  0.3916
 2542SOL    HW119085   3.641   0.497   8.439 -0.1255  0.4504  0.3560
 2542SOL    HW219086   3.507   0.468   8.450  0.0414  1.8498  5.1890
 2543SOL     OW19087   0.864   0.052   8.337  0.4355 -0.0256 -0.3933
 2543SOL    HW119088   0.935   0.115   8.331 -1.0442  1.6165 -0.6593
 2543SOL    HW219089   0.883   0.006   8.419  2.2184 -0.5363 -1.1003
 2544SOL     OW19090   1.802   0.224  12.515 -0.5736 -0.0560  0.0867
 2544SOL    HW119091   1.812   0.305  12.465  0.0526 -0.1312  0.0878
 2544SOL    HW219092   1.804   0.274  12.596 -2.5834  0.7691 -0.3673
 2545SOL     OW19093   1.837   3.149   3.763 -0.2222 -0.2187 -0.1927
 2545SOL    HW119094   1.820   3.140   3.669  2.5125 -0.9633 -0.5874
 2545SOL    HW219095   1.929   3.174   3.762  0.1274 -1.4726  1.2367
 2546SOL     OW19096   0.775   2.818   3.974  0.0973 -0.3249  0.1528
 2546SOL    HW119097   0.784   2.737   4.024  2.5987  1.1523  2.1120
 2546SOL    HW219098   0.703   2.845   4.031 -2.0089 -1.5845 -1.9283
 2547SOL     OW19099   4.228   1.224   2.812 -0.4402 -0.1024  0.3318
 2547SOL    HW119100   4.236   1.131   2.791  0.6220  0.1939 -0.5662
 2547SOL    HW219101   4.133   1.237   2.803 -0.4248 -0.5980 -0.5627
 2548SOL     OW19102   0.736   1.952   6.699  0.2868 -0.2565  0.1873
 2548SOL    HW119103   0.661   1.947   6.639  0.3876 -0.2914  0.0632
 2548SOL    HW219104   0.775   1.865   6.686 -0.3886 -0.4429 -0.6059
 2549SOL     OW19105   1.016   1.634  14.379 -0.1741  0.1098 -0.5487
 2549SOL    HW119106   1.051   1.564  14.433  0.0075  0.1636 -0.5973
 2549SOL    HW219107   1.093   1.686  14.355  0.1956 -1.1147 -2.0362
 2550SOL     OW19108   0.523   2.231   3.780  0.3916  0.9576  0.0578
 2550SOL    HW119109   0.553   2.322   3.783  0.5866  0.8247  1.7593
 2550SOL    HW219110   0.552   2.194   3.696 -1.8227  1.3652 -0.8805
 2551SOL     OW19111   3.091   1.903   5.257 -0.1580  0.0622  0.0258
 2551SOL    HW119112   3.040   1.956   5.318 -0.9879 -1.3692  0.5717
 2551SOL    HW219113   3.016   1.848   5.232 -1.4940  1.4503  1.0173
 2552SOL     OW19114   3.263   4.299   2.658 -0.3611  0.1339  0.3307
 2552SOL    HW119115   3.239   4.371   2.599 -1.7151 -0.0492  0.6651
 2552SOL    HW219116   3.220   4.218   2.630  1.4494 -0.4081 -0.8432
 2553SOL     OW19117   3.579   2.308   5.846  0.8651  0.1694  0.0559
 2553SOL    HW119118   3.620   2.222   5.838 -2.2110 -1.0816 -2.0630
 2553SOL    HW219119   3.504   2.302   5.905 -0.8368  0.3052 -2.0952
 2554SOL     OW19120   3.943   2.230   8.445 -0.2201  0.0454 -0.2106
 2554SOL    HW119121   3.931   2.180   8.364 -1.0502 -1.9366  1.1210
 2554SOL    HW219122   3.963   2.163   8.511 -2.1542 -1.9205 -1.6437
 2555SOL     OW19123   2.321   1.052   7.119  0.6531  0.5184  0.1793
 2555SOL    HW119124   2.301   0.965   7.155 -0.2700  0.8651  0.5080
 2555SOL    HW219125   2.411   1.063   7.148  1.0998  0.8322 -1.3202
 2556SOL     OW19126   2.316   1.371   8.254  0.4385 -0.1936 -0.7731
 2556SOL    HW119127   2.411   1.361   8.253  0.4042 -0.6968  1.0578
 2556SOL    HW219128   2.293   1.309   8.184 -3.8937  0.5220  0.0011
 2557SOL     OW19129   0.245   0.871   2.205 -0.1413  0.2830 -0.0109
 2557SOL    HW119130   0.281   0.959   2.197 -0.9142  0.7569  1.7041
 2557SOL    HW219131   0.269   0.830   2.122  0.1508  3.1684 -1.3684
 2558SOL     OW19132   1.477   4.544   5.966  0.0208 -0.0690 -0.0832
 2558SOL    HW119133   1.450   4.511   6.052 -2.2529  0.5280 -0.5781
 2558SOL    HW219134   1.567   4.512   5.973  0.5379  1.6797  1.2119
 2559SOL     OW19135   4.531   2.727   8.169  0.0251 -0.3109  0.0912
 2559SOL    HW119136   4.566   2.813   8.190 -1.2110  0.7058 -2.0366
 2559SOL    HW219137   4.440   2.751   8.190 -0.4810 -0.9019 -1.4433
 2560SOL     OW19138   3.868   4.020   7.734  0.7500 -0.1474  0.2924
 2560SOL    HW119139   3.859   3.932   7.699 -1.7004  0.6133 -1.0492
 2560SOL    HW219140   3.958   4.042   7.711  0.7978 -1.9554 -1.2279
 2561SOL     OW19141   3.010   0.078   2.493  0.4247 -0.3329 -0.0116
 2561SOL    HW119142   2.991   0.011   2.428 -0.0769 -0.2026  0.0026
 2561SOL    HW219143   3.045   0.027   2.566 -0.0465  0.4971  0.7872
 2562SOL     OW19144   1.210   0.446   0.154 -0.2477  0.2643  0.2116
 2562SOL    HW119145   1.271   0.475   0.086 -0.5638  0.5143  0.0354
 2562SOL    HW219146   1.126   0.441   0.109 -0.5276  0.0698  0.7583
 2563SOL     OW19147   4.079   3.509  16.159 -0.4640  0.5992 -0.4590
 2563SOL    HW119148   3.994   3.465  16.163 -0.0772 -0.0041  1.2263
 2563SOL    HW219149   4.136   3.439  16.191 -0.1151  1.2442  0.3168
 2564SOL     OW19150   0.794   3.714   7.280  0.6746 -0.7771 -0.0768
 2564SOL    HW119151   0.786   3.809   7.272 -0.1542 -0.6233  2.5853
 2564SOL    HW219152   0.777   3.700   7.373  0.5688 -1.0004 -0.1315
 2565SOL     OW19153   1.366   1.142   9.607 -0.7705 -0.2279 -0.5538
 2565SOL    HW119154   1.327   1.101   9.685 -0.6867  0.0450 -0.3658
 2565SOL    HW219155   1.427   1.073   9.582 -0.8646 -0.3061 -0.5666
 2566SOL     OW19156   2.319   1.007  16.950 -0.7167  0.4178 -0.1784
 2566SOL    HW119157   2.322   1.041  16.860  1.2139  2.6827  0.7273
 2566SOL    HW219158   2.320   1.085  17.005  1.8315 -0.1433  0.6023
 2567SOL     OW19159   1.207   0.637   9.771  0.3299 -0.2489 -0.5924
 2567SOL    HW119160   1.159   0.594   9.843  1.1745  0.8632  0.6458
 2567SOL    HW219161   1.257   0.703   9.819 -0.0059 -0.8159  0.5544
 2568SOL     OW19162   0.518   4.609   1.993  0.4913  0.3660 -0.0941
 2568SOL    HW119163   0.594   4.620   1.936  0.6744 -0.6557 -0.0434
 2568SOL    HW219164   0.521   4.513   1.993 -1.6647  0.3003 -1.7524
 2569SOL     OW19165   3.540   3.978  14.263  0.4634  0.0123 -0.1893
 2569SOL    HW119166   3.531   3.888  14.295 -0.2489  1.0215  2.4310
 2569SOL    HW219167   3.633   3.996  14.257  0.5536 -1.8235 -4.6187
 2570SOL     OW19168   2.055   2.528   6.863  0.4174  0.8606 -0.5560
 2570SOL    HW119169   2.060   2.623   6.873 -0.5598  0.6209  2.1950
 2570SOL    HW219170   2.070   2.509   6.770 -2.3690  0.0606 -0.8349
 2571SOL     OW19171   2.805   2.757  10.698  0.0616 -0.2431 -0.0729
 2571SOL    HW119172   2.735   2.813  10.733  0.9550 -0.6450  2.3674
 2571SOL    HW219173   2.870   2.821  10.668 -1.2355  1.7227  1.2803
 2572SOL     OW19174   0.858   4.607   7.577 -1.0391  0.5213  0.1336
 2572SOL    HW119175   0.869   4.590   7.483  1.7140 -1.9771  0.9144
 2572SOL    HW219176   0.932   4.559   7.613 -1.2504 -0.9334 -1.3389
 2573SOL     OW19177   1.514   2.050   9.580  0.1751  0.6607 -0.0589
 2573SOL    HW119178   1.496   2.144   9.577  0.9816  0.8732  1.7507
 2573SOL    HW219179   1.597   2.049   9.533  0.4331  1.6266  0.3858
 2574SOL     OW19180   0.741   0.522   3.618 -0.6327  0.1579 -0.1397
 2574SOL    HW119181   0.800   0.553   3.549  0.1251 -1.6154 -0.3038
 2574SOL    HW219182   0.748   0.587   3.687 -3.6229 -0.2793  0.5828
 2575SOL     OW19183   2.215   1.774   0.926 -0.3348 -0.1524 -0.4573
 2575SOL    HW119184   2.225   1.868   0.913 -1.9869  0.1314  0.3808
 2575SOL    HW219185   2.129   1.759   0.886 -0.1131 -2.1874 -0.1854
 2576SOL     OW19186   2.937   4.670  13.224 -0.0531  0.1313  0.2700
 2576SOL    HW119187   2.959   4.589  13.269  1.3360  0.9290  1.0388
 2576SOL    HW219188   2.953   4.642  13.134  1.9203  1.1056  0.3022
 2577SOL     OW19189   1.064   3.069  15.565  0.1050 -0.6051  0.0693
 2577SOL    HW119190   1.159   3.064  15.578  0.0828 -1.2561 -0.0147
 2577SOL    HW219191   1.035   2.984  15.597  2.4248 -1.8091 -1.0475
 2578SOL     OW19192   4.021   2.512   3.857  0.4084  0.0963 -0.2055
 2578SOL    HW119193   4.052   2.421   3.861 -1.4982 -0.4817  1.8772
 2578SOL    HW219194   4.063   2.534   3.774  0.5308  0.9072  0.0757
 2579SOL     OW19195   4.529   2.470  10.085 -0.2992  0.3912  0.2775
 2579SOL    HW119196   4.620   2.440  10.086 -0.9580 -1.6539 -2.1126
 2579SOL    HW219197   4.536   2.564  10.101 -1.7745  0.5565 -0.0330
 2580SOL     OW19198   3.967   0.765   6.291  0.1217  0.2793  0.1250
 2580SOL    HW119199   4.021   0.842   6.309  2.2743 -1.2306  0.1922
 2580SOL    HW219200   4.030   0.722   6.233 -1.0716  1.3626 -1.9384
 2581SOL     OW19201   0.375   4.295   5.220  0.0906 -0.7319  0.1381
 2581SOL    HW119202   0.383   4.391   5.217 -1.6200 -0.6390 -1.0999
 2581SOL    HW219203   0.335   4.272   5.137 -0.9654 -0.2520  0.5167
 2582SOL     OW19204   2.719   4.110  10.563 -0.4184  0.0864  0.2140
 2582SOL    HW119205   2.673   4.146  10.639  0.3670 -1.6544  1.5266
 2582SOL    HW219206   2.801   4.159  10.565  0.2123 -0.9689  0.2494
 2583SOL     OW19207   3.450   3.179   6.534  0.1395  0.0244 -0.0333
 2583SOL    HW119208   3.396   3.129   6.473  0.5858 -0.3831 -0.0944
 2583SOL    HW219209   3.524   3.119   6.544 -0.7247 -0.9439  0.6070
 2584SOL     OW19210   0.550   0.469  10.435  0.6468  0.4864 -0.0484
 2584SOL    HW119211   0.577   0.533  10.370 -0.1423  1.4108  0.5393
 2584SOL    HW219212   0.585   0.510  10.515 -0.7498 -2.6978  2.2120
 2585SOL     OW19213   4.234   1.006   7.215  0.7801 -0.2652  0.5719
 2585SOL    HW119214   4.150   1.004   7.262 -0.1062  0.3311 -0.9623
 2585SOL    HW219215   4.297   0.973   7.279  0.7592 -0.3519  0.5492
 2586SOL     OW19216   2.254   0.163   2.983 -0.0689  0.0015 -0.3964
 2586SOL    HW119217   2.255   0.112   3.064  3.8132 -1.6366 -1.4778
 2586SOL    HW219218   2.276   0.094   2.920  1.6748 -0.0948  0.3243
 2587SOL     OW19219   2.005   2.747  15.918  0.0454  0.7285  0.1123
 2587SOL    HW119220   2.069   2.711  15.980 -0.1595  1.8090  0.9469
 2587SOL    HW219221   1.944   2.787  15.980  0.9474 -1.6562  2.5675
 2588SOL     OW19222   1.148   2.136   4.593  0.3602 -0.0075  1.1455
 2588SOL    HW119223   1.166   2.228   4.574 -0.6570  0.0038  0.2532
 2588SOL    HW219224   1.206   2.130   4.669  1.9777  0.1286 -0.0808
 2589SOL     OW19225   0.980   1.545   9.778  0.2386  0.5161 -0.1148
 2589SOL    HW119226   1.010   1.455   9.790  0.0770  0.4847  0.0626
 2589SOL    HW219227   1.036   1.590   9.841  0.0427 -0.4112  0.7237
 2590SOL     OW19228   1.317   4.377  11.191  0.0835  0.0968 -0.1932
 2590SOL    HW119229   1.359   4.462  11.180 -0.3202  0.0978 -1.6638
 2590SOL    HW219230   1.343   4.323  11.116  5.0291  0.8024  1.0395
 2591SOL     OW19231   0.331   3.797   7.096 -0.3724  0.3317  0.1854
 2591SOL    HW119232   0.344   3.718   7.044 -0.0295  0.7998 -0.4435
 2591SOL    HW219233   0.286   3.857   7.036  0.9244  0.9407 -0.1829
 2592SOL     OW19234   0.026   0.230   7.490 -0.1097 -0.7669  0.1912
 2592SOL    HW119235   4.682   0.185   7.539 -0.6649  0.2591  0.3568
 2592SOL    HW219236   0.067   0.149   7.459  2.0629 -0.2047  1.5820
 2593SOL     OW19237   0.987   1.041   1.240  0.9095 -0.1859  0.0914
 2593SOL    HW119238   1.067   1.029   1.189  0.8041 -0.3753 -0.0298
 2593SOL    HW219239   0.918   1.063   1.178 -0.0056 -1.0295  0.8053
 2594SOL     OW19240   4.046   0.282   2.141 -0.3714  0.2882  0.3053
 2594SOL    HW119241   4.061   0.189   2.123  0.4509  0.1820  1.4829
 2594SOL    HW219242   4.103   0.280   2.218 -0.4514  1.8770  0.4017
 2595SOL     OW19243   2.849   2.579  15.092  0.3995 -0.1415  0.2089
 2595SOL    HW119244   2.867   2.632  15.014  1.3193 -0.5426  0.1610
 2595SOL    HW219245   2.853   2.638  15.167 -1.7036 -0.7077  0.7705
 2596SOL     OW19246   1.101   4.133   9.165  0.1065 -0.3976  0.0671
 2596SOL    HW119247   1.076   4.057   9.112 -0.6940 -0.2621  0.2625
 2596SOL    HW219248   1.038   4.122   9.235 -0.7215  0.5167 -0.5344
 2597SOL     OW19249   0.928   0.615   4.088  0.5945 -0.1828  0.7012
 2597SOL    HW119250   0.977   0.540   4.122 -1.8661 -3.4547 -3.0652
 2597SOL    HW219251   0.981   0.687   4.123 -0.5068  0.1941  1.5980
 2598SOL     OW19252   1.389   3.638   6.267 -0.6075 -0.2977 -0.4726
 2598SOL    HW119253   1.306   3.686   6.270 -0.7383 -0.4624 -1.6212
 2598SOL    HW219254   1.397   3.592   6.351 -1.4290  0.8437  0.2445
 2599SOL     OW19255   2.860   3.420   3.161  0.2998  0.0263  0.3812
 2599SOL    HW119256   2.810   3.449   3.085  0.5211  0.2939  0.3393
 2599SOL    HW219257   2.865   3.326   3.144 -1.7586  0.3829 -2.1404
 2600SOL     OW19258   3.966   3.102   6.790 -0.9138 -0.0036 -0.2654
 2600SOL    HW119259   4.060   3.110   6.772 -0.8117 -1.4261 -0.3882
 2600SOL    HW219260   3.970   3.134   6.880  0.0463  1.1333 -0.7168
 2601SOL     OW19261   4.320   0.115   4.270 -0.0728  0.2546  0.1629
 2601SOL    HW119262   4.319   0.182   4.338  2.5451  0.6566 -0.1988
 2601SOL    HW219263   4.355   0.040   4.316  0.7344  0.5600  0.0582
 2602SOL     OW19264   3.896   3.339  16.377  0.4217 -0.4074  0.3564
 2602SOL    HW119265   3.899   3.293  16.461  1.8176 -2.6760 -0.9576
 2602SOL    HW219266   3.812   3.319  16.335  0.6510 -0.3483 -0.1296
 2603SOL     OW19267   0.425   4.178  10.863 -0.0547 -0.4594  0.0495
 2603SOL    HW119268   0.510   4.218  10.850 -0.0948 -0.9907 -1.8402
 2603SOL    HW219269   0.459   4.088  10.866 -1.3154 -0.9136  1.1431
 2604SOL     OW19270   0.639   2.373   4.994  0.0353  0.0300  0.1362
 2604SOL    HW119271   0.710   2.403   4.936  0.1850  2.5016  1.5799
 2604SOL    HW219272   0.559   2.387   4.943 -0.1089  0.2159  0.4152
 2605SOL     OW19273   3.475   3.210   9.371  0.1378 -0.3899  0.1411
 2605SOL    HW119274   3.562   3.175   9.349 -0.5000  0.5734 -3.9382
 2605SOL    HW219275   3.482   3.236   9.463 -1.1898  1.3999 -0.2717
 2606SOL     OW19276   1.208   0.737   4.475 -0.2088 -0.3396  0.0560
 2606SOL    HW119277   1.152   0.663   4.499 -1.4577  1.1047  1.6737
 2606SOL    HW219278   1.279   0.732   4.538  1.7151  1.1476 -1.9864
 2607SOL     OW19279   1.676   4.285   4.101  0.1482 -0.1680  0.2790
 2607SOL    HW119280   1.757   4.239   4.123  0.2923 -0.4501 -0.8109
 2607SOL    HW219281   1.657   4.233   4.022  0.2028 -1.2694  0.9850
 2608SOL     OW19282   0.884   0.479  15.051  0.2005 -0.3261 -0.2389
 2608SOL    HW119283   0.961   0.505  15.000 -0.4733 -1.4124 -1.7947
 2608SOL    HW219284   0.892   0.385  15.035 -1.8235 -0.4738 -0.3213
 2609SOL     OW19285   3.847   3.441   4.832  0.0267 -0.1890  0.1007
 2609SOL    HW119286   3.907   3.514   4.817 -0.9552 -0.0931 -3.5198
 2609SOL    HW219287   3.821   3.423   4.741 -3.1629  1.0478  0.7553
 2610SOL     OW19288   2.526   3.530  14.876  0.6084  0.1957  0.0977
 2610SOL    HW119289   2.568   3.506  14.793 -0.0750 -3.1860  0.7423
 2610SOL    HW219290   2.441   3.567  14.852  1.8175  1.9816 -1.4893
 2611SOL     OW19291   2.272   3.139   0.411 -0.4592 -0.3398  0.6304
 2611SOL    HW119292   2.189   3.186   0.419  0.1609  1.0501 -1.3835
 2611SOL    HW219293   2.273   3.095   0.326 -0.8690  2.1082 -0.6206
 2612SOL     OW19294   0.090   2.331   8.276 -0.4638 -0.0033 -0.5046
 2612SOL    HW119295   0.025   2.289   8.220 -1.2593  0.8857 -0.2487
 2612SOL    HW219296   0.127   2.391   8.212  1.6088 -1.2976 -0.5167
 2613SOL     OW19297   3.130   4.059   3.300  0.2045  0.1083 -0.0948
 2613SOL    HW119298   3.066   4.095   3.361  1.6050  1.3577  0.6355
 2613SOL    HW219299   3.117   3.970   3.333  0.2834  0.2820  0.4100
 2614SOL     OW19300   1.229   4.515   8.898  0.1218  0.4071  0.9665
 2614SOL    HW119301   1.273   4.461   8.964 -1.8694 -0.9047  1.2160
 2614SOL    HW219302   1.283   4.594   8.905  0.5712  0.0197  1.8549
 2615SOL     OW19303   3.077   0.613   9.141  0.2370  0.1891 -0.1477
 2615SOL    HW119304   3.142   0.682   9.156 -0.2452  0.5432  0.2905
 2615SOL    HW219305   3.104   0.547   9.204 -1.5728 -0.0425  0.3726
 2616SOL     OW19306   1.052   0.151  12.154  0.5583 -0.9520  0.0156
 2616SOL    HW119307   1.053   0.068  12.201 -0.2496 -2.2401 -2.2368
 2616SOL    HW219308   1.107   0.205  12.210 -2.6971  0.6079  1.7076
 2617SOL     OW19309   0.742   4.634   1.824  0.4502  0.6470  0.3210
 2617SOL    HW119310   0.762   4.695   1.753  0.0898 -0.4861 -0.7463
 2617SOL    HW219311   0.800   4.679   1.885 -0.1240  0.1223  1.2570
 2618SOL     OW19312   0.131   4.658  16.615 -0.0628 -0.5913  0.3316
 2618SOL    HW119313   0.057   4.598  16.600  0.1174 -0.4717 -1.0693
 2618SOL    HW219314   0.087   0.011  16.650 -0.7463 -1.5068  1.4947
 2619SOL     OW19315   2.323   2.367  11.979 -0.7213 -0.0095  0.0789
 2619SOL    HW119316   2.273   2.426  11.923  0.1770 -0.8573 -1.5957
 2619SOL    HW219317   2.363   2.433  12.037 -0.4269  0.9353 -1.2051
 2620SOL     OW19318   1.064   0.608   3.793  0.6046  0.3640  0.2940
 2620SOL    HW119319   1.075   0.677   3.727 -1.2780 -0.5538 -0.9833
 2620SOL    HW219320   0.970   0.611   3.814  0.3784  3.5080 -1.1811
 2621SOL     OW19321   4.469   1.245  12.395 -0.6134  0.0694  0.0094
 2621SOL    HW119322   4.542   1.192  12.427  0.1823 -0.4307 -2.6151
 2621SOL    HW219323   4.398   1.182  12.405  1.9204 -2.8701 -0.2778
 2622SOL     OW19324   4.120   4.421  12.140  0.4340  0.1450 -0.5586
 2622SOL    HW119325   4.101   4.331  12.166 -0.5057  0.1234 -1.3490
 2622SOL    HW219326   4.176   4.445  12.214  0.1802 -0.4276 -0.1802
 2623SOL     OW19327   0.049   3.847  15.966 -1.0560 -0.2193  0.5729
 2623SOL    HW119328   0.039   3.753  15.980  0.6936 -0.5487 -0.4840
 2623SOL    HW219329   0.051   3.885  16.053 -1.6174 -1.3522  1.0853
 2624SOL     OW19330   3.571   3.984   9.273 -0.0318 -0.3702  0.3336
 2624SOL    HW119331   3.663   4.001   9.292 -0.4498  1.7157  0.4241
 2624SOL    HW219332   3.577   3.888   9.272 -1.8858 -0.4524 -1.9967
 2625SOL     OW19333   3.930   1.062   9.184  0.0007 -0.3879  0.6897
 2625SOL    HW119334   3.847   1.015   9.185  0.5939 -1.4468 -0.3043
 2625SOL    HW219335   3.890   1.136   9.230 -1.9339 -2.5109  2.4464
 2626SOL     OW19336   1.713   2.062  17.336  0.2401 -0.0032 -0.4003
 2626SOL    HW119337   1.724   2.105  17.420 -2.3361 -0.7317  0.3095
 2626SOL    HW219338   1.652   1.994  17.363  1.3261 -0.1756  1.6029
 2627SOL     OW19339   3.562   1.493   9.604  0.2611  0.1264  0.1926
 2627SOL    HW119340   3.650   1.468   9.631  0.4131  0.7826  0.3140
 2627SOL    HW219341   3.510   1.460   9.678 -1.7495  0.4754 -1.0660
 2628SOL     OW19342   4.061   0.352  12.823 -0.2713  0.1341  0.4319
 2628SOL    HW119343   4.090   0.275  12.774  1.0660  0.6036  0.4710
 2628SOL    HW219344   3.967   0.343  12.810 -0.1264 -1.3735  0.4304
 2629SOL     OW19345   3.093   1.974  16.552  0.2520  0.2089  0.2474
 2629SOL    HW119346   3.021   1.963  16.491 -1.5852  1.6985  2.1583
 2629SOL    HW219347   3.114   1.883  16.575  3.5797  0.7958 -0.3747
 2630SOL     OW19348   0.292   1.991   3.497  0.1894 -0.3230 -0.6228
 2630SOL    HW119349   0.346   2.044   3.439  2.1985 -2.3658 -0.6278
 2630SOL    HW219350   0.340   1.909   3.503  1.2421  0.2112 -1.9016
 2631SOL     OW19351   1.288   2.785   9.265  0.0123  0.2989 -0.1699
 2631SOL    HW119352   1.200   2.757   9.293  0.6055  0.2007  1.6032
 2631SOL    HW219353   1.328   2.704   9.295  0.7221  1.0708  0.9451
 2632SOL     OW19354   3.019   1.457   5.546 -0.8049  0.6538 -0.4558
 2632SOL    HW119355   3.100   1.463   5.495  0.4301  0.5278  1.4857
 2632SOL    HW219356   3.029   1.517   5.621 -1.6224 -1.2551  1.1803
 2633SOL     OW19357   3.572   3.412  11.736  0.3828  0.0254  0.1134
 2633SOL    HW119358   3.584   3.439  11.645  0.6787  2.1255  0.7903
 2633SOL    HW219359   3.593   3.319  11.723 -0.7279 -0.3170  0.8229
 2634SOL     OW19360   4.630   3.769  13.386  0.4435  0.4070 -0.0451
 2634SOL    HW119361   4.686   3.693  13.404  0.8235  1.3514  2.7018
 2634SOL    HW219362   4.647   3.782  13.293  1.1793  0.8504  0.1525
 2635SOL     OW19363   0.456   3.822   3.511  0.4710  0.1257  0.1201
 2635SOL    HW119364   0.462   3.727   3.518 -2.0195 -0.1803 -1.6919
 2635SOL    HW219365   0.543   3.853   3.534  0.8424 -2.4508  2.1347
 2636SOL     OW19366   2.756   0.281  10.975 -0.2046 -0.0384 -0.8103
 2636SOL    HW119367   2.730   0.366  10.940  1.6331  0.5131 -0.8325
 2636SOL    HW219368   2.678   0.241  11.013 -0.4037  1.7370  0.6511
 2637SOL     OW19369   1.838   3.564   3.534 -0.4727  0.3120 -0.0854
 2637SOL    HW119370   1.788   3.551   3.454 -0.7451 -2.1795  0.4887
 2637SOL    HW219371   1.793   3.533   3.613  0.1725 -1.8470 -0.5465
 2638SOL     OW19372   2.325   4.397   6.307 -0.6123 -0.3970  0.1426
 2638SOL    HW119373   2.398   4.459   6.303  0.7132 -2.0701 -1.7578
 2638SOL    HW219374   2.367   4.311   6.307 -0.0778 -0.1362  1.0591
 2639SOL     OW19375   0.828   3.519   6.662 -0.0200 -0.4973  0.1652
 2639SOL    HW119376   0.874   3.564   6.590  2.0963 -1.5798  0.8530
 2639SOL    HW219377   0.889   3.512   6.735  0.9523 -1.0066 -0.7002
 2640SOL     OW19378   2.582   1.896  14.921  0.6518  0.0858 -0.3396
 2640SOL    HW119379   2.626   1.818  14.886 -0.6403  0.6361 -3.1195
 2640SOL    HW219380   2.581   1.883  15.016 -2.8869  1.2031 -0.2228
 2641SOL     OW19381   0.175   3.149  12.233 -0.0548  0.1667  0.1819
 2641SOL    HW119382   0.180   3.242  12.255 -0.9047  0.0259  1.0006
 2641SOL    HW219383   0.264   3.117  12.244  0.4134  1.4786  0.2607
 2642SOL     OW19384   3.211   2.253  13.572 -0.4892 -0.1130  0.1769
 2642SOL    HW119385   3.229   2.232  13.481  0.2306 -1.4305  0.6172
 2642SOL    HW219386   3.125   2.288  13.551  0.1107 -0.0635 -2.1746
 2643SOL     OW19387   2.474   2.575   1.648  0.4203 -0.2857 -0.1649
 2643SOL    HW119388   2.410   2.510   1.677 -0.9734  1.4532  0.6769
 2643SOL    HW219389   2.539   2.548   1.712 -1.5326  0.2078  2.0353
 2644SOL     OW19390   2.023   4.010   5.472 -0.9022  0.3190  0.5927
 2644SOL    HW119391   1.950   3.967   5.517 -1.9781 -0.0474 -1.4834
 2644SOL    HW219392   2.087   4.016   5.542 -0.2127  2.0876 -0.1991
 2645SOL     OW19393   2.243   3.889   6.196  0.7853  0.2053  0.8618
 2645SOL    HW119394   2.212   3.850   6.114 -0.3181  2.3655  0.2718
 2645SOL    HW219395   2.294   3.956   6.152  0.6958  0.1569  0.6824
 2646SOL     OW19396   1.786   3.375  10.237 -0.0567 -0.3779  0.0633
 2646SOL    HW119397   1.719   3.375  10.305 -0.1459 -0.8454 -0.0259
 2646SOL    HW219398   1.766   3.458  10.193  2.5565  0.0404 -0.3291
 2647SOL     OW19399   0.133   3.403   4.090 -0.1684 -0.4327  0.1823
 2647SOL    HW119400   0.171   3.316   4.080 -0.5118 -0.6257  0.5674
 2647SOL    HW219401   0.115   3.398   4.184 -2.7717  0.3658 -0.2926
 2648SOL     OW19402   4.116   3.477  15.867 -0.1968  0.3177 -0.4067
 2648SOL    HW119403   4.094   3.389  15.898 -0.6913  0.2218 -1.0128
 2648SOL    HW219404   4.111   3.524  15.950 -0.6753 -0.8624  0.2396
 2649SOL     OW19405   4.404   3.036   2.081 -0.2202 -0.0484  0.1211
 2649SOL    HW119406   4.443   2.965   2.132 -1.2470 -0.2892  0.5643
 2649SOL    HW219407   4.336   2.981   2.042 -0.6335  1.3231 -1.0948
 2650SOL     OW19408   1.876   0.907   5.624 -0.0471 -0.4537 -0.1610
 2650SOL    HW119409   1.928   0.874   5.550  0.3500 -1.1699  0.4362
 2650SOL    HW219410   1.871   0.994   5.585 -1.6781 -1.0344 -1.2706
 2651SOL     OW19411   1.281   1.172  16.034  0.1360 -0.1543  0.2268
 2651SOL    HW119412   1.295   1.263  16.060 -0.3296  0.1113 -0.4829
 2651SOL    HW219413   1.210   1.179  15.971  0.6319 -1.7011 -0.5086
 2652SOL     OW19414   3.224   0.725   3.096 -0.7894  0.7498 -0.0886
 2652SOL    HW119415   3.256   0.761   3.179  2.1169  1.3569 -1.4726
 2652SOL    HW219416   3.242   0.633   3.113 -0.2007  1.1215  1.3206
 2653SOL     OW19417   2.002   0.393   6.229 -0.0727  0.2204  0.0337
 2653SOL    HW119418   1.952   0.339   6.168 -0.8527 -1.1753  1.9119
 2653SOL    HW219419   1.926   0.435   6.269  0.5757 -1.1727  2.7499
 2654SOL     OW19420   4.106   0.496   7.523 -0.7251 -0.2753  0.0076
 2654SOL    HW119421   4.063   0.541   7.450  1.0891  1.0646 -0.2238
 2654SOL    HW219422   4.135   0.572   7.573 -0.6354 -0.5532  0.3818
 2655SOL     OW19423   1.491   3.930  10.347  0.2916  0.2966 -0.2303
 2655SOL    HW119424   1.495   3.965  10.436  0.0534 -1.5358  0.5093
 2655SOL    HW219425   1.580   3.953  10.319  1.4504 -1.2299  2.0973
 2656SOL     OW19426   2.264   2.498  12.524 -0.0901  0.4480 -0.2932
 2656SOL    HW119427   2.314   2.510  12.443 -0.6644  1.3351 -0.5210
 2656SOL    HW219428   2.216   2.581  12.519  0.9489  0.9526 -2.0572
 2657SOL     OW19429   0.139   3.540  16.085  0.3159  0.4574  0.0391
 2657SOL    HW119430   0.193   3.477  16.133  1.3143  0.4697 -1.0756
 2657SOL    HW219431   0.096   3.481  16.024  1.8949 -1.8748  1.1891
 2658SOL     OW19432   0.637   2.710  12.828  0.7052 -0.3467 -0.5281
 2658SOL    HW119433   0.631   2.650  12.902  0.5779  1.1907  0.6919
 2658SOL    HW219434   0.701   2.656  12.781  0.9904 -1.1132  0.7466
 2659SOL     OW19435   4.577   2.383   8.970  0.6255 -0.3093 -0.0795
 2659SOL    HW119436   4.670   2.396   8.953  0.6172 -2.1477 -1.4848
 2659SOL    HW219437   4.581   2.429   9.054  2.1223 -1.0343  0.2463
 2660SOL     OW19438   4.433   0.686   8.938  0.3904 -0.3851 -0.1818
 2660SOL    HW119439   4.366   0.691   9.007 -1.2344 -0.6905 -1.7326
 2660SOL    HW219440   4.382   0.680   8.857 -0.9224  1.7813  0.4809
 2661SOL     OW19441   0.322   1.710  10.389  0.2793  0.1873 -0.6323
 2661SOL    HW119442   0.309   1.804  10.397 -0.8414 -0.1442  1.6125
 2661SOL    HW219443   0.236   1.675  10.366  0.2994  1.1132 -2.0579
 2662SOL     OW19444   4.026   2.906   4.770 -0.1829  0.5507 -0.2698
 2662SOL    HW119445   3.982   2.948   4.696  0.1015 -0.6392 -1.1033
 2662SOL    HW219446   4.085   2.840   4.733  1.9634  2.2461  0.1280
 2663SOL     OW19447   0.839   3.904   2.951  0.1506  0.1093  0.2882
 2663SOL    HW119448   0.826   3.984   3.003 -0.7839  0.3090 -0.2499
 2663SOL    HW219449   0.847   3.941   2.863 -0.0391  0.3003  0.3510
 2664SOL     OW19450   0.628   1.950   4.224  0.2869 -0.1079 -0.2231
 2664SOL    HW119451   0.683   2.028   4.217  3.0037 -2.0076 -0.1378
 2664SOL    HW219452   0.687   1.878   4.202  0.2987 -0.2879  0.4182
 2665SOL     OW19453   1.216   0.569   2.658  0.3806  0.6182  0.3658
 2665SOL    HW119454   1.265   0.602   2.583  0.9410  0.4284  0.6433
 2665SOL    HW219455   1.281   0.539   2.722 -0.7096  0.5023  1.4279
 2666SOL     OW19456   2.812   0.619   5.840 -0.3464 -0.2872 -0.3315
 2666SOL    HW119457   2.778   0.640   5.927  0.4036 -0.3001 -0.0335
 2666SOL    HW219458   2.734   0.634   5.786 -1.4824 -2.0712  0.8428
 2667SOL     OW19459   2.299   0.844   5.394 -0.5458  0.2045  0.2568
 2667SOL    HW119460   2.287   0.847   5.299 -1.8456 -0.7229  0.3877
 2667SOL    HW219461   2.212   0.846   5.434  0.3131 -1.7342  2.2034
 2668SOL     OW19462   2.620   3.767   4.357  0.0950  0.2103 -0.2955
 2668SOL    HW119463   2.678   3.701   4.319 -2.1501 -0.9180 -1.8022
 2668SOL    HW219464   2.600   3.823   4.281  0.1481  0.6552  0.0173
 2669SOL     OW19465   4.698   3.154   7.009 -0.1956 -0.3908 -0.3970
 2669SOL    HW119466   4.709   3.070   6.965 -0.1947  0.8018 -2.6622
 2669SOL    HW219467   4.613   3.182   6.973 -0.2499  0.9568  0.8185
 2670SOL     OW19468   3.473   1.974  14.276  0.6801 -0.4848 -0.0384
 2670SOL    HW119469   3.420   1.961  14.197  3.5176 -1.0884 -1.8513
 2670SOL    HW219470   3.556   1.936  14.247  1.1073  2.2922 -2.4488
 2671SOL     OW19471   0.627   2.381   7.523  0.6900  0.2213 -0.1505
 2671SOL    HW119472   0.552   2.426   7.483 -0.6152 -0.2027  1.8063
 2671SOL    HW219473   0.582   2.308   7.565  0.8066 -0.0460 -0.4992
 2672SOL     OW19474   4.469   1.847  12.425 -0.6143  0.0335  0.2669
 2672SOL    HW119475   4.558   1.836  12.459  0.3977  4.3602 -1.0229
 2672SOL    HW219476   4.431   1.771  12.469  0.4588 -0.9186 -0.4252
 2673SOL     OW19477   3.587   0.642  11.842 -0.2171 -0.2304  0.7669
 2673SOL    HW119478   3.496   0.664  11.818  0.9683  0.4693 -3.1158
 2673SOL    HW219479   3.575   0.622  11.935  3.2699 -4.0621  0.3432
 2674SOL     OW19480   4.432   2.386   7.653  0.1976  0.5551  0.1825
 2674SOL    HW119481   4.357   2.441   7.674 -2.1556 -1.4211 -3.1813
 2674SOL    HW219482   4.474   2.437   7.583 -1.1885  0.2335 -0.8864
 2675SOL     OW19483   0.254   2.265  16.728 -0.6278 -0.7501  0.6630
 2675SOL    HW119484   0.321   2.313  16.679 -0.5460 -0.1724  1.3346
 2675SOL    HW219485   0.224   2.340  16.780 -0.0499  0.1545 -0.2972
 2676SOL     OW19486   4.500   0.628  17.093  1.1671  0.2708 -0.4461
 2676SOL    HW119487   4.471   0.538  17.074 -0.1033  0.6208 -0.1589
 2676SOL    HW219488   4.443   0.669  17.028  0.7714 -1.6474 -1.3292
 2677SOL     OW19489   3.400   0.707  12.719  0.3900 -0.3081  0.5967
 2677SOL    HW119490   3.407   0.708  12.815  0.3107 -0.6438  0.6049
 2677SOL    HW219491   3.368   0.618  12.703  2.6926 -0.6119 -2.2351
 2678SOL     OW19492   2.568   0.310   2.050 -0.4462  0.0351 -0.5695
 2678SOL    HW119493   2.524   0.234   2.088 -0.2840  1.0436  1.6517
 2678SOL    HW219494   2.661   0.286   2.057 -0.9081 -1.7782 -0.6329
 2679SOL     OW19495   4.103   1.322   8.117 -0.0286 -0.8141 -0.3532
 2679SOL    HW119496   4.129   1.327   8.025 -0.7171  0.6179 -0.4691
 2679SOL    HW219497   4.059   1.405   8.137 -1.5540 -1.3217 -1.5877
 2680SOL     OW19498   4.406   0.511  14.660  0.0929 -0.1690  0.0578
 2680SOL    HW119499   4.443   0.588  14.615 -0.3378 -0.0264 -0.0475
 2680SOL    HW219500   4.485   0.471  14.696 -1.1435  0.6012  3.6314
 2681SOL     OW19501   0.146   2.997   6.089  0.5119  0.0823 -0.2310
 2681SOL    HW119502   0.069   3.051   6.071  0.7673  0.8039  0.8449
 2681SOL    HW219503   0.116   2.908   6.068 -0.1296  0.4846 -1.0128
 2682SOL     OW19504   2.570   2.925  11.715 -0.6418  0.5232 -0.3444
 2682SOL    HW119505   2.480   2.951  11.696 -0.8517  0.3253  0.3707
 2682SOL    HW219506   2.620   2.938  11.635  2.2762 -1.1199  1.2389
 2683SOL     OW19507   3.721   1.455  16.035 -0.4929 -0.1180 -0.0540
 2683SOL    HW119508   3.693   1.394  16.103 -3.1467 -0.5682 -1.5659
 2683SOL    HW219509   3.810   1.481  16.061 -0.0290 -1.4565 -0.2856
 2684SOL     OW19510   0.096   0.569   3.182 -0.2984 -0.4868  0.2105
 2684SOL    HW119511   0.093   0.551   3.088 -0.9530 -0.0817  0.1566
 2684SOL    HW219512   0.191   0.565   3.196 -0.2686  1.2787  0.5654
 2685SOL     OW19513   1.592   2.188  10.158 -0.2338  0.8010 -0.1604
 2685SOL    HW119514   1.576   2.099  10.190  3.4749  0.2965  0.2575
 2685SOL    HW219515   1.666   2.225  10.205  0.2846  0.2496 -0.5368
 2686SOL     OW19516   2.857   1.970  12.004  0.2634  0.6091  0.0616
 2686SOL    HW119517   2.935   1.993  12.055  1.0566 -0.3108 -0.7161
 2686SOL    HW219518   2.876   2.002  11.916 -0.4359  1.9424  0.4056
 2687SOL     OW19519   3.290   3.325   3.193 -0.7579  0.0590 -0.5124
 2687SOL    HW119520   3.251   3.239   3.202  1.5502 -0.7893  1.3222
 2687SOL    HW219521   3.275   3.356   3.283  1.3689 -0.7961  0.1445
 2688SOL     OW19522   0.786   2.461  10.816 -0.5536 -0.0983 -0.5104
 2688SOL    HW119523   0.719   2.404  10.780  0.1712 -1.2293 -0.0677
 2688SOL    HW219524   0.831   2.403  10.878 -3.7077 -0.8630  1.0381
 2689SOL     OW19525   0.834   3.585  10.035 -0.5879  0.0687  0.3651
 2689SOL    HW119526   0.757   3.577   9.978 -0.8157 -1.8137  0.9405
 2689SOL    HW219527   0.873   3.503  10.003 -0.1846  0.6091 -0.5269
 2690SOL     OW19528   4.531   0.767   6.299  0.3782 -0.0406  0.1136
 2690SOL    HW119529   4.516   0.805   6.212 -0.3989 -1.5890 -0.4411
 2690SOL    HW219530   4.580   0.839   6.337  2.0604  0.6039 -3.3187
 2691SOL     OW19531   0.016   2.699  16.463 -0.1775  0.8284  0.9826
 2691SOL    HW119532   0.041   2.609  16.443 -0.5871  1.3523 -1.9113
 2691SOL    HW219533   0.091   2.728  16.515 -0.1931  2.1838  0.2645
 2692SOL     OW19534   1.217   1.158   6.705 -0.4933  0.0742  0.0676
 2692SOL    HW119535   1.244   1.108   6.782 -1.5797 -1.2399 -0.3997
 2692SOL    HW219536   1.285   1.142   6.640  1.4416  1.4894  1.7553
 2693SOL     OW19537   0.315   1.573   3.722 -0.1251 -0.1158  0.6447
 2693SOL    HW119538   0.330   1.649   3.778  1.6788 -1.8161  2.4455
 2693SOL    HW219539   0.220   1.568   3.726 -0.2489 -0.6730 -2.5673
 2694SOL     OW19540   0.142   3.997   4.846  0.1074  0.2951 -0.1728
 2694SOL    HW119541   0.132   3.913   4.801 -1.7832  0.9072 -0.8748
 2694SOL    HW219542   0.228   3.975   4.882  1.1940  1.3961 -2.1409
 2695SOL     OW19543   2.833   3.028   5.703  0.3165 -0.9687  0.1962
 2695SOL    HW119544   2.823   2.999   5.613  1.7596  0.6411 -0.4784
 2695SOL    HW219545   2.926   3.016   5.724 -0.0623 -1.1742  1.7505
 2696SOL     OW19546   2.886   1.197   2.717  0.1815  0.5473  0.4905
 2696SOL    HW119547   2.956   1.147   2.675 -0.1834 -0.5366  1.1913
 2696SOL    HW219548   2.919   1.287   2.711  0.3129  0.5436  1.1891
 2697SOL     OW19549   2.658   3.376   7.261  0.2789 -0.1735 -0.0097
 2697SOL    HW119550   2.615   3.461   7.255  2.4301  0.7709 -1.8521
 2697SOL    HW219551   2.632   3.347   7.348  0.9138  3.4262  1.3669
 2698SOL     OW19552   2.030   1.572   5.139  0.1158  0.0795  0.4418
 2698SOL    HW119553   2.111   1.620   5.157  0.3116  0.0869 -0.4390
 2698SOL    HW219554   1.965   1.635   5.169 -0.3338  0.7022 -1.8393
 2699SOL     OW19555   4.378   3.558   5.903  0.2021 -0.4481 -0.2283
 2699SOL    HW119556   4.314   3.555   5.832 -1.7524  0.1270  1.5067
 2699SOL    HW219557   4.394   3.464   5.914  0.9016 -0.5471 -2.1053
 2700SOL     OW19558   2.799   3.101   2.594 -0.4075  0.3440 -0.3898
 2700SOL    HW119559   2.751   3.085   2.675 -0.6322  0.0134 -0.5915
 2700SOL    HW219560   2.719   3.096   2.541 -0.5199  0.7184 -0.2565
 2701SOL     OW19561   3.724   4.417  11.854 -0.0165 -0.5925 -0.3562
 2701SOL    HW119562   3.639   4.433  11.896 -0.3651  1.1118 -1.7349
 2701SOL    HW219563   3.789   4.459  11.910 -0.0020  0.0714 -0.8803
 2702SOL     OW19564   0.955   3.346   6.975  0.0709  0.3270  0.1143
 2702SOL    HW119565   0.947   3.253   6.997  0.9918  0.3063  0.3491
 2702SOL    HW219566   0.974   3.372   7.065 -1.5994 -2.2147  1.2024
 2703SOL     OW19567   4.119   0.988   7.465  0.1614  0.2239  0.2927
 2703SOL    HW119568   4.200   1.004   7.514  1.4439  0.4708 -1.9214
 2703SOL    HW219569   4.049   0.981   7.530 -0.2403 -0.8581 -0.2385
 2704SOL     OW19570   2.748   4.231  11.815 -0.9297  0.0118  0.1463
 2704SOL    HW119571   2.737   4.143  11.851  1.2388 -0.1493  0.3934
 2704SOL    HW219572   2.754   4.222  11.720 -0.9617 -0.0787  0.1528
 2705SOL     OW19573   0.657   0.859   7.546  0.4323  0.5567  0.5576
 2705SOL    HW119574   0.614   0.785   7.504  1.6496  0.5155 -0.6066
 2705SOL    HW219575   0.721   0.823   7.607  0.0057 -0.6211  0.3108
 2706SOL     OW19576   0.204   1.158  12.162 -0.3788 -0.1619  0.1078
 2706SOL    HW119577   0.139   1.166  12.232 -0.2696  2.8021 -0.1101
 2706SOL    HW219578   0.232   1.067  12.156 -0.6502 -0.1648 -1.1797
 2707SOL     OW19579   2.251   1.090   1.394 -0.0170  0.2420 -0.0083
 2707SOL    HW119580   2.162   1.063   1.415  0.6475 -1.0283  1.1586
 2707SOL    HW219581   2.286   1.077   1.482  1.1776 -1.4864 -0.7284
 2708SOL     OW19582   1.044   3.479   5.309  0.2884  0.2451  0.7090
 2708SOL    HW119583   1.016   3.547   5.370 -2.0022  0.9025 -1.0967
 2708SOL    HW219584   1.140   3.473   5.315  0.2368  0.9604  2.3382
 2709SOL     OW19585   0.840   0.205  17.002  0.0770 -0.2783  0.5885
 2709SOL    HW119586   0.886   0.134  16.956 -0.2206 -1.7543  2.5711
 2709SOL    HW219587   0.869   0.279  16.949  1.3457 -2.0768 -1.2096
 2710SOL     OW19588   3.872   1.681   9.123  0.2016  0.4534  0.4038
 2710SOL    HW119589   3.964   1.662   9.140  0.0718  2.1589  3.0222
 2710SOL    HW219590   3.845   1.756   9.176  1.7502  0.6662  0.8790
 2711SOL     OW19591   4.451   0.986  16.722  0.3834 -0.4051  0.1430
 2711SOL    HW119592   4.360   0.962  16.738 -0.0673  1.4839  0.4012
 2711SOL    HW219593   4.476   0.912  16.666 -0.0863  0.4755 -1.2275
 2712SOL     OW19594   3.550   2.090   2.415 -0.3489  0.0528 -0.2314
 2712SOL    HW119595   3.594   2.030   2.475  0.5894  0.3228 -0.6483
 2712SOL    HW219596   3.626   2.143   2.390  0.0354  0.0608  0.9370
 2713SOL     OW19597   0.407   3.021   2.724  0.0179  0.2072 -0.1154
 2713SOL    HW119598   0.484   3.046   2.674  2.3491 -3.0817  1.7961
 2713SOL    HW219599   0.393   2.938   2.678  2.4728  0.0182 -0.4856
 2714SOL     OW19600   1.373   1.784  13.916 -0.0620 -0.4033 -0.2142
 2714SOL    HW119601   1.319   1.779  13.995 -0.7475 -1.1941 -0.7282
 2714SOL    HW219602   1.423   1.704  13.930 -0.4612 -0.6165 -0.0008
 2715SOL     OW19603   2.527   0.205   6.943 -0.2701  0.1124 -0.3407
 2715SOL    HW119604   2.568   0.161   7.017 -0.3902  1.3822  0.4921
 2715SOL    HW219605   2.597   0.235   6.885  0.8838  0.2005  1.0934
 2716SOL     OW19606   2.516   1.923   9.185 -0.7866  0.0296  0.0785
 2716SOL    HW119607   2.456   1.970   9.242  0.3130 -0.5249  1.6860
 2716SOL    HW219608   2.578   1.892   9.251 -1.8197 -2.9819 -0.3682
 2717SOL     OW19609   2.570   4.544   2.238 -0.5916 -0.3405  0.2553
 2717SOL    HW119610   2.629   4.536   2.314 -1.5968  0.1565  1.0985
 2717SOL    HW219611   2.605   4.474   2.183  1.2473  0.4777  0.3580
 2718SOL     OW19612   3.316   4.610   4.293  0.3276  0.4405 -0.4764
 2718SOL    HW119613   3.231   4.652   4.304 -0.4035 -1.0832 -0.2852
 2718SOL    HW219614   3.380   4.666   4.335 -0.0600  1.0628 -0.7243
 2719SOL     OW19615   0.836   0.099   1.639  0.3024 -0.2170 -0.7776
 2719SOL    HW119616   0.888   0.151   1.701 -1.0357  1.2942 -0.9100
 2719SOL    HW219617   0.840   0.147   1.556 -0.0663 -2.7304 -2.2373
 2720SOL     OW19618   1.409   0.064   5.872 -0.3182  0.5455  0.2745
 2720SOL    HW119619   1.443   4.702   5.895 -2.5482 -0.0424  1.4491
 2720SOL    HW219620   1.474   0.120   5.914  0.4487 -0.3659  0.2837
 2721SOL     OW19621   1.767   4.439   5.240 -0.0251 -0.0818  0.1386
 2721SOL    HW119622   1.854   4.477   5.229 -0.4726  1.3735  1.7015
 2721SOL    HW219623   1.752   4.460   5.332  1.4398 -1.0552  0.6060
 2722SOL     OW19624   1.971   4.032  17.379 -0.1259 -0.3278  0.0818
 2722SOL    HW119625   2.006   3.946  17.356 -0.1712 -0.4664  0.5375
 2722SOL    HW219626   2.014   4.086  17.313 -1.5215  0.7120  0.0089
 2723SOL     OW19627   3.253   3.701  13.226  0.4655 -0.5094 -0.0369
 2723SOL    HW119628   3.325   3.693  13.163 -0.1123 -0.0643 -0.7431
 2723SOL    HW219629   3.204   3.777  13.196  2.4424  0.2180 -1.3789
 2724SOL     OW19630   4.692   1.376   9.413  0.6135  0.5208 -0.5223
 2724SOL    HW119631   0.031   1.363   9.485  0.2764  0.2292 -0.2807
 2724SOL    HW219632   0.007   1.457   9.380 -0.6868 -0.2166 -3.8375
 2725SOL     OW19633   3.730   0.684  11.610  0.4843  0.0523 -0.6258
 2725SOL    HW119634   3.797   0.726  11.664  0.0339  2.0284 -1.5841
 2725SOL    HW219635   3.669   0.670  11.682  0.7708 -0.9196 -0.5738
 2726SOL     OW19636   2.376   0.066   6.765 -0.4637 -0.1194 -0.2739
 2726SOL    HW119637   2.445   0.117   6.809 -0.9739  1.3657 -1.2176
 2726SOL    HW219638   2.323   0.139   6.732  0.2798  0.9684  0.8972
 2727SOL     OW19639   4.359   2.446   5.364 -0.8125  0.0033  0.5954
 2727SOL    HW119640   4.374   2.456   5.458 -1.6198  0.1933  0.6991
 2727SOL    HW219641   4.282   2.390   5.371 -1.0842  0.0543 -2.0856
 2728SOL     OW19642   2.204   1.698   6.308 -0.3090 -0.2870 -0.0421
 2728SOL    HW119643   2.218   1.783   6.348 -2.0637 -0.0880  0.1490
 2728SOL    HW219644   2.141   1.664   6.372 -2.4186  2.9800 -0.4312
 2729SOL     OW19645   2.334   0.244   5.771 -0.2652 -0.4644  0.0655
 2729SOL    HW119646   2.266   0.194   5.817 -1.2603 -2.3484 -3.4088
 2729SOL    HW219647   2.307   0.226   5.681  0.8578  0.3269 -0.4172
 2730SOL     OW19648   1.390   0.429   3.650  0.0589  0.5384 -0.3160
 2730SOL    HW119649   1.301   0.432   3.613 -0.7070  1.4804  1.5839
 2730SOL    HW219650   1.360   0.387   3.730  1.0762 -0.8443 -0.6653
 2731SOL     OW19651   3.118   3.227   7.917  0.3119  0.2731  0.1648
 2731SOL    HW119652   3.109   3.204   7.824  2.4557 -1.6643  0.4282
 2731SOL    HW219653   3.083   3.315   7.928  0.4827  0.1617  1.5313
 2732SOL     OW19654   2.793   4.285   5.873  0.3123  0.0542  0.2222
 2732SOL    HW119655   2.823   4.313   5.959  3.2245  1.8649 -1.3821
 2732SOL    HW219656   2.719   4.229   5.895  1.0997  0.5235  4.0944
 2733SOL     OW19657   1.045   1.840   2.170  0.1009 -0.2778  0.3368
 2733SOL    HW119658   1.046   1.773   2.101 -1.5711  0.2381 -0.1859
 2733SOL    HW219659   1.014   1.790   2.246 -1.3474 -2.3628 -1.6407
 2734SOL     OW19660   4.480   4.096   6.101  0.0100 -0.9589  0.0229
 2734SOL    HW119661   4.392   4.068   6.124 -0.7289  0.1551 -1.4014
 2734SOL    HW219662   4.529   4.016   6.121  1.8817 -0.1868 -1.4033
 2735SOL     OW19663   1.070   1.996   9.836  0.8280  0.0338  0.2219
 2735SOL    HW119664   1.137   1.989   9.903  0.9260 -1.3415 -0.0075
 2735SOL    HW219665   0.992   1.982   9.889  0.8198  1.5071  0.5969
 2736SOL     OW19666   3.506   3.440   7.434 -0.1935 -0.5397 -0.1243
 2736SOL    HW119667   3.462   3.362   7.399  1.7665 -1.9193  0.4722
 2736SOL    HW219668   3.592   3.417   7.399 -0.3247 -0.0816 -0.7283
 2737SOL     OW19669   1.437   4.410   5.554 -0.2521 -0.0070  0.5213
 2737SOL    HW119670   1.422   4.445   5.467 -1.6942 -0.0191  0.7696
 2737SOL    HW219671   1.350   4.404   5.594 -0.6850  1.0185 -0.2620
 2738SOL     OW19672   0.095   3.424  14.753 -0.4737 -0.9894  0.4333
 2738SOL    HW119673   0.092   3.450  14.845  0.0662 -0.5522  0.3276
 2738SOL    HW219674   0.185   3.454  14.737 -0.6910  0.1677  1.3661
 2739SOL     OW19675   2.158   1.955   8.167 -0.5848 -0.3015 -0.3000
 2739SOL    HW119676   2.221   1.898   8.123 -0.0810 -0.6136  0.8433
 2739SOL    HW219677   2.081   1.948   8.110 -1.4793 -0.7295  0.9675
 2740SOL     OW19678   4.211   4.087   2.218  0.3624 -0.1284 -0.0383
 2740SOL    HW119679   4.218   4.172   2.175 -0.4152  0.2490  0.5686
 2740SOL    HW219680   4.178   4.031   2.148 -3.2204  0.6108  1.0396
 2741SOL     OW19681   1.480   4.601   4.636  0.6265 -0.1072 -0.4651
 2741SOL    HW119682   1.565   4.640   4.657  1.4630 -1.3688 -1.5509
 2741SOL    HW219683   1.503   4.532   4.575 -0.8615 -1.8063  0.8835
 2742SOL     OW19684   1.391   2.570   6.898 -0.4350 -0.0389 -0.0753
 2742SOL    HW119685   1.329   2.579   6.970  0.8350 -0.1606  1.0256
 2742SOL    HW219686   1.334   2.539   6.827  0.7863 -2.0277 -0.1945
 2743SOL     OW19687   1.465   4.385   9.071  0.2985 -0.3102 -0.1164
 2743SOL    HW119688   1.461   4.391   9.167  1.2883  1.1458 -0.1687
 2743SOL    HW219689   1.432   4.296   9.056 -0.7249  0.0736 -0.1368
 2744SOL     OW19690   0.922   2.249   6.800 -0.0947  0.0662  0.4405
 2744SOL    HW119691   0.974   2.290   6.731  3.2708 -0.9249  2.3716
 2744SOL    HW219692   0.833   2.250   6.764  0.2084  1.2061 -0.2706
 2745SOL     OW19693   1.049   4.054  16.891  0.0904  0.5952 -0.5915
 2745SOL    HW119694   0.963   4.015  16.902  0.7150 -0.5051  0.5074
 2745SOL    HW219695   1.041   4.147  16.912  0.8575  0.6419 -0.4749
 2746SOL     OW19696   3.562   1.834  12.021  0.1413  0.0177 -0.0529
 2746SOL    HW119697   3.629   1.851  12.086  0.6700 -0.5734 -0.4465
 2746SOL    HW219698   3.591   1.878  11.941  0.2264 -0.7929 -0.4671
 2747SOL     OW19699   0.896   0.626   6.334  0.2048  0.0787  0.3118
 2747SOL    HW119700   0.963   0.558   6.337  2.2020  2.0369  0.4846
 2747SOL    HW219701   0.822   0.578   6.296  0.3827  2.0761 -2.6349
 2748SOL     OW19702   1.460   0.932  10.772  0.2879  0.4591  0.4024
 2748SOL    HW119703   1.451   1.005  10.833  2.3016  2.3100 -1.5355
 2748SOL    HW219704   1.535   0.886  10.811  0.7658 -0.4117 -1.5052
 2749SOL     OW19705   2.661   3.130   5.956  0.2600 -0.3030  0.4187
 2749SOL    HW119706   2.668   3.068   5.884  0.7235  0.6814 -0.3990
 2749SOL    HW219707   2.572   3.112   5.986  0.0909 -0.6617 -0.3078
 2750SOL     OW19708   1.347   1.680   6.576 -0.6619  0.0130 -0.9792
 2750SOL    HW119709   1.306   1.735   6.508  1.3669 -1.9355 -3.8083
 2750SOL    HW219710   1.428   1.728   6.591 -0.0420 -0.3125 -3.1754
 2751SOL     OW19711   4.122   4.045   7.637 -0.1685 -0.1813  0.0369
 2751SOL    HW119712   4.212   4.022   7.614  0.3446  0.1307  1.7525
 2751SOL    HW219713   4.079   4.005   7.562 -0.8684 -0.3756  0.5461
 2752SOL     OW19714   1.728   1.881   0.341 -0.7297  0.3763 -0.3475
 2752SOL    HW119715   1.658   1.914   0.396 -0.2715  1.2240 -0.2732
 2752SOL    HW219716   1.723   1.786   0.346  0.7661  0.2934 -0.4684
 2753SOL     OW19717   2.683   2.543   6.667  0.1566  0.6188  0.1891
 2753SOL    HW119718   2.766   2.560   6.623  0.6873 -1.5061  0.3472
 2753SOL    HW219719   2.712   2.468   6.719  1.9689  2.4316  1.8071
 2754SOL     OW19720   3.494   4.100   6.862  0.3177  0.2091 -0.7087
 2754SOL    HW119721   3.576   4.140   6.890 -0.2761  1.0658 -0.1662
 2754SOL    HW219722   3.509   4.008   6.883 -0.1815  0.5468  1.1373
 2755SOL     OW19723   0.278   0.616  10.337 -0.1729 -0.0600  0.0970
 2755SOL    HW119724   0.356   0.562  10.350 -0.2448 -0.0984  0.3573
 2755SOL    HW219725   0.281   0.674  10.413  1.1467  0.5234 -0.3960
 2756SOL     OW19726   0.661   2.685  16.300 -0.3046  0.2565  0.0255
 2756SOL    HW119727   0.703   2.599  16.300 -1.3676 -0.2594 -0.7315
 2756SOL    HW219728   0.732   2.733  16.343 -0.1865 -1.5852  1.8766
 2757SOL     OW19729   2.072   1.418   1.567  0.2970  0.2178 -0.0640
 2757SOL    HW119730   2.146   1.422   1.506  1.3171 -0.5504  1.1210
 2757SOL    HW219731   2.019   1.494   1.544  1.4963  0.7270 -1.1573
 2758SOL     OW19732   0.493   1.073   8.498 -0.4326 -0.5067  0.3412
 2758SOL    HW119733   0.534   1.152   8.463  0.3005 -1.5096 -1.0597
 2758SOL    HW219734   0.557   1.047   8.565  0.8134 -1.3215 -1.1756
 2759SOL     OW19735   1.069   0.068   6.036  0.3047 -0.2502  0.5942
 2759SOL    HW119736   1.001   0.020   6.082 -0.3367  2.7428  2.8042
 2759SOL    HW219737   1.145   0.043   6.089  1.1824 -1.5998 -1.3028
 2760SOL     OW19738   3.089   4.572   7.286 -0.3691 -0.8630  0.1440
 2760SOL    HW119739   3.118   4.527   7.206 -1.1074  0.8278 -1.0941
 2760SOL    HW219740   3.073   4.490   7.331 -0.1413 -0.2365  1.3677
 2761SOL     OW19741   1.322   3.174   4.016 -0.4383 -0.5297 -0.1934
 2761SOL    HW119742   1.260   3.160   3.945  1.6185 -1.7855 -1.7273
 2761SOL    HW219743   1.310   3.267   4.036 -0.9176 -0.7356  0.4937
 2762SOL     OW19744   3.435   4.501  17.584 -0.7606 -0.4815  0.2611
 2762SOL    HW119745   3.473   4.533  17.665 -1.4246  0.6699  0.1088
 2762SOL    HW219746   3.459   4.577  17.531  0.0303 -0.5557  0.5187
 2763SOL     OW19747   3.144   4.419   1.683  0.0218 -0.4220  0.1744
 2763SOL    HW119748   3.118   4.413   1.775 -1.2230  1.0252 -0.0926
 2763SOL    HW219749   3.233   4.382   1.683  1.2520  2.6042  2.3273
 2764SOL     OW19750   2.172   4.489   7.975 -0.0436 -0.1356 -0.1360
 2764SOL    HW119751   2.152   4.471   8.067  1.3821  0.2091  0.2374
 2764SOL    HW219752   2.256   4.442   7.972  0.0154 -0.0049 -0.5261
 2765SOL     OW19753   1.622   0.930  16.049  0.2132 -0.0337  0.2432
 2765SOL    HW119754   1.640   0.974  16.132 -1.0318  2.0736 -0.6166
 2765SOL    HW219755   1.549   0.878  16.082 -1.6254  1.1802 -1.9383
 2766SOL     OW19756   2.249   2.042   0.878  0.0404 -0.3865 -0.3106
 2766SOL    HW119757   2.197   2.121   0.892 -2.9068 -1.9091 -2.7889
 2766SOL    HW219758   2.236   2.041   0.783 -1.4411 -1.0899 -0.1100
 2767SOL     OW19759   3.644   2.343   2.946  0.2242  0.2920 -0.0786
 2767SOL    HW119760   3.601   2.426   2.965  0.3817 -0.0744  1.8343
 2767SOL    HW219761   3.606   2.327   2.859 -1.0201 -0.0508  0.5312
 2768SOL     OW19762   0.118   1.393   6.189 -0.0036 -0.2071  0.2290
 2768SOL    HW119763   0.095   1.301   6.195 -1.1563  0.0838  0.3287
 2768SOL    HW219764   0.153   1.408   6.277  0.7644  0.0357 -0.1223
 2769SOL     OW19765   3.291   1.342   9.184  0.0471  0.3346 -0.4706
 2769SOL    HW119766   3.368   1.343   9.241 -0.8313 -3.8436  0.7578
 2769SOL    HW219767   3.279   1.437   9.184 -0.7861  0.2163  1.0179
 2770SOL     OW19768   1.645   1.104   4.051 -0.1328 -0.4790 -0.2274
 2770SOL    HW119769   1.690   1.070   4.129  0.6358 -0.5907 -0.7234
 2770SOL    HW219770   1.716   1.162   4.023 -1.2066  0.1957 -1.5504
 2771SOL     OW19771   4.187   3.019   4.938  0.5249  0.0436 -0.2699
 2771SOL    HW119772   4.134   2.963   4.881  0.4502 -0.4156  0.2525
 2771SOL    HW219773   4.130   3.096   4.941  0.6712  0.2121 -1.7989
 2772SOL     OW19774   2.907   4.096   4.984  0.6730 -0.3040 -0.0836
 2772SOL    HW119775   2.853   4.038   4.931  2.6101  0.3668 -2.7615
 2772SOL    HW219776   2.960   4.033   5.034  0.7719 -1.1280 -1.2124
 2773SOL     OW19777   4.534   3.363  15.784  0.7395  0.3136  0.0137
 2773SOL    HW119778   4.469   3.352  15.854  1.1430 -0.1733  0.3092
 2773SOL    HW219779   4.546   3.458  15.772 -0.9431  0.4612 -0.5233
 2774SOL     OW19780   1.127   3.369   6.714 -0.3921 -0.0050 -0.5236
 2774SOL    HW119781   1.071   3.292   6.723 -0.0841 -0.0052  1.5232
 2774SOL    HW219782   1.173   3.379   6.797 -0.3663  2.7002 -0.8772
 2775SOL     OW19783   3.585   1.419   3.059  0.3929  0.1600  0.3304
 2775SOL    HW119784   3.516   1.368   3.016  0.4491  2.5364 -2.5707
 2775SOL    HW219785   3.638   1.451   2.986  2.9901 -0.8443  1.7729
 2776SOL     OW19786   3.676   2.329   3.484 -0.1548 -0.2359 -0.1076
 2776SOL    HW119787   3.731   2.287   3.418 -2.4602 -0.9375 -1.5988
 2776SOL    HW219788   3.741   2.392   3.516  0.4736 -1.0449  0.2201
 2777SOL     OW19789   0.983   1.129   3.536 -0.7045 -0.0238 -0.0723
 2777SOL    HW119790   0.907   1.139   3.480 -2.1518 -1.4420  1.6185
 2777SOL    HW219791   0.936   1.113   3.618  0.3738  1.2529  0.8005
 2778SOL     OW19792   1.342   4.517   1.889  0.1850 -0.0352 -0.2141
 2778SOL    HW119793   1.434   4.543   1.895 -0.3459  1.4788  1.2491
 2778SOL    HW219794   1.354   4.435   1.938 -0.0692  0.1471  0.1541
 2779SOL     OW19795   0.649   0.422   0.798 -0.2244 -0.4499 -0.0297
 2779SOL    HW119796   0.616   0.510   0.815  0.7678  0.0454 -0.6089
 2779SOL    HW219797   0.665   0.429   0.703 -0.4594  0.9875  0.0335
 2780SOL     OW19798   0.129   2.237   9.221 -0.1181 -0.6159  0.0535
 2780SOL    HW119799   0.146   2.323   9.258 -1.7880 -0.5456  0.6712
 2780SOL    HW219800   0.093   2.198   9.301 -1.1465 -0.5856 -0.3892
 2781SOL     OW19801   2.062   0.981   9.296  0.5006 -0.0236  0.1185
 2781SOL    HW119802   2.117   0.976   9.374  0.7734  0.0921 -0.0682
 2781SOL    HW219803   2.066   1.070   9.264  0.5679 -0.4421 -1.0321
 2782SOL     OW19804   0.150   4.311   4.350 -0.5521 -0.3845 -0.1747
 2782SOL    HW119805   0.112   4.331   4.436 -2.2150 -4.0080 -0.0591
 2782SOL    HW219806   0.235   4.274   4.373  0.6988  0.8240 -2.8408
 2783SOL     OW19807   3.706   4.063   2.864  0.3161  0.2416  0.1343
 2783SOL    HW119808   3.665   3.979   2.886 -2.5408  1.1233 -1.7524
 2783SOL    HW219809   3.648   4.073   2.788 -2.4351 -0.0987  2.1963
 2784SOL     OW19810   1.373   2.701   5.353 -0.4438 -0.0007 -0.2564
 2784SOL    HW119811   1.353   2.657   5.270 -0.3851  2.6186 -1.6657
 2784SOL    HW219812   1.424   2.779   5.330 -0.0338 -0.4388 -0.8674
 2785SOL     OW19813   1.028   2.818   3.006 -0.3614  0.2468  0.3190
 2785SOL    HW119814   1.092   2.868   3.057 -0.0026 -0.2312  0.3478
 2785SOL    HW219815   1.045   2.842   2.914  4.2195  0.4036  1.1894
 2786SOL     OW19816   3.606   3.227   6.054  1.0235  0.4678 -0.3036
 2786SOL    HW119817   3.622   3.199   6.144  2.8760  0.7216 -0.5452
 2786SOL    HW219818   3.614   3.147   6.001 -0.9122 -0.4962  0.8801
 2787SOL     OW19819   2.425   0.386   6.046  0.5644  0.0703  0.0593
 2787SOL    HW119820   2.439   0.311   6.103 -1.4748  0.7179  1.4047
 2787SOL    HW219821   2.340   0.415   6.077 -1.0411 -2.0740 -2.2994
 2788SOL     OW19822   3.219   0.625   4.184 -0.6773  0.3287 -0.1155
 2788SOL    HW119823   3.223   0.591   4.274 -0.2325 -2.2552 -1.1090
 2788SOL    HW219824   3.212   0.721   4.187  0.3977  0.3349  1.9956
 2789SOL     OW19825   3.996   1.970   4.498 -0.5819  0.2366 -0.7844
 2789SOL    HW119826   3.942   1.891   4.493 -1.3674  0.5844  2.0305
 2789SOL    HW219827   4.071   1.946   4.553 -0.7931  0.3882 -0.4256
 2790SOL     OW19828   3.739   4.410   4.427  0.0893  0.1535 -0.0429
 2790SOL    HW119829   3.835   4.416   4.419  0.0415 -0.8457 -1.3177
 2790SOL    HW219830   3.733   4.315   4.417 -2.1487  0.3244 -0.1804
 2791SOL     OW19831   3.305   3.586   3.868  0.4393  0.3977  0.3778
 2791SOL    HW119832   3.256   3.668   3.865  0.6996  0.4907 -1.4208
 2791SOL    HW219833   3.238   3.527   3.902 -1.4197  1.4146 -1.5297
 2792SOL     OW19834   1.725   0.053   3.996  0.1288 -0.0639  0.7062
 2792SOL    HW119835   1.767   0.017   3.918 -1.1928  0.7754 -0.3878
 2792SOL    HW219836   1.702   4.701   4.050 -1.1510 -1.0563 -1.2190
 2793SOL     OW19837   3.196   0.775   8.655 -0.0867 -0.2289 -0.7174
 2793SOL    HW119838   3.265   0.797   8.717  1.0917  1.4922 -2.6489
 2793SOL    HW219839   3.118   0.777   8.711  0.1152  1.2531 -0.4773
 2794SOL     OW19840   4.664   3.628   5.104  0.2705 -0.2198 -0.0188
 2794SOL    HW119841   4.695   3.644   5.015 -0.7876 -1.3110 -0.5922
 2794SOL    HW219842   4.698   3.539   5.117  0.2574 -0.1651  0.3897
 2795SOL     OW19843   4.637   2.196   7.589  0.1661  0.0849 -0.2393
 2795SOL    HW119844   4.631   2.112   7.634 -0.5133  0.6947  0.7879
 2795SOL    HW219845   4.546   2.226   7.590 -0.7299 -2.6325 -1.5107
 2796SOL     OW19846   1.663   2.426   6.304 -0.3260 -0.0591 -0.1106
 2796SOL    HW119847   1.659   2.397   6.396 -2.4729 -1.9467 -0.7877
 2796SOL    HW219848   1.755   2.407   6.289  0.2059  1.8147  0.7838
 2797SOL     OW19849   4.631   0.598   5.795 -0.0232 -0.3380  0.3306
 2797SOL    HW119850   4.603   0.583   5.885 -0.6931  1.6834  0.4576
 2797SOL    HW219851   4.693   0.671   5.806  1.3372 -1.7973  2.3694
 2798SOL     OW19852   3.647   3.621   4.494 -0.0060 -0.1713 -0.1088
 2798SOL    HW119853   3.599   3.606   4.413 -0.3570  1.4201 -0.1976
 2798SOL    HW219854   3.577   3.633   4.558  1.1097  0.2660  1.0294
 2799SOL     OW19855   2.853   2.257   5.868  0.0304 -0.0156 -0.5079
 2799SOL    HW119856   2.776   2.238   5.814 -1.2119  0.4414  1.1250
 2799SOL    HW219857   2.854   2.353   5.870  2.5320 -0.0407 -0.3724
 2800SOL     OW19858   1.852   3.577  14.703 -0.1481  0.1623 -0.3742
 2800SOL    HW119859   1.815   3.489  14.711 -0.9117  0.5575  0.4014
 2800SOL    HW219860   1.905   3.569  14.623  1.7206  2.0621  0.6654
 2801SOL     OW19861   2.288   3.168   0.870 -0.3513 -0.0363  0.6419
 2801SOL    HW119862   2.269   3.256   0.903 -0.5215 -0.4994  1.8157
 2801SOL    HW219863   2.377   3.178   0.837 -0.6564  0.2788 -0.0827
 2802SOL     OW19864   2.194   2.072   6.596 -0.3058  0.5216  0.4981
 2802SOL    HW119865   2.241   2.155   6.603 -1.0012  1.1219 -1.7891
 2802SOL    HW219866   2.119   2.100   6.544  0.1411 -0.9239 -0.9201
 2803SOL     OW19867   4.594   1.008  16.404 -0.1234 -0.3158  0.3696
 2803SOL    HW119868   4.550   0.930  16.437  0.4159  0.9920  4.1733
 2803SOL    HW219869   4.615   0.976  16.316  1.4691 -0.4005  0.7911
 2804SOL     OW19870   0.403   0.737   3.441 -0.1791  0.1627 -0.5448
 2804SOL    HW119871   0.392   0.695   3.356 -1.1537  3.1976 -1.9241
 2804SOL    HW219872   0.497   0.755   3.436  0.1271 -1.4166 -0.4244
 2805SOL     OW19873   2.696   3.225  12.181 -0.0591  0.0049 -0.5296
 2805SOL    HW119874   2.693   3.137  12.217 -0.1087 -0.5414 -1.9032
 2805SOL    HW219875   2.604   3.253  12.183  0.7402  2.5651  0.5390
 2806SOL     OW19876   3.575   3.410   7.713  0.1827  0.4228  0.2366
 2806SOL    HW119877   3.553   3.434   7.623  0.7519 -1.7028 -0.4693
 2806SOL    HW219878   3.507   3.351   7.745  0.3623 -0.3706 -0.8277
 2807SOL     OW19879   1.675   2.363   9.344  0.5065  0.3552 -0.1692
 2807SOL    HW119880   1.590   2.353   9.387  1.3771 -0.9217  1.2360
 2807SOL    HW219881   1.727   2.318   9.411 -0.5410 -0.8163 -0.1285
 2808SOL     OW19882   0.049   3.599   8.843  0.3486  0.1519  0.1936
 2808SOL    HW119883   4.688   3.638   8.822  0.1260  0.1846  1.1541
 2808SOL    HW219884   0.047   3.526   8.781 -2.4276  1.1791 -0.9285
 2809SOL     OW19885   0.130   2.685   3.215  0.7715 -0.1705 -0.0660
 2809SOL    HW119886   0.185   2.748   3.262 -1.0407 -0.5379  2.5367
 2809SOL    HW219887   0.127   2.614   3.279  2.7042 -0.0175  0.1672
 2810SOL     OW19888   2.672   1.985  17.028 -0.0165  0.1091  0.2132
 2810SOL    HW119889   2.653   1.941  17.111 -1.0487  0.0777 -0.0416
 2810SOL    HW219890   2.582   2.006  17.007  0.1786  0.1850 -0.5388
 2811SOL     OW19891   1.592   2.357   7.273  0.5020 -0.7094 -0.2525
 2811SOL    HW119892   1.658   2.402   7.326  1.5768 -4.4336  1.5987
 2811SOL    HW219893   1.510   2.370   7.321 -0.8365 -1.2560 -2.4170
 2812SOL     OW19894   4.134   0.981   6.291 -0.1929 -0.6494 -0.0942
 2812SOL    HW119895   4.209   0.978   6.350  0.5234 -0.9517 -1.0150
 2812SOL    HW219896   4.163   0.969   6.200  1.2393  2.1472 -0.0060
 2813SOL     OW19897   0.150   4.209   3.568  0.2933 -0.0391 -0.2765
 2813SOL    HW119898   0.104   4.250   3.642 -0.6078 -0.0153 -0.8379
 2813SOL    HW219899   0.104   4.126   3.551  2.3624 -1.5081  1.3869
 2814SOL     OW19900   4.653   1.346   3.118  0.7908 -0.0137 -0.0267
 2814SOL    HW119901   0.001   1.302   3.074  0.8836 -2.0624  2.1591
 2814SOL    HW219902   4.595   1.349   3.042  1.3074  3.5044 -0.2965
 2815SOL     OW19903   1.408   2.253  16.029  0.0323 -0.3406  0.3360
 2815SOL    HW119904   1.474   2.313  16.064  0.4591 -0.9194  0.5272
 2815SOL    HW219905   1.335   2.281  16.084  0.7623 -0.5381  1.3955
 2816SOL     OW19906   1.880   4.450   0.447  0.3015  0.6388 -0.0717
 2816SOL    HW119907   1.930   4.516   0.398  0.9830  2.3680  2.9521
 2816SOL    HW219908   1.869   4.386   0.377 -2.5725  3.0184 -1.7855
 2817SOL     OW19909   1.059   0.906   7.191  0.2113  0.0563 -0.2383
 2817SOL    HW119910   0.990   0.876   7.250  0.7729  0.9792  0.8786
 2817SOL    HW219911   1.137   0.888   7.244 -0.0713  3.2438  1.2674
 2818SOL     OW19912   0.267   3.012  13.590 -0.1396  0.0789 -0.0949
 2818SOL    HW119913   0.288   3.104  13.603 -1.3190  0.0277  2.2369
 2818SOL    HW219914   0.233   2.998  13.678  1.5515 -0.3501  0.4921
 2819SOL     OW19915   1.867   4.384   1.137  0.1950  0.2732  0.4380
 2819SOL    HW119916   1.831   4.313   1.085  0.0638  1.0429 -0.5210
 2819SOL    HW219917   1.906   4.445   1.075 -2.7127 -0.6041 -2.2583
 2820SOL     OW19918   2.387   0.180   4.306  0.3613  0.2420 -0.2595
 2820SOL    HW119919   2.442   0.241   4.355  1.6315 -0.2246 -1.1017
 2820SOL    HW219920   2.391   0.213   4.217 -0.4863  1.4003  0.1357
 2821SOL     OW19921   2.431   1.822  15.630  0.8207  0.1510  0.6961
 2821SOL    HW119922   2.338   1.807  15.650  0.1103  0.6867 -2.1411
 2821SOL    HW219923   2.445   1.749  15.569 -0.5363  0.8608 -0.4798
 2822SOL     OW19924   2.279   1.777   4.712 -0.0876 -0.2464  0.0623
 2822SOL    HW119925   2.212   1.809   4.772 -0.0416  0.7508 -0.4238
 2822SOL    HW219926   2.317   1.860   4.684 -0.0186 -1.0558 -2.2366
 2823SOL     OW19927   1.538   2.756  14.602 -0.1932 -0.1758  0.3496
 2823SOL    HW119928   1.539   2.830  14.541 -0.7652 -1.7304 -1.5611
 2823SOL    HW219929   1.630   2.741  14.624  0.1680  2.2676  0.5402
 2824SOL     OW19930   1.139   3.385  11.291  0.3036  0.4819 -0.5355
 2824SOL    HW119931   1.108   3.392  11.200  0.0939 -0.8658 -0.5685
 2824SOL    HW219932   1.200   3.458  11.301  0.6084  0.0384  0.7798
 2825SOL     OW19933   3.677   2.465  10.175 -0.8329  0.2762 -0.1232
 2825SOL    HW119934   3.772   2.463  10.164 -0.8153 -1.2929  0.3024
 2825SOL    HW219935   3.654   2.373  10.186  0.4638 -0.1922 -1.4096
 2826SOL     OW19936   1.679   4.044  13.184 -0.3242 -0.2489 -0.0458
 2826SOL    HW119937   1.708   3.964  13.140 -0.4566 -0.1402 -0.3317
 2826SOL    HW219938   1.756   4.100  13.183 -1.5302  1.4879  2.6374
 2827SOL     OW19939   4.250   2.055  11.213 -0.2346 -0.4556  0.6442
 2827SOL    HW119940   4.310   2.129  11.218 -0.7295 -0.2116  2.9084
 2827SOL    HW219941   4.250   2.013  11.299  0.4827 -1.8408 -0.0311
 2828SOL     OW19942   4.388   2.622   2.749  0.2796 -0.2543  0.3068
 2828SOL    HW119943   4.311   2.679   2.742 -0.3212 -1.3305 -1.7883
 2828SOL    HW219944   4.449   2.678   2.701 -0.6105  0.4026 -0.0569
 2829SOL     OW19945   4.311   1.362   3.204 -0.3508  0.5446 -0.3596
 2829SOL    HW119946   4.307   1.266   3.205  2.2083  0.4378  0.1073
 2829SOL    HW219947   4.398   1.381   3.239 -0.4476  0.1075  0.1204
 2830SOL     OW19948   4.216   2.397  11.457 -0.1708 -0.0541  0.1163
 2830SOL    HW119949   4.270   2.336  11.508 -1.8601  0.1176  2.1212
 2830SOL    HW219950   4.277   2.457  11.413 -0.2744 -1.4188 -1.8605
 2831SOL     OW19951   3.813   3.815   6.847  0.3092  0.4607 -0.4152
 2831SOL    HW119952   3.782   3.727   6.826 -1.5857  1.1511 -0.4671
 2831SOL    HW219953   3.855   3.793   6.930 -0.2281  0.0894 -0.2478
 2832SOL     OW19954   3.549   0.725   6.901  0.4677  0.6489 -0.2783
 2832SOL    HW119955   3.632   0.687   6.873  0.2825  1.4379 -1.9123
 2832SOL    HW219956   3.578   0.772   6.979 -1.0297  0.7238  0.2261
 2833SOL     OW19957   4.361   1.358   5.939 -0.0815 -0.0378  0.8633
 2833SOL    HW119958   4.427   1.417   5.975  0.9691  0.4929 -1.9247
 2833SOL    HW219959   4.291   1.373   6.003  0.2659 -1.0335  1.4703
 2834SOL     OW19960   1.533   4.667   8.695  0.5058 -0.1683 -0.0723
 2834SOL    HW119961   1.592   0.011   8.727  1.3260 -1.4283  1.0903
 2834SOL    HW219962   1.446   4.703   8.715  0.0860 -1.3718  0.2391
 2835SOL     OW19963   1.947   4.227   6.154  0.5782 -0.6805  0.4669
 2835SOL    HW119964   1.907   4.154   6.201 -2.6209 -0.5035 -1.9269
 2835SOL    HW219965   1.982   4.185   6.076  2.9574  0.4622  0.9337
 2836SOL     OW19966   0.823   4.283   7.482 -0.0937 -0.4987  0.1388
 2836SOL    HW119967   0.827   4.213   7.417 -0.8311 -0.3272 -0.0953
 2836SOL    HW219968   0.858   4.355   7.429 -1.4546 -0.4845 -0.7527
 2837SOL     OW19969   3.379   0.492  13.392 -0.1184  0.3183 -0.2873
 2837SOL    HW119970   3.438   0.477  13.318  0.4087  1.4355 -0.0847
 2837SOL    HW219971   3.445   0.536  13.444  0.7952  0.8419 -1.8973
 2838SOL     OW19972   2.593   2.850  15.633 -0.4349 -0.1738 -0.4939
 2838SOL    HW119973   2.527   2.843  15.701 -1.1851 -1.7086 -1.3741
 2838SOL    HW219974   2.528   2.848  15.562  0.1239 -3.4101 -0.8870
 2839SOL     OW19975   2.193   1.012   9.548 -0.5379  0.5916  0.2414
 2839SOL    HW119976   2.102   1.026   9.575  0.0448 -0.4069  2.6977
 2839SOL    HW219977   2.222   0.952   9.617 -0.5512 -1.2117 -1.3085
 2840SOL     OW19978   2.010   2.965   2.970  0.1812 -0.4119  0.4063
 2840SOL    HW119979   2.065   2.981   2.893  0.2347 -0.4308  0.4406
 2840SOL    HW219980   1.957   2.889   2.947  1.3817 -0.3304 -2.5179
 2841SOL     OW19981   4.281   3.967   3.082  0.9166  0.2078 -0.0083
 2841SOL    HW119982   4.245   3.957   2.994  0.0917 -1.2857  0.4954
 2841SOL    HW219983   4.243   4.049   3.114 -0.1739  0.1892 -1.2682
 2842SOL     OW19984   2.667   4.561  12.936 -0.0285  0.2322  0.7808
 2842SOL    HW119985   2.616   4.641  12.941 -0.7253 -0.2917  2.1268
 2842SOL    HW219986   2.661   4.537  13.028 -1.5463  0.0776  0.6347
 2843SOL     OW19987   3.592   2.323   7.030  0.5292 -0.0493  0.4876
 2843SOL    HW119988   3.497   2.318   7.025  0.6699 -0.9986 -1.1265
 2843SOL    HW219989   3.604   2.230   7.047 -2.1599 -0.4871 -0.1309
 2844SOL     OW19990   1.921   1.359  11.192  0.3240  0.0840 -0.4984
 2844SOL    HW119991   1.846   1.371  11.134 -0.2824 -0.8577  0.0868
 2844SOL    HW219992   1.874   1.327  11.269  1.1705  0.8577  0.3243
 2845SOL     OW19993   2.900   3.821  15.509 -0.2655  0.0927  0.2238
 2845SOL    HW119994   2.919   3.727  15.519  1.7867  0.3812 -1.0585
 2845SOL    HW219995   2.965   3.864  15.564  0.6505  0.6212 -1.3036
 2846SOL     OW19996   0.559   4.459   6.278  0.4508  0.3109  0.1168
 2846SOL    HW119997   0.638   4.434   6.231  0.2983 -1.5620  0.8668
 2846SOL    HW219998   0.509   4.508   6.212 -1.2369 -2.8285 -0.9398
 2847SOL     OW19999   2.933   1.936  12.868  0.2274 -0.0082  0.4009
 2847SOL    HW120000   2.845   1.959  12.896 -0.6774 -2.7505 -0.2011
 2847SOL    HW220001   2.973   2.022  12.882 -1.8110  1.2326 -1.2567
 2848SOL     OW20002   3.702   2.712   5.808 -0.1369  0.4327 -0.0803
 2848SOL    HW120003   3.793   2.726   5.833 -0.8764  3.8731  0.6541
 2848SOL    HW220004   3.694   2.621   5.778 -1.3989  0.7044 -0.5527
 2849SOL     OW20005   1.371   4.537  16.050  0.3376 -0.2174  0.6387
 2849SOL    HW120006   1.330   4.591  15.982 -0.3896 -1.2122  0.2861
 2849SOL    HW220007   1.357   4.582  16.134  0.3385 -0.0207  0.5333
 2850SOL     OW20008   2.320   2.762   1.297  0.4690 -0.0504 -0.0757
 2850SOL    HW120009   2.358   2.677   1.276  0.8268  0.4410 -1.4307
 2850SOL    HW220010   2.320   2.807   1.212 -1.2938  3.1427  1.6086
 2851SOL     OW20011   4.320   3.848   4.110 -0.3454 -0.3956  0.7302
 2851SOL    HW120012   4.337   3.840   4.017 -2.9006  0.7093  0.1711
 2851SOL    HW220013   4.377   3.782   4.149  0.1248  0.7023  1.9017
 2852SOL     OW20014   2.808   1.373   4.619 -0.4425  0.8378 -0.1750
 2852SOL    HW120015   2.718   1.375   4.650 -0.2008 -1.6530  0.6580
 2852SOL    HW220016   2.857   1.435   4.672  1.3749 -1.1561  0.4839
 2853SOL     OW20017   2.541   2.543   1.211  0.1443 -0.2809  0.0124
 2853SOL    HW120018   2.505   2.578   1.129  2.5378 -2.5757 -2.0222
 2853SOL    HW220019   2.636   2.536   1.200 -0.0987  1.6719 -3.2041
 2854SOL     OW20020   1.614   4.100   0.233 -0.0617  0.4875 -0.0448
 2854SOL    HW120021   1.552   4.041   0.190  0.2956  0.1677 -0.1255
 2854SOL    HW220022   1.610   4.068   0.323  0.4531  0.5464  0.0011
 2855SOL     OW20023   2.460   2.194   0.447  0.7586  0.3677 -0.2127
 2855SOL    HW120024   2.476   2.248   0.524 -0.1055 -0.2715  0.4237
 2855SOL    HW220025   2.543   2.205   0.401  0.4897  0.3311 -0.7169
 2856SOL     OW20026   2.599   2.567   2.298  0.1657 -0.1641 -0.1660
 2856SOL    HW120027   2.691   2.590   2.286  0.2866 -0.4316  0.2563
 2856SOL    HW220028   2.574   2.597   2.210 -1.7163 -0.8629  0.1273
 2857SOL     OW20029   0.841   1.934  13.293 -0.2067 -0.2173 -0.4870
 2857SOL    HW120030   0.789   2.015  13.294  0.0076 -0.0761 -0.9022
 2857SOL    HW220031   0.894   1.944  13.214  0.7764 -1.8777 -0.0318
 2858SOL     OW20032   0.242   2.677   7.765 -0.3869  0.6292 -0.1703
 2858SOL    HW120033   0.286   2.685   7.850  1.4852  3.2354 -1.4059
 2858SOL    HW220034   0.314   2.704   7.709  0.4114  0.1162  0.5995
 2859SOL     OW20035   0.928   2.405   6.511 -0.5125  0.0448  0.4700
 2859SOL    HW120036   0.941   2.446   6.426  1.7931  0.3907  0.9932
 2859SOL    HW220037   0.874   2.475   6.548 -0.0489 -0.3289  1.8736
 2860SOL     OW20038   2.127   4.468   8.240  0.0989 -0.5399 -0.5620
 2860SOL    HW120039   2.175   4.413   8.303  1.0794 -0.4214 -1.2086
 2860SOL    HW220040   2.060   4.497   8.303  2.1056 -0.0625  1.3817
 2861SOL     OW20041   0.717   2.195   5.214 -0.1147  0.1018 -0.1337
 2861SOL    HW120042   0.698   2.238   5.130 -2.4871 -1.0982 -0.2086
 2861SOL    HW220043   0.796   2.242   5.240  0.4509 -2.3790  2.6105
 2862SOL     OW20044   0.268   4.159   3.933  0.2737  0.3684 -0.1546
 2862SOL    HW120045   0.228   4.223   3.991  1.2682  0.3437  0.5610
 2862SOL    HW220046   0.245   4.073   3.967  2.3387 -0.2895 -0.4132
 2863SOL     OW20047   2.286   1.841   0.113  0.0992  0.9212 -0.1221
 2863SOL    HW120048   2.238   1.775   0.162  1.7468 -0.5712 -0.5134
 2863SOL    HW220049   2.220   1.874   0.052 -0.0309  0.2727 -0.3302
 2864SOL     OW20050   1.014   1.252  14.373 -0.1578  0.3693  0.4625
 2864SOL    HW120051   0.959   1.295  14.308 -0.5259  0.3856  0.7857
 2864SOL    HW220052   1.009   1.314  14.445 -0.8243  1.7154 -0.7629
 2865SOL     OW20053   3.232   4.666   9.036  0.5215 -0.2837 -0.2017
 2865SOL    HW120054   3.280   4.610   9.097 -0.4535 -0.8498  0.0380
 2865SOL    HW220055   3.196   0.012   9.090 -0.4646 -0.8057 -0.1907
 2866SOL     OW20056   2.648   2.936   1.731 -0.3160 -0.2615 -0.2926
 2866SOL    HW120057   2.570   2.938   1.675 -2.0295  0.8190  2.1645
 2866SOL    HW220058   2.706   3.010   1.713  0.8014 -0.1927  3.5689
 2867SOL     OW20059   0.992   3.354   9.866 -0.0475  0.5444 -0.3874
 2867SOL    HW120060   0.926   3.408   9.824 -1.1904  0.5487  1.3985
 2867SOL    HW220061   1.048   3.356   9.789 -0.4344  0.0742 -0.6747
 2868SOL     OW20062   0.319   1.734   4.279  0.0051 -1.0926  0.3752
 2868SOL    HW120063   0.408   1.700   4.284  0.2998 -0.3658  0.0502
 2868SOL    HW220064   0.328   1.829   4.281  0.3126 -1.1231  0.3124
 2869SOL     OW20065   3.508   4.623   7.755 -0.0971 -0.3923  0.4918
 2869SOL    HW120066   3.581   4.684   7.749 -0.5089 -0.0801 -1.5745
 2869SOL    HW220067   3.508   4.580   7.669 -2.1961 -1.4050  0.9981
 2870SOL     OW20068   2.982   4.442  15.896 -0.1813  0.4931  0.9779
 2870SOL    HW120069   3.004   4.350  15.879 -1.5840  0.2618  0.4426
 2870SOL    HW220070   3.041   4.455  15.970 -1.4162  2.0277  1.6834
 2871SOL     OW20071   4.395   2.974   2.617 -0.0707 -0.1749  0.4630
 2871SOL    HW120072   4.421   3.047   2.674  1.0501  1.7757 -2.5848
 2871SOL    HW220073   4.463   2.963   2.550  0.2074 -0.3242  0.7681
 2872SOL     OW20074   1.462   1.931   2.136  0.5034  0.1303  1.1448
 2872SOL    HW120075   1.382   1.881   2.152  0.0260 -0.3207 -2.4403
 2872SOL    HW220076   1.466   1.985   2.214  3.7976  1.5556  0.0260
 2873SOL     OW20077   1.837   4.075   1.457 -0.0684  0.6490 -0.3703
 2873SOL    HW120078   1.760   4.061   1.403  0.0995 -0.8668 -0.2097
 2873SOL    HW220079   1.887   3.994   1.452  0.6322  1.0303  0.3650
 2874SOL     OW20080   2.374   2.120   8.434  0.6583 -0.0367  0.2844
 2874SOL    HW120081   2.407   2.091   8.519  1.8944  1.7014  0.3945
 2874SOL    HW220082   2.436   2.083   8.371  0.2726 -1.0766  0.5153
 2875SOL     OW20083   1.170   3.284   1.673  0.5120  0.1684 -0.1887
 2875SOL    HW120084   1.154   3.359   1.731  1.5248 -0.5011  0.9508
 2875SOL    HW220085   1.247   3.241   1.710 -0.3143 -0.2431  1.0727
 2876SOL     OW20086   4.096   1.466   2.432  0.7603 -0.1590  1.0969
 2876SOL    HW120087   4.106   1.370   2.428 -1.3204 -0.3115 -0.1896
 2876SOL    HW220088   4.018   1.478   2.379  0.4595 -2.2673  1.0352
 2877SOL     OW20089   1.135   2.492  11.005  0.1559  0.3702  0.2667
 2877SOL    HW120090   1.185   2.510  10.925  0.9230 -1.0454  0.4404
 2877SOL    HW220091   1.185   2.415  11.032 -1.3661 -1.1213 -1.1833
 2878SOL     OW20092   3.286   2.943   0.704  0.0856 -0.0539  0.7147
 2878SOL    HW120093   3.344   3.018   0.690 -1.4077  0.8030 -0.7425
 2878SOL    HW220094   3.346   2.869   0.693  0.7518  0.7380 -1.0020
 2879SOL     OW20095   3.000   1.898   2.900  0.2146  0.5359  0.5308
 2879SOL    HW120096   2.908   1.904   2.874  0.3160  0.3108  0.1163
 2879SOL    HW220097   3.034   1.875   2.813 -3.6016 -2.4700 -0.2034
 2880SOL     OW20098   3.118   3.285  17.160 -0.4509  0.0232 -0.6607
 2880SOL    HW120099   3.182   3.299  17.229  1.7233  1.6361 -2.9964
 2880SOL    HW220100   3.032   3.312  17.193  0.2519  0.3161  0.9203
 2881SOL     OW20101   3.900   1.878   4.910 -0.2643 -0.2084  0.0171
 2881SOL    HW120102   3.985   1.869   4.953  0.0617 -0.5431 -0.6943
 2881SOL    HW220103   3.842   1.888   4.985  0.7734 -1.1921  0.9465
 2882SOL     OW20104   0.764   0.296   5.614 -0.0639  0.1163  0.0722
 2882SOL    HW120105   0.852   0.258   5.619  0.8105  2.4821  2.2559
 2882SOL    HW220106   0.765   0.341   5.698 -1.3376 -0.3518  0.3322
 2883SOL     OW20107   3.511   3.307   9.605 -0.5209 -1.0732  0.3324
 2883SOL    HW120108   3.589   3.346   9.643  0.1922 -2.3640  0.1786
 2883SOL    HW220109   3.464   3.284   9.685  1.4897 -0.6783  1.6030
 2884SOL     OW20110   2.504   0.443   4.871 -0.3485  0.3431 -0.3753
 2884SOL    HW120111   2.459   0.398   4.943  2.5316 -1.4381  0.2753
 2884SOL    HW220112   2.581   0.391   4.850  1.6574  2.7240  1.0729
 2885SOL     OW20113   1.904   2.855   7.109  0.3952 -1.1016  0.3576
 2885SOL    HW120114   1.862   2.904   7.038 -2.1706 -1.4442  1.6818
 2885SOL    HW220115   1.850   2.884   7.182 -0.5183 -0.0789 -0.7269
 2886SOL     OW20116   3.355   4.402   6.261 -0.4545  0.0598 -0.3830
 2886SOL    HW120117   3.376   4.361   6.177 -0.8696 -1.1440  0.0999
 2886SOL    HW220118   3.272   4.359   6.284 -0.9433  1.1282 -0.1320
 2887SOL     OW20119   1.015   2.506   2.205  0.3722  0.2292  0.0826
 2887SOL    HW120120   0.933   2.460   2.188 -0.1975  1.3663 -0.2942
 2887SOL    HW220121   1.052   2.453   2.275  1.7258  1.2720  0.1735
 2888SOL     OW20122   0.837   0.790   7.736 -0.2504  0.3129 -0.1740
 2888SOL    HW120123   0.843   0.842   7.816  1.0969  0.4105 -0.3384
 2888SOL    HW220124   0.886   0.714   7.768  0.3183  0.7855  0.0836
 2889SOL     OW20125   3.992   3.885   8.589  0.2738 -0.1979  0.2866
 2889SOL    HW120126   3.908   3.849   8.561 -0.8867  0.4850  2.8855
 2889SOL    HW220127   3.972   3.927   8.672 -0.3830 -0.4327  0.2453
 2890SOL     OW20128   2.710   2.799   3.023 -0.2487  0.0590  0.0741
 2890SOL    HW120129   2.789   2.826   3.069 -0.0478 -3.2401  1.6156
 2890SOL    HW220130   2.689   2.717   3.066  0.3403  0.5206  1.2359
 2891SOL     OW20131   2.045   4.710  17.410 -0.1528 -0.1077  0.0299
 2891SOL    HW120132   2.107   0.059  17.401  1.0099 -1.0097  0.6386
 2891SOL    HW220133   2.028   4.690  17.502  1.3536  2.0289  0.7781
 2892SOL     OW20134   0.149   0.665  13.538  0.2506  0.3698  0.6484
 2892SOL    HW120135   0.079   0.729  13.547 -1.4351 -1.1721 -1.4601
 2892SOL    HW220136   0.215   0.692  13.602  1.3027 -1.3757  0.2918
 2893SOL     OW20137   2.037   0.342   8.368  0.3024 -0.0480  0.1791
 2893SOL    HW120138   2.109   0.291   8.331 -0.6879 -0.6233 -0.9624
 2893SOL    HW220139   2.072   0.428   8.344  0.1641  0.3149  1.3013
 2894SOL     OW20140   4.083   0.568  15.813 -0.0097  0.0079 -0.3975
 2894SOL    HW120141   4.096   0.473  15.808 -1.0413 -0.1400 -0.3881
 2894SOL    HW220142   4.139   0.579  15.889 -1.5585 -0.4659  0.8176
 2895SOL     OW20143   4.351   4.406   5.555  0.1268 -0.1099  0.0314
 2895SOL    HW120144   4.273   4.367   5.596 -1.1606  0.2378 -2.0625
 2895SOL    HW220145   4.313   4.493   5.538  0.3306  0.3687  1.9253
 2896SOL     OW20146   1.278   3.295   7.711 -0.2661 -1.0052 -0.0912
 2896SOL    HW120147   1.355   3.240   7.697  1.5303  1.1573  1.1990
 2896SOL    HW220148   1.330   3.371   7.736  0.0860 -1.7612  1.5161
 2897SOL     OW20149   2.421   0.474   5.623 -0.2739  0.3367  0.0427
 2897SOL    HW120150   2.360   0.415   5.579  1.2529 -1.5598  0.4938
 2897SOL    HW220151   2.441   0.429   5.705  1.9668  0.3191 -0.4901
 2898SOL     OW20152   3.404   2.199  16.732  0.2186  0.0483 -0.1813
 2898SOL    HW120153   3.320   2.170  16.768 -0.5060  0.4803 -1.5516
 2898SOL    HW220154   3.442   2.249  16.805  1.0358 -2.0730  0.8300
 2899SOL     OW20155   0.836   0.515  12.554  0.2962 -0.0141  0.0365
 2899SOL    HW120156   0.832   0.494  12.647 -2.4483 -0.1426 -0.1064
 2899SOL    HW220157   0.803   0.605  12.549  0.2999  0.0260  0.7972
 2900SOL     OW20158   4.114   1.424   3.440  0.8391 -0.3831  0.5964
 2900SOL    HW120159   4.038   1.374   3.409  0.2410  0.2936  0.9853
 2900SOL    HW220160   4.162   1.415   3.358  1.9222  0.6693  1.1121
 2901SOL     OW20161   0.438   1.967  13.564  0.0222 -0.2570 -0.6900
 2901SOL    HW120162   0.431   1.886  13.614  0.4137 -0.9187 -1.7324
 2901SOL    HW220163   0.524   1.991  13.600 -0.7420  1.2195  0.1710
 2902SOL     OW20164   2.900   2.114   9.664 -0.0211  0.4124 -0.2133
 2902SOL    HW120165   2.880   2.108   9.757  0.1074  0.8931 -0.1512
 2902SOL    HW220166   2.854   2.197   9.650 -0.8540 -0.1982 -1.0973
 2903SOL     OW20167   2.230   3.342   1.546  0.4641 -0.0704 -0.3767
 2903SOL    HW120168   2.299   3.303   1.600  1.2611  0.3083 -1.1134
 2903SOL    HW220169   2.271   3.419   1.506  0.3119 -0.2830 -0.9361
 2904SOL     OW20170   3.532   4.153   4.156 -0.6293  0.7234 -0.2299
 2904SOL    HW120171   3.503   4.231   4.204  0.7854  1.9988 -1.4749
 2904SOL    HW220172   3.592   4.114   4.219 -1.5319  0.1110  0.2557
 2905SOL     OW20173   1.064   1.297   9.364 -0.2845 -0.0817  0.3846
 2905SOL    HW120174   0.979   1.341   9.368 -0.7892 -1.1126  0.9725
 2905SOL    HW220175   1.082   1.276   9.455 -1.8268 -1.5867  0.3507
 2906SOL     OW20176   1.610   1.587   4.396 -0.5020 -0.2786 -0.0017
 2906SOL    HW120177   1.551   1.545   4.459 -0.3572 -0.7750 -0.1990
 2906SOL    HW220178   1.684   1.610   4.453 -0.5168  4.2353 -1.7983
 2907SOL     OW20179   0.590   2.160   4.782 -0.1808 -0.2044  0.5493
 2907SOL    HW120180   0.535   2.238   4.793 -1.0281 -0.6395 -0.7193
 2907SOL    HW220181   0.671   2.190   4.740 -0.7016 -0.6304 -0.7343
 2908SOL     OW20182   0.855   0.012   3.985 -0.0825  0.0857 -0.2240
 2908SOL    HW120183   0.874   4.642   3.992 -2.7906 -0.6846 -2.9984
 2908SOL    HW220184   0.897   0.040   3.904  1.5318  1.1704  0.9888
 2909SOL     OW20185   3.623   3.296   7.087 -0.5477  0.1700  0.6004
 2909SOL    HW120186   3.549   3.261   7.136 -1.0261  0.9255  0.4146
 2909SOL    HW220187   3.609   3.390   7.102 -0.0166  0.5135 -1.0922
 2910SOL     OW20188   3.291   1.264  12.590 -0.6349  0.2558 -0.6847
 2910SOL    HW120189   3.242   1.345  12.577 -0.8674  0.0052 -1.3874
 2910SOL    HW220190   3.218   1.206  12.610 -1.2041  0.5782 -1.8256
 2911SOL     OW20191   2.908   4.024   5.773  0.1931 -0.2723 -0.0933
 2911SOL    HW120192   2.831   4.073   5.743 -0.1425 -0.3334  0.6687
 2911SOL    HW220193   2.871   3.936   5.769 -0.3273 -0.0370 -0.5353
 2912SOL     OW20194   0.711   3.090   8.255 -0.5423 -0.8514  0.0304
 2912SOL    HW120195   0.748   3.136   8.330 -0.8726  2.2535 -1.7480
 2912SOL    HW220196   0.624   3.129   8.252 -0.3195 -0.4424 -1.0758
 2913SOL     OW20197   1.006   0.669   2.525 -0.4695  0.1969  0.2328
 2913SOL    HW120198   1.084   0.636   2.569 -1.0579  1.0748  1.9531
 2913SOL    HW220199   0.995   0.612   2.449  1.9770 -1.5780  1.2325
 2914SOL     OW20200   3.677   2.618  10.418  0.1782  0.4919  0.2653
 2914SOL    HW120201   3.593   2.577  10.437 -0.0343  2.3174  3.2021
 2914SOL    HW220202   3.694   2.568  10.338  1.0887  2.0226 -0.5003
 2915SOL     OW20203   3.891   4.605  16.178 -0.1639  0.0166  0.2428
 2915SOL    HW120204   3.813   4.551  16.163  0.4391 -0.3792 -1.4531
 2915SOL    HW220205   3.923   4.606  16.088  0.1654 -0.3585  0.3554
 2916SOL     OW20206   2.521   3.434   5.384  0.2084  1.3298  0.3161
 2916SOL    HW120207   2.506   3.352   5.337 -0.6740  1.2305  0.7680
 2916SOL    HW220208   2.571   3.406   5.461  0.5237 -2.4929 -1.2800
 2917SOL     OW20209   3.793   1.321   8.673  0.5243  0.9257 -0.0257
 2917SOL    HW120210   3.722   1.309   8.736  2.1916 -1.7588  1.3029
 2917SOL    HW220211   3.841   1.241   8.694  0.4550  0.5865 -1.1554
 2918SOL     OW20212   3.422   2.888  10.455 -0.1220  0.2364  0.6625
 2918SOL    HW120213   3.371   2.969  10.467  1.6036  1.4512 -0.2590
 2918SOL    HW220214   3.512   2.914  10.474 -0.6209  2.1858  0.3813
 2919SOL     OW20215   1.844   3.748   7.613 -0.4392 -0.3252  0.1984
 2919SOL    HW120216   1.930   3.772   7.577 -1.6633 -0.4828 -2.8093
 2919SOL    HW220217   1.853   3.748   7.708  0.9787 -1.6532  0.0615
 2920SOL     OW20218   3.016   1.122   9.051  0.0456  0.0303  0.2144
 2920SOL    HW120219   3.025   1.178   9.127  1.1601  0.0690  0.0577
 2920SOL    HW220220   2.972   1.044   9.086 -0.2946 -0.4863 -1.3572
 2921SOL     OW20221   3.199   3.887   2.730 -0.2192  0.5368  0.6875
 2921SOL    HW120222   3.120   3.834   2.718  1.4711 -1.2559 -2.6438
 2921SOL    HW220223   3.261   3.836   2.679 -1.4721 -0.5948  0.3117
 2922SOL     OW20224   2.366   4.714   3.243  0.2356  0.4899  0.1992
 2922SOL    HW120225   2.339   4.709   3.335 -3.1464 -1.9727 -0.9198
 2922SOL    HW220226   2.315   4.642   3.204 -1.4031  1.4973  0.4825
 2923SOL     OW20227   1.738   2.273   9.093 -0.0738 -0.3179 -0.0065
 2923SOL    HW120228   1.669   2.247   9.033  0.6063  1.4815 -1.5543
 2923SOL    HW220229   1.687   2.277   9.174  0.5476  0.9201  0.3248
 2924SOL     OW20230   2.918   2.824   9.217 -0.0982  0.2595 -0.4657
 2924SOL    HW120231   2.873   2.906   9.199 -1.2970 -0.3709 -0.2976
 2924SOL    HW220232   3.003   2.854   9.248  0.4056 -2.5186  0.8658
 2925SOL     OW20233   4.653   4.003   0.612  0.5693  0.0215  0.4936
 2925SOL    HW120234   4.651   3.991   0.707 -1.7609  0.2993  0.4877
 2925SOL    HW220235   4.710   3.929   0.591  1.7300  0.5454  1.7559
 2926SOL     OW20236   3.858   1.677  13.865 -0.1896  0.3002  0.1119
 2926SOL    HW120237   3.832   1.624  13.941 -1.6396  1.7403  0.6347
 2926SOL    HW220238   3.773   1.701  13.828  0.3668 -0.2743 -1.5252
 2927SOL     OW20239   2.878   3.622   8.322  0.1101  0.0032  0.5088
 2927SOL    HW120240   2.948   3.561   8.345 -1.0316 -0.9208  1.5172
 2927SOL    HW220241   2.860   3.591   8.233  0.9180  0.2155  0.2686
 2928SOL     OW20242   2.199   2.819   2.631  0.3926 -0.0034  0.2021
 2928SOL    HW120243   2.184   2.816   2.537 -2.9879  0.7243  0.7390
 2928SOL    HW220244   2.110   2.804   2.664  0.2048  1.7275  0.4629
 2929SOL     OW20245   0.475   3.648  15.706  0.2109 -0.3344  0.3387
 2929SOL    HW120246   0.496   3.704  15.781  2.2504 -2.2098  1.1746
 2929SOL    HW220247   0.392   3.689  15.683  0.9312  1.0847  0.2298
 2930SOL     OW20248   2.078   0.949  15.593 -0.4465 -0.2915 -0.0508
 2930SOL    HW120249   2.080   1.021  15.530 -0.1152 -0.0886  0.1892
 2930SOL    HW220250   2.041   0.975  15.678 -1.0177  2.0444 -0.9959
 2931SOL     OW20251   0.652   3.361   6.498  0.3390 -0.3382 -0.2673
 2931SOL    HW120252   0.693   3.410   6.570  2.3820  0.6650 -2.1028
 2931SOL    HW220253   0.631   3.439   6.446 -0.3157  0.7530  1.6334
 2932SOL     OW20254   1.395   2.841   4.974  0.8299  0.8189 -0.1399
 2932SOL    HW120255   1.461   2.780   4.941  0.0861  0.1024 -0.3023
 2932SOL    HW220256   1.386   2.900   4.900 -1.0954  0.9122  0.1635
 2933SOL     OW20257   4.718   2.517   2.429 -0.1475  0.0567 -0.2943
 2933SOL    HW120258   0.074   2.480   2.393 -0.2443 -1.3485  0.9289
 2933SOL    HW220259   4.715   2.479   2.517 -0.1614  1.5990  0.3767
 2934SOL     OW20260   3.411   4.692   4.787 -0.3202  0.0470 -0.5475
 2934SOL    HW120261   3.360   0.005   4.715 -0.0006  1.0568 -0.2586
 2934SOL    HW220262   3.484   0.027   4.807  0.4756 -0.8314 -0.8967
 2935SOL     OW20263   3.705   1.884   6.680  0.0923  0.5076 -0.1106
 2935SOL    HW120264   3.795   1.896   6.713  0.1692 -0.8162  0.1649
 2935SOL    HW220265   3.672   1.800   6.711  1.6634  0.2753  0.9603
 2936SOL     OW20266   2.296   2.342   6.626 -0.3818  0.0253 -0.4513
 2936SOL    HW120267   2.216   2.384   6.595 -1.7824 -0.8141  2.0259
 2936SOL    HW220268   2.324   2.410   6.688 -0.1710  0.6441 -1.2339
 2937SOL     OW20269   0.342   4.135   2.556  0.2269 -0.1641 -0.2091
 2937SOL    HW120270   0.372   4.067   2.616 -1.3356  1.0917  1.9522
 2937SOL    HW220271   0.258   4.097   2.528 -0.5994  1.7452 -0.2749
 2938SOL     OW20272   4.040   2.640  11.569  0.4114 -0.0767 -0.2623
 2938SOL    HW120273   4.062   2.616  11.659  2.7384 -1.9131 -1.3309
 2938SOL    HW220274   4.081   2.571  11.518 -1.0138 -1.1752  0.0635
 2939SOL     OW20275   4.455   2.267   2.631 -0.0591 -0.5289 -0.2414
 2939SOL    HW120276   4.548   2.284   2.646 -0.2656  1.7512 -1.5182
 2939SOL    HW220277   4.462   2.262   2.536 -1.5840  0.8508 -0.4114
 2940SOL     OW20278   1.422   4.067   7.008  0.1405  0.3952 -0.1534
 2940SOL    HW120279   1.454   4.088   6.920 -1.2350  3.5006  0.1107
 2940SOL    HW220280   1.426   4.158   7.038  0.5162  0.3880 -0.1816
 2941SOL     OW20281   4.505   4.478   4.242 -0.1372 -0.9364  0.1819
 2941SOL    HW120282   4.498   4.554   4.184 -0.0378 -0.7321  0.4369
 2941SOL    HW220283   4.548   4.521   4.316 -0.8457  1.8296 -1.0211
 2942SOL     OW20284   1.914   2.010   5.968  0.1649 -0.1368 -0.7462
 2942SOL    HW120285   1.874   1.973   6.047 -1.0232  0.0698 -1.2550
 2942SOL    HW220286   1.837   1.999   5.912 -1.2823 -0.9840  1.3956
 2943SOL     OW20287   1.457   1.134   2.967  0.3118 -0.2205  1.0444
 2943SOL    HW120288   1.426   1.135   2.877  0.7995  0.1107  0.8868
 2943SOL    HW220289   1.538   1.084   2.958 -0.1620 -0.9461  0.7042
 2944SOL     OW20290   3.816   1.061   5.827 -0.4800 -0.6158  0.0161
 2944SOL    HW120291   3.838   1.115   5.903 -2.1218  1.2381 -0.8533
 2944SOL    HW220292   3.880   0.990   5.833 -1.3882 -1.2887  1.8178
 2945SOL     OW20293   1.017   3.661   3.522 -0.2860  0.1715 -0.4233
 2945SOL    HW120294   0.947   3.629   3.579  0.9917 -0.5292  0.7627
 2945SOL    HW220295   1.035   3.752   3.545  1.4756 -0.1743 -0.4533
 2946SOL     OW20296   3.391   2.372  13.112 -0.8125  1.1374 -0.6755
 2946SOL    HW120297   3.484   2.356  13.128 -0.4904  1.5435 -2.1855
 2946SOL    HW220298   3.398   2.468  13.113  0.8641  1.0188 -1.3353
 2947SOL     OW20299   2.874   1.669   6.917  0.1824 -0.2951  0.4016
 2947SOL    HW120300   2.818   1.600   6.950 -0.4437  0.0494  0.0622
 2947SOL    HW220301   2.810   1.734   6.947  0.6793  0.0190  0.7711
 2948SOL     OW20302   2.304   1.307   9.614  0.2189  0.4083 -0.2499
 2948SOL    HW120303   2.264   1.225   9.584 -1.8001  1.3408 -0.0771
 2948SOL    HW220304   2.226   1.361   9.603  0.3922  1.0522  1.8112
 2949SOL     OW20305   4.604   0.889  10.862  0.2388  0.4362 -0.3994
 2949SOL    HW120306   4.597   0.905  10.768 -1.6358 -0.2438 -0.3848
 2949SOL    HW220307   4.663   0.815  10.844  2.0508  1.4318  1.4781
 2950SOL     OW20308   2.595   1.956  11.668  0.4739 -0.1585  0.1113
 2950SOL    HW120309   2.663   1.889  11.660 -0.4021 -1.1073  0.6543
 2950SOL    HW220310   2.650   2.029  11.697 -1.3186  2.2437 -2.5857
 2951SOL     OW20311   3.617   1.903   6.332  0.6382 -0.3980  0.0285
 2951SOL    HW120312   3.596   1.840   6.401 -1.6810  1.9041  1.4396
 2951SOL    HW220313   3.529   1.936   6.316  1.3425 -0.0622 -3.0669
 2952SOL     OW20314   2.738   3.595   3.329 -0.0507 -0.3377  0.3471
 2952SOL    HW120315   2.799   3.556   3.266 -0.4317 -0.3071 -0.0453
 2952SOL    HW220316   2.663   3.546   3.296 -1.4622  2.3263 -0.3800
 2953SOL     OW20317   4.574   0.029   5.744 -0.3843  0.1434  0.2795
 2953SOL    HW120318   4.482   0.047   5.759 -0.9993 -1.7868 -1.1098
 2953SOL    HW220319   4.573   4.715   5.656 -1.5111  0.9489 -0.0479
 2954SOL     OW20320   0.348   4.399  17.609  0.0167 -0.2010 -0.5349
 2954SOL    HW120321   0.400   4.319  17.612  1.0811  0.4271 -1.9901
 2954SOL    HW220322   0.347   4.428  17.518 -2.3464  0.8642 -0.1607
 2955SOL     OW20323   1.359   3.966  10.765 -0.1155  0.0695  0.2135
 2955SOL    HW120324   1.448   3.975  10.798 -0.0602 -1.2028  0.4063
 2955SOL    HW220325   1.302   3.988  10.839 -0.5444  1.9799 -0.6740
 2956SOL     OW20326   3.489   4.301   3.483  0.4029 -0.3900  0.6393
 2956SOL    HW120327   3.459   4.256   3.562  1.1031 -1.5481  0.2467
 2956SOL    HW220328   3.451   4.389   3.483 -0.8066 -0.9236  0.2380
 2957SOL     OW20329   0.652   1.254   5.549 -0.5427  0.0390  0.1388
 2957SOL    HW120330   0.581   1.248   5.485  0.8574 -1.1839 -1.3165
 2957SOL    HW220331   0.658   1.349   5.546 -1.7915  0.1448  1.0289
 2958SOL     OW20332   0.037   3.887   3.827  0.2768  0.7247  0.3857
 2958SOL    HW120333   4.691   3.949   3.807 -0.2470  0.6302  1.9300
 2958SOL    HW220334   0.085   3.934   3.895  0.3988  0.4112  0.5161
 2959SOL     OW20335   1.372   2.801   0.816 -0.2665 -0.5300  0.2427
 2959SOL    HW120336   1.320   2.856   0.758 -0.9753 -0.4112  0.9899
 2959SOL    HW220337   1.452   2.806   0.764 -1.2017  2.8206 -0.8446
 2960SOL     OW20338   2.681   4.022  11.424 -0.2729 -0.1273  0.7707
 2960SOL    HW120339   2.741   3.977  11.485  1.1902 -1.7302 -1.8091
 2960SOL    HW220340   2.739   4.060  11.358  1.1394 -0.3323  1.8887
 2961SOL     OW20341   3.565   2.115   3.116 -0.2435  0.3377  0.0582
 2961SOL    HW120342   3.516   2.045   3.073  0.3288 -0.7744  1.2323
 2961SOL    HW220343   3.591   2.165   3.038  0.0780  1.1672  0.6927
 2962SOL     OW20344   2.857   3.450  15.730 -0.7182 -0.3498  0.3766
 2962SOL    HW120345   2.792   3.480  15.666 -0.0332  0.1168 -0.0978
 2962SOL    HW220346   2.942   3.480  15.701 -1.1401  0.8007  0.3341
 2963SOL     OW20347   0.092   1.198   7.173 -0.3541  0.2085  0.3372
 2963SOL    HW120348   0.065   1.191   7.264  0.1173  0.7201  0.5180
 2963SOL    HW220349   0.177   1.153   7.175 -0.6258 -0.2628  1.6507
 2964SOL     OW20350   4.344   3.185   7.240 -0.4087  0.0480  0.1479
 2964SOL    HW120351   4.319   3.101   7.202 -0.2658 -0.1204  0.4278
 2964SOL    HW220352   4.274   3.200   7.303  1.9431  0.5142  2.6108
 2965SOL     OW20353   1.888   1.002   3.576 -0.0830 -0.2234 -0.4337
 2965SOL    HW120354   1.812   1.060   3.582 -0.1591 -0.7772  4.0711
 2965SOL    HW220355   1.901   0.994   3.670 -0.6987  1.6505 -0.1919
 2966SOL     OW20356   1.884   1.091   7.191 -0.4032 -0.1248 -0.2346
 2966SOL    HW120357   1.792   1.119   7.182 -0.7182 -0.6610  1.4048
 2966SOL    HW220358   1.870   0.997   7.204  0.1008  0.3809  3.7812
 2967SOL     OW20359   3.647   3.386   5.043 -0.2652  0.1446 -0.1078
 2967SOL    HW120360   3.585   3.398   4.971 -1.3325  0.0045  0.7891
 2967SOL    HW220361   3.722   3.420   4.994 -0.3833 -0.0902 -0.4488
 2968SOL     OW20362   2.578   2.992   7.478  0.1734  0.1175 -0.2703
 2968SOL    HW120363   2.545   2.903   7.485 -1.2527  0.6749  0.2225
 2968SOL    HW220364   2.626   3.000   7.560 -2.9846 -0.3723  1.6406
 2969SOL     OW20365   1.089   2.824   8.071 -0.0954  0.3129 -0.5349
 2969SOL    HW120366   1.056   2.912   8.087  1.8715  1.1736 -1.2292
 2969SOL    HW220367   1.024   2.773   8.119  1.4216  0.1641  1.3196
 2970SOL     OW20368   1.803   0.468   2.180  0.0576 -0.7125  0.1507
 2970SOL    HW120369   1.754   0.518   2.115 -0.1901 -2.1466 -0.7755
 2970SOL    HW220370   1.827   0.534   2.244 -0.9596 -1.6339  1.4841
 2971SOL     OW20371   1.749   0.590   4.191  0.3692  0.7072 -0.0751
 2971SOL    HW120372   1.731   0.542   4.110  0.6531  0.3919  0.0492
 2971SOL    HW220373   1.832   0.549   4.217 -0.2303  0.3346  1.2466
 2972SOL     OW20374   1.947   3.543   5.952 -0.1554 -0.2420 -0.1977
 2972SOL    HW120375   1.856   3.513   5.954  0.7908 -3.1643 -1.7306
 2972SOL    HW220376   1.972   3.515   6.040  2.0357 -1.1207 -1.1168
 2973SOL     OW20377   0.109   3.761   6.703  0.1924 -0.5989 -0.7929
 2973SOL    HW120378   0.154   3.829   6.654 -1.3945  0.0591 -1.3507
 2973SOL    HW220379   0.041   3.734   6.641 -0.4998 -0.5869 -0.0433
 2974SOL     OW20380   3.769   0.789  13.278 -0.1152  0.3228  0.5843
 2974SOL    HW120381   3.813   0.854  13.333  2.0811 -2.9116  2.6292
 2974SOL    HW220382   3.845   0.757  13.229 -0.9123 -1.3808  0.4448
 2975SOL     OW20383   1.692   0.567  10.948 -0.6577 -0.9644 -0.1101
 2975SOL    HW120384   1.618   0.532  10.998  0.9258 -1.9591  1.5299
 2975SOL    HW220385   1.771   0.539  10.993 -0.0144 -0.0931 -0.6928
 2976SOL     OW20386   4.599   0.614   9.882  0.2191 -0.5114  0.3112
 2976SOL    HW120387   4.546   0.561   9.823  1.4213 -1.6504  0.2557
 2976SOL    HW220388   4.649   0.663   9.815 -2.0377  0.0600 -0.9569
 2977SOL     OW20389   2.852   1.835   2.367 -0.3423 -0.0140  0.3572
 2977SOL    HW120390   2.786   1.898   2.397 -1.3992 -0.9478  0.0027
 2977SOL    HW220391   2.908   1.888   2.309  1.4091 -1.3748  0.8333
 2978SOL     OW20392   2.525   3.628  14.302 -0.7811 -0.0336  0.2044
 2978SOL    HW120393   2.447   3.581  14.273 -0.3430 -0.9405  0.4837
 2978SOL    HW220394   2.487   3.655  14.386  1.7417  1.5621  0.8330
 2979SOL     OW20395   1.291   0.022   4.790 -0.4407  0.5688 -0.5928
 2979SOL    HW120396   1.353   4.700   4.734  0.9865  2.1152 -0.2799
 2979SOL    HW220397   1.303   4.713   4.879 -2.3359 -0.0176 -0.5582
 2980SOL     OW20398   3.533   1.266   7.942  0.1444  0.1239 -0.0869
 2980SOL    HW120399   3.509   1.344   7.892  0.2245 -0.0710 -0.4304
 2980SOL    HW220400   3.595   1.223   7.882 -2.6665 -0.1318 -2.8025
 2981SOL     OW20401   2.636   3.341   0.208 -0.1803  0.6520 -0.2229
 2981SOL    HW120402   2.649   3.310   0.118 -0.2201  0.6225 -0.2186
 2981SOL    HW220403   2.706   3.403   0.227  0.6431 -0.2683 -0.2572
 2982SOL     OW20404   2.524   0.188   9.090  0.4473 -0.1293  0.2795
 2982SOL    HW120405   2.460   0.259   9.089 -0.5287 -1.0372 -2.0627
 2982SOL    HW220406   2.562   0.213   9.175 -0.7590 -1.6950  1.2596
 2983SOL     OW20407   1.171   3.100  13.956  0.2305  0.1673  0.6094
 2983SOL    HW120408   1.130   3.019  13.925  3.9269 -1.4179 -0.2627
 2983SOL    HW220409   1.100   3.151  13.994 -0.5097 -0.3556 -0.0820
 2984SOL     OW20410   0.834   2.864  12.668 -0.4833 -0.4533  0.0396
 2984SOL    HW120411   0.749   2.838  12.706  0.2949 -0.5960  1.7028
 2984SOL    HW220412   0.885   2.886  12.746 -0.3196 -0.1041 -0.1692
 2985SOL     OW20413   2.328   0.616   3.380 -0.2462  0.2439  0.2991
 2985SOL    HW120414   2.272   0.545   3.411 -1.2180  0.9578  0.1948
 2985SOL    HW220415   2.414   0.584   3.408  0.2768 -0.2294 -1.8412
 2986SOL     OW20416   2.652   0.818   8.135 -0.2233 -0.3635 -0.0994
 2986SOL    HW120417   2.669   0.742   8.078 -0.5144  1.3027 -2.3992
 2986SOL    HW220418   2.642   0.889   8.072 -1.0123  0.9042  1.4507
 2987SOL     OW20419   0.452   1.476   9.872  0.2308  0.3788  0.1196
 2987SOL    HW120420   0.413   1.543   9.817 -2.3102 -1.9331 -0.8431
 2987SOL    HW220421   0.537   1.520   9.886  1.1176 -1.2700 -0.1209
 2988SOL     OW20422   2.686   4.577  14.492  0.0686 -0.5717  0.4120
 2988SOL    HW120423   2.688   4.574  14.396  2.3278  1.3840  0.3981
 2988SOL    HW220424   2.602   4.624  14.497  1.1708  1.1185  3.1844
 2989SOL     OW20425   1.885   0.296   7.494 -0.4934  0.6745 -0.2441
 2989SOL    HW120426   1.887   0.296   7.398  2.0258 -0.7143 -0.1943
 2989SOL    HW220427   1.975   0.301   7.524 -0.1950  0.3668 -1.0771
 2990SOL     OW20428   2.720   0.998   7.762  0.2476 -0.5127 -0.2899
 2990SOL    HW120429   2.772   1.045   7.696 -1.2341 -1.0249 -1.8321
 2990SOL    HW220430   2.788   0.976   7.825  0.0442  0.2341  0.1892
 2991SOL     OW20431   0.588   4.009   8.036 -0.2345 -0.0250  0.0852
 2991SOL    HW120432   0.636   3.998   7.954 -1.5802  4.9978 -1.3848
 2991SOL    HW220433   0.558   3.919   8.039 -0.9523  0.1253 -2.6103
 2992SOL     OW20434   0.741   2.558  15.345  0.1081 -0.3011  0.1736
 2992SOL    HW120435   0.739   2.618  15.271  1.4246 -0.4021  0.0566
 2992SOL    HW220436   0.655   2.518  15.355 -0.0480 -0.3253 -1.2973
 2993SOL     OW20437   2.398   4.459   4.202 -0.2836  0.8956  0.1555
 2993SOL    HW120438   2.483   4.425   4.174  0.2575  2.3345  0.0406
 2993SOL    HW220439   2.378   4.499   4.117  0.3587 -1.2347 -1.0012
 2994SOL     OW20440   1.140   4.403   8.236 -0.8647  0.1572  0.0547
 2994SOL    HW120441   1.087   4.326   8.255  2.1439 -1.5292  1.6057
 2994SOL    HW220442   1.209   4.390   8.301  0.2824  0.4489 -1.1136
 2995SOL     OW20443   2.989   4.492   3.585 -0.2699 -0.1246 -0.1839
 2995SOL    HW120444   3.070   4.542   3.593  0.2580 -0.8115 -1.1815
 2995SOL    HW220445   2.929   4.559   3.618  1.5000  0.5532  1.6540
 2996SOL     OW20446   3.066   4.001   0.607  0.6768 -0.3389  0.0068
 2996SOL    HW120447   3.144   4.052   0.584 -0.2809  1.0270 -0.2131
 2996SOL    HW220448   3.085   3.955   0.689 -2.5295 -0.4812  0.6634
 2997SOL     OW20449   1.205   3.256   2.788  0.1949 -0.3272 -0.7894
 2997SOL    HW120450   1.249   3.172   2.779  0.4872 -0.0566 -1.8502
 2997SOL    HW220451   1.206   3.276   2.695  3.2753  0.6357 -0.5641
 2998SOL     OW20452   3.291   4.259   8.853 -0.2046  0.0450  0.0911
 2998SOL    HW120453   3.227   4.234   8.787  1.9035 -1.0182 -1.5656
 2998SOL    HW220454   3.252   4.340   8.885 -0.2229  0.2774 -0.5157
 2999SOL     OW20455   4.458   2.260   6.348  0.5420 -0.1550  0.6429
 2999SOL    HW120456   4.424   2.285   6.262 -1.1214  1.3362  1.7229
 2999SOL    HW220457   4.523   2.329   6.360 -0.0615  0.6679 -0.9207
 3000SOL     OW20458   2.306   0.780  15.550 -0.2178 -0.5352  0.0575
 3000SOL    HW120459   2.233   0.837  15.575  2.4170  1.6313  2.8809
 3000SOL    HW220460   2.386   0.825  15.576  0.7817 -1.1104 -2.0622
 3001SOL     OW20461   3.600   2.431   0.048 -0.1449 -0.2338  0.0376
 3001SOL    HW120462   3.608   2.453  17.654  1.2810  1.8260  0.6578
 3001SOL    HW220463   3.687   2.391   0.060  0.3817  0.3229 -2.0151
 3002SOL     OW20464   2.279   2.369   1.052 -0.4610  0.9128  0.1445
 3002SOL    HW120465   2.298   2.454   1.013 -1.9196  0.6961 -1.0454
 3002SOL    HW220466   2.212   2.337   0.991 -2.9203 -1.1588  3.8864
 3003SOL     OW20467   2.107   4.453  17.244  0.1697  0.0970  0.5839
 3003SOL    HW120468   2.121   4.543  17.276  0.7271  0.1009  0.3208
 3003SOL    HW220469   2.185   4.447  17.190 -0.3241 -1.7692  0.1087
 3004SOL     OW20470   0.747   0.765  14.950 -0.3728  0.1303  0.7922
 3004SOL    HW120471   0.708   0.681  14.928  1.9924 -0.6465 -0.4663
 3004SOL    HW220472   0.770   0.799  14.864 -0.1849  0.1427  0.8455
 3005SOL     OW20473   4.298   0.672   8.719  0.1240  0.2540  0.4388
 3005SOL    HW120474   4.248   0.752   8.737 -0.4250 -0.1051  0.4917
 3005SOL    HW220475   4.230   0.609   8.697  0.4384  0.2252 -0.4343
 3006SOL     OW20476   4.431   1.616   1.782  0.3297 -0.1175 -0.5155
 3006SOL    HW120477   4.405   1.541   1.727 -1.2164  1.1143 -1.4908
 3006SOL    HW220478   4.447   1.683   1.716  1.2571  1.0060  0.8874
 3007SOL     OW20479   0.183   4.653   4.229 -0.1331  0.1317 -0.5925
 3007SOL    HW120480   0.231   0.003   4.191 -1.5987  1.3507 -0.0859
 3007SOL    HW220481   0.101   4.695   4.255 -0.2675 -0.2944 -0.3361
 3008SOL     OW20482   0.690   4.081   8.507 -0.1301  0.2210 -0.5416
 3008SOL    HW120483   0.662   4.130   8.584 -1.5241  1.2510 -1.7056
 3008SOL    HW220484   0.602   4.049   8.489 -0.0263  0.4108 -1.3903
 3009SOL     OW20485   3.091   0.144  13.024  0.0570 -0.0120  0.1260
 3009SOL    HW120486   3.041   0.062  13.027  2.6006 -1.5545 -0.4206
 3009SOL    HW220487   3.102   0.162  13.117 -0.6439  1.5852 -0.1009
 3010SOL     OW20488   3.228   2.096  15.946  0.1132 -0.7408  0.4931
 3010SOL    HW120489   3.174   2.081  16.024  1.9907 -0.6309  1.8226
 3010SOL    HW220490   3.287   2.159  15.988  0.8195 -2.2142  1.6992
 3011SOL     OW20491   1.275   2.104   9.188  0.1530  0.1306 -0.0432
 3011SOL    HW120492   1.219   2.095   9.266  0.9825 -0.2531  0.5160
 3011SOL    HW220493   1.359   2.087   9.230  0.2500  1.7278  0.3970
 3012SOL     OW20494   1.794   0.770  14.685 -0.0210 -0.1850  0.2680
 3012SOL    HW120495   1.747   0.700  14.641 -1.5586  1.0269 -0.0019
 3012SOL    HW220496   1.845   0.721  14.750 -1.0897 -1.0339  0.4554
 3013SOL     OW20497   2.986   0.508   8.048 -0.1776  0.2652 -0.0784
 3013SOL    HW120498   2.970   0.414   8.047  0.8225  0.0911  0.3893
 3013SOL    HW220499   2.922   0.535   8.114  1.4041  0.9074  1.2002
 3014SOL     OW20500   3.386   3.628  13.994  0.3462 -0.2925  0.2689
 3014SOL    HW120501   3.368   3.720  14.014 -0.2055 -0.7824  2.0067
 3014SOL    HW220502   3.316   3.581  14.038 -1.5356  1.6044 -0.7018
 3015SOL     OW20503   0.388   4.332  13.327  0.0531 -0.0092 -0.5805
 3015SOL    HW120504   0.389   4.238  13.347 -0.8574  0.3132  0.9073
 3015SOL    HW220505   0.438   4.321  13.246  1.0960  3.6683 -0.4321
 3016SOL     OW20506   1.195   4.145   5.751 -0.2378  0.0145 -0.3273
 3016SOL    HW120507   1.225   4.132   5.661 -0.5699  1.7090 -0.6728
 3016SOL    HW220508   1.282   4.134   5.790 -0.1174  0.7761 -0.3782
 3017SOL     OW20509   4.609   4.156   4.154  0.2241 -0.5314  0.2209
 3017SOL    HW120510   4.587   4.249   4.146  0.7347 -0.3149  1.4250
 3017SOL    HW220511   4.699   4.152   4.187 -0.3688  0.9203  2.0154
 3018SOL     OW20512   4.366   0.638   1.470  0.5406  0.4223 -0.3901
 3018SOL    HW120513   4.411   0.619   1.387  0.9230 -0.2886 -0.0258
 3018SOL    HW220514   4.444   0.665   1.519 -0.7547  1.9638  0.8055
 3019SOL     OW20515   4.693   0.884   1.145  0.0687  0.1541 -0.1334
 3019SOL    HW120516   0.005   0.956   1.094  1.1908  0.4772  1.1285
 3019SOL    HW220517   4.639   0.850   1.074 -3.4172  0.9894  2.0954
 3020SOL     OW20518   3.341   4.437   4.937  0.3283  0.4565  0.0952
 3020SOL    HW120519   3.310   4.517   4.893 -1.0535 -0.6910 -1.0221
 3020SOL    HW220520   3.262   4.396   4.973 -0.4903  1.1814 -0.9076
 3021SOL     OW20521   2.357   1.442   2.837 -0.2945  0.0536  0.3491
 3021SOL    HW120522   2.283   1.448   2.897  1.1110 -0.5841  2.1574
 3021SOL    HW220523   2.328   1.379   2.772  1.8214 -0.3335 -0.2281
 3022SOL     OW20524   4.064   3.408  16.806  0.5152  0.2939 -0.5036
 3022SOL    HW120525   4.138   3.373  16.855 -0.8466 -2.1583 -0.2482
 3022SOL    HW220526   4.064   3.339  16.740 -2.1081  0.0945 -0.2700
 3023SOL     OW20527   1.231   3.817   2.808 -0.3185  0.1580  0.1223
 3023SOL    HW120528   1.250   3.818   2.902 -2.8949  0.3765  0.6386
 3023SOL    HW220529   1.212   3.725   2.790  1.9269 -0.2605 -0.0551
 3024SOL     OW20530   1.351   1.852  12.094  0.1482  0.0541 -0.3672
 3024SOL    HW120531   1.340   1.761  12.068 -1.4212  0.2909 -0.5276
 3024SOL    HW220532   1.396   1.831  12.176 -1.6448 -3.0377 -0.1594
 3025SOL     OW20533   2.831   4.070   2.528  0.3021 -1.5541  0.4652
 3025SOL    HW120534   2.829   4.129   2.602 -2.2393 -0.1715 -0.7251
 3025SOL    HW220535   2.924   4.047   2.529  0.7679  0.4123  1.0102
 3026SOL     OW20536   2.706   4.372   4.815  0.9269  0.0985 -0.1068
 3026SOL    HW120537   2.654   4.292   4.808 -0.4863  1.0382 -0.4269
 3026SOL    HW220538   2.710   4.408   4.726 -1.8258 -1.9861 -1.0682
 3027SOL     OW20539   0.769   3.991   7.210 -0.3591 -0.0697 -0.0522
 3027SOL    HW120540   0.724   4.011   7.292 -1.1876 -0.4869 -0.4032
 3027SOL    HW220541   0.701   4.013   7.147  0.9145 -1.8845 -2.0636
 3028SOL     OW20542   0.192   0.096  13.876 -0.2734  0.7850  0.8155
 3028SOL    HW120543   0.243   0.177  13.869 -0.4001  0.8391  0.4994
 3028SOL    HW220544   0.122   0.104  13.811  0.6847  1.4750 -0.1344
 3029SOL     OW20545   2.453   0.004   5.244 -0.3782  0.8724  0.3557
 3029SOL    HW120546   2.400   0.008   5.165  1.9906  0.7540 -1.2451
 3029SOL    HW220547   2.511   4.654   5.226  1.3732  1.7360  2.3965
 3030SOL     OW20548   1.879   2.040  12.712  0.0735  0.0235 -0.3985
 3030SOL    HW120549   1.865   2.133  12.729 -1.2578 -0.8453  3.1565
 3030SOL    HW220550   1.793   2.001  12.726 -0.0116  1.0130  1.9187
 3031SOL     OW20551   4.686   1.994   7.765  0.3733 -0.6951 -0.4461
 3031SOL    HW120552   0.035   1.943   7.800  0.5192 -0.2959 -0.1698
 3031SOL    HW220553   4.635   1.983   7.845  1.5150  1.9311  0.6512
 3032SOL     OW20554   1.882   2.968   2.348  0.0253  0.1738  0.2503
 3032SOL    HW120555   1.822   2.915   2.401  0.7417 -1.3921 -0.5062
 3032SOL    HW220556   1.954   2.904   2.349 -0.4527 -0.3773 -1.0462
 3033SOL     OW20557   0.235   1.380  12.022  0.2616 -0.6855 -0.5237
 3033SOL    HW120558   0.153   1.351  11.982 -0.5007 -0.5272  0.8885
 3033SOL    HW220559   0.243   1.298  12.072  2.2359  1.0795  2.0310
 3034SOL     OW20560   0.429   1.732   1.119 -0.0209  0.1580 -0.3297
 3034SOL    HW120561   0.374   1.810   1.107 -2.0747 -1.6240 -2.3781
 3034SOL    HW220562   0.442   1.702   1.029  0.0242  2.8535 -1.2243
 3035SOL     OW20563   0.289   0.809   7.767  0.4522  0.2195 -0.8653
 3035SOL    HW120564   0.255   0.885   7.720 -2.1844 -0.2786  0.2050
 3035SOL    HW220565   0.205   0.781   7.804  0.9588 -0.2377 -0.0553
 3036SOL     OW20566   1.938   3.557   3.169  0.2508  0.0669  0.5881
 3036SOL    HW120567   1.864   3.578   3.225 -1.1462  1.8533 -1.9474
 3036SOL    HW220568   1.964   3.473   3.208  1.3283 -0.0999 -0.4624
 3037SOL     OW20569   1.918   2.979  11.994 -0.0686  0.1740  0.1714
 3037SOL    HW120570   1.868   3.008  11.917  2.2394 -1.1062 -1.8008
 3037SOL    HW220571   1.883   3.049  12.050  1.3602  0.9683  0.0746
 3038SOL     OW20572   2.066   0.177   3.327  0.1551 -0.5305 -0.2534
 3038SOL    HW120573   2.079   0.090   3.292  0.2070 -0.1702 -1.1180
 3038SOL    HW220574   1.978   0.176   3.366 -0.3614  0.3049 -1.3887
 3039SOL     OW20575   0.346   0.964   5.306 -0.6362  0.0399 -0.4415
 3039SOL    HW120576   0.348   0.920   5.221 -0.3238 -0.7224 -0.0399
 3039SOL    HW220577   0.420   0.920   5.347 -0.8453  0.9246  0.8914
 3040SOL     OW20578   4.103   1.504   2.956  0.1567 -0.4977  0.0614
 3040SOL    HW120579   4.071   1.548   2.878 -2.3746 -0.4646  1.1101
 3040SOL    HW220580   4.044   1.428   2.957  0.7460 -0.9783 -1.6538
 3041SOL     OW20581   1.783   0.936   0.612 -0.0253 -0.1582 -0.2560
 3041SOL    HW120582   1.821   0.861   0.657  0.5615  0.7326  0.7500
 3041SOL    HW220583   1.796   1.005   0.678 -0.3220  0.5476 -0.9335
 3042SOL     OW20584   2.601   2.020  13.302 -0.3397  0.1614  0.3173
 3042SOL    HW120585   2.548   2.090  13.339 -0.6366 -0.5088  1.1678
 3042SOL    HW220586   2.635   1.977  13.381 -1.5726  0.0958  0.8140
 3043SOL     OW20587   1.609   2.556   5.262  0.2971  0.0857  0.1784
 3043SOL    HW120588   1.658   2.580   5.341  0.2118  0.0328  0.2482
 3043SOL    HW220589   1.521   2.585   5.288 -0.5670 -3.6294  1.4325
 3044SOL     OW20590   0.353   1.024   1.058 -0.0777 -0.4013  0.0376
 3044SOL    HW120591   0.331   1.116   1.040  1.5931  0.1838  1.0045
 3044SOL    HW220592   0.315   0.975   0.986 -3.4926  1.1225  0.7498
 3045SOL     OW20593   2.318   2.227   9.842  0.2363 -0.4656 -0.2530
 3045SOL    HW120594   2.374   2.261   9.772 -0.4137  0.6415 -0.2341
 3045SOL    HW220595   2.304   2.307   9.892 -1.4968 -1.4296  0.8313
 3046SOL     OW20596   2.394   2.230   2.727 -0.0708  0.8816  0.2643
 3046SOL    HW120597   2.364   2.287   2.797 -1.3633  0.1943  0.2760
 3046SOL    HW220598   2.314   2.185   2.699 -0.0143  0.9506 -0.0111
 3047SOL     OW20599   0.151   3.327   6.474 -0.0822 -0.0976  0.1161
 3047SOL    HW120600   0.137   3.397   6.410 -2.3647  0.6154  1.3999
 3047SOL    HW220601   0.186   3.265   6.409  3.3682  0.7842  1.1440
 3048SOL     OW20602   0.892   2.564   0.031  0.4417  0.0983 -0.1440
 3048SOL    HW120603   0.929   2.652   0.027 -0.9130  0.6060 -1.4001
 3048SOL    HW220604   0.803   2.590   0.053  0.2288  0.3379 -1.3154
 3049SOL     OW20605   0.464   2.851   3.992  0.5987  0.3599 -0.5946
 3049SOL    HW120606   0.397   2.812   4.048  0.5210  2.4827  0.8165
 3049SOL    HW220607   0.433   2.841   3.902  0.7274  1.0583 -0.7172
 3050SOL     OW20608   2.545   4.710   8.024 -0.0578 -0.7051  0.3136
 3050SOL    HW120609   2.593   0.040   8.088  1.0762  0.3351 -1.4164
 3050SOL    HW220610   2.486   0.056   7.998  0.9568  0.2701  0.6015
 3051SOL     OW20611   3.310   1.055   6.679  0.5907  0.3454 -0.4759
 3051SOL    HW120612   3.310   0.959   6.676 -1.3392  0.4249 -2.3875
 3051SOL    HW220613   3.358   1.066   6.597  1.3480 -0.5213 -0.1492
 3052SOL     OW20614   3.846   4.565  13.185 -0.2166 -0.5908  0.2346
 3052SOL    HW120615   3.866   4.523  13.101 -0.7751  0.4989 -0.4469
 3052SOL    HW220616   3.933   4.589  13.217  0.5081 -0.2281 -1.9984
 3053SOL     OW20617   3.452   1.053   2.041  0.1377  0.4346 -0.0990
 3053SOL    HW120618   3.543   1.070   2.066  1.0610 -0.6108 -2.7195
 3053SOL    HW220619   3.436   0.962   2.063  1.7659 -0.1257 -1.2847
 3054SOL     OW20620   0.523   0.705   0.134 -0.0897 -0.7799  0.2340
 3054SOL    HW120621   0.458   0.686   0.066  1.5326  0.3710 -1.6361
 3054SOL    HW220622   0.533   0.799   0.122  0.2721 -0.9528 -0.8353
 3055SOL     OW20623   3.447   2.511  15.870  0.4272 -0.3360 -0.0968
 3055SOL    HW120624   3.462   2.532  15.778 -2.1913 -0.8503 -0.6207
 3055SOL    HW220625   3.502   2.578  15.912 -0.8240  1.3976 -1.2240
 3056SOL     OW20626   1.423   0.606  11.086 -0.5474 -0.0734 -0.0973
 3056SOL    HW120627   1.384   0.662  11.019 -2.4080 -1.1067  0.1179
 3056SOL    HW220628   1.353   0.613  11.151 -1.4990 -1.9258 -0.9118
 3057SOL     OW20629   4.689   3.447  16.738 -0.6516 -0.4737  0.5381
 3057SOL    HW120630   4.617   3.492  16.693  0.8551  0.5154 -0.8454
 3057SOL    HW220631   4.672   3.483  16.825  1.1818  0.9839  0.2802
 3058SOL     OW20632   3.485   4.183   6.102 -0.0943 -0.0217  0.0379
 3058SOL    HW120633   3.478   4.142   6.016 -1.8871  0.5671 -0.0902
 3058SOL    HW220634   3.482   4.108   6.162 -4.1897 -1.2240 -1.6913
 3059SOL     OW20635   1.375   3.368   0.132  0.5996 -0.1882 -0.2634
 3059SOL    HW120636   1.441   3.325   0.185 -0.5394 -0.6653  0.7619
 3059SOL    HW220637   1.360   3.451   0.176  3.5507 -0.0810  0.5135
 3060SOL     OW20638   2.007   3.408  11.274 -0.0095 -0.5123  0.4841
 3060SOL    HW120639   2.023   3.384  11.183 -0.7325 -1.3479  0.5827
 3060SOL    HW220640   1.944   3.339  11.291 -0.9104  0.4572  1.1023
 3061SOL     OW20641   2.271   1.210   4.102 -0.6120 -0.2169  0.8122
 3061SOL    HW120642   2.241   1.172   4.184  0.2439  0.8958  1.6277
 3061SOL    HW220643   2.241   1.300   4.113  1.6296  0.3763  2.0090
 3062SOL     OW20644   1.167   2.374   3.600 -0.0900  0.2085 -0.5106
 3062SOL    HW120645   1.093   2.314   3.587  0.7225 -0.5773 -1.5745
 3062SOL    HW220646   1.191   2.403   3.512  2.3669 -1.4993 -0.4088
 3063SOL     OW20647   2.630   4.008   3.798  0.0517  0.2789 -1.0466
 3063SOL    HW120648   2.681   4.077   3.841  0.2015  0.1221 -0.9695
 3063SOL    HW220649   2.551   4.001   3.851  1.3124 -0.4090  0.7456
 3064SOL     OW20650   2.990   3.729   9.125 -0.2916  0.6005 -0.3547
 3064SOL    HW120651   2.909   3.687   9.153  1.6192 -0.8450  3.1635
 3064SOL    HW220652   2.974   3.820   9.149  0.0394 -0.1126  2.6618
 3065SOL     OW20653   2.771   0.028   7.839  0.1944 -0.5659  0.1375
 3065SOL    HW120654   2.714   4.704   7.898 -0.3192 -0.8907 -0.6301
 3065SOL    HW220655   2.854   4.705   7.850  0.0346 -0.8162  0.2578
 3066SOL     OW20656   4.476   1.416   4.677 -0.3805  0.0703 -0.0883
 3066SOL    HW120657   4.524   1.476   4.735  0.2991 -1.6613  1.1108
 3066SOL    HW220658   4.422   1.373   4.742 -1.2974  0.6955 -0.4371
 3067SOL     OW20659   0.839   1.938   5.169  0.0765 -0.4009 -0.7478
 3067SOL    HW120660   0.804   2.027   5.167  1.8097  0.2574 -1.4153
 3067SOL    HW220661   0.925   1.949   5.130  0.5288  2.5785  1.1486
 3068SOL     OW20662   2.492   3.841   7.651 -0.6380  0.1033 -0.0420
 3068SOL    HW120663   2.521   3.902   7.718  0.0931  1.2867 -1.4274
 3068SOL    HW220664   2.546   3.874   7.579  0.4783  0.8322  1.1207
 3069SOL     OW20665   2.925   3.313   2.215 -0.3778 -0.0373  0.4331
 3069SOL    HW120666   2.917   3.313   2.120 -0.6019 -1.7121  0.4562
 3069SOL    HW220667   3.016   3.330   2.238 -0.4673  1.7193 -0.5644
 3070SOL     OW20668   3.814   2.022   2.882  0.8343 -0.2101 -0.0442
 3070SOL    HW120669   3.778   2.058   2.801 -2.8677 -0.0679  1.6594
 3070SOL    HW220670   3.822   2.103   2.932  0.6312  0.2937 -0.8247
 3071SOL     OW20671   4.068   2.255   3.837  0.0561  0.1419  0.0745
 3071SOL    HW120672   3.982   2.224   3.865  0.3573 -1.3232 -0.6546
 3071SOL    HW220673   4.106   2.185   3.784 -1.3771  0.2310 -1.0869
 3072SOL     OW20674   2.534   0.327  17.571  0.4006 -0.5328  0.0103
 3072SOL    HW120675   2.533   0.414  17.610  0.4351 -0.7861  0.5765
 3072SOL    HW220676   2.558   0.271  17.644 -0.4438  1.2368  1.6326
 3073SOL     OW20677   0.352   0.125   1.629 -0.1073 -0.0360  0.2882
 3073SOL    HW120678   0.358   0.131   1.725  0.4645 -2.7213  0.4229
 3073SOL    HW220679   0.442   0.148   1.605 -0.3385 -0.4061 -0.9392
 3074SOL     OW20680   1.633   2.759   4.825 -0.0951 -0.4004 -0.2171
 3074SOL    HW120681   1.672   2.673   4.836  1.8549  0.6555  1.1279
 3074SOL    HW220682   1.672   2.792   4.744 -0.0834 -0.1557 -0.1126
 3075SOL     OW20683   3.920   2.362   1.473 -0.2288  0.4622 -0.2782
 3075SOL    HW120684   3.995   2.324   1.427 -0.3335 -0.7582  0.5443
 3075SOL    HW220685   3.944   2.437   1.527  0.2604  0.1457 -0.0496
 3076SOL     OW20686   2.245   0.314   5.497 -0.5944 -1.0289 -0.1055
 3076SOL    HW120687   2.169   0.257   5.494 -0.9504 -0.6095  0.9361
 3076SOL    HW220688   2.308   0.252   5.460 -2.3404 -2.9339  0.1422
 3077SOL     OW20689   4.400   1.295   9.373 -0.7919  0.4165  0.2755
 3077SOL    HW120690   4.488   1.299   9.408 -1.2122  0.8008  1.2888
 3077SOL    HW220691   4.396   1.365   9.307  0.5968  1.6317  1.4973
 3078SOL     OW20692   4.089   2.050  14.084  0.3747  0.0773 -0.5784
 3078SOL    HW120693   4.127   1.970  14.049  0.5138 -0.1702  0.1295
 3078SOL    HW220694   4.023   2.072  14.018 -0.7322 -0.8164  0.2030
 3079SOL     OW20695   4.050   1.690   5.533 -0.5528 -0.2884 -0.1401
 3079SOL    HW120696   4.114   1.634   5.489 -2.0252 -1.9548 -0.1278
 3079SOL    HW220697   3.989   1.622   5.560 -0.8549 -0.1365 -0.4342
 3080SOL     OW20698   3.820   0.147   7.008  0.0814  0.1958 -0.6729
 3080SOL    HW120699   3.770   0.084   7.061  0.8100 -0.8463 -1.2430
 3080SOL    HW220700   3.858   0.210   7.070 -1.9202  0.4541  0.2888
 3081SOL     OW20701   2.917   2.503   6.164 -0.5501  0.6269 -0.1072
 3081SOL    HW120702   2.992   2.502   6.224 -0.2043  1.8737 -0.5242
 3081SOL    HW220703   2.864   2.433   6.203 -0.6334  1.6583  1.6148
 3082SOL     OW20704   1.787   2.833   7.900  0.0005  0.1035  0.5217
 3082SOL    HW120705   1.845   2.902   7.933 -0.2865  0.0235  1.2086
 3082SOL    HW220706   1.759   2.793   7.982  0.7258  0.9676  1.2011
 3083SOL     OW20707   2.509   0.197   3.459 -0.5248 -0.2680  0.1756
 3083SOL    HW120708   2.507   0.250   3.380  1.7648 -0.5011 -0.0288
 3083SOL    HW220709   2.522   0.268   3.522  1.2617 -1.1217  0.7698
 3084SOL     OW20710   2.312   1.938   6.393  0.2808 -0.3785 -0.0616
 3084SOL    HW120711   2.268   1.957   6.476 -0.4287 -1.4542 -0.2014
 3084SOL    HW220712   2.282   2.011   6.338  0.3188 -0.9428 -0.8235
 3085SOL     OW20713   2.018   0.496   5.852  0.0164 -0.8307 -0.2615
 3085SOL    HW120714   2.074   0.512   5.776 -1.3178 -0.7182 -1.2135
 3085SOL    HW220715   2.009   0.401   5.859 -0.4383 -0.7669  0.0260
 3086SOL     OW20716   3.406   3.260   7.252  0.0566  0.3885  0.1172
 3086SOL    HW120717   3.404   3.167   7.229  1.7120  0.8644 -1.9478
 3086SOL    HW220718   3.313   3.279   7.247 -0.0898 -0.3895 -0.0514
 3087SOL     OW20719   2.484   1.961   2.612  0.3399 -0.7683 -0.2750
 3087SOL    HW120720   2.394   1.982   2.637  0.4735  1.2661 -1.4720
 3087SOL    HW220721   2.514   1.901   2.680 -1.9945  0.4521  1.8390
 3088SOL     OW20722   1.802   0.958   4.254 -0.2592 -0.7134  0.1513
 3088SOL    HW120723   1.877   0.920   4.208 -0.1114  0.3731 -0.5042
 3088SOL    HW220724   1.843   0.973   4.339  0.0286 -2.4767  0.3257
 3089SOL     OW20725   4.342   0.481   0.737  0.1693 -0.1166 -0.3256
 3089SOL    HW120726   4.379   0.487   0.826  0.2657 -0.8805 -0.3132
 3089SOL    HW220727   4.320   0.388   0.731  1.2320 -0.3003 -1.3858
 3090SOL     OW20728   0.557   4.194   8.223  0.7172  0.3218 -0.2764
 3090SOL    HW120729   0.579   4.125   8.161  2.1125  0.7069 -0.2264
 3090SOL    HW220730   0.560   4.143   8.304 -0.7644 -0.1750 -0.5460
 3091SOL     OW20731   2.515   2.497   8.143  0.1266  0.0196  0.4870
 3091SOL    HW120732   2.515   2.497   8.047  0.5902  0.7788  0.4861
 3091SOL    HW220733   2.601   2.465   8.169  0.8959  0.5006 -1.4258
 3092SOL     OW20734   1.175   1.902   3.836  0.8975  0.7392 -0.0467
 3092SOL    HW120735   1.110   1.944   3.893  0.1350  0.1382 -0.4811
 3092SOL    HW220736   1.129   1.860   3.764  2.2871 -0.0053 -0.4948
 3093SOL     OW20737   3.327   0.889   3.303 -0.0502 -0.0352  0.2361
 3093SOL    HW120738   3.362   0.966   3.258 -2.2966  0.7632 -0.1515
 3093SOL    HW220739   3.406   0.839   3.321 -1.1200 -1.3502  1.2795
 3094SOL     OW20740   0.713   3.232   2.420  0.0949 -0.4992  0.0840
 3094SOL    HW120741   0.687   3.312   2.373 -1.5873  0.0382  1.9427
 3094SOL    HW220742   0.744   3.183   2.344  0.4500  0.6275 -0.4987
 3095SOL     OW20743   4.633   2.223   5.812 -0.1287  0.0099 -0.2813
 3095SOL    HW120744   4.652   2.281   5.886 -0.6007 -0.9752  0.6174
 3095SOL    HW220745   4.716   2.212   5.766 -0.2092 -1.5762 -0.0681
 3096SOL     OW20746   2.499   2.511  17.655 -0.0818  0.7051  0.2935
 3096SOL    HW120747   2.456   2.431  17.684  1.6054  0.5810  2.4995
 3096SOL    HW220748   2.524   2.489  17.566 -0.9156  1.0709 -0.0260
 3097SOL     OW20749   1.922   4.172   3.085 -0.0383  0.7569  0.2490
 3097SOL    HW120750   2.012   4.177   3.118  0.3644  0.3718 -0.7948
 3097SOL    HW220751   1.945   4.181   2.993  0.1370 -0.2157  0.1952
 3098SOL     OW20752   0.117   0.214   1.538 -0.0337  0.2445  0.0471
 3098SOL    HW120753   0.204   0.189   1.569 -0.4797  0.8687  1.8212
 3098SOL    HW220754   0.150   0.238   1.452  0.3213  2.4522  0.7836
 3099SOL     OW20755   0.213   4.102  15.923 -0.3263  0.0868  0.2528
 3099SOL    HW120756   0.145   4.038  15.904 -0.3875  0.5262 -0.9868
 3099SOL    HW220757   0.171   4.153  15.992 -0.1668  0.8897 -0.2362
 3100SOL     OW20758   2.994   2.659  13.073  0.2662  0.2797 -0.5672
 3100SOL    HW120759   3.048   2.732  13.042  1.3416 -0.3174 -0.0971
 3100SOL    HW220760   3.031   2.658  13.162 -0.2575  0.1770 -0.3501
 3101SOL     OW20761   0.774   0.507   4.340  0.5613  0.2292  0.0542
 3101SOL    HW120762   0.766   0.413   4.329 -4.1927  0.5490  0.8536
 3101SOL    HW220763   0.684   0.537   4.328  0.2487 -1.6018 -2.0907
 3102SOL     OW20764   0.742   0.442   7.237  0.2232  0.0772  0.0949
 3102SOL    HW120765   0.747   0.519   7.181  1.4696  0.6977  1.0339
 3102SOL    HW220766   0.808   0.470   7.301  0.1681  2.6167 -0.9509
 3103SOL     OW20767   2.586   1.337   4.745 -0.1837  0.1454  0.1848
 3103SOL    HW120768   2.491   1.334   4.749 -0.1321 -2.8391 -0.4207
 3103SOL    HW220769   2.604   1.286   4.825  0.4199  1.0532  0.6210
 3104SOL     OW20770   3.463   4.515   7.503 -0.5403 -0.1784  0.0327
 3104SOL    HW120771   3.407   4.442   7.476 -0.9324  0.0371  0.2688
 3104SOL    HW220772   3.408   4.586   7.469 -2.7721 -1.9017  0.0532
 3105SOL     OW20773   2.315   3.617  11.552 -0.3767  0.1361 -0.0432
 3105SOL    HW120774   2.225   3.585  11.553 -1.2066  2.4411 -0.1921
 3105SOL    HW220775   2.328   3.601  11.458  0.3451  0.1607  0.0480
 3106SOL     OW20776   2.585   0.902  13.366 -0.1124 -0.0503 -0.5466
 3106SOL    HW120777   2.531   0.917  13.444 -0.7681 -0.9991 -0.8079
 3106SOL    HW220778   2.557   0.981  13.320 -1.5382 -1.3518 -1.9021
 3107SOL     OW20779   1.574   0.124  10.333  0.0501 -0.0542 -0.5256
 3107SOL    HW120780   1.536   0.192  10.388  1.5666  0.8226 -0.5489
 3107SOL    HW220781   1.644   0.113  10.397 -0.4909 -3.0233 -0.4695
 3108SOL     OW20782   3.589   2.294  13.385  0.3932 -0.3002 -0.4142
 3108SOL    HW120783   3.625   2.322  13.301  3.7350 -2.0731  0.4296
 3108SOL    HW220784   3.529   2.223  13.361  0.7917 -1.4092  1.8929
 3109SOL     OW20785   1.162   1.468  12.248  0.5548  0.3285  0.4659
 3109SOL    HW120786   1.211   1.402  12.198  2.8288  0.9629  1.8633
 3109SOL    HW220787   1.168   1.548  12.196 -2.2805 -0.8089 -1.6183
 3110SOL     OW20788   2.253   0.912   9.119 -0.4203 -0.1500  0.6237
 3110SOL    HW120789   2.173   0.941   9.163 -0.6489 -1.1847  0.8751
 3110SOL    HW220790   2.319   0.941   9.182  1.0656 -0.8935 -0.5879
 3111SOL     OW20791   3.600   1.253  16.206  0.0195  0.1643 -0.1943
 3111SOL    HW120792   3.516   1.294  16.182  0.1153  0.3020 -0.2927
 3111SOL    HW220793   3.583   1.164  16.174  0.8605  1.1161 -3.2353
 3112SOL     OW20794   2.052   1.726   7.182 -0.3890 -0.0947 -0.0654
 3112SOL    HW120795   1.980   1.789   7.195  1.5738  2.1031  0.1669
 3112SOL    HW220796   2.046   1.701   7.090  0.6983  0.5513 -0.3151
 3113SOL     OW20797   4.421   0.998   0.909 -0.4021 -0.3259 -0.0951
 3113SOL    HW120798   4.458   0.910   0.911  1.1329  0.3058 -0.0258
 3113SOL    HW220799   4.504   1.033   0.876  0.6458 -0.9967  1.8117
 3114SOL     OW20800   0.814   3.885   2.537 -0.1912 -0.3065 -0.0127
 3114SOL    HW120801   0.884   3.854   2.480  1.0428  2.1503  0.1710
 3114SOL    HW220802   0.868   3.931   2.602  1.6016 -1.1332 -0.9251
 3115SOL     OW20803   1.276   4.031   4.204  0.6012 -0.3688  0.7235
 3115SOL    HW120804   1.287   3.971   4.278 -1.1600 -0.0549  1.2354
 3115SOL    HW220805   1.286   3.975   4.128  1.0682  0.2067  0.3663
 3116SOL     OW20806   3.824   3.130   0.297 -0.2966  0.0201  0.3678
 3116SOL    HW120807   3.907   3.177   0.308 -0.2387 -0.2515  1.0823
 3116SOL    HW220808   3.758   3.197   0.278 -0.2961  0.1048  0.6675
 3117SOL     OW20809   0.334   1.277  12.890 -0.0769 -0.2478 -0.5310
 3117SOL    HW120810   0.272   1.217  12.931 -0.6039  1.3927  1.0784
 3117SOL    HW220811   0.418   1.232  12.897 -0.4148 -0.6013  1.1361
 3118SOL     OW20812   1.328   2.672   2.937 -0.2218  0.1303  0.1179
 3118SOL    HW120813   1.421   2.694   2.923 -0.0618 -1.1028 -0.7140
 3118SOL    HW220814   1.300   2.682   2.846 -0.8603  1.0421  0.4085
 3119SOL     OW20815   4.007   3.306   0.381  0.1346  0.5781  0.3466
 3119SOL    HW120816   3.929   3.341   0.424 -0.5216 -1.4195  0.7734
 3119SOL    HW220817   4.066   3.376   0.409  2.4164  0.0514 -3.0935
 3120SOL     OW20818   2.511   0.199  17.095  0.0808  0.3740 -0.2494
 3120SOL    HW120819   2.559   0.239  17.167 -0.3460  1.5260 -0.6135
 3120SOL    HW220820   2.566   0.126  17.065  1.0493  1.1363 -0.3149
 3121SOL     OW20821   2.397   0.007  15.598 -0.3261 -0.0295  0.4115
 3121SOL    HW120822   2.439   4.697  15.677  0.4301  0.4531  0.2211
 3121SOL    HW220823   2.364   0.084  15.644  2.0114  1.7271 -0.8377
 3122SOL     OW20824   0.071   1.389   7.422 -0.3572 -0.2117  0.1724
 3122SOL    HW120825   0.119   1.405   7.503 -0.6235 -0.0264  0.2913
 3122SOL    HW220826   0.121   1.438   7.357 -0.7055  1.3323  1.0609
 3123SOL     OW20827   1.402   0.815  10.265  0.4983 -0.3581 -0.2049
 3123SOL    HW120828   1.429   0.759  10.338  0.1655  1.7882  1.5404
 3123SOL    HW220829   1.409   0.897  10.313 -1.4182 -1.3033  1.6886
 3124SOL     OW20830   2.571   4.415   8.702  0.1297 -0.0388  0.0309
 3124SOL    HW120831   2.475   4.414   8.702  0.1322  0.0061  2.6640
 3124SOL    HW220832   2.582   4.326   8.669  0.4192  0.6166 -1.7001
 3125SOL     OW20833   2.736   0.204   6.351  0.2259 -0.0096 -0.4749
 3125SOL    HW120834   2.811   0.203   6.412 -0.8070  0.9346  0.8108
 3125SOL    HW220835   2.666   0.164   6.403  0.7995  0.4761  0.6826
 3126SOL     OW20836   2.508   0.527   3.597  0.3270 -0.0321 -0.3829
 3126SOL    HW120837   2.501   0.443   3.643 -0.3863  0.0167 -0.4055
 3126SOL    HW220838   2.597   0.559   3.613 -0.3755  1.4854  0.4475
 3127SOL     OW20839   2.300   0.717   7.994  0.7670  0.1474 -0.3464
 3127SOL    HW120840   2.237   0.701   7.923 -0.4291 -0.5406  0.8753
 3127SOL    HW220841   2.360   0.780   7.954  0.4445  0.1907 -0.7584
 3128SOL     OW20842   3.959   3.324  10.444 -0.2830  0.0593  0.2686
 3128SOL    HW120843   3.895   3.372  10.391 -0.0723 -0.1895 -0.2037
 3128SOL    HW220844   4.017   3.395  10.469  0.5677  0.0878 -1.8007
 3129SOL     OW20845   1.481   0.521  10.094 -0.5744  0.9169  0.1610
 3129SOL    HW120846   1.541   0.582  10.050 -0.2151 -0.9144 -1.8886
 3129SOL    HW220847   1.540   0.460  10.138 -1.6169 -0.1877  0.0033
 3130SOL     OW20848   3.426   1.329   3.891 -0.4971 -0.1865 -0.2125
 3130SOL    HW120849   3.463   1.327   3.979 -2.6898 -3.8607  0.6360
 3130SOL    HW220850   3.492   1.273   3.850  1.9661  1.1945  1.8770
 3131SOL     OW20851   1.980   3.607   5.145 -0.3370  0.0791 -0.1706
 3131SOL    HW120852   1.901   3.583   5.194 -0.7938 -0.8330 -1.3439
 3131SOL    HW220853   2.041   3.657   5.199  1.0995 -1.4988 -0.3281
 3132SOL     OW20854   1.695   3.494  16.687  0.1158 -0.0702  0.0020
 3132SOL    HW120855   1.611   3.460  16.657  0.3538 -0.8222  0.1879
 3132SOL    HW220856   1.734   3.432  16.749  0.5718  0.6565  0.4422
 3133SOL     OW20857   3.912   0.854  12.796 -0.0119  0.2149 -0.5970
 3133SOL    HW120858   3.870   0.781  12.841  1.1126  1.4980  2.5220
 3133SOL    HW220859   3.853   0.864  12.721  0.8854 -0.5646 -1.4084
 3134SOL     OW20860   0.471   3.007   6.720  0.1497 -0.3462  0.1672
 3134SOL    HW120861   0.418   3.053   6.785 -0.9410  1.2601 -1.8440
 3134SOL    HW220862   0.417   2.929   6.708 -0.0146 -0.4055  1.2876
 3135SOL     OW20863   2.198   3.519   6.977  0.0568 -0.4325 -0.1825
 3135SOL    HW120864   2.138   3.555   6.912  1.3449 -0.0628 -1.1621
 3135SOL    HW220865   2.138   3.520   7.052  1.5071  1.0494  0.9785
 3136SOL     OW20866   4.315   0.910  17.199 -0.4975 -0.5430 -0.3881
 3136SOL    HW120867   4.394   0.959  17.179  0.5361 -0.9624  2.6671
 3136SOL    HW220868   4.305   0.870  17.113  2.8019 -0.2958 -0.8743
 3137SOL     OW20869   1.672   3.554   1.847  0.2618  0.0093 -0.0306
 3137SOL    HW120870   1.715   3.616   1.905  1.1460  0.1783 -0.8725
 3137SOL    HW220871   1.587   3.545   1.891 -0.9940  0.7596 -2.2850
 3138SOL     OW20872   2.747   0.551   7.168  0.0369  0.2764 -0.3578
 3138SOL    HW120873   2.728   0.638   7.135 -0.3033 -0.0122 -0.9271
 3138SOL    HW220874   2.804   0.517   7.099  0.0397  0.0363 -0.2370
 3139SOL     OW20875   0.633   3.711   6.095  0.7431  0.2421 -0.0792
 3139SOL    HW120876   0.573   3.718   6.020  0.2527  1.7831  0.4483
 3139SOL    HW220877   0.691   3.784   6.075 -2.0457  2.4926 -0.0460
 3140SOL     OW20878   3.047   2.908   5.085  0.1735 -0.3390 -0.6308
 3140SOL    HW120879   3.085   2.842   5.144 -1.2944  0.5331  1.3007
 3140SOL    HW220880   3.124   2.960   5.063  0.9423 -1.7359 -1.2415
 3141SOL     OW20881   1.019   1.121   8.968 -0.0724  0.0236 -0.0104
 3141SOL    HW120882   1.022   1.110   9.063 -0.1129 -0.3728 -0.0585
 3141SOL    HW220883   0.982   1.210   8.971  0.4132  0.2706 -1.2047
 3142SOL     OW20884   0.888   4.184   3.072 -0.6633 -0.2476  0.0141
 3142SOL    HW120885   0.805   4.149   3.105 -0.6804  0.6531  0.9352
 3142SOL    HW220886   0.876   4.276   3.093  1.3780 -0.4297  1.9755
 3143SOL     OW20887   2.928   2.239   1.044  0.2600 -0.7806  0.5626
 3143SOL    HW120888   2.914   2.169   1.108  0.9154 -0.0441  1.5183
 3143SOL    HW220889   3.021   2.231   1.025  0.3398  0.6902  0.3241
 3144SOL     OW20890   2.625   2.111   6.756 -0.0379  0.0923  0.4091
 3144SOL    HW120891   2.687   2.071   6.695  0.6754  0.2586  1.0353
 3144SOL    HW220892   2.566   2.036   6.764  1.8120 -1.6752 -2.2392
 3145SOL     OW20893   4.527   0.963   9.168 -0.2105 -0.1204 -0.7749
 3145SOL    HW120894   4.535   0.898   9.238  0.3636  0.6214 -0.1493
 3145SOL    HW220895   4.595   1.018   9.206 -0.1125 -0.8905  0.1498
 3146SOL     OW20896   0.269   0.666   6.842 -0.6435  0.0465  0.1738
 3146SOL    HW120897   0.330   0.660   6.769 -0.4254 -1.7119  0.5146
 3146SOL    HW220898   0.236   0.578   6.858  3.0926 -1.3489  0.1259
 3147SOL     OW20899   0.705   0.291   1.924  0.2705 -0.3021 -0.4490
 3147SOL    HW120900   0.780   0.231   1.931  0.8140  0.3583 -0.5730
 3147SOL    HW220901   0.700   0.312   1.830 -0.2481  0.8393 -0.1655
 3148SOL     OW20902   3.895   3.631  15.107  0.3562  0.1823  0.5090
 3148SOL    HW120903   3.815   3.623  15.055  1.3352  1.4027 -1.1804
 3148SOL    HW220904   3.960   3.640  15.037  0.8071  0.1188  0.9175
 3149SOL     OW20905   1.808   2.355   4.588 -0.1973  0.7294 -0.3142
 3149SOL    HW120906   1.842   2.273   4.553 -2.7998  0.9040 -3.2049
 3149SOL    HW220907   1.868   2.421   4.552  0.6226  2.0807  3.4637
 3150SOL     OW20908   3.870   2.905   9.846 -0.1245  0.4812 -0.4410
 3150SOL    HW120909   3.854   2.909   9.940 -1.5252 -0.8883 -0.6105
 3150SOL    HW220910   3.827   2.821   9.828  0.5597  0.2716 -1.0626
 3151SOL     OW20911   0.734   2.976   6.038 -0.0484 -0.3354  0.1512
 3151SOL    HW120912   0.757   3.067   6.052 -4.2716  0.9124 -1.1764
 3151SOL    HW220913   0.678   2.972   6.115  3.2661  2.8616  2.7555
 3152SOL     OW20914   2.822   2.373   7.031 -0.1411  0.1021 -0.3187
 3152SOL    HW120915   2.826   2.368   6.936 -1.2089  2.4768 -0.4760
 3152SOL    HW220916   2.759   2.441   7.053  1.6129  1.8536 -0.7073
 3153SOL     OW20917   2.560   3.557   0.729  0.4093 -0.0387  0.1210
 3153SOL    HW120918   2.633   3.576   0.670 -1.0210 -0.9064 -1.9127
 3153SOL    HW220919   2.606   3.537   0.810 -2.1360  0.9051  1.8020
 3154SOL     OW20920   1.996   0.309   8.877  0.0576 -0.3572  0.1641
 3154SOL    HW120921   2.049   0.243   8.921  0.6133  0.2633  0.4188
 3154SOL    HW220922   2.010   0.390   8.924 -0.4892 -0.3388  0.2970
 3155SOL     OW20923   2.869   3.287   5.970  0.0026  0.5068  0.6544
 3155SOL    HW120924   2.801   3.219   5.967 -1.2433  1.7789  0.0311
 3155SOL    HW220925   2.823   3.371   5.967 -0.8972 -0.0739 -2.2065
 3156SOL     OW20926   1.252   1.919  14.350 -0.6290  0.5359 -0.2609
 3156SOL    HW120927   1.255   1.828  14.319  0.9644  0.6877 -0.5748
 3156SOL    HW220928   1.207   1.919  14.434  2.1011 -1.3069  1.2209
 3157SOL     OW20929   4.644   2.554   3.805 -0.1578  0.2890  0.8564
 3157SOL    HW120930   4.567   2.610   3.795  1.1702  1.4434 -3.0094
 3157SOL    HW220931   4.689   2.595   3.879  0.3803 -0.5205  0.9809
 3158SOL     OW20932   1.830   0.649   5.940 -0.4737  0.1567  0.0605
 3158SOL    HW120933   1.910   0.601   5.921 -0.4923  0.4700 -0.8189
 3158SOL    HW220934   1.861   0.735   5.910  0.1995 -0.5150 -1.1628
 3159SOL     OW20935   2.456   3.281  12.049  0.3620 -0.1443 -0.2211
 3159SOL    HW120936   2.401   3.347  12.092  0.1382  0.0970 -0.8845
 3159SOL    HW220937   2.388   3.245  11.993  1.1244 -1.5880 -0.2195
 3160SOL     OW20938   2.267   2.729   0.283  0.5782 -0.1850  0.3257
 3160SOL    HW120939   2.209   2.734   0.207  0.6133 -3.3308  0.0803
 3160SOL    HW220940   2.334   2.793   0.258  1.3404 -1.6004 -1.2609
 3161SOL     OW20941   1.555   3.189   9.606 -0.2873  0.5045  0.4380
 3161SOL    HW120942   1.527   3.190   9.697 -1.9391 -1.0776 -0.0594
 3161SOL    HW220943   1.575   3.096   9.599 -1.7402  0.2330 -0.1938
 3162SOL     OW20944   1.491   0.945   8.547  0.2206 -0.1419 -0.1209
 3162SOL    HW120945   1.551   0.885   8.504  2.1119  1.3265  0.4841
 3162SOL    HW220946   1.539   1.028   8.555 -0.2517  0.2648 -1.4665
 3163SOL     OW20947   0.934   2.239   8.563 -0.3435  0.6119  0.0906
 3163SOL    HW120948   0.990   2.164   8.584 -0.8987  0.4263  0.9360
 3163SOL    HW220949   0.943   2.289   8.644 -0.3901 -0.7111  0.9075
 3164SOL     OW20950   2.014   1.159  16.853  0.5002  0.0329 -0.0641
 3164SOL    HW120951   1.959   1.134  16.778  2.0359  2.8895 -2.1507
 3164SOL    HW220952   2.102   1.144  16.818  2.1021  1.7074  3.2959
 3165SOL     OW20953   1.797   1.635   8.177  0.4844  0.7059  0.1016
 3165SOL    HW120954   1.825   1.616   8.266 -1.3225 -0.6231  0.3955
 3165SOL    HW220955   1.717   1.681   8.204 -0.9247 -0.2293 -2.4357
 3166SOL     OW20956   2.287   2.459   6.081 -0.0146  0.9574 -0.1828
 3166SOL    HW120957   2.338   2.380   6.064 -2.2613 -0.6708  0.7297
 3166SOL    HW220958   2.353   2.522   6.053 -0.0023  0.2198 -1.8316
 3167SOL     OW20959   3.216   1.376   3.739  1.0072 -0.0919  0.0524
 3167SOL    HW120960   3.250   1.399   3.653 -0.4290 -1.0969 -0.7731
 3167SOL    HW220961   3.296   1.383   3.792  2.4598 -0.4760 -2.1108
 3168SOL     OW20962   3.020   2.898   5.481 -0.1356  0.1329  0.3078
 3168SOL    HW120963   3.031   2.993   5.476 -1.0222  0.1997 -0.3398
 3168SOL    HW220964   2.994   2.877   5.391  0.3638  0.0195  0.1929
 3169SOL     OW20965   1.552   2.380  11.011 -0.6004 -0.3724 -0.4295
 3169SOL    HW120966   1.571   2.305  10.955 -1.4830 -0.2050 -0.9460
 3169SOL    HW220967   1.471   2.356  11.055 -0.0823 -0.7298  0.3344
 3170SOL     OW20968   0.778   1.128   1.083 -0.9355  0.1542 -0.4824
 3170SOL    HW120969   0.771   1.210   1.033  2.9961 -0.3731 -1.8304
 3170SOL    HW220970   0.693   1.121   1.128 -1.2462 -2.4592 -1.5377
 3171SOL     OW20971   1.532   1.898   2.613  0.0252 -0.3522 -0.0147
 3171SOL    HW120972   1.503   1.833   2.550 -1.6337  0.4527 -0.0745
 3171SOL    HW220973   1.486   1.883   2.696  0.4248  0.9733  0.4675
 3172SOL     OW20974   1.007   0.538   0.805 -0.0629 -0.0454 -1.0252
 3172SOL    HW120975   0.974   0.495   0.727  0.3508 -0.1298 -1.1546
 3172SOL    HW220976   1.099   0.536   0.780  0.2718 -1.5803  0.3268
 3173SOL     OW20977   0.440   0.444   9.331 -0.2588 -0.5175 -0.8276
 3173SOL    HW120978   0.445   0.369   9.271 -0.2964 -1.1819 -0.0029
 3173SOL    HW220979   0.472   0.510   9.270 -0.4619  0.6289  0.3066
 3174SOL     OW20980   2.183   2.661  12.858  0.0349  0.3222 -0.3192
 3174SOL    HW120981   2.127   2.693  12.929  1.5267  1.5547  0.2952
 3174SOL    HW220982   2.131   2.588  12.824 -0.0275  0.9918 -1.6669
 3175SOL     OW20983   3.570   3.692   4.946  0.2943 -0.0008  0.0982
 3175SOL    HW120984   3.591   3.743   4.868 -1.3200  1.3909  0.5895
 3175SOL    HW220985   3.650   3.698   4.998  2.4607 -0.1467 -3.2566
 3176SOL     OW20986   1.850   4.617   8.670  0.0158  0.2733  0.6883
 3176SOL    HW120987   1.757   4.614   8.692 -0.5869  0.6598 -1.8719
 3176SOL    HW220988   1.854   4.709   8.641 -0.6160  0.4156  1.0497
 3177SOL     OW20989   3.598   4.021  12.101 -0.2985 -0.2283 -0.1933
 3177SOL    HW120990   3.669   3.986  12.048  0.5040 -2.1434  2.1955
 3177SOL    HW220991   3.634   4.091  12.155  5.3943 -2.3273 -1.3237
 3178SOL     OW20992   1.123   4.478   7.175 -0.0420  0.1216  0.4048
 3178SOL    HW120993   1.162   4.474   7.087  0.0776  1.6926  0.3850
 3178SOL    HW220994   1.197   4.493   7.234  1.0005 -2.1711 -0.3409
 3179SOL     OW20995   0.417   4.553   3.446 -0.6038 -0.3406  0.2398
 3179SOL    HW120996   0.322   4.544   3.449 -0.8133  1.6841 -0.3436
 3179SOL    HW220997   0.437   4.534   3.538  1.2756 -0.4096 -0.1832
 3180SOL     OW20998   2.370   2.215   2.428  0.3207 -0.2101 -0.1110
 3180SOL    HW120999   2.435   2.192   2.494  0.0818 -0.7895 -0.0682
 3180SOL    HW221000   2.365   2.310   2.433  0.5019 -0.1871 -0.3784
 3181SOL     OW21001   1.831   3.233   4.027 -0.0919 -0.1972  0.4641
 3181SOL    HW121002   1.830   3.208   3.935 -0.7653 -3.0378  1.2295
 3181SOL    HW221003   1.890   3.169   4.067 -0.2029 -0.7156 -0.2146
 3182SOL     OW21004   0.894   2.755   6.682 -0.6033  0.5218 -0.4429
 3182SOL    HW121005   0.863   2.844   6.670  0.7365  1.3800  2.4712
 3182SOL    HW221006   0.813   2.704   6.686 -0.0704 -0.2667  0.3119
 3183SOL     OW21007   2.551   2.774   7.856  0.7942 -0.2462 -0.1716
 3183SOL    HW121008   2.615   2.704   7.851  1.1515  0.0660  0.0404
 3183SOL    HW221009   2.599   2.846   7.898 -1.6429  1.2882 -0.0389
 3184SOL     OW21010   0.070   0.542   1.164  0.3405  0.8771  0.3230
 3184SOL    HW121011   0.141   0.522   1.226  0.1306  3.3384  1.3231
 3184SOL    HW221012   0.121   0.598   1.105 -1.1589  2.7088  0.7776
 3185SOL     OW21013   3.544   1.003  12.821  0.5773  0.1289 -0.3197
 3185SOL    HW121014   3.573   1.007  12.912  1.3534 -0.5149 -0.5330
 3185SOL    HW221015   3.541   0.909  12.802  0.5393  0.0184  0.2391
 3186SOL     OW21016   3.040   1.600   4.407 -0.0831 -0.0124 -0.1944
 3186SOL    HW121017   3.024   1.517   4.451 -0.1205 -1.0087 -2.0930
 3186SOL    HW221018   2.988   1.597   4.327 -1.5531  1.3027  0.7034
 3187SOL     OW21019   1.666   4.691   6.961 -0.4259  0.5082 -0.0544
 3187SOL    HW121020   1.741   0.024   6.940  0.2325  0.3032  1.7058
 3187SOL    HW221021   1.591   0.016   6.929 -0.2031 -0.1291 -1.5631
 3188SOL     OW21022   1.338   3.075  16.979 -0.0799 -0.3428  0.1252
 3188SOL    HW121023   1.404   3.102  17.042 -0.6263  0.6616  0.2648
 3188SOL    HW221024   1.349   3.143  16.912 -1.7619  1.3213  1.5323
 3189SOL     OW21025   1.796   2.694  14.676 -0.4337  0.3583  0.5464
 3189SOL    HW121026   1.845   2.616  14.701 -2.2517 -0.7354  0.6922
 3189SOL    HW221027   1.809   2.749  14.753  3.3569  1.1205 -0.6497
 3190SOL     OW21028   4.141   0.314  13.137  0.0102 -0.3358  0.7649
 3190SOL    HW121029   4.128   0.342  13.046  1.2063 -0.9896  0.3923
 3190SOL    HW221030   4.224   0.356  13.158  0.3280 -0.1823 -0.8247
 3191SOL     OW21031   1.026   1.038  10.088 -0.0308  0.1083  0.4680
 3191SOL    HW121032   1.049   1.091  10.165  1.4470 -1.8641  1.3728
 3191SOL    HW221033   1.059   0.953  10.118 -0.7843 -0.2027  0.4207
 3192SOL     OW21034   1.990   3.097   4.474 -0.2054  0.4674 -0.2975
 3192SOL    HW121035   2.069   3.141   4.442  0.8694 -0.7613  0.6377
 3192SOL    HW221036   2.011   3.008   4.447 -0.1254  0.1552  0.7594
 3193SOL     OW21037   0.343   0.505   0.687 -0.2154  0.8906 -0.0731
 3193SOL    HW121038   0.413   0.489   0.624  1.7689  0.0741  2.3231
 3193SOL    HW221039   0.323   0.598   0.674 -0.1107  0.9420  0.1330
 3194SOL     OW21040   3.474   2.715   5.434 -0.6037  0.2815  0.2565
 3194SOL    HW121041   3.466   2.622   5.459 -1.8126 -0.0778 -1.4367
 3194SOL    HW221042   3.544   2.742   5.492 -0.5080 -2.0145  1.2351
 3195SOL     OW21043   0.642   1.492  14.281 -0.0993  0.1927  0.0238
 3195SOL    HW121044   0.590   1.469  14.204  0.7277 -0.6289 -0.2863
 3195SOL    HW221045   0.607   1.439  14.352  0.2158 -0.8563 -0.6025
 3196SOL     OW21046   2.495   1.379   9.419 -0.0453  0.1751  0.1894
 3196SOL    HW121047   2.402   1.378   9.442 -0.2909  1.3644 -0.7671
 3196SOL    HW221048   2.504   1.456   9.363  0.4029  0.6532  0.9170
 3197SOL     OW21049   3.327   1.022   2.667 -0.0953  0.1044  0.1732
 3197SOL    HW121050   3.312   0.942   2.718 -1.5865  1.7148  2.2720
 3197SOL    HW221051   3.419   1.010   2.644  0.1335 -0.0678  1.1622
 3198SOL     OW21052   3.010   3.545   6.045 -0.2345 -0.4918  0.0763
 3198SOL    HW121053   2.929   3.557   5.996  0.4171 -0.4209 -0.9681
 3198SOL    HW221054   2.968   3.504   6.121 -3.3136 -0.3243 -1.5477
 3199SOL     OW21055   0.810   1.276   4.326 -0.1753  0.4326  0.4624
 3199SOL    HW121056   0.828   1.358   4.281 -0.1542  0.0781 -0.1772
 3199SOL    HW221057   0.891   1.226   4.309 -0.8119 -0.6448  0.5778
 3200SOL     OW21058   4.185   2.138  16.699  0.2618  0.4786 -0.1626
 3200SOL    HW121059   4.129   2.197  16.648 -0.0572 -0.2231 -0.6250
 3200SOL    HW221060   4.160   2.160  16.788  2.0165 -0.1692  0.4822
 3201SOL     OW21061   4.374   2.084  14.693  0.3386 -0.4536  0.0862
 3201SOL    HW121062   4.416   2.140  14.627 -0.6005 -0.1265 -0.2364
 3201SOL    HW221063   4.301   2.132  14.733 -1.3687 -1.3655 -1.9340
 3202SOL     OW21064   4.291   0.281   8.078  0.1867 -0.7316 -0.2695
 3202SOL    HW121065   4.317   0.343   8.146 -0.2406  0.9148 -1.5722
 3202SOL    HW221066   4.196   0.293   8.085  0.1179 -1.5827  0.2050
 3203SOL     OW21067   4.146   2.197  16.975  0.0028 -0.5259  0.0587
 3203SOL    HW121068   4.167   2.279  17.020  0.4160 -0.8678  0.4831
 3203SOL    HW221069   4.235   2.165  16.961  1.7181  4.3825 -0.4266
 3204SOL     OW21070   0.564   1.487   6.963  0.1830  0.4243 -0.0635
 3204SOL    HW121071   0.494   1.519   6.907  0.4122 -1.2712 -1.3131
 3204SOL    HW221072   0.644   1.507   6.914 -0.4116  1.8491 -0.4400
 3205SOL     OW21073   1.474   1.206  10.809 -0.0150  0.1393 -0.3004
 3205SOL    HW121074   1.469   1.148  10.732  1.7517 -1.3138  0.6677
 3205SOL    HW221075   1.478   1.294  10.773  1.8373  0.4294  0.6252
 3206SOL     OW21076   3.254   3.213   9.197 -0.3323  0.7723 -0.2060
 3206SOL    HW121077   3.324   3.211   9.263 -1.3141  0.3857  0.8267
 3206SOL    HW221078   3.307   3.240   9.122 -0.8915  1.1012 -0.4826
 3207SOL     OW21079   3.289   0.219  12.879 -0.4330 -0.6631  0.6210
 3207SOL    HW121080   3.218   0.195  12.940 -1.9663  0.6656 -0.6371
 3207SOL    HW221081   3.302   0.137  12.832 -0.6945  0.9683 -2.2575
 3208SOL     OW21082   3.809   4.167   4.303 -0.2480  0.8174 -0.3936
 3208SOL    HW121083   3.899   4.199   4.305 -1.2576  3.5681  1.0935
 3208SOL    HW221084   3.812   4.127   4.217  0.1240  0.3217 -0.1527
 3209SOL     OW21085   3.433   4.065   3.931 -0.4531 -0.3919 -0.4207
 3209SOL    HW121086   3.472   4.105   4.009  2.0518  1.2923 -2.5486
 3209SOL    HW221087   3.389   3.989   3.969 -1.5516 -0.0789 -1.0512
 3210SOL     OW21088   4.695   1.588   5.515  0.1016 -0.1582  0.5567
 3210SOL    HW121089   0.009   1.576   5.428 -1.0074 -0.0298  0.0575
 3210SOL    HW221090   0.019   1.517   5.558  0.3173  0.5782  1.5108
 3211SOL     OW21091   0.340   2.951  14.376  0.3754 -0.3133 -0.1022
 3211SOL    HW121092   0.293   3.026  14.411 -0.2478 -1.8000  2.2322
 3211SOL    HW221093   0.279   2.899  14.323  1.0852 -0.7588 -0.4964
 3212SOL     OW21094   2.235   3.153  11.952 -0.1448  0.0779 -0.0942
 3212SOL    HW121095   2.158   3.200  11.985  1.1223  2.8441 -1.0820
 3212SOL    HW221096   2.220   3.063  11.983  0.8095  0.3837  1.2653
 3213SOL     OW21097   0.518   1.340   4.972  0.3325  0.8139  0.2372
 3213SOL    HW121098   0.564   1.373   5.050  0.5705  0.1972  0.3523
 3213SOL    HW221099   0.588   1.289   4.931  1.6383 -0.3941  3.9608
 3214SOL     OW21100   2.021   3.651   4.465 -0.2015  0.5043 -0.5495
 3214SOL    HW121101   2.116   3.647   4.463 -0.1495  0.9185  1.5314
 3214SOL    HW221102   1.986   3.592   4.532  2.0618 -0.3240 -0.1012
 3215SOL     OW21103   4.500   0.962   5.401 -0.3546  0.3843  0.2110
 3215SOL    HW121104   4.457   1.040   5.436 -0.0939  0.1871  0.9662
 3215SOL    HW221105   4.586   0.961   5.443 -1.1895 -0.9247  1.8605
 3216SOL     OW21106   4.503   2.872   3.626 -0.4088  0.6310  0.7455
 3216SOL    HW121107   4.435   2.913   3.573 -0.7164 -0.6003  0.2020
 3216SOL    HW221108   4.575   2.862   3.564 -0.0333  4.6231  0.5611
 3217SOL     OW21109   1.220   2.751  13.030 -0.2698 -0.8019  0.0997
 3217SOL    HW121110   1.293   2.778  12.974 -1.2618  1.1715 -0.2683
 3217SOL    HW221111   1.261   2.688  13.089 -1.3843 -2.0934 -0.5068
 3218SOL     OW21112   4.036   2.777   0.567  0.0136  0.4058 -0.0045
 3218SOL    HW121113   3.996   2.864   0.571 -1.0540 -0.0957  0.4070
 3218SOL    HW221114   4.123   2.795   0.603 -0.0437  1.2238 -0.2832
 3219SOL     OW21115   2.068   4.006   0.833 -0.3256  0.0509 -0.0723
 3219SOL    HW121116   2.131   4.078   0.828  0.7031 -0.9145 -0.9308
 3219SOL    HW221117   1.993   4.064   0.847 -0.5824 -0.2548 -0.1906
 3220SOL     OW21118   4.235   4.149   2.553 -0.8535 -0.1729 -0.1367
 3220SOL    HW121119   4.306   4.189   2.603 -1.3673 -1.0159  1.2698
 3220SOL    HW221120   4.205   4.227   2.506 -1.9034  0.4800  1.5895
 3221SOL     OW21121   0.612   4.063   7.425  0.5393 -0.1024 -0.4655
 3221SOL    HW121122   0.560   4.109   7.491 -0.8241 -1.0543 -0.8633
 3221SOL    HW221123   0.542   4.014   7.381 -1.0798  1.4070  0.4361
 3222SOL     OW21124   3.242   4.026   5.207  0.2068 -0.8499  0.1663
 3222SOL    HW121125   3.320   4.080   5.216 -1.0637  1.1144 -0.5952
 3222SOL    HW221126   3.280   3.954   5.156 -2.3223 -1.3318 -1.0330
 3223SOL     OW21127   1.368   0.247  12.270  0.8719 -0.1820 -0.1912
 3223SOL    HW121128   1.440   0.222  12.328  2.1771  1.2990 -1.1838
 3223SOL    HW221129   1.408   0.239  12.183 -1.0675  1.3607 -1.2426
 3224SOL     OW21130   1.023   0.746   6.062  0.0612 -0.2761  0.1410
 3224SOL    HW121131   0.966   0.717   6.133 -2.3411  0.5030 -1.4906
 3224SOL    HW221132   1.019   0.660   6.021 -0.8991 -1.0648  1.8893
 3225SOL     OW21133   0.790   2.315   7.057 -0.5881  0.2265 -0.1976
 3225SOL    HW121134   0.843   2.276   6.988  0.9143  0.8636  0.5813
 3225SOL    HW221135   0.831   2.294   7.141 -1.3666  0.4319  0.2385
 3226SOL     OW21136   1.179   2.300  16.186 -0.5689  0.0800  0.5373
 3226SOL    HW121137   1.112   2.258  16.240 -0.5691 -3.5483 -2.2515
 3226SOL    HW221138   1.134   2.291  16.102  1.0835 -2.4166 -0.1131
 3227SOL     OW21139   2.856   4.534   4.958  0.0452  0.7714 -0.3654
 3227SOL    HW121140   2.802   4.487   4.895  0.5942 -3.4127  2.2863
 3227SOL    HW221141   2.795   4.541   5.032 -1.1736  1.9175 -1.4739
 3228SOL     OW21142   3.098   1.447   2.063  0.1943  0.0638 -0.7692
 3228SOL    HW121143   3.053   1.505   2.125  1.4149 -1.3845  1.4404
 3228SOL    HW221144   3.076   1.359   2.094 -0.3819  1.2437  2.1865
 3229SOL     OW21145   0.457   0.916   2.419  0.0614 -0.0041 -0.0039
 3229SOL    HW121146   0.448   0.844   2.356  2.7876 -0.3296 -0.0353
 3229SOL    HW221147   0.553   0.916   2.417  0.0922  0.6120  2.5638
 3230SOL     OW21148   0.799   1.535   1.891  0.1933  0.7741  0.2242
 3230SOL    HW121149   0.870   1.592   1.922 -0.0169  1.3498 -0.3387
 3230SOL    HW221150   0.850   1.473   1.840 -0.5200 -0.0264  0.4881
 3231SOL     OW21151   0.502   3.843   4.033  0.0078 -0.5244 -0.0531
 3231SOL    HW121152   0.439   3.793   4.085 -0.8050 -1.1296 -1.6262
 3231SOL    HW221153   0.467   3.833   3.945 -1.9013  0.5281  0.5995
 3232SOL     OW21154   2.707   0.952   6.707 -0.2005  0.2464  0.4883
 3232SOL    HW121155   2.725   1.034   6.661  0.2025 -0.2243 -0.1993
 3232SOL    HW221156   2.618   0.970   6.737 -0.2563  0.4776  0.1819
 3233SOL     OW21157   3.502   0.105   4.472 -0.5779  0.0899 -0.5316
 3233SOL    HW121158   3.422   0.083   4.520  0.7418 -1.9123  0.7693
 3233SOL    HW221159   3.478   0.192   4.440 -2.1168 -0.5954 -1.2571
 3234SOL     OW21160   2.307   3.966   4.281 -0.2533  0.2620 -1.0793
 3234SOL    HW121161   2.301   3.986   4.375  1.3300  2.4582 -1.4581
 3234SOL    HW221162   2.367   4.035   4.252  0.7212 -0.9916 -2.0239
 3235SOL     OW21163   0.113   0.602   4.234  0.1480  0.5613 -0.0332
 3235SOL    HW121164   0.053   0.576   4.164  0.5352 -0.4139 -0.0069
 3235SOL    HW221165   0.200   0.602   4.193 -0.9364  0.1647 -2.3269
 3236SOL     OW21166   1.218   2.053  11.683 -0.0612 -0.2912 -0.3876
 3236SOL    HW121167   1.256   2.039  11.770  1.1751 -1.1008 -1.0676
 3236SOL    HW221168   1.195   2.145  11.695  0.2930 -0.6429  2.9809
 3237SOL     OW21169   4.167   1.754  10.473  0.0680 -0.1332  0.4824
 3237SOL    HW121170   4.147   1.783  10.562  1.2365 -0.9800  1.0231
 3237SOL    HW221171   4.108   1.805  10.418  2.2141 -0.0210 -1.7016
 3238SOL     OW21172   3.923   4.577   7.298  0.7566 -0.2512 -0.2854
 3238SOL    HW121173   3.897   4.650   7.354 -2.1038 -1.6322  0.2164
 3238SOL    HW221174   3.853   4.518   7.326  0.5069 -0.8069 -2.1221
 3239SOL     OW21175   2.252   3.148  10.280  0.1888  0.1588  0.5883
 3239SOL    HW121176   2.182   3.150  10.215 -0.2077 -1.7767  0.9515
 3239SOL    HW221177   2.226   3.067  10.325  3.3070 -0.7775  0.7348
 3240SOL     OW21178   0.283   1.837   6.098  0.2650 -0.0901  0.4701
 3240SOL    HW121179   0.248   1.754   6.066  0.3436  0.4964 -1.1734
 3240SOL    HW221180   0.313   1.824   6.187  2.3378 -0.1510 -0.2468
 3241SOL     OW21181   1.809   4.528   2.713  0.0473  0.4347  0.3207
 3241SOL    HW121182   1.769   4.613   2.693  0.7389  0.7676  0.3637
 3241SOL    HW221183   1.756   4.500   2.787  0.7718 -0.0453  0.6496
 3242SOL     OW21184   4.505   2.352   4.043  0.1546 -0.2258 -0.0167
 3242SOL    HW121185   4.548   2.327   3.962  0.6491 -1.5982  0.6584
 3242SOL    HW221186   4.532   2.436   4.078  2.2765 -0.1353 -1.8800
 3243SOL     OW21187   4.114   0.758   9.231 -0.2584  0.1884 -0.1402
 3243SOL    HW121188   4.079   0.837   9.271  1.0525  1.2438 -1.0721
 3243SOL    HW221189   4.034   0.706   9.240 -0.8638  1.1566  0.1551
 3244SOL     OW21190   3.938   1.976   5.916  0.4131  0.2561 -0.0941
 3244SOL    HW121191   3.866   1.924   5.953 -0.5806  1.9080  0.2536
 3244SOL    HW221192   3.989   1.997   5.994  0.5469 -1.1162  0.1924
 3245SOL     OW21193   0.811   2.057   7.740 -0.1176  0.4880  0.2382
 3245SOL    HW121194   0.800   2.122   7.810 -0.2011  1.4106 -0.6387
 3245SOL    HW221195   0.735   1.999   7.746  0.0403  0.3073  0.4803
 3246SOL     OW21196   2.041   3.274   0.044  0.3081 -0.4537  0.0220
 3246SOL    HW121197   2.080   3.203   0.095  0.7171 -0.3389 -0.1327
 3246SOL    HW221198   2.070   3.260  17.652 -1.9182 -1.1277 -0.6010
 3247SOL     OW21199   0.976   4.250   3.908  0.3749 -0.6748  0.0611
 3247SOL    HW121200   1.019   4.171   3.876  2.1394  0.7588 -1.1323
 3247SOL    HW221201   0.882   4.234   3.896  0.5232 -2.0019  0.7026
 3248SOL     OW21202   2.597   3.106  11.414  0.0209  0.4110  0.7346
 3248SOL    HW121203   2.673   3.061  11.452  0.0866 -1.5655 -1.7385
 3248SOL    HW221204   2.623   3.114  11.322 -0.2100  0.2284  0.6523
 3249SOL     OW21205   2.792   3.808  13.277 -0.1828 -0.0621 -0.1470
 3249SOL    HW121206   2.839   3.876  13.229  2.0640 -2.2552 -1.0803
 3249SOL    HW221207   2.861   3.765  13.327  1.5868  2.3767 -0.4849
 3250SOL     OW21208   0.129   0.700   2.385  0.0505  0.8527 -0.6205
 3250SOL    HW121209   0.208   0.648   2.395 -0.7329 -0.3885 -0.9255
 3250SOL    HW221210   0.172   0.754   2.319 -0.5933  2.1895  0.0322
 3251SOL     OW21211   0.203   0.376   9.504 -0.0721 -0.4633 -0.6611
 3251SOL    HW121212   0.284   0.389   9.454  1.4110  2.0539  2.3642
 3251SOL    HW221213   0.144   0.368   9.430 -0.0397  0.6841 -0.8241
 3252SOL     OW21214   3.258   0.680   3.698  0.3053 -0.5024 -0.6303
 3252SOL    HW121215   3.209   0.737   3.758  0.4726 -1.6676  0.6090
 3252SOL    HW221216   3.190   0.660   3.634 -0.5736 -0.5054  0.3010
 3253SOL     OW21217   1.971   2.380  10.644  0.3461  0.0211  0.0594
 3253SOL    HW121218   2.004   2.401  10.557  0.9055 -1.7046 -0.1482
 3253SOL    HW221219   1.957   2.467  10.681 -1.3833 -1.1505  2.1346
 3254SOL     OW21220   3.550   3.386   2.537  0.3157  0.5847 -0.0063
 3254SOL    HW121221   3.556   3.409   2.630 -0.5078 -2.0995  0.7206
 3254SOL    HW221222   3.632   3.340   2.520 -1.1529 -0.6582 -3.6452
 3255SOL     OW21223   0.888   3.408  12.735 -0.2732  0.1089  0.3040
 3255SOL    HW121224   0.827   3.335  12.722  1.3480 -1.0221 -0.8837
 3255SOL    HW221225   0.830   3.484  12.731 -0.0387  0.2421 -0.3984
 3256SOL     OW21226   0.505   1.770   5.567  0.0277  0.8723 -0.2572
 3256SOL    HW121227   0.428   1.731   5.527 -0.1966  0.2125  0.8132
 3256SOL    HW221228   0.518   1.849   5.515 -1.6826  0.4113 -1.3819
 3257SOL     OW21229   1.845   1.384   5.323  0.4439  0.2419  0.2480
 3257SOL    HW121230   1.818   1.327   5.251  0.7784  0.7185 -0.2542
 3257SOL    HW221231   1.925   1.423   5.288  1.0672  0.5953  2.0565
 3258SOL     OW21232   2.808   1.919   5.637  0.2736 -0.0215  0.4874
 3258SOL    HW121233   2.777   1.835   5.670  0.0931 -0.0061  0.3594
 3258SOL    HW221234   2.900   1.919   5.663  0.5526  0.9007 -0.4884
 3259SOL     OW21235   0.175   3.947   4.081 -0.1334 -0.2041  0.0500
 3259SOL    HW121236   0.223   3.959   4.163  1.1707  2.3293 -1.0897
 3259SOL    HW221237   0.203   3.858   4.060  0.1682 -0.3762  1.1789
 3260SOL     OW21238   0.827   2.276   7.352 -0.0086  0.3157  0.2894
 3260SOL    HW121239   0.744   2.282   7.400  0.2819 -0.0715  0.8454
 3260SOL    HW221240   0.882   2.334   7.404 -2.9534  0.8861  2.7558
 3261SOL     OW21241   1.212   4.511   6.731 -0.7391 -0.1194  0.1066
 3261SOL    HW121242   1.235   4.573   6.661 -1.2827  0.5547  0.5224
 3261SOL    HW221243   1.164   4.450   6.676  0.4607 -0.6513 -0.3586
 3262SOL     OW21244   1.171   1.468  17.672 -0.0224 -0.2490  0.6031
 3262SOL    HW121245   1.155   1.411  17.597 -2.0430  2.1730 -0.8153
 3262SOL    HW221246   1.139   1.408   0.041  0.1307  1.6745  2.4187
 3263SOL     OW21247   1.761   0.703   4.544 -0.2138 -0.2237 -0.3214
 3263SOL    HW121248   1.805   0.633   4.495 -0.0318 -0.0323 -0.4335
 3263SOL    HW221249   1.707   0.746   4.478  0.3764 -1.6381 -1.7343
 3264SOL     OW21250   2.126   1.872  10.724  0.0896 -0.3587  0.1922
 3264SOL    HW121251   2.130   1.965  10.704 -1.8200 -0.7826 -2.2281
 3264SOL    HW221252   2.214   1.844  10.700  0.1812 -1.7272  2.0551
 3265SOL     OW21253   2.248   3.452  12.092 -0.7709 -0.1745  0.1609
 3265SOL    HW121254   2.247   3.483  12.001 -3.2181 -2.7789 -0.6711
 3265SOL    HW221255   2.164   3.408  12.086 -0.6229 -0.6694  1.6120
 3266SOL     OW21256   0.582   0.025   4.013 -0.5621  0.3376  0.9245
 3266SOL    HW121257   0.586   4.654   4.021 -2.8517  0.2100  0.2932
 3266SOL    HW221258   0.675   0.046   4.022 -0.4273  0.1747 -0.0636
 3267SOL     OW21259   3.948   3.830   1.761 -0.0736 -0.1957  0.3152
 3267SOL    HW121260   3.872   3.800   1.711  1.5410 -0.9069 -1.7273
 3267SOL    HW221261   3.981   3.750   1.801  0.6523 -0.5679 -1.0389
 3268SOL     OW21262   3.336   0.631  17.294 -0.0853  0.3131 -0.3632
 3268SOL    HW121263   3.315   0.592  17.379 -3.6965  1.8420 -0.5460
 3268SOL    HW221264   3.410   0.581  17.261  0.9759  1.1154  0.8216
 3269SOL     OW21265   0.244   0.204   4.048  0.3459  0.1160 -0.4824
 3269SOL    HW121266   0.293   0.190   3.967 -0.3900 -1.7912 -0.6091
 3269SOL    HW221267   0.154   0.186   4.022  0.6305 -2.3837  0.1875
 3270SOL     OW21268   3.238   3.453   2.759 -0.0655  0.0206  0.7047
 3270SOL    HW121269   3.180   3.498   2.820  0.0384 -0.5456  1.2135
 3270SOL    HW221270   3.289   3.407   2.825 -1.1122 -1.1722  0.6777
 3271SOL     OW21271   1.095   4.637  15.877 -0.3841 -0.0775  0.1811
 3271SOL    HW121272   1.173   4.655  15.825 -0.6082 -2.1679 -0.8982
 3271SOL    HW221273   1.112   4.700  15.946 -0.1598 -1.2348  1.1953
 3272SOL     OW21274   0.191   0.258  13.525  0.2951 -0.0730  0.3308
 3272SOL    HW121275   0.265   0.269  13.466  1.2559  0.1863  1.5782
 3272SOL    HW221276   0.170   0.165  13.517 -3.2978  0.5194  2.6847
 3273SOL     OW21277   3.985   0.703   3.364  0.0370 -0.3734  0.2809
 3273SOL    HW121278   4.021   0.619   3.335 -0.1482  0.9087 -3.7045
 3273SOL    HW221279   4.034   0.770   3.316 -2.1484 -1.0143 -2.8505
 3274SOL     OW21280   1.409   2.953  10.089 -0.7249 -0.8670 -0.0051
 3274SOL    HW121281   1.363   3.032  10.119 -0.6120 -0.8389  0.0923
 3274SOL    HW221282   1.353   2.929  10.015 -0.6802 -0.0591 -0.3038
 3275SOL     OW21283   2.245   1.909   9.921 -0.3514  0.2216 -0.1142
 3275SOL    HW121284   2.332   1.949   9.917  0.7035 -2.0674  0.1602
 3275SOL    HW221285   2.234   1.905  10.016  1.5115 -0.6428  0.0707
 3276SOL     OW21286   3.231   1.351   2.369 -0.3256  0.7040 -0.2547
 3276SOL    HW121287   3.306   1.292   2.366  0.6838  1.9432  1.2171
 3276SOL    HW221288   3.180   1.322   2.293  2.0043  2.1193 -2.3609
 3277SOL     OW21289   2.849   4.267   5.369 -0.1387  0.0205 -0.1200
 3277SOL    HW121290   2.810   4.266   5.282  1.7772 -2.1763 -0.9452
 3277SOL    HW221291   2.788   4.220   5.425 -1.7715  1.8890 -0.2993
 3278SOL     OW21292   1.687   3.905   8.036 -0.2512  0.1500  0.4036
 3278SOL    HW121293   1.612   3.940   7.988 -1.8583 -0.4539  2.4543
 3278SOL    HW221294   1.650   3.898   8.124 -1.4349  1.5205  0.0041
 3279SOL     OW21295   4.503   4.490   3.086 -0.1909  0.0755 -0.6166
 3279SOL    HW121296   4.456   4.427   3.033 -0.1467  0.5777 -1.2460
 3279SOL    HW221297   4.429   4.521   3.139 -1.4984 -2.0710 -1.2070
 3280SOL     OW21298   3.862   1.501   8.911 -0.3916 -0.4402 -0.1116
 3280SOL    HW121299   3.854   1.538   8.999 -1.7152  0.3236 -0.5415
 3280SOL    HW221300   3.772   1.483   8.881 -0.6040  0.1167  0.1882
 3281SOL     OW21301   1.023   2.478   0.264 -0.1592 -0.3129  0.3285
 3281SOL    HW121302   1.056   2.392   0.286  3.4338  0.0634 -3.6188
 3281SOL    HW221303   0.988   2.457   0.177  1.0396 -0.6292 -0.0758
 3282SOL     OW21304   4.384   3.292   5.931 -0.1765 -0.6332 -0.4377
 3282SOL    HW121305   4.381   3.206   5.890 -2.0668 -0.8416  0.1376
 3282SOL    HW221306   4.351   3.260   6.015  0.6174 -1.4845 -0.4533
 3283SOL     OW21307   3.384   3.546  12.174 -0.4192  0.2416 -0.3758
 3283SOL    HW121308   3.420   3.633  12.162  0.8465 -0.1815  0.3572
 3283SOL    HW221309   3.419   3.526  12.261  1.9632 -3.6509 -2.2111
 3284SOL     OW21310   4.519   0.488   9.641  0.3217  0.2026 -0.5475
 3284SOL    HW121311   4.539   0.403   9.602 -1.5468 -1.7635  2.7522
 3284SOL    HW221312   4.494   0.550   9.573 -0.7553  1.8087  1.2952
 3285SOL     OW21313   3.707   2.665   9.869 -0.2851 -0.1038  0.2881
 3285SOL    HW121314   3.622   2.637   9.903 -0.0138 -1.7549 -0.4021
 3285SOL    HW221315   3.732   2.585   9.823 -0.6618  1.1155 -2.0267
 3286SOL     OW21316   3.868   3.200   7.036 -0.0090  0.3680  0.1806
 3286SOL    HW121317   3.779   3.232   7.045 -0.0261  0.5665 -0.6799
 3286SOL    HW221318   3.874   3.159   7.122  0.4918  1.7905  0.8210
 3287SOL     OW21319   3.340   2.050   4.096  0.4061  0.3213 -0.4677
 3287SOL    HW121320   3.343   2.024   4.005  1.7904  1.6109 -0.7932
 3287SOL    HW221321   3.358   2.144   4.095 -0.7663  0.5814  1.1155
 3288SOL     OW21322   1.278   1.532   9.562  0.1705 -0.0891  0.0581
 3288SOL    HW121323   1.322   1.562   9.642  0.5182 -0.3956 -0.0156
 3288SOL    HW221324   1.199   1.585   9.558  1.5418  1.9257 -0.1575
 3289SOL     OW21325   0.080   2.213   3.458 -0.1419  0.1667 -0.5184
 3289SOL    HW121326   0.031   2.157   3.398 -0.0909  1.2840 -1.6013
 3289SOL    HW221327   0.120   2.154   3.522  1.1750  1.3557 -0.2394
 3290SOL     OW21328   3.219   0.618   4.488 -0.5518 -0.2596 -0.4815
 3290SOL    HW121329   3.205   0.706   4.452  0.4860  1.3975  3.2383
 3290SOL    HW221330   3.242   0.643   4.577 -0.3693 -2.4968  0.1063
 3291SOL     OW21331   0.701   2.967   0.643  0.0231 -0.1147 -0.5297
 3291SOL    HW121332   0.608   2.990   0.638  0.6271  2.2538 -1.1407
 3291SOL    HW221333   0.743   3.050   0.668 -0.7043 -1.2336  4.3015
 3292SOL     OW21334   4.369   1.769   8.458  0.1270 -0.6908  0.1191
 3292SOL    HW121335   4.346   1.677   8.450  0.9870 -0.7292 -1.6599
 3292SOL    HW221336   4.282   1.809   8.467 -0.0544 -1.0624 -0.0356
 3293SOL     OW21337   4.336   0.648   7.868 -0.1029 -0.1962  0.0695
 3293SOL    HW121338   4.402   0.715   7.885 -0.4735  0.6756 -1.9167
 3293SOL    HW221339   4.269   0.654   7.936  0.3055  0.8929  0.3735
 3294SOL     OW21340   2.304   4.367   8.687 -0.1957  0.0873 -0.1021
 3294SOL    HW121341   2.276   4.308   8.757  0.9883  0.5194  0.7556
 3294SOL    HW221342   2.241   4.439   8.695 -1.1400 -0.6706 -0.8734
 3295SOL     OW21343   2.607   2.287   3.279  0.0519  0.4300  0.3623
 3295SOL    HW121344   2.677   2.223   3.265 -0.6552  0.1647 -1.9317
 3295SOL    HW221345   2.553   2.262   3.204  1.5701 -0.4755 -0.4167
 3296SOL     OW21346   1.689   2.005   8.796  0.1813  0.1275 -0.2088
 3296SOL    HW121347   1.680   2.093   8.760 -0.8348 -0.4199 -1.2791
 3296SOL    HW221348   1.653   1.961   8.719  0.5030  1.0195 -0.8769
 3297SOL     OW21349   1.536   0.576  13.766  0.0371  0.0110 -0.5071
 3297SOL    HW121350   1.456   0.579  13.818  0.0707 -0.6821 -0.4068
 3297SOL    HW221351   1.507   0.562  13.676 -0.9624  0.9580 -0.3353
 3298SOL     OW21352   1.991   2.391   2.832  0.1010  0.0248  0.1105
 3298SOL    HW121353   2.036   2.320   2.878  1.7243  0.5285 -0.6626
 3298SOL    HW221354   2.054   2.464   2.836 -1.2868  1.1238  1.8811
 3299SOL     OW21355   3.331   1.505   0.614  0.3337 -0.0757 -0.3892
 3299SOL    HW121356   3.401   1.466   0.666  2.2258  1.6385 -1.6045
 3299SOL    HW221357   3.267   1.438   0.637 -1.5454  0.9900 -2.5269
 3300SOL     OW21358   1.568   1.090  11.881 -0.1071  0.6651 -0.1702
 3300SOL    HW121359   1.591   1.151  11.951  2.8417 -0.3268 -0.2933
 3300SOL    HW221360   1.643   1.031  11.879 -0.3405  0.4270 -2.0761
 3301SOL     OW21361   0.009   3.447  12.281  0.7736  0.0695  0.2324
 3301SOL    HW121362   0.030   3.481  12.194 -0.0886  2.5588  0.9997
 3301SOL    HW221363   0.094   3.461  12.322  0.3874  2.6844  0.1722
 3302SOL     OW21364   4.234   3.289   6.235 -0.2732  0.5047  0.1660
 3302SOL    HW121365   4.212   3.369   6.283  4.0956  2.1608 -0.6052
 3302SOL    HW221366   4.235   3.227   6.308 -0.0787 -0.4740 -0.6795
 3303SOL     OW21367   2.225   2.151   0.583 -0.0578 -0.0074 -0.1586
 3303SOL    HW121368   2.291   2.122   0.520  1.7442  0.7843  1.3819
 3303SOL    HW221369   2.155   2.093   0.552 -0.6257  1.6241 -1.9195
 3304SOL     OW21370   3.357   4.179   3.702  0.0596 -1.0518  0.1453
 3304SOL    HW121371   3.368   4.130   3.783  0.9586  0.8162  1.1684
 3304SOL    HW221372   3.268   4.214   3.701  0.5866  0.3501  1.4044
 3305SOL     OW21373   2.531   2.955  13.290 -0.0102  0.1146  0.4402
 3305SOL    HW121374   2.585   2.878  13.308  3.2408  2.4437  0.6357
 3305SOL    HW221375   2.581   3.013  13.346 -0.3493 -0.8063  1.6789
 3306SOL     OW21376   2.619   1.406   6.261 -0.1036  0.1955  0.0146
 3306SOL    HW121377   2.669   1.324   6.266 -1.3007 -0.5792 -0.7227
 3306SOL    HW221378   2.560   1.403   6.336 -1.0040  1.2198 -0.6479
 3307SOL     OW21379   1.736   0.819   8.291  0.2223 -0.3498 -0.3836
 3307SOL    HW121380   1.736   0.730   8.325 -3.0383 -0.0755  0.2826
 3307SOL    HW221381   1.817   0.819   8.241  0.9931  2.1618  0.8295
 3308SOL     OW21382   3.898   1.250   2.623  0.4110 -0.0756  0.3254
 3308SOL    HW121383   3.828   1.293   2.574  2.2453  0.4659 -1.8148
 3308SOL    HW221384   3.958   1.220   2.554 -0.6324  0.4602 -0.8231
 3309SOL     OW21385   0.882   1.802   4.246 -0.1067  0.2622  0.3761
 3309SOL    HW121386   0.943   1.866   4.282 -1.0611 -0.7908  3.8814
 3309SOL    HW221387   0.869   1.757   4.329  1.5643  1.6218  1.3578
 3310SOL     OW21388   2.924   2.811   3.405  0.2886  0.0957 -0.6593
 3310SOL    HW121389   2.867   2.738   3.431 -0.7846  0.9030 -0.7648
 3310SOL    HW221390   2.976   2.813   3.486 -1.1100 -1.0870  0.2614
 3311SOL     OW21391   1.778   1.811   2.441  0.3113 -0.2031 -0.1316
 3311SOL    HW121392   1.866   1.783   2.417  0.4064 -1.2035  1.3398
 3311SOL    HW221393   1.731   1.785   2.362 -2.7466 -0.1248  1.6636
 3312SOL     OW21394   3.793   0.617   4.433  0.5613 -0.3550 -0.0530
 3312SOL    HW121395   3.888   0.606   4.436  0.5741 -0.1982  0.1504
 3312SOL    HW221396   3.786   0.633   4.339 -1.2374  1.0826  0.3263
 3313SOL     OW21397   0.642   0.417   9.674 -0.1996 -0.1794 -0.1581
 3313SOL    HW121398   0.628   0.489   9.612 -0.6651  1.0134  1.3376
 3313SOL    HW221399   0.615   0.459   9.756  0.3817 -0.4493  0.1647
 3314SOL     OW21400   1.195   2.159   3.259  0.3264 -0.0419 -0.0279
 3314SOL    HW121401   1.265   2.098   3.239  0.6451 -0.4621  2.3856
 3314SOL    HW221402   1.244   2.238   3.280  1.5138  0.0034 -2.8752
 3315SOL     OW21403   0.837   3.126   9.308  0.3237 -0.3157 -0.3442
 3315SOL    HW121404   0.896   3.154   9.378 -0.0370 -2.2800  0.7304
 3315SOL    HW221405   0.783   3.205   9.298  2.3138  1.2170  0.9993
 3316SOL     OW21406   1.382   4.136   9.091 -0.6156  0.4125 -0.3927
 3316SOL    HW121407   1.365   4.081   9.015 -1.2969 -0.3627  0.3197
 3316SOL    HW221408   1.291   4.146   9.119 -0.0583 -1.5703  2.0850
 3317SOL     OW21409   1.074   1.324  10.544 -0.3101 -0.0534 -0.1917
 3317SOL    HW121410   1.000   1.359  10.594 -0.9151  1.5478 -2.1855
 3317SOL    HW221411   1.134   1.398  10.552  2.6507 -2.2705 -2.3398
 3318SOL     OW21412   1.421   0.811   1.720  0.3910  0.1613  0.0553
 3318SOL    HW121413   1.493   0.761   1.681  0.9861  0.1588  1.1266
 3318SOL    HW221414   1.380   0.839   1.639 -2.4726 -1.2610  1.0132
 3319SOL     OW21415   4.407   2.684   3.766  0.5317 -0.5150  0.7031
 3319SOL    HW121416   4.402   2.637   3.683 -1.6116  0.5827  0.2086
 3319SOL    HW221417   4.456   2.759   3.731 -2.6099  1.5069  0.6276
 3320SOL     OW21418   1.086   4.660  10.601 -0.0889  0.4348  0.2278
 3320SOL    HW121419   1.061   4.717  10.529  0.0001  1.1109  0.7272
 3320SOL    HW221420   1.155   4.718  10.633 -1.0964  1.7352  0.0339
 3321SOL     OW21421   3.744   2.203   2.235 -0.4865  0.5122  0.8118
 3321SOL    HW121422   3.750   2.227   2.142  1.8172 -1.4580  0.4495
 3321SOL    HW221423   3.835   2.199   2.266 -0.2763  0.9544  0.2469
 3322SOL     OW21424   2.522   4.394   3.305 -0.0959  0.1092 -0.1915
 3322SOL    HW121425   2.446   4.335   3.313  0.8438 -0.9024  1.3556
 3322SOL    HW221426   2.551   4.371   3.217  0.2029  0.0099 -0.0677
 3323SOL     OW21427   0.943   2.244  15.390  0.2240 -0.2070 -0.1365
 3323SOL    HW121428   1.014   2.188  15.358 -0.8010 -0.0146 -2.7176
 3323SOL    HW221429   0.972   2.332  15.367 -0.2780 -0.3947 -1.4833
 3324SOL     OW21430   3.833   0.456   5.138  0.2094  0.5803 -0.5057
 3324SOL    HW121431   3.842   0.503   5.055  1.6033  3.4627  1.2851
 3324SOL    HW221432   3.903   0.489   5.193  1.3802 -1.5095 -0.7292
 3325SOL     OW21433   0.044   2.773   0.958 -0.1381  0.4467  0.5352
 3325SOL    HW121434   0.070   2.862   0.934 -0.1896 -0.1258 -1.6169
 3325SOL    HW221435   0.115   2.755   1.019 -0.5804  1.2257  1.2875
 3326SOL     OW21436   0.266   1.362  16.929 -0.4459  0.2181  0.1409
 3326SOL    HW121437   0.270   1.457  16.940 -0.7926 -0.2789  4.3327
 3326SOL    HW221438   0.343   1.338  16.878  0.6541  0.4658  1.6992
 3327SOL     OW21439   4.143   0.438   2.609  0.2384  0.2666 -0.0858
 3327SOL    HW121440   4.167   0.370   2.671 -1.2638 -0.1856 -0.0036
 3327SOL    HW221441   4.176   0.387   2.535  0.9779 -1.7141  1.6135
 3328SOL     OW21442   3.244   3.201   8.625  0.2979  0.2424 -0.1000
 3328SOL    HW121443   3.181   3.135   8.654  0.3735 -1.0622 -2.8718
 3328SOL    HW221444   3.222   3.273   8.684 -0.2478  0.4083 -0.5028
 3329SOL     OW21445   2.634   1.148   9.288  0.8812  0.4445  0.2019
 3329SOL    HW121446   2.597   1.224   9.332  1.3288  0.7187  0.0999
 3329SOL    HW221447   2.666   1.091   9.358  0.9735 -1.2734 -1.2389
 3330SOL     OW21448   4.022   2.771   5.787  0.3016 -0.5136 -0.4040
 3330SOL    HW121449   4.055   2.754   5.875 -0.3327 -2.9059 -0.6234
 3330SOL    HW221450   4.095   2.729   5.741  0.9464 -2.8487  2.7459
 3331SOL     OW21451   3.190   4.576  14.628  0.0073  0.0906  0.3033
 3331SOL    HW121452   3.267   4.521  14.642 -1.4390 -1.5866  1.6485
 3331SOL    HW221453   3.236   4.659  14.640 -4.0367  2.4036 -0.3452
 3332SOL     OW21454   3.117   0.301   4.561  0.7475  0.0271  0.1266
 3332SOL    HW121455   3.091   0.290   4.652  2.2155  0.6158  0.6178
 3332SOL    HW221456   3.107   0.396   4.564 -0.2174 -0.1244  1.5295
 3333SOL     OW21457   3.072   1.666   8.188  0.0173 -0.0260 -0.3971
 3333SOL    HW121458   3.083   1.620   8.105  2.7083 -0.4362  0.2055
 3333SOL    HW221459   2.993   1.715   8.166 -1.0315 -0.5219  2.2490
 3334SOL     OW21460   3.814   3.323  10.680  0.3466  0.1946  0.0347
 3334SOL    HW121461   3.857   3.320  10.595  1.1945 -1.5235  0.5376
 3334SOL    HW221462   3.880   3.285  10.738  2.4216  1.3256 -1.5999
 3335SOL     OW21463   4.639   0.530   4.082 -0.4401 -0.2162  0.2067
 3335SOL    HW121464   4.561   0.545   4.136  0.1069  0.5025  0.8029
 3335SOL    HW221465   4.618   0.559   3.994  0.4565 -1.2535 -0.3511
 3336SOL     OW21466   1.558   3.224  11.002  0.3326  0.4889  0.1021
 3336SOL    HW121467   1.528   3.228  11.092 -0.9048  1.3825 -0.3450
 3336SOL    HW221468   1.516   3.305  10.973 -0.3509  0.2027  0.2970
 3337SOL     OW21469   0.367   3.410   7.451 -0.1155  0.4247  0.0124
 3337SOL    HW121470   0.314   3.399   7.372 -3.4694 -1.2003  2.4903
 3337SOL    HW221471   0.428   3.336   7.448 -1.9056 -1.0298 -0.6390
 3338SOL     OW21472   2.648   2.658  12.934 -0.0589 -0.2526  0.7587
 3338SOL    HW121473   2.721   2.685  12.879  0.6556  0.7912  2.2243
 3338SOL    HW221474   2.679   2.691  13.017  1.5171  1.5169 -0.5394
 3339SOL     OW21475   0.627   1.441   1.213 -0.3266  1.0006 -0.6244
 3339SOL    HW121476   0.572   1.419   1.137 -1.8249  1.5360  0.2954
 3339SOL    HW221477   0.559   1.451   1.279  0.2151 -0.2817  0.1297
 3340SOL     OW21478   1.722   0.786   4.787  0.1830 -0.0669 -0.0039
 3340SOL    HW121479   1.635   0.752   4.810 -0.4341  0.1366 -2.0804
 3340SOL    HW221480   1.742   0.732   4.711  3.1114  1.6983 -0.4826
 3341SOL     OW21481   2.938   2.313  15.661 -0.5520 -0.1303 -0.6929
 3341SOL    HW121482   2.900   2.248  15.602 -0.2667 -1.0373  0.1115
 3341SOL    HW221483   2.938   2.387  15.600  1.9887  2.4854  2.4804
 3342SOL     OW21484   3.787   2.060  13.586  0.2734 -0.1512 -0.3999
 3342SOL    HW121485   3.880   2.074  13.569  0.2195  0.9779  0.2494
 3342SOL    HW221486   3.755   2.063  13.496 -0.5176  0.7500 -0.0902
 3343SOL     OW21487   4.673   0.387  10.069 -0.1646 -0.4896 -0.4529
 3343SOL    HW121488   0.030   0.431  10.097 -1.3073  0.8373  0.7651
 3343SOL    HW221489   4.642   0.454  10.009  2.7688  0.4247 -0.9441
 3344SOL     OW21490   4.492   2.511   7.382  0.0348  0.3364  0.0685
 3344SOL    HW121491   4.434   2.576   7.343  0.1352 -1.5402 -3.1121
 3344SOL    HW221492   4.569   2.541   7.333 -0.3041 -0.1465 -0.7491
 3345SOL     OW21493   3.145   0.251   0.851  0.1170  0.0068  0.1866
 3345SOL    HW121494   3.147   0.158   0.831  0.5189 -0.9076  4.3220
 3345SOL    HW221495   3.179   0.280   0.767 -1.1795  1.9582  0.3183
 3346SOL     OW21496   0.202   0.217   8.089 -0.2356  0.0628 -0.1998
 3346SOL    HW121497   0.123   0.179   8.051 -0.7270  0.0761  0.7849
 3346SOL    HW221498   0.254   0.255   8.019  1.2714 -1.1005  0.2949
 3347SOL     OW21499   3.660   4.069   3.795 -0.0853  0.7506 -0.0467
 3347SOL    HW121500   3.577   4.032   3.824  0.5382 -0.3063  0.4270
 3347SOL    HW221501   3.658   4.150   3.845 -1.2462 -0.2018  1.4645
 3348SOL     OW21502   2.037   2.365   0.503 -0.2020 -0.2321 -0.3545
 3348SOL    HW121503   2.097   2.299   0.469 -0.9595 -2.2611  2.2479
 3348SOL    HW221504   1.983   2.365   0.424  0.5384 -0.3386 -0.8536
 3349SOL     OW21505   0.301   0.380   4.499 -0.0325  0.3110  0.5626
 3349SOL    HW121506   0.309   0.373   4.594  0.6933 -2.2898  0.3100
 3349SOL    HW221507   0.209   0.367   4.477 -0.0017  1.4532 -0.2560
 3350SOL     OW21508   2.966   2.016   9.416 -0.2381 -0.4980  0.2321
 3350SOL    HW121509   2.923   2.057   9.491 -1.8774 -1.5523 -0.1386
 3350SOL    HW221510   2.882   1.989   9.381 -0.6463  1.7641 -0.5183
 3351SOL     OW21511   0.707   2.561  16.668  0.4256  0.1136 -0.2185
 3351SOL    HW121512   0.773   2.493  16.651  0.7086  0.8852 -2.1386
 3351SOL    HW221513   0.726   2.624  16.599 -1.9098  2.9997  1.7523
 3352SOL     OW21514   2.398   1.796   8.398  0.0552 -0.6457  0.5353
 3352SOL    HW121515   2.358   1.835   8.475 -3.5621 -2.0506 -0.6179
 3352SOL    HW221516   2.353   1.711   8.398 -1.4016  0.1151 -1.5271
 3353SOL     OW21517   3.333   0.556   6.561 -0.4313 -0.3778 -0.1769
 3353SOL    HW121518   3.244   0.521   6.572 -0.0271 -1.6251 -0.8289
 3353SOL    HW221519   3.374   0.472   6.543 -0.1076 -0.6796  1.9576
 3354SOL     OW21520   4.003   1.606   2.697  0.3521 -0.1228 -0.1663
 3354SOL    HW121521   4.065   1.559   2.641 -0.4935  0.4118 -1.5567
 3354SOL    HW221522   3.925   1.608   2.642 -0.7861 -1.2230  1.4226
 3355SOL     OW21523   3.081   3.207   2.829  0.0167 -0.6343  0.1225
 3355SOL    HW121524   3.117   3.160   2.904  0.0045  1.3049  1.3402
 3355SOL    HW221525   3.145   3.186   2.760  0.3917 -0.5956  0.4562
 3356SOL     OW21526   2.912   2.633   4.287 -0.6388 -0.3832 -0.0401
 3356SOL    HW121527   2.953   2.567   4.231 -0.2304 -2.4574  2.7267
 3356SOL    HW221528   2.981   2.654   4.350 -0.9490  0.1519  0.1177
 3357SOL     OW21529   3.269   2.124   5.345  0.0285 -0.2253 -0.0895
 3357SOL    HW121530   3.335   2.135   5.276  0.0358  4.8398  0.7641
 3357SOL    HW221531   3.209   2.062   5.302  1.5438 -0.2221 -2.2269
 3358SOL     OW21532   1.387   2.280   5.212  0.3167 -0.3379 -0.7339
 3358SOL    HW121533   1.404   2.214   5.279  0.4308 -1.0530 -1.4724
 3358SOL    HW221534   1.402   2.229   5.132 -0.7534  1.1856 -1.8951
 3359SOL     OW21535   2.226   4.340   9.520 -0.4245 -0.3587 -0.3655
 3359SOL    HW121536   2.238   4.250   9.490  0.1232 -1.0164  1.8979
 3359SOL    HW221537   2.272   4.394   9.455 -0.8587  0.8834  0.3516
 3360SOL     OW21538   3.232   4.355  14.318 -0.1008 -0.3838 -0.1747
 3360SOL    HW121539   3.274   4.270  14.331 -0.2009 -0.4554 -0.3303
 3360SOL    HW221540   3.199   4.351  14.229  1.2037 -0.8366 -0.6368
 3361SOL     OW21541   0.050   2.820   5.008  0.1703  0.0794 -0.3960
 3361SOL    HW121542   0.041   2.745   4.949  0.3379 -1.7418  1.8835
 3361SOL    HW221543   0.142   2.840   4.990  0.2097  1.0462  0.8602
 3362SOL     OW21544   1.283   4.658   9.208 -0.3391  0.5311  0.3189
 3362SOL    HW121545   1.356   4.684   9.265 -0.2229 -0.8829  0.8078
 3362SOL    HW221546   1.326   4.668   9.123 -1.3280 -1.7811 -0.4416
 3363SOL     OW21547   3.912   2.589  11.963  0.0319  0.7456 -0.1372
 3363SOL    HW121548   3.849   2.518  11.974  3.3518 -1.9492  1.5312
 3363SOL    HW221549   3.894   2.633  12.047 -3.3121  0.3567 -0.6561
 3364SOL     OW21550   4.435   1.264  15.275  0.6140  0.3965 -0.3900
 3364SOL    HW121551   4.478   1.273  15.190  0.9476 -0.8223 -0.3437
 3364SOL    HW221552   4.496   1.203  15.316 -0.7052 -1.3850 -1.0711
 3365SOL     OW21553   3.259   2.385   7.295  0.1602  0.6087  0.6733
 3365SOL    HW121554   3.181   2.350   7.337 -0.2209 -0.9322 -1.3202
 3365SOL    HW221555   3.287   2.318   7.233  0.5967  2.5064 -1.1960
 3366SOL     OW21556   1.796   4.671   9.306 -0.0782  0.1107  0.8369
 3366SOL    HW121557   1.871   4.618   9.332 -0.4261  0.2655  2.1255
 3366SOL    HW221558   1.833   0.031   9.332  0.0207 -0.1073  1.3805
 3367SOL     OW21559   1.690   2.360   1.847 -0.5675  0.5445 -0.8875
 3367SOL    HW121560   1.741   2.339   1.769  0.3662  0.8500 -0.3521
 3367SOL    HW221561   1.610   2.321   1.812  0.4661 -2.1044 -0.2945
 3368SOL     OW21562   1.526   1.627   7.647  0.7965 -0.8468  0.0020
 3368SOL    HW121563   1.555   1.685   7.718  0.4536 -0.4365 -0.1980
 3368SOL    HW221564   1.587   1.646   7.575 -0.0867 -0.5191 -0.6534
 3369SOL     OW21565   2.725   1.733   1.409  0.2199  0.0911  0.1961
 3369SOL    HW121566   2.643   1.780   1.393  1.0738  1.2484 -0.7669
 3369SOL    HW221567   2.718   1.660   1.347  3.3892 -0.3882  0.4236
 3370SOL     OW21568   1.723   2.525   7.971  0.2459  0.2123 -0.4296
 3370SOL    HW121569   1.639   2.533   7.925 -0.6757 -0.1340  1.1873
 3370SOL    HW221570   1.716   2.574   8.053  0.3006 -0.8919  0.2303
 3371SOL     OW21571   1.352   4.411   2.335  0.1592 -0.4724  0.4131
 3371SOL    HW121572   1.289   4.342   2.314  1.9800 -1.6209 -1.2631
 3371SOL    HW221573   1.304   4.487   2.302 -0.6378 -0.8127  0.7889
 3372SOL     OW21574   4.672   1.066  12.505  0.3550  0.7087 -0.3514
 3372SOL    HW121575   4.642   0.976  12.489  0.4731  0.5648  0.2325
 3372SOL    HW221576   0.039   1.058  12.532  0.0867  0.1396  0.3963
 3373SOL     OW21577   1.701   1.017  16.331 -0.2597 -0.6202 -0.0183
 3373SOL    HW121578   1.687   1.006  16.425  0.6069  0.0797  0.1980
 3373SOL    HW221579   1.781   0.967  16.313  0.0483 -0.2644  0.3481
 3374SOL     OW21580   4.153   2.930  16.604 -0.2657 -0.2801 -0.1619
 3374SOL    HW121581   4.141   2.890  16.690 -2.1592  0.6777  0.0294
 3374SOL    HW221582   4.248   2.939  16.606 -0.3390  0.3379  0.4728
 3375SOL     OW21583   4.651   0.243   2.590  0.2231  0.7207 -0.2840
 3375SOL    HW121584   4.582   0.243   2.523  0.5831 -1.4173 -0.6532
 3375SOL    HW221585   4.692   0.328   2.576  1.2023  0.4570  1.0552
 3376SOL     OW21586   3.365   2.266   3.260 -0.1527 -0.6619  0.1991
 3376SOL    HW121587   3.437   2.218   3.220  0.7885  0.2446  0.7940
 3376SOL    HW221588   3.289   2.214   3.233  0.1948 -0.2895 -1.4340
 3377SOL     OW21589   2.739   1.192   6.625 -0.4933 -0.1884  0.3667
 3377SOL    HW121590   2.651   1.226   6.638 -0.7975 -0.9325  0.2408
 3377SOL    HW221591   2.785   1.264   6.669 -0.7071 -0.5520  1.1791
 3378SOL     OW21592   4.337   3.855   2.601 -0.3065  0.2170 -0.3054
 3378SOL    HW121593   4.305   3.787   2.660  0.5990 -1.7295 -2.0408
 3378SOL    HW221594   4.427   3.829   2.580  0.4813  3.0036 -0.3544
 3379SOL     OW21595   3.697   4.663   2.405  0.1437 -0.0588 -0.6163
 3379SOL    HW121596   3.752   4.679   2.328  0.1551 -0.3953 -0.6783
 3379SOL    HW221597   3.760   4.705   2.464 -0.6040 -1.5953  1.2820
 3380SOL     OW21598   2.202   0.851   7.266  0.5134  0.0355 -0.3638
 3380SOL    HW121599   2.129   0.824   7.321  1.0163 -2.0052 -0.6944
 3380SOL    HW221600   2.279   0.815   7.311 -0.8628 -1.0003  1.1456
 3381SOL     OW21601   0.830   4.326  11.596  0.2257 -0.2061 -0.1780
 3381SOL    HW121602   0.819   4.272  11.674 -0.3501  1.2348  0.7349
 3381SOL    HW221603   0.804   4.411  11.632  0.5460 -0.5926  0.9600
 3382SOL     OW21604   3.351   1.967   7.477  0.1151  0.0115 -0.1310
 3382SOL    HW121605   3.405   2.046   7.468 -2.8144  2.1525  1.2426
 3382SOL    HW221606   3.422   1.922   7.524  3.1068  2.0264 -2.7148
 3383SOL     OW21607   0.554   2.809   8.085  0.3604 -0.3075 -0.7864
 3383SOL    HW121608   0.489   2.878   8.071 -0.7869 -1.0783  0.8629
 3383SOL    HW221609   0.586   2.830   8.172 -0.3718  0.0316 -0.6035
 3384SOL     OW21610   1.892   4.098   6.556 -0.0255 -0.8292  0.7003
 3384SOL    HW121611   1.936   4.077   6.474  0.6481  0.1538  0.8195
 3384SOL    HW221612   1.929   4.185   6.568  5.0786 -2.6346 -1.9189
 3385SOL     OW21613   4.699   1.500   8.411  0.2827 -0.1502  0.7801
 3385SOL    HW121614   4.657   1.555   8.477 -0.8684  0.1442 -0.1870
 3385SOL    HW221615   4.683   1.414   8.449  1.6921  0.1890  2.1120
 3386SOL     OW21616   0.250   3.279   4.747  0.3394 -0.1509 -0.0720
 3386SOL    HW121617   0.173   3.278   4.805  0.0747 -0.5548 -0.4392
 3386SOL    HW221618   0.309   3.221   4.794 -0.4088  0.5190  1.7112
 3387SOL     OW21619   2.161   0.876   5.167  0.0732  0.1431  0.2252
 3387SOL    HW121620   2.100   0.920   5.108 -0.4423 -0.9554 -0.0647
 3387SOL    HW221621   2.206   0.823   5.100  0.6740  1.6409 -0.5542
 3388SOL     OW21622   3.906   1.821  15.100 -0.4526  0.0918 -0.2251
 3388SOL    HW121623   3.953   1.821  15.183 -0.4411 -0.8833 -0.2360
 3388SOL    HW221624   3.834   1.762  15.121  0.0613 -0.9815 -1.4550
 3389SOL     OW21625   0.675   4.653   2.358  0.6338 -0.1273  0.4264
 3389SOL    HW121626   0.697   4.568   2.396 -1.3771 -0.2665  1.3062
 3389SOL    HW221627   0.689   4.699   2.441  1.4252 -0.2336  0.3510
 3390SOL     OW21628   3.745   1.069   6.366  0.1304  0.3130 -0.2210
 3390SOL    HW121629   3.675   1.020   6.408  1.3247 -1.5080 -0.3745
 3390SOL    HW221630   3.774   1.004   6.303  1.5048 -0.8645  1.6259
 3391SOL     OW21631   3.387   3.541   4.725  0.2477 -0.7035 -0.0618
 3391SOL    HW121632   3.407   3.614   4.784  0.2752 -0.1885 -0.7125
 3391SOL    HW221633   3.425   3.462   4.764  0.9041 -0.0615  0.5997
 3392SOL     OW21634   4.540   3.722   8.506 -0.0911 -0.5133 -0.0830
 3392SOL    HW121635   4.479   3.786   8.467  0.4859  0.5968  0.8588
 3392SOL    HW221636   4.621   3.743   8.460 -0.9977  1.8986 -0.6154
 3393SOL     OW21637   0.233   0.954   0.810  0.5621  0.0693 -0.4505
 3393SOL    HW121638   0.197   0.873   0.775 -1.7811  0.8721  0.0463
 3393SOL    HW221639   0.308   0.962   0.752 -0.6882 -1.2891 -2.2696
 3394SOL     OW21640   3.339   0.700   6.308  0.1160  0.0925  0.5527
 3394SOL    HW121641   3.298   0.653   6.235  2.9321 -1.7575  0.1850
 3394SOL    HW221642   3.365   0.632   6.370 -2.2640  0.4869  1.9871
 3395SOL     OW21643   0.615   1.470   1.697  0.4075 -0.5336  0.5125
 3395SOL    HW121644   0.670   1.470   1.619  1.6706 -0.0831  1.4086
 3395SOL    HW221645   0.668   1.527   1.753  0.1372  1.1952 -1.0017
 3396SOL     OW21646   3.692   3.807   6.382  0.0405  0.1260 -0.3209
 3396SOL    HW121647   3.718   3.821   6.291 -2.1728 -0.9205 -1.1191
 3396SOL    HW221648   3.632   3.881   6.391  0.0106  0.0032  0.4473
 3397SOL     OW21649   0.637   0.808   4.134 -0.0511 -0.0449 -0.2349
 3397SOL    HW121650   0.677   0.834   4.218  0.5620 -1.9554  0.0613
 3397SOL    HW221651   0.605   0.722   4.159  0.4831 -0.4029 -0.7957
 3398SOL     OW21652   2.213   3.129   7.374  0.0721 -0.0923 -0.0414
 3398SOL    HW121653   2.285   3.187   7.400 -0.8336  0.8314  0.4275
 3398SOL    HW221654   2.169   3.134   7.459 -0.1176  1.1047 -0.2003
 3399SOL     OW21655   1.414   2.320   4.072 -0.4495  0.4246 -0.0608
 3399SOL    HW121656   1.355   2.395   4.058  0.2591  0.7594 -1.3401
 3399SOL    HW221657   1.361   2.241   4.070  1.7092 -0.9994 -0.0205
 3400SOL     OW21658   0.513   2.947   3.675  0.0405 -0.0362  1.0302
 3400SOL    HW121659   0.425   2.984   3.670 -0.6147 -1.6971  0.2483
 3400SOL    HW221660   0.506   2.878   3.609  2.6397 -1.0331  1.7723
 3401SOL     OW21661   2.092   3.597   8.196 -0.0749 -0.1000 -0.3263
 3401SOL    HW121662   2.060   3.510   8.174  1.3017 -1.0312  1.3886
 3401SOL    HW221663   2.184   3.581   8.219 -0.3687  0.4338  1.1885
 3402SOL     OW21664   0.859   0.994   5.507 -0.1279  0.6910 -0.0050
 3402SOL    HW121665   0.879   1.043   5.587 -0.0741 -1.2708  1.2153
 3402SOL    HW221666   0.792   1.053   5.473 -1.5282 -0.0506  1.4445
 3403SOL     OW21667   1.204   0.317  11.943 -0.0544  0.0200  0.1628
 3403SOL    HW121668   1.297   0.321  11.963 -0.2688  3.9968  0.3730
 3403SOL    HW221669   1.182   0.234  11.986  0.1357 -1.0586 -1.7965
 3404SOL     OW21670   3.354   1.953   6.337 -0.3495  0.4287  0.3309
 3404SOL    HW121671   3.314   1.963   6.250  1.2305  0.5598 -0.3853
 3404SOL    HW221672   3.299   1.895   6.389 -1.4461  0.1455 -1.1337
 3405SOL     OW21673   3.557   1.803   7.595 -0.4277  0.0633  0.4517
 3405SOL    HW121674   3.549   1.708   7.596 -0.2423  0.0478  0.4201
 3405SOL    HW221675   3.594   1.823   7.681  0.2728 -2.4511  0.7333
 3406SOL     OW21676   1.507   2.096   6.886  0.4806  0.4523  0.4992
 3406SOL    HW121677   1.536   2.097   6.977  0.9672  2.0928  0.3214
 3406SOL    HW221678   1.423   2.053   6.905  0.7680 -1.0834 -1.6562
 3407SOL     OW21679   1.410   3.502   5.328  0.4482  0.0888  0.3563
 3407SOL    HW121680   1.409   3.407   5.335  1.8174  0.1770  1.8031
 3407SOL    HW221681   1.354   3.521   5.403 -0.4729 -1.9155  0.1774
 3408SOL     OW21682   1.516   1.148   9.245  0.2245  0.8615 -0.2620
 3408SOL    HW121683   1.492   1.227   9.293 -0.4403  0.7789 -0.4538
 3408SOL    HW221684   1.605   1.160   9.212  0.6018  1.4635  0.9921
 3409SOL     OW21685   3.119   3.051   5.836  0.4892 -0.1748  0.1734
 3409SOL    HW121686   3.168   3.097   5.767 -1.3743  0.1835 -0.8974
 3409SOL    HW221687   3.175   2.974   5.848 -0.3638 -0.5256  1.8500
 3410SOL     OW21688   3.637   1.030   1.741  0.6546  0.2723  0.1877
 3410SOL    HW121689   3.674   0.948   1.774  2.0297  1.1864  0.9000
 3410SOL    HW221690   3.594   0.996   1.662  0.8822  0.8098 -0.1688
 3411SOL     OW21691   0.620   3.610   4.999 -0.0854  0.5274 -0.3365
 3411SOL    HW121692   0.625   3.546   5.071 -0.5527 -0.1868 -0.9424
 3411SOL    HW221693   0.602   3.681   5.061 -0.8400  0.1185 -0.0784
 3412SOL     OW21694   2.305   4.228   3.262 -0.3811 -0.0686 -0.1145
 3412SOL    HW121695   2.279   4.167   3.193  1.1438 -2.7888  1.7466
 3412SOL    HW221696   2.283   4.191   3.347  3.5301  0.6426  1.2099
 3413SOL     OW21697   0.552   0.926   5.744 -0.8645 -0.5406 -0.3898
 3413SOL    HW121698   0.547   1.019   5.719 -2.1414 -0.8742 -1.3525
 3413SOL    HW221699   0.584   0.879   5.666  2.1516 -0.6931  0.9298
 3414SOL     OW21700   2.076   2.636   3.561 -0.3522  0.3746  0.2272
 3414SOL    HW121701   2.141   2.569   3.583 -0.5819 -0.0506 -0.3815
 3414SOL    HW221702   2.012   2.577   3.520  1.1594 -0.6716 -0.6140
 3415SOL     OW21703   4.042   2.663   2.573 -0.3196  0.6772 -0.0924
 3415SOL    HW121704   3.972   2.607   2.606 -2.0465  2.0427 -1.4921
 3415SOL    HW221705   4.010   2.680   2.485 -0.0645 -0.5666 -0.4276
 3416SOL     OW21706   1.670   0.168   8.816  0.3354 -0.0114  0.1650
 3416SOL    HW121707   1.610   0.213   8.876  2.9710  1.6232  1.5877
 3416SOL    HW221708   1.736   0.137   8.879  1.8655  0.3742 -1.2444
 3417SOL     OW21709   2.188   2.431  14.793  0.1115  0.0808  0.2933
 3417SOL    HW121710   2.241   2.379  14.853  0.5260 -0.6482 -0.7081
 3417SOL    HW221711   2.259   2.463  14.738  0.7548  1.0936  1.7029
 3418SOL     OW21712   4.654   0.787   3.890  0.0546 -0.0180 -0.0903
 3418SOL    HW121713   4.687   0.870   3.856  0.6520 -0.7132 -1.2125
 3418SOL    HW221714   4.641   0.818   3.980  0.5387  0.3174 -0.1399
 3419SOL     OW21715   0.317   2.832   6.571  0.2736 -0.8231  0.0168
 3419SOL    HW121716   0.328   2.880   6.488 -1.6053 -0.2882  0.0790
 3419SOL    HW221717   0.224   2.841   6.588  0.4577  0.3183  0.4444
 3420SOL     OW21718   0.623   2.389  13.723  0.5519 -0.1294  0.3026
 3420SOL    HW121719   0.716   2.379  13.742  0.6567 -0.4844 -0.3818
 3420SOL    HW221720   0.631   2.483  13.703  3.1818 -1.2915 -4.1650
 3421SOL     OW21721   4.686   4.715   6.369  0.1156  0.1686  0.6666
 3421SOL    HW121722   4.673   0.065   6.310 -0.2566  0.0661  0.6138
 3421SOL    HW221723   0.031   4.664   6.326 -0.7479 -0.6545  0.2445
 3422SOL     OW21724   4.712   2.750   6.898  0.6913 -0.8824 -0.4629
 3422SOL    HW121725   4.646   2.714   6.958 -0.7808  1.3161 -0.7544
 3422SOL    HW221726   0.063   2.743   6.958  1.6414 -2.2870 -1.8090
 3423SOL     OW21727   3.265   4.189   6.754  0.0516  0.1140  0.4258
 3423SOL    HW121728   3.213   4.198   6.834  0.5072 -0.4272  0.7811
 3423SOL    HW221729   3.339   4.150   6.801 -1.1637 -0.5366  1.7992
 3424SOL     OW21730   0.401   4.451   7.004  0.0832 -0.0083  0.3576
 3424SOL    HW121731   0.459   4.527   7.008 -0.6706  0.5312  0.8515
 3424SOL    HW221732   0.347   4.448   7.082  0.8897  1.3716  0.9723
 3425SOL     OW21733   1.544   1.030   5.091  0.0637 -0.5585 -0.1872
 3425SOL    HW121734   1.486   0.956   5.107 -2.1191  1.1335 -0.4332
 3425SOL    HW221735   1.487   1.083   5.036  0.2379 -0.0258  0.1388
 3426SOL     OW21736   3.342   2.340   6.194  0.2698 -0.1314  0.0717
 3426SOL    HW121737   3.301   2.334   6.107 -1.2969  0.5266  0.7539
 3426SOL    HW221738   3.424   2.385   6.172 -1.1476  2.2782 -0.3647
 3427SOL     OW21739   2.005   4.321  17.478 -0.2536  0.1502 -0.2795
 3427SOL    HW121740   1.939   4.323  17.409  0.8592 -0.9856 -1.3843
 3427SOL    HW221741   2.079   4.336  17.419 -1.0579  3.0348 -0.5165
 3428SOL     OW21742   1.906   1.619   8.699 -0.2025 -0.4356 -0.3001
 3428SOL    HW121743   1.961   1.684   8.657 -1.5638 -0.3290 -1.9041
 3428SOL    HW221744   1.965   1.567   8.754 -0.2176 -1.8859 -1.6827
 3429SOL     OW21745   1.385   4.655   8.419 -0.6880 -0.2183  0.2850
 3429SOL    HW121746   1.431   0.004   8.462 -3.3693  0.2433  2.3490
 3429SOL    HW221747   1.331   4.625   8.492  0.5524 -0.7001  1.0191
 3430SOL     OW21748   1.755   2.963   6.912 -0.5146  0.1262 -0.0689
 3430SOL    HW121749   1.713   2.973   6.827 -0.5321  0.1732 -0.0549
 3430SOL    HW221750   1.680   2.927   6.960 -2.0963 -0.4760 -2.9759
 3431SOL     OW21751   4.402   4.465  14.336  0.3855 -0.5933  0.1618
 3431SOL    HW121752   4.446   4.506  14.261 -0.0185 -0.2700  0.1062
 3431SOL    HW221753   4.430   4.374  14.334  0.6696 -0.5815  3.6037
 3432SOL     OW21754   2.790   0.339   8.812  0.0207 -0.0752  0.1000
 3432SOL    HW121755   2.840   0.342   8.893 -0.5339 -0.3116  0.4560
 3432SOL    HW221756   2.789   0.245   8.792 -0.3144  0.2246 -1.2918
 3433SOL     OW21757   1.765   0.796   7.464 -0.0879  0.0185  0.1291
 3433SOL    HW121758   1.817   0.733   7.514 -0.0067 -0.2975 -0.3475
 3433SOL    HW221759   1.725   0.851   7.531  0.2725  1.3245 -0.7341
 3434SOL     OW21760   3.257   0.070   4.589 -0.1828 -0.2417 -0.1536
 3434SOL    HW121761   3.228   0.161   4.583  1.0146  0.2358  1.2352
 3434SOL    HW221762   3.177   0.021   4.610  0.6804 -0.0200  3.6499
 3435SOL     OW21763   4.635   0.986   4.439  0.0726 -0.3424  0.4785
 3435SOL    HW121764   4.719   1.005   4.396 -0.0642  0.1773  0.4403
 3435SOL    HW221765   4.600   1.073   4.460 -2.4044 -0.9366 -1.1123
 3436SOL     OW21766   2.565   3.512   7.592  0.3020 -0.0272 -0.1284
 3436SOL    HW121767   2.475   3.535   7.570  0.7339 -0.4181 -2.2238
 3436SOL    HW221768   2.573   3.425   7.555  0.0145 -0.7693  1.5672
 3437SOL     OW21769   0.802   4.395   5.279 -0.1475 -0.0035 -0.5174
 3437SOL    HW121770   0.713   4.381   5.313 -0.8492  0.2771 -2.2076
 3437SOL    HW221771   0.852   4.379   5.359  0.5787  0.4292 -0.8819
 3438SOL     OW21772   1.550   2.891   5.325 -0.7888 -0.1413 -0.2485
 3438SOL    HW121773   1.594   2.896   5.240 -0.2889 -0.2320  0.0049
 3438SOL    HW221774   1.624   2.921   5.376 -2.5856  2.1434  1.0280
 3439SOL     OW21775   2.910   4.038   8.294  0.5881 -0.0161 -0.6171
 3439SOL    HW121776   2.984   3.982   8.318  0.0051 -1.1650 -1.5433
 3439SOL    HW221777   2.955   4.118   8.267  1.2496  0.4304  1.8100
 3440SOL     OW21778   4.333   1.582   3.080 -0.3980  0.1428 -0.0708
 3440SOL    HW121779   4.316   1.514   3.145  3.0273 -0.8227 -0.2029
 3440SOL    HW221780   4.263   1.560   3.019 -0.5392 -0.6380  0.3801
 3441SOL     OW21781   0.522   2.390   2.654  0.1748 -0.8828  0.1951
 3441SOL    HW121782   0.480   2.412   2.571 -0.4419  1.4431  1.1208
 3441SOL    HW221783   0.492   2.307   2.690 -0.3212 -0.3935  0.9169
 3442SOL     OW21784   4.210   2.542   7.617 -0.5939 -0.2277  0.1466
 3442SOL    HW121785   4.211   2.589   7.533 -0.3718  2.9767  1.9450
 3442SOL    HW221786   4.149   2.598   7.665 -2.1789 -0.0180 -2.1367
 3443SOL     OW21787   2.658   2.155   4.525 -0.0113 -0.2079  0.1469
 3443SOL    HW121788   2.563   2.150   4.538 -0.2110 -2.9512 -2.2493
 3443SOL    HW221789   2.696   2.091   4.585  0.9669  0.7476  0.5447
 3444SOL     OW21790   1.731   3.439  12.002 -0.2356 -0.2179 -0.0657
 3444SOL    HW121791   1.669   3.417  12.072 -1.7162 -0.4928 -1.4618
 3444SOL    HW221792   1.672   3.472  11.934 -0.0807 -0.9758 -0.5644
 3445SOL     OW21793   1.623   0.624   6.537 -0.7432 -0.5593 -0.3151
 3445SOL    HW121794   1.603   0.576   6.617 -2.7299  0.5024 -0.1560
 3445SOL    HW221795   1.681   0.691   6.572  0.7642 -1.5421 -0.9599
 3446SOL     OW21796   3.992   3.096   9.679  0.0713  0.5590  0.3275
 3446SOL    HW121797   3.950   3.025   9.727  1.3435 -0.1883  0.3482
 3446SOL    HW221798   4.045   3.049   9.614  0.8442  2.2685 -0.2782
 3447SOL     OW21799   2.399   3.201  13.659  0.1251  0.2227  0.1853
 3447SOL    HW121800   2.329   3.166  13.714 -1.2117  0.4403 -1.3714
 3447SOL    HW221801   2.360   3.193  13.572 -0.9452 -0.0713  0.6889
 3448SOL     OW21802   3.962   0.800   8.438 -0.1993 -0.1209 -0.2386
 3448SOL    HW121803   3.996   0.721   8.396  0.8020 -0.8102  1.8610
 3448SOL    HW221804   4.046   0.847   8.445  0.6536 -1.8446  1.0258
 3449SOL     OW21805   1.855   4.550   6.029 -0.1559 -0.4620  0.2541
 3449SOL    HW121806   1.936   4.554   6.080 -0.0106  1.8048 -0.1490
 3449SOL    HW221807   1.895   4.529   5.945 -0.2902 -0.3865  0.1713
 3450SOL     OW21808   4.041   0.005   4.501 -0.1163 -0.6346  0.1871
 3450SOL    HW121809   3.981   4.701   4.431 -0.3312  1.2613 -0.3789
 3450SOL    HW221810   4.039   0.100   4.501 -2.2054 -0.6691  0.1928
 3451SOL     OW21811   3.127   0.299   8.806 -0.0861  0.3818  0.1660
 3451SOL    HW121812   3.147   0.274   8.896 -1.4906 -0.8112  0.1410
 3451SOL    HW221813   3.099   0.390   8.819 -0.8565  0.0998  0.4862
 3452SOL     OW21814   1.035   3.499   8.715  0.1940 -0.6709  0.3237
 3452SOL    HW121815   1.071   3.469   8.632 -1.1108 -0.8093 -0.1983
 3452SOL    HW221816   1.026   3.425   8.775 -2.0281  0.5282  1.4947
 3453SOL     OW21817   3.363   3.547   5.044  0.0642 -0.7532  0.1059
 3453SOL    HW121818   3.438   3.586   5.000 -0.0761  2.5412  2.7657
 3453SOL    HW221819   3.365   3.602   5.123 -1.4342  1.2405 -1.2822
 3454SOL     OW21820   0.594   4.600  12.262  0.1693 -0.6707 -0.4966
 3454SOL    HW121821   0.681   4.620  12.297  0.0705  1.1543 -1.3002
 3454SOL    HW221822   0.538   4.647  12.324  3.0045 -1.3469  2.5623
 3455SOL     OW21823   1.946   1.619   6.942 -0.4349 -0.2353  0.1554
 3455SOL    HW121824   1.977   1.535   6.909 -3.1815 -1.1211 -0.1127
 3455SOL    HW221825   1.932   1.656   6.854 -3.4522 -1.6176  0.0663
 3456SOL     OW21826   1.111   0.553   8.966 -0.5518  0.1520 -0.6241
 3456SOL    HW121827   1.040   0.570   8.903 -1.2886  0.9652  0.4296
 3456SOL    HW221828   1.178   0.617   8.943 -1.1005  0.4438 -1.4471
 3457SOL     OW21829   1.405   0.388   8.560 -0.2816  0.7438 -0.2456
 3457SOL    HW121830   1.312   0.371   8.542  0.4693 -2.2031 -1.3483
 3457SOL    HW221831   1.431   0.466   8.510 -0.1380  0.0148 -1.3156
 3458SOL     OW21832   0.191   3.687   9.080  0.1785  0.6244 -0.0132
 3458SOL    HW121833   0.215   3.773   9.115  3.1571 -0.0265 -0.4290
 3458SOL    HW221834   0.116   3.722   9.032 -0.9336 -0.0283  1.2592
 3459SOL     OW21835   4.491   1.987   5.915 -0.1935 -0.0243  0.1296
 3459SOL    HW121836   4.545   2.061   5.887 -0.4018 -0.1506 -0.6000
 3459SOL    HW221837   4.548   1.942   5.977 -1.1721  2.0055  2.5127
 3460SOL     OW21838   3.572   3.382  14.620  0.0106  0.3673 -0.1250
 3460SOL    HW121839   3.511   3.314  14.591  0.4159  0.7373 -1.8342
 3460SOL    HW221840   3.525   3.409  14.699  1.6183 -1.2024  1.3505
 3461SOL     OW21841   1.398   4.287  10.644 -0.0494 -0.3540  0.2826
 3461SOL    HW121842   1.349   4.317  10.567  2.0063 -1.9992 -1.6753
 3461SOL    HW221843   1.406   4.195  10.620  1.0873 -0.4100  0.8979
 3462SOL     OW21844   4.687   0.524   5.469  0.3886 -0.2152  0.2102
 3462SOL    HW121845   4.611   0.467   5.478  0.0556  0.1824 -0.0891
 3462SOL    HW221846   4.682   0.543   5.375 -0.0961  1.1494  0.5251
 3463SOL     OW21847   3.806   2.083   0.602  0.0633 -0.2772  0.5186
 3463SOL    HW121848   3.813   2.138   0.680  0.3913 -1.7958  1.5634
 3463SOL    HW221849   3.738   2.022   0.631 -0.7409 -0.6704 -2.1872
 3464SOL     OW21850   3.453   3.196   0.665 -0.0298  0.1741  0.1431
 3464SOL    HW121851   3.394   3.262   0.701  1.5649  2.9591 -2.3075
 3464SOL    HW221852   3.514   3.261   0.630  0.7527 -1.9869 -2.5549
 3465SOL     OW21853   3.259   2.679   2.204 -0.3578 -0.1325  0.2007
 3465SOL    HW121854   3.249   2.767   2.167 -1.8390 -1.5294 -2.7031
 3465SOL    HW221855   3.337   2.694   2.257  0.0720 -1.0629 -0.1691
 3466SOL     OW21856   1.706   3.498   5.248  0.0479 -0.3415  0.5129
 3466SOL    HW121857   1.764   3.528   5.318 -0.7167  1.9485  0.1598
 3466SOL    HW221858   1.619   3.502   5.286 -0.5641 -0.9051 -0.8171
 3467SOL     OW21859   1.686   2.816  14.945  0.2824 -0.2936  0.5053
 3467SOL    HW121860   1.671   2.909  14.927 -0.5559 -0.0828  2.3739
 3467SOL    HW221861   1.602   2.775  14.922  1.4954 -2.2779 -0.4015
 3468SOL     OW21862   2.821   3.058   0.498  0.4998 -0.0946 -0.2590
 3468SOL    HW121863   2.916   3.066   0.490  0.3306  1.5647 -0.6745
 3468SOL    HW221864   2.787   3.135   0.544 -2.3380 -0.8067 -1.1573
 3469SOL     OW21865   4.393   0.622   4.781  0.4724  0.5219  0.4733
 3469SOL    HW121866   4.352   0.688   4.836  1.0368  3.4037 -2.5258
 3469SOL    HW221867   4.407   0.684   4.709  0.4509  0.9281  0.8157
 3470SOL     OW21868   1.207   4.161   6.668 -0.0043 -0.0537 -0.3542
 3470SOL    HW121869   1.145   4.232   6.656  0.3202  0.4254  0.8601
 3470SOL    HW221870   1.277   4.207   6.715 -2.4564  1.6187  1.6105
 3471SOL     OW21871   3.999   2.517  17.640 -0.0743  0.1966  0.3226
 3471SOL    HW121872   3.922   2.574  17.645  0.1337  0.2854  2.5584
 3471SOL    HW221873   4.017   2.522  17.546 -1.1529 -1.1996  0.0367
 3472SOL     OW21874   4.265   2.038  12.467 -0.3674 -0.6020 -0.6154
 3472SOL    HW121875   4.351   1.996  12.460  0.2546  0.6330 -0.4137
 3472SOL    HW221876   4.292   2.128  12.453 -0.5148 -0.0795  2.4141
 3473SOL     OW21877   0.395   3.643   6.573  0.2489  0.0170  0.2600
 3473SOL    HW121878   0.325   3.698   6.538  2.6657  2.5945 -0.5231
 3473SOL    HW221879   0.464   3.707   6.588  0.8594 -0.7987  0.9692
 3474SOL     OW21880   1.159   2.480   4.107 -0.1052  0.1684 -0.1754
 3474SOL    HW121881   1.094   2.411   4.121 -0.1409  0.1329 -0.5176
 3474SOL    HW221882   1.125   2.531   4.033  1.0392 -0.5600 -1.2087
 3475SOL     OW21883   3.093   3.803   8.421  0.3844  0.4623  0.2480
 3475SOL    HW121884   3.032   3.756   8.364  1.6655 -1.3574  0.3690
 3475SOL    HW221885   3.147   3.736   8.463  1.4356  1.0512 -0.1622
 3476SOL     OW21886   2.880   3.875  16.681 -0.9396 -0.1290 -0.3589
 3476SOL    HW121887   2.870   3.970  16.670 -1.5639 -0.0767  0.5690
 3476SOL    HW221888   2.970   3.865  16.649 -0.9999  0.5023 -0.7122
 3477SOL     OW21889   4.276   1.546   5.469  0.3329  0.1027 -0.0822
 3477SOL    HW121890   4.334   1.619   5.489 -1.4785  2.3032 -2.9094
 3477SOL    HW221891   4.284   1.486   5.543 -0.3074 -0.6974 -0.6563
 3478SOL     OW21892   0.102   0.711   8.154  0.2016  0.2446  0.4831
 3478SOL    HW121893   0.108   0.676   8.243 -0.1833 -1.3412 -0.1102
 3478SOL    HW221894   0.187   0.692   8.114  0.6312  0.8702  1.0994
 3479SOL     OW21895   2.138   3.067   1.516  1.0343 -0.0009 -0.0311
 3479SOL    HW121896   2.165   3.158   1.501 -0.6485  0.0832 -2.6159
 3479SOL    HW221897   2.053   3.080   1.473 -0.8035 -1.1571  3.3033
 3480SOL     OW21898   3.814   3.342  16.067 -0.6123 -0.6961 -0.4052
 3480SOL    HW121899   3.771   3.269  16.111 -2.1247 -0.2434 -1.1135
 3480SOL    HW221900   3.814   3.309  15.977  2.2326  2.4889 -1.5298
 3481SOL     OW21901   1.403   3.310   0.797  0.1969 -0.4327  0.3399
 3481SOL    HW121902   1.454   3.300   0.877  1.4631  1.0114 -0.3020
 3481SOL    HW221903   1.474   3.336   0.739 -1.2324  1.5586 -0.4947
 3482SOL     OW21904   0.235   3.717   5.367 -0.4822 -0.3349 -0.0153
 3482SOL    HW121905   0.213   3.639   5.317 -2.6231  0.8069 -0.8876
 3482SOL    HW221906   0.206   3.790   5.312 -1.7873  1.2966  2.7749
 3483SOL     OW21907   2.526   1.528  16.867  0.6778 -0.2304 -0.6002
 3483SOL    HW121908   2.486   1.603  16.911 -0.1683  0.4617 -2.5631
 3483SOL    HW221909   2.613   1.562  16.846 -0.2028  2.1003 -0.4566
 3484SOL     OW21910   0.785   0.280  15.461  0.0527  0.2758  0.4051
 3484SOL    HW121911   0.732   0.359  15.470  0.9326  0.5417  3.1053
 3484SOL    HW221912   0.768   0.243  15.374  0.4923 -0.3702  0.5990
 3485SOL     OW21913   2.915   1.331   6.789  0.8412 -0.0095 -0.4195
 3485SOL    HW121914   2.990   1.284   6.827 -0.4959 -0.7768  1.2647
 3485SOL    HW221915   2.886   1.385   6.862 -1.2857 -1.1658 -0.4182
 3486SOL     OW21916   2.756   2.595   4.500  0.4404 -0.2610  0.3262
 3486SOL    HW121917   2.778   2.684   4.527  2.4594 -0.2985 -1.1665
 3486SOL    HW221918   2.804   2.600   4.417  1.2226 -3.7374  0.5501
 3487SOL     OW21919   4.593   1.989   5.531  0.6821 -0.4644 -0.3793
 3487SOL    HW121920   4.509   1.965   5.569  0.8122  1.4503  1.1560
 3487SOL    HW221921   4.658   1.958   5.594  0.0685 -0.2956  0.3332
 3488SOL     OW21922   3.820   1.189   7.568  0.1889  0.0742 -0.1168
 3488SOL    HW121923   3.853   1.261   7.515 -1.3394 -0.9447 -2.4699
 3488SOL    HW221924   3.848   1.212   7.657 -1.4784  0.4234  0.3112
 3489SOL     OW21925   1.073   4.557   9.349 -0.3970 -0.2005  0.1572
 3489SOL    HW121926   1.137   4.588   9.284  1.0708 -3.3440  0.1071
 3489SOL    HW221927   1.093   4.464   9.338  1.1951  0.5391 -3.1457
 3490SOL     OW21928   1.149   0.978   7.531 -0.1775  0.3904  0.0381
 3490SOL    HW121929   1.148   1.070   7.559 -1.2613  0.1201  0.8841
 3490SOL    HW221930   1.206   0.954   7.603 -0.6005  0.9869  0.5764
 3491SOL     OW21931   0.983   2.984  15.317  0.6981 -0.1174  0.0523
 3491SOL    HW121932   1.014   2.896  15.296 -0.4826 -0.5262  0.0230
 3491SOL    HW221933   1.019   2.993  15.405  0.4659  3.6289 -0.2468
 3492SOL     OW21934   2.565   3.387   8.130  0.2416 -0.2386  0.1802
 3492SOL    HW121935   2.569   3.326   8.203 -2.2534 -0.4113  0.1962
 3492SOL    HW221936   2.532   3.334   8.057  0.8747  0.5659 -0.6936
 3493SOL     OW21937   1.872   3.103   1.713  0.3434  0.3883  0.0523
 3493SOL    HW121938   1.814   3.163   1.760 -1.4249 -2.6520  1.6978
 3493SOL    HW221939   1.953   3.144   1.743 -0.1221  2.9252 -2.1073
 3494SOL     OW21940   0.607   3.180  16.870  0.0993  0.7051  0.2962
 3494SOL    HW121941   0.574   3.090  16.864  0.3457  0.6191  0.2379
 3494SOL    HW221942   0.634   3.184  16.778 -1.1726 -2.5422 -0.1916
 3495SOL     OW21943   0.781   0.971   9.950 -0.1340 -0.2489  0.1988
 3495SOL    HW121944   0.744   1.050   9.990 -0.1699 -0.3999  0.4640
 3495SOL    HW221945   0.863   0.957   9.998  0.6874 -0.4424 -1.2775
 3496SOL     OW21946   0.855   2.540   4.906 -0.5762  0.2959 -0.3212
 3496SOL    HW121947   0.915   2.580   4.969 -0.7048  0.6178 -0.4049
 3496SOL    HW221948   0.844   2.608   4.841  1.6972  1.2305  0.2732
 3497SOL     OW21949   3.400   2.281   6.624 -0.3181  0.4032 -0.0365
 3497SOL    HW121950   3.355   2.365   6.615 -0.9316 -0.1872 -2.4853
 3497SOL    HW221951   3.413   2.250   6.534  2.3699 -0.7538  0.7538
 3498SOL     OW21952   1.445   2.396   2.696 -0.6570  0.5743 -0.5635
 3498SOL    HW121953   1.423   2.489   2.684 -3.1024 -0.1413 -1.6644
 3498SOL    HW221954   1.518   2.395   2.758 -2.9468 -0.8504  2.1078
 3499SOL     OW21955   0.289   0.110   0.843  0.1025  0.2131 -0.2477
 3499SOL    HW121956   0.303   0.137   0.752  0.1111  1.9513  0.2878
 3499SOL    HW221957   0.285   0.188   0.897 -1.0286  1.0561 -1.5519
 3500SOL     OW21958   2.264   0.503   2.894  0.7770  0.2630 -0.7655
 3500SOL    HW121959   2.270   0.420   2.942  0.5237  0.0194 -1.1598
 3500SOL    HW221960   2.262   0.466   2.806  0.8108 -0.6968 -0.3604
 3501SOL     OW21961   2.729   1.624   8.052 -0.0359 -0.2342  0.4229
 3501SOL    HW121962   2.798   1.690   8.057 -1.3900  1.1973  0.1574
 3501SOL    HW221963   2.650   1.672   8.075 -1.2209 -1.6197 -0.7083
 3502SOL     OW21964   2.037   4.166   2.813  0.2873 -0.3469  0.1718
 3502SOL    HW121965   1.999   4.160   2.725 -1.1895  0.6912  0.7274
 3502SOL    HW221966   2.102   4.095   2.812  1.6309  0.8980 -0.1429
 3503SOL     OW21967   3.488   3.141   7.771  0.0944 -0.4809  0.1155
 3503SOL    HW121968   3.468   3.199   7.844  2.7340  1.3300 -0.6109
 3503SOL    HW221969   3.403   3.133   7.726  0.2614  0.9141 -0.4353
 3504SOL     OW21970   2.615   4.115  14.338  0.5445  0.2679  0.0401
 3504SOL    HW121971   2.640   4.169  14.263  2.3936  0.1143  0.5386
 3504SOL    HW221972   2.704   4.096  14.366  1.1167  2.1990 -0.4709
 3505SOL     OW21973   1.420   0.018   6.826  0.5623 -0.2229 -0.1890
 3505SOL    HW121974   1.353   4.722   6.891 -1.2522 -0.6182 -2.1962
 3505SOL    HW221975   1.386   0.102   6.796  0.1994  0.0487  1.0121
 3506SOL     OW21976   3.201   4.194  15.214  0.1211 -0.2523  0.5866
 3506SOL    HW121977   3.240   4.249  15.146  0.1137  0.3253  1.0546
 3506SOL    HW221978   3.260   4.223  15.284  2.3566  0.2434 -1.4956
 3507SOL     OW21979   4.390   2.106   6.544 -0.3331  0.2749  0.2657
 3507SOL    HW121980   4.404   2.169   6.615  1.0169  0.9692 -0.6160
 3507SOL    HW221981   4.415   2.160   6.470 -1.3207  0.5656  0.1418
 3508SOL     OW21982   3.671   3.124   6.299 -0.0694  0.0414  0.0697
 3508SOL    HW121983   3.689   3.079   6.381 -1.3768  1.7464  1.3111
 3508SOL    HW221984   3.640   3.206   6.338 -2.4652 -1.2483  0.9334
 3509SOL     OW21985   1.173   1.291  16.407 -0.2196  0.0255  0.1351
 3509SOL    HW121986   1.112   1.306  16.335  1.1793 -0.0405 -1.0549
 3509SOL    HW221987   1.241   1.236  16.368 -0.8305  0.9696 -2.2658
 3510SOL     OW21988   0.351   2.156   6.875 -0.2160  0.2081 -0.0657
 3510SOL    HW121989   0.266   2.159   6.831  0.9090  0.3492 -2.2398
 3510SOL    HW221990   0.408   2.188   6.805 -0.2231  0.6758  0.1477
 3511SOL     OW21991   1.336   1.003   7.323 -0.3500 -0.0196 -0.4090
 3511SOL    HW121992   1.385   1.059   7.383 -1.0601  0.8184 -0.6153
 3511SOL    HW221993   1.276   0.964   7.387 -0.6774  0.0551 -0.6713
 3512SOL     OW21994   2.044   1.196   1.724  0.6721 -0.1307  0.4951
 3512SOL    HW121995   2.132   1.162   1.707  0.9191  0.2963  0.9125
 3512SOL    HW221996   2.042   1.284   1.686  2.1407 -0.8334 -1.2115
 3513SOL     OW21997   0.753   1.900   8.609  0.0314 -0.7133  0.3256
 3513SOL    HW121998   0.794   1.867   8.529  0.1359  1.3488 -0.4568
 3513SOL    HW221999   0.814   1.890   8.682 -1.5703 -0.9402  1.6373
 3514SOL     OW22000   2.938   3.935   6.412  0.3111  0.7244 -0.0782
 3514SOL    HW122001   3.001   3.987   6.463 -0.5026 -0.8798  2.5597
 3514SOL    HW222002   2.981   3.945   6.327  0.7490  2.0821  0.3077
 3515SOL     OW22003   0.546   1.610   6.388  0.1410 -0.0195 -0.6147
 3515SOL    HW122004   0.587   1.692   6.360 -0.2196  1.5778  3.5385
 3515SOL    HW222005   0.591   1.611   6.473 -0.6813  0.4716 -0.1902
 3516SOL     OW22006   4.457   2.849   9.568  0.1658  0.3960 -0.2986
 3516SOL    HW122007   4.473   2.755   9.582 -1.1474  0.1812 -0.2616
 3516SOL    HW222008   4.403   2.860   9.646 -2.5084  1.0524 -2.2586
 3517SOL     OW22009   1.488   0.267  11.200 -0.3358 -0.1215 -0.8825
 3517SOL    HW122010   1.546   0.343  11.206  1.0649 -1.4801  2.7425
 3517SOL    HW222011   1.474   0.278  11.106  1.7461  0.7058 -1.0963
 3518SOL     OW22012   0.684   1.509   0.186 -0.4026  0.2555  0.3569
 3518SOL    HW122013   0.681   1.499   0.281  1.5507  0.8178  0.4830
 3518SOL    HW222014   0.692   1.602   0.169  0.6584  0.4712  2.1355
 3519SOL     OW22015   0.355   4.568   2.743 -0.2641  0.3625 -0.5409
 3519SOL    HW122016   0.376   4.572   2.836 -0.8080  2.3283 -0.5019
 3519SOL    HW222017   0.430   4.516   2.715 -0.1266  0.2031  0.1189
 3520SOL     OW22018   2.037   0.501   5.446 -0.2086 -0.0817  0.2596
 3520SOL    HW122019   2.110   0.444   5.423  0.2497  0.3939  0.5507
 3520SOL    HW222020   2.082   0.555   5.511 -0.3439 -0.4662  0.6741
 3521SOL     OW22021   2.781   4.499  14.246 -0.3086 -0.2823 -0.2224
 3521SOL    HW122022   2.839   4.470  14.317 -0.5033 -0.8948 -0.3172
 3521SOL    HW222023   2.757   4.410  14.224 -2.5604  0.0149  0.9485
 3522SOL     OW22024   4.226   2.015   4.950 -0.0408 -0.5235 -0.0338
 3522SOL    HW122025   4.225   2.105   4.981 -2.1288 -0.6424  0.2337
 3522SOL    HW222026   4.313   1.988   4.979  0.8084 -0.5387 -2.5538
 3523SOL     OW22027   3.164   1.209   3.238 -0.0381  0.1595 -0.8682
 3523SOL    HW122028   3.074   1.179   3.255 -0.0065  0.6781  0.2024
 3523SOL    HW222029   3.168   1.209   3.143 -1.9055 -2.9441 -0.9346
 3524SOL     OW22030   4.090   3.287   7.377  0.0478  0.4087 -0.0802
 3524SOL    HW122031   4.108   3.246   7.462  2.5550  3.0841  0.6734
 3524SOL    HW222032   4.033   3.218   7.343  0.5353  0.3501 -0.7771
 3525SOL     OW22033   1.323   3.105  12.471 -0.0333 -0.2949  0.0654
 3525SOL    HW122034   1.238   3.121  12.510 -0.9681  1.6358 -2.7475
 3525SOL    HW222035   1.370   3.187  12.486 -2.3842  1.2822 -1.2652
 3526SOL     OW22036   1.544   1.117   6.264 -0.6447  0.3726 -0.5063
 3526SOL    HW122037   1.510   1.033   6.234 -3.3984  1.5358 -0.7067
 3526SOL    HW222038   1.482   1.165   6.208 -0.6925  0.8178 -0.0663
 3527SOL     OW22039   1.889   1.262   9.977  0.3907 -0.2880 -0.1511
 3527SOL    HW122040   1.962   1.220  10.023 -1.8956 -2.1572  1.7714
 3527SOL    HW222041   1.933   1.295   9.899 -2.0592 -3.3587 -2.8550
 3528SOL     OW22042   4.618   4.408   1.503  0.1879 -0.2775 -0.2091
 3528SOL    HW122043   4.696   4.437   1.454  0.9246 -0.5510  0.7936
 3528SOL    HW222044   4.632   4.318   1.531 -2.9925 -0.6650  0.0797
 3529SOL     OW22045   4.584   3.172  16.099  0.2165  0.4324 -0.1517
 3529SOL    HW122046   4.514   3.210  16.045 -2.2504 -1.7661  1.5322
 3529SOL    HW222047   4.563   3.079  16.092  1.7843 -0.1030  2.3235
 3530SOL     OW22048   0.300   0.234   8.435  0.3868 -0.2918 -0.2752
 3530SOL    HW122049   0.312   0.219   8.529 -1.2490  3.5587  0.5498
 3530SOL    HW222050   0.394   0.228   8.417  0.5897  2.0809 -0.0248
 3531SOL     OW22051   3.115   0.355  16.418 -0.1371 -0.7372 -0.4211
 3531SOL    HW122052   3.191   0.411  16.436 -1.1877  0.4295  0.3872
 3531SOL    HW222053   3.094   0.331  16.509  0.7380 -2.6102 -0.6985
 3532SOL     OW22054   1.053   2.770   6.294 -0.6035 -0.3819 -0.3527
 3532SOL    HW122055   1.053   2.822   6.214  1.6458  1.2961  0.7466
 3532SOL    HW222056   1.101   2.690   6.272  1.4085  0.8963 -0.6319
 3533SOL     OW22057   2.793   3.214  10.320  0.3939 -0.2763  0.5131
 3533SOL    HW122058   2.778   3.180  10.232 -0.5635  0.4295  0.4077
 3533SOL    HW222059   2.864   3.271  10.291 -0.6629  1.4332  1.3068
 3534SOL     OW22060   1.436   4.198   5.931 -0.0893  0.5388  0.0457
 3534SOL    HW122061   1.464   4.116   5.973  0.7153  1.4825  1.3415
 3534SOL    HW222062   1.512   4.252   5.953 -0.7999  0.9120  1.5477
 3535SOL     OW22063   3.937   4.538  11.977 -0.4252 -0.6800  0.0461
 3535SOL    HW122064   4.001   4.604  11.952 -2.3174  1.5672  1.1720
 3535SOL    HW222065   3.992   4.476  12.025 -1.0020 -0.0441  1.5156
 3536SOL     OW22066   0.943   3.538   2.825  0.2200 -0.2260  0.0516
 3536SOL    HW122067   0.932   3.503   2.737  0.3638 -2.4238  0.9177
 3536SOL    HW222068   0.873   3.489   2.867  2.4770 -2.4367  1.1955
 3537SOL     OW22069   0.493   1.011  10.615  0.2434  0.2488 -0.3303
 3537SOL    HW122070   0.519   0.928  10.654 -2.5141 -0.1741  0.5599
 3537SOL    HW222071   0.537   1.068  10.678  2.0678 -1.6870  0.1737
 3538SOL     OW22072   0.813   2.361   9.954  0.8275  0.1919 -0.6861
 3538SOL    HW122073   0.764   2.370  10.037 -0.5519 -0.0581 -1.4701
 3538SOL    HW222074   0.780   2.436   9.905  1.7281  1.7826  1.1327
 3539SOL     OW22075   0.501   4.656   5.845  0.3012  0.7532 -0.3125
 3539SOL    HW122076   0.495   4.602   5.766 -0.1091  0.3531 -0.0073
 3539SOL    HW222077   0.567   4.723   5.827 -0.8393  1.9782  0.0640
 3540SOL     OW22078   1.112   0.282   5.336  0.5367 -0.2416 -0.3313
 3540SOL    HW122079   1.125   0.368   5.298  0.9140 -0.6919 -1.2051
 3540SOL    HW222080   1.114   0.225   5.259  1.8685 -1.3959  0.5528
 3541SOL     OW22081   3.483   2.665   6.792  0.7456 -0.5964  0.4387
 3541SOL    HW122082   3.572   2.643   6.761  0.1701 -0.9996 -0.9443
 3541SOL    HW222083   3.447   2.682   6.705  0.7659 -1.5891  0.2336
 3542SOL     OW22084   2.438   0.110  11.318  0.4509 -0.1477  0.1923
 3542SOL    HW122085   2.393   0.185  11.358 -0.0788  0.0380 -0.7803
 3542SOL    HW222086   2.479   0.082  11.401 -0.8046  0.7399  1.1149
 3543SOL     OW22087   1.196   0.226   8.944  0.5714  0.5784 -0.3138
 3543SOL    HW122088   1.125   0.290   8.940 -0.3429 -0.3711  0.6561
 3543SOL    HW222089   1.273   0.279   8.966  1.6199 -1.8467  1.8406
 3544SOL     OW22090   2.024   3.434  11.798 -0.1771 -0.1942 -0.1260
 3544SOL    HW122091   2.027   3.432  11.702  0.5819  2.3493 -0.1553
 3544SOL    HW222092   2.091   3.496  11.827 -1.7085  1.1000  0.6555
 3545SOL     OW22093   3.791   3.968  16.404  0.5155 -0.8220 -0.3813
 3545SOL    HW122094   3.754   4.022  16.334  0.0396 -1.2190 -0.4382
 3545SOL    HW222095   3.776   3.879  16.370 -0.7188 -0.9308  0.4441
 3546SOL     OW22096   0.263   3.211   7.886 -0.4226 -0.2363  0.1684
 3546SOL    HW122097   0.200   3.265   7.933  0.1519  0.2071  0.4408
 3546SOL    HW222098   0.211   3.165   7.821  1.8669  0.0233 -1.8385
 3547SOL     OW22099   4.036   4.137  12.706 -0.4712 -0.0492 -0.5504
 3547SOL    HW122100   4.125   4.152  12.738 -0.4526 -2.3882  0.5232
 3547SOL    HW222101   4.055   4.043  12.716 -0.6695  0.1453  1.7031
 3548SOL     OW22102   0.685   0.023   8.808 -0.3493 -0.3065  0.4519
 3548SOL    HW122103   0.716   0.059   8.891 -1.3044  0.8577  0.2890
 3548SOL    HW222104   0.618   0.090   8.795 -0.0084  0.1830  1.2682
 3549SOL     OW22105   2.598   3.840   5.965  0.2098 -0.3112  0.0040
 3549SOL    HW122106   2.656   3.788   5.910 -0.7735  0.2507 -1.5660
 3549SOL    HW222107   2.516   3.794   5.947  0.3190 -1.5912  2.7567
 3550SOL     OW22108   4.437   0.118   3.806 -0.0211  0.2165 -0.3408
 3550SOL    HW122109   4.389   0.136   3.726 -1.6122  1.5920  0.9296
 3550SOL    HW222110   4.511   0.175   3.784 -0.2668  0.1390 -1.3499
 3551SOL     OW22111   2.680   2.449   1.828  0.6455  0.5540  0.2488
 3551SOL    HW122112   2.751   2.437   1.766 -0.0733 -0.7255 -0.3287
 3551SOL    HW222113   2.686   2.367   1.878 -0.0768  1.4411  1.7995
 3552SOL     OW22114   2.715   3.315   0.655  0.1483 -0.3105 -0.1741
 3552SOL    HW122115   2.641   3.304   0.595  0.1095 -0.8556 -0.0285
 3552SOL    HW222116   2.744   3.403   0.632 -2.2629  0.3376 -0.7515
 3553SOL     OW22117   0.425   1.620   1.354  0.0378 -0.3609  0.4873
 3553SOL    HW122118   0.370   1.543   1.345 -0.1457 -0.2715  0.8456
 3553SOL    HW222119   0.428   1.657   1.266 -1.6095 -1.3571  0.0141
 3554SOL     OW22120   2.060   4.040   1.133 -0.0343  0.3044  0.2293
 3554SOL    HW122121   2.070   3.945   1.124  0.8397  0.5242 -1.0120
 3554SOL    HW222122   2.100   4.050   1.219 -0.1053  1.8688  0.0799
 3555SOL     OW22123   2.854   0.914  15.622  0.0061  0.7287 -0.2201
 3555SOL    HW122124   2.779   0.971  15.604 -0.0332  0.4823 -0.8495
 3555SOL    HW222125   2.885   0.908  15.532 -0.7580  1.3199 -0.5231
 3556SOL     OW22126   0.040   2.725   2.966  0.1611 -0.0733  0.3957
 3556SOL    HW122127   0.038   2.820   2.956  0.1507 -0.1973 -0.8259
 3556SOL    HW222128   0.058   2.707   3.058  0.9860  0.4035  0.3286
 3557SOL     OW22129   1.023   4.459  11.445 -0.3261  0.3453  0.4340
 3557SOL    HW122130   0.955   4.401  11.481 -3.1667  1.7925 -2.5575
 3557SOL    HW222131   1.071   4.467  11.527 -0.0950 -0.7876  0.4061
 3558SOL     OW22132   1.147   3.669   8.471 -0.6401 -0.4108 -0.2751
 3558SOL    HW122133   1.226   3.658   8.524  0.1015 -1.0288 -1.5131
 3558SOL    HW222134   1.097   3.739   8.514 -0.8754 -1.0081  0.4122
 3559SOL     OW22135   0.571   0.141  17.054 -0.0117 -0.2648 -0.3456
 3559SOL    HW122136   0.554   0.200  16.980 -1.1654 -1.7300 -1.2467
 3559SOL    HW222137   0.664   0.164  17.055  0.0682 -0.6148  0.0502
 3560SOL     OW22138   0.347   0.846   5.054 -0.3382 -0.0542  0.2740
 3560SOL    HW122139   0.361   0.940   5.045  2.0147 -0.4290 -0.0642
 3560SOL    HW222140   0.359   0.813   4.965 -0.1014  1.6354 -0.3057
 3561SOL     OW22141   1.295   3.938   8.409 -0.1715  0.0641  0.3550
 3561SOL    HW122142   1.253   3.875   8.468 -0.4305  1.3230  1.5150
 3561SOL    HW222143   1.317   4.006   8.473  0.2200  1.0077 -0.7817
 3562SOL     OW22144   3.155   1.371   8.908 -0.0059 -0.0654  0.4449
 3562SOL    HW122145   3.220   1.427   8.950  0.7520  1.1033 -2.2643
 3562SOL    HW222146   3.086   1.437   8.900  0.9665  0.8103 -0.6450
 3563SOL     OW22147   0.028   3.838  13.126  0.0686 -0.1177 -0.2910
 3563SOL    HW122148   0.097   3.900  13.102 -0.1194 -0.1183 -0.8258
 3563SOL    HW222149   0.029   3.779  13.051  1.6031 -1.6514  0.9111
 3564SOL     OW22150   1.662   1.514   9.162 -0.4088 -0.5862 -0.9052
 3564SOL    HW122151   1.592   1.579   9.151 -1.2713 -1.2645  0.5388
 3564SOL    HW222152   1.652   1.504   9.257 -0.2195  1.8992 -0.6267
 3565SOL     OW22153   0.260   4.204   6.997 -0.0235  0.0068 -0.2140
 3565SOL    HW122154   0.323   4.270   6.969  0.3607  0.3912  1.5399
 3565SOL    HW222155   0.202   4.197   6.922  0.2000 -1.4192 -0.2590
 3566SOL     OW22156   2.366   2.030   4.639 -0.5355  0.2371 -0.1880
 3566SOL    HW122157   2.316   2.111   4.654  1.1102  1.1207  0.5304
 3566SOL    HW222158   2.364   2.037   4.544 -1.0657  0.7965 -0.1380
 3567SOL     OW22159   4.007   4.020   4.640  0.7310 -0.1866 -0.0347
 3567SOL    HW122160   3.918   4.007   4.606  0.8694  1.4134 -1.0397
 3567SOL    HW222161   4.044   3.932   4.638  0.0286 -0.4559 -1.6536
 3568SOL     OW22162   4.691   1.004   7.973  0.3085 -0.2219  0.3309
 3568SOL    HW122163   4.662   1.067   8.039  0.5049  1.7303 -1.4216
 3568SOL    HW222164   0.036   1.050   7.925 -0.7921  0.4676 -0.5774
 3569SOL     OW22165   2.762   4.651   3.615  0.9306  0.2093  0.7267
 3569SOL    HW122166   2.714   4.638   3.533  0.4152  1.9269  0.7542
 3569SOL    HW222167   2.708   4.719   3.655 -1.4692 -1.7347  0.8463
 3570SOL     OW22168   0.120   3.029  16.429  0.4604 -0.2184  0.2743
 3570SOL    HW122169   0.087   3.025  16.339  1.6675  0.7742 -0.1995
 3570SOL    HW222170   0.044   2.999  16.479  1.4394 -1.8494  0.7619
 3571SOL     OW22171   3.215   0.630  12.248  0.1901  0.6759 -0.0455
 3571SOL    HW122172   3.178   0.573  12.315 -0.3465 -0.8888 -1.6896
 3571SOL    HW222173   3.168   0.710  12.274 -0.8497 -1.0756  3.5773
 3572SOL     OW22174   1.845   0.167  11.451 -0.2726 -0.1124 -0.0591
 3572SOL    HW122175   1.848   0.123  11.536 -1.0956  0.3289  0.2013
 3572SOL    HW222176   1.761   0.213  11.457 -0.4433 -0.4874  0.4554
 3573SOL     OW22177   3.610   2.890  16.408  0.0003 -0.1179  0.1209
 3573SOL    HW122178   3.612   2.979  16.445  1.8558  0.6219 -1.7618
 3573SOL    HW222179   3.556   2.841  16.470 -2.0897  1.1407 -0.7171
 3574SOL     OW22180   1.422   0.005   2.493 -1.2512 -0.5930 -0.4314
 3574SOL    HW122181   1.357   4.665   2.523  0.4700 -1.9935  0.3273
 3574SOL    HW222182   1.406   4.713   2.400 -1.5420  1.0007 -0.6421
 3575SOL     OW22183   0.128   1.549   2.562  0.0010  0.3236 -0.0143
 3575SOL    HW122184   0.081   1.622   2.522 -0.6130  1.3889  2.6567
 3575SOL    HW222185   0.108   1.561   2.655  1.1076  0.6209  0.1848
 3576SOL     OW22186   1.826   1.643   9.445 -0.6385 -0.1902  0.4467
 3576SOL    HW122187   1.740   1.604   9.431 -0.6285 -0.3903  0.9570
 3576SOL    HW222188   1.871   1.602   9.372 -0.5274  0.9910 -0.1536
 3577SOL     OW22189   2.682   0.589   2.544  0.0129  0.0991 -0.3099
 3577SOL    HW122190   2.670   0.552   2.457 -3.0051 -0.7032  0.4154
 3577SOL    HW222191   2.630   0.529   2.597 -0.9589 -0.9435 -2.4675
 3578SOL     OW22192   2.482   4.649   5.803  0.6691  0.2306  0.0912
 3578SOL    HW122193   2.489   4.641   5.708  0.4530  1.1740 -0.0071
 3578SOL    HW222194   2.560   4.700   5.826 -1.0842  3.3345 -0.7930
 3579SOL     OW22195   3.733   0.328   5.375  0.6548  0.1444 -0.2602
 3579SOL    HW122196   3.704   0.409   5.333  0.6594 -0.0708 -0.6772
 3579SOL    HW222197   3.812   0.306   5.325  0.2381  0.8430 -1.2341
 3580SOL     OW22198   2.208   0.104   3.726  0.4997 -0.2194  0.4243
 3580SOL    HW122199   2.187   0.088   3.818  1.4354  0.0471  0.6919
 3580SOL    HW222200   2.121   0.095   3.689  0.2262 -1.8298  1.4344
 3581SOL     OW22201   2.239   3.547   3.748 -0.3072 -0.2770  0.1745
 3581SOL    HW122202   2.300   3.513   3.683 -1.9236 -3.0271  0.0608
 3581SOL    HW222203   2.162   3.510   3.704 -0.5532 -0.7831  1.0196
 3582SOL     OW22204   1.509   1.017  16.754 -0.0109 -0.5032  0.3168
 3582SOL    HW122205   1.536   1.055  16.670 -4.3721 -2.0595 -1.8271
 3582SOL    HW222206   1.447   1.080  16.789 -0.2489 -1.2552  1.2414
 3583SOL     OW22207   0.277   2.824   7.549  0.6594  0.0872 -0.1725
 3583SOL    HW122208   0.224   2.851   7.474 -1.5949  0.7114  1.6645
 3583SOL    HW222209   0.340   2.896   7.557 -0.8127  1.4213 -0.6196
 3584SOL     OW22210   4.063   3.966   2.001  0.0937 -0.2895 -0.3189
 3584SOL    HW122211   4.014   3.893   2.039  4.5211 -3.7376 -1.2554
 3584SOL    HW222212   4.031   3.949   1.912 -0.6897  2.3521 -0.5507
 3585SOL     OW22213   1.113   2.804   4.421 -0.3537  0.0101  0.3463
 3585SOL    HW122214   1.172   2.734   4.393 -0.6414  0.0610 -0.3915
 3585SOL    HW222215   1.151   2.876   4.371 -1.4795 -0.4975 -1.2465
 3586SOL     OW22216   0.347   0.966  12.916  0.1207  0.0692  0.2555
 3586SOL    HW122217   0.311   0.949  13.003 -1.2584  0.7602 -0.1708
 3586SOL    HW222218   0.266   0.998  12.876 -0.5483 -0.0120  1.5663
 3587SOL     OW22219   3.843   2.431   6.145 -0.1489  0.4673 -0.0731
 3587SOL    HW122220   3.830   2.470   6.231 -0.5046  0.4923 -0.1368
 3587SOL    HW222221   3.834   2.339   6.167  0.0941  0.4447 -0.0770
 3588SOL     OW22222   1.277   1.963  10.019  0.3396 -0.1398 -0.6573
 3588SOL    HW122223   1.305   1.918  10.099  0.0554  0.4466 -0.2202
 3588SOL    HW222224   1.338   1.920   9.960 -0.1753 -1.7353 -0.0202
 3589SOL     OW22225   4.102   2.548   3.590  0.2686  0.2917  0.0184
 3589SOL    HW122226   4.198   2.552   3.589  0.2439  1.5549  2.3405
 3589SOL    HW222227   4.075   2.616   3.528  4.1595  0.3478 -1.6583
 3590SOL     OW22228   4.722   3.414   6.760  0.3874  0.1679 -0.2743
 3590SOL    HW122229   0.046   3.438   6.680  1.7334  0.5745  0.6640
 3590SOL    HW222230   4.673   3.492   6.783  1.9235  0.7419  1.0566
 3591SOL     OW22231   1.651   4.347   2.509 -0.5778 -0.2997 -0.4629
 3591SOL    HW122232   1.607   4.289   2.572 -0.1585 -0.0631  0.0505
 3591SOL    HW222233   1.705   4.394   2.573 -0.3201 -2.4166  0.8805
 3592SOL     OW22234   3.503   3.155   4.325  0.3699 -0.1701  0.3572
 3592SOL    HW122235   3.425   3.208   4.308  0.8889  0.4743 -0.0185
 3592SOL    HW222236   3.542   3.143   4.239 -0.6849  0.5002 -0.2127
 3593SOL     OW22237   0.898   2.710   7.120  0.2471 -0.1376 -0.2096
 3593SOL    HW122238   0.974   2.755   7.157 -0.9864  2.1250 -0.3708
 3593SOL    HW222239   0.909   2.622   7.154  1.9175 -0.6554 -2.1225
 3594SOL     OW22240   2.631   3.420   8.544  0.2443  0.1143 -0.3869
 3594SOL    HW122241   2.654   3.506   8.509 -0.4551  0.5576  0.2491
 3594SOL    HW222242   2.582   3.373   8.476 -0.9011 -1.6213  1.6383
 3595SOL     OW22243   4.183   2.831   2.725 -0.3886  0.4923  0.1408
 3595SOL    HW122244   4.157   2.768   2.658  0.5683  2.1156 -1.7489
 3595SOL    HW222245   4.250   2.886   2.685 -0.6910  0.0639 -0.9376
 3596SOL     OW22246   0.379   1.810   1.579 -0.6567 -0.1975  0.2048
 3596SOL    HW122247   0.284   1.820   1.579 -0.5042  1.6311 -3.0966
 3596SOL    HW222248   0.386   1.728   1.531  0.8902 -0.0698  0.2074
 3597SOL     OW22249   1.012   2.530   8.524 -0.0949  0.2549  0.1397
 3597SOL    HW122250   1.055   2.568   8.601  3.3944  0.6521 -2.0277
 3597SOL    HW222251   1.059   2.450   8.498 -1.4437 -0.4440 -0.1304
 3598SOL     OW22252   1.756   2.969   2.684 -0.0165  0.1345  0.1642
 3598SOL    HW122253   1.724   3.050   2.644 -0.2946 -0.2882 -0.4704
 3598SOL    HW222254   1.713   2.977   2.769 -1.6623 -0.3187 -0.6182
 3599SOL     OW22255   3.651   4.534   2.797 -0.1614 -0.6202 -0.0065
 3599SOL    HW122256   3.724   4.588   2.767  0.8861 -1.7227  0.5672
 3599SOL    HW222257   3.623   4.498   2.712 -2.7371  0.1695  0.5262
 3600SOL     OW22258   0.558   0.155   6.149 -0.2195  0.2671 -0.0752
 3600SOL    HW122259   0.599   0.201   6.222  0.9673  0.0999 -0.6267
 3600SOL    HW222260   0.618   0.131   6.078 -1.1623 -0.3073 -0.6849
 3601SOL     OW22261   1.278   0.853   6.235 -0.3112 -0.8024 -0.3653
 3601SOL    HW122262   1.323   0.817   6.311  0.0935 -0.3283 -0.3808
 3601SOL    HW222263   1.208   0.788   6.229 -1.5558  0.5025  0.1313
 3602SOL     OW22264   1.798   3.256  16.839  0.0487 -0.1451 -0.1532
 3602SOL    HW122265   1.797   3.218  16.752  1.0929 -1.3667  0.3706
 3602SOL    HW222266   1.814   3.187  16.903 -1.6000  1.6095  2.1772
 3603SOL     OW22267   2.213   4.456   3.154  0.7343  0.2060  0.3311
 3603SOL    HW122268   2.250   4.417   3.075  2.4333  0.6219  0.9198
 3603SOL    HW222269   2.230   4.386   3.217 -0.0743  0.6638  1.0591
 3604SOL     OW22270   2.687   1.666   4.763 -0.5491 -0.0990  0.4044
 3604SOL    HW122271   2.655   1.674   4.673 -0.1340  1.2931  0.3730
 3604SOL    HW222272   2.691   1.571   4.768  2.8677 -0.0057 -0.1747
 3605SOL     OW22273   1.635   1.155  10.427 -0.4822 -0.2389  0.7038
 3605SOL    HW122274   1.658   1.203  10.348 -2.5859 -0.2968  0.0545
 3605SOL    HW222275   1.710   1.095  10.426  0.2342  0.6477  1.0686
 3606SOL     OW22276   4.127   3.821   0.231  0.4093  0.3694  0.5125
 3606SOL    HW122277   4.118   3.761   0.157 -0.3477  1.2553 -0.1025
 3606SOL    HW222278   4.122   3.756   0.301 -0.3488  0.0197  0.1323
 3607SOL     OW22279   1.206   4.268   0.646 -0.3016  0.0210 -0.3386
 3607SOL    HW122280   1.284   4.248   0.697 -2.1898 -2.3905  1.5839
 3607SOL    HW222281   1.201   4.361   0.667  1.6275  0.2735 -1.0413
 3608SOL     OW22282   4.491   2.207   6.808  0.1113 -0.3164 -0.2245
 3608SOL    HW122283   4.569   2.164   6.843 -1.2413 -0.5755  2.4547
 3608SOL    HW222284   4.427   2.184   6.876 -0.0872 -1.0963 -0.6710
 3609SOL     OW22285   0.648   3.519   5.798 -0.0100  0.4246  0.0199
 3609SOL    HW122286   0.695   3.570   5.732 -1.4099  1.8887  0.1722
 3609SOL    HW222287   0.675   3.557   5.881 -0.3436 -0.1874  0.4114
 3610SOL     OW22288   1.556   1.631   8.358  0.2950 -0.0624  0.2917
 3610SOL    HW122289   1.499   1.573   8.408  1.3198 -0.3447  1.1275
 3610SOL    HW222290   1.630   1.648   8.417  1.5640 -2.6216 -0.5767
 3611SOL     OW22291   0.779   1.960   2.970  0.0949 -0.6505  0.2660
 3611SOL    HW122292   0.836   1.915   2.908 -0.4731 -0.0168 -0.7242
 3611SOL    HW222293   0.742   2.039   2.930  2.0501 -0.3916 -0.9996
 3612SOL     OW22294   2.048   3.389   1.735  0.1517 -0.0950 -0.2703
 3612SOL    HW122295   2.078   3.382   1.644  0.5435  0.8043 -0.2105
 3612SOL    HW222296   2.124   3.353   1.781  0.6248 -0.4306 -1.3158
 3613SOL     OW22297   3.513   0.660   2.863 -0.5295  0.2615  0.2498
 3613SOL    HW122298   3.575   0.703   2.805  1.5796 -0.2118  2.1451
 3613SOL    HW222299   3.437   0.717   2.857  0.2012  1.2231  0.2097
 3614SOL     OW22300   2.053   1.386   6.856  0.3439  0.5617  0.0201
 3614SOL    HW122301   2.022   1.350   6.773  3.3540 -2.7461  0.3382
 3614SOL    HW222302   2.057   1.310   6.914  2.2226 -1.9403 -3.3805
 3615SOL     OW22303   0.984   3.841   7.690 -0.1260  0.1831  0.3568
 3615SOL    HW122304   0.928   3.908   7.651 -1.3306  1.2052  3.8662
 3615SOL    HW222305   0.991   3.883   7.776 -2.3034 -0.7621  1.0049
 3616SOL     OW22306   2.838   2.988  10.537  0.6544  0.0330 -0.5076
 3616SOL    HW122307   2.923   2.958  10.570  1.2719  2.0712 -0.2192
 3616SOL    HW222308   2.866   3.062  10.483  2.5310 -0.4404 -0.1740
 3617SOL     OW22309   3.852   3.603   8.045 -0.0889 -0.4831  0.1699
 3617SOL    HW122310   3.823   3.596   7.954  0.9879  0.1768 -0.2270
 3617SOL    HW222311   3.800   3.679   8.071  1.5597  0.9519 -0.6646
 3618SOL     OW22312   0.675   4.710   6.730 -0.1470  0.1761 -0.3722
 3618SOL    HW122313   0.629   4.707   6.646 -1.3668 -0.2740  0.3121
 3618SOL    HW222314   0.715   4.623   6.728  0.1633  0.3972 -4.0181
 3619SOL     OW22315   2.395   2.715   4.238 -0.2132  0.6850  0.2280
 3619SOL    HW122316   2.372   2.804   4.212 -1.7190 -0.3962 -2.1424
 3619SOL    HW222317   2.313   2.671   4.215  0.3627 -1.7234  2.7601
 3620SOL     OW22318   4.057   3.278   2.516 -0.9225 -0.8379 -0.4028
 3620SOL    HW122319   4.120   3.211   2.489 -0.6636 -0.3058 -1.1421
 3620SOL    HW222320   3.977   3.227   2.502 -1.2254 -0.2470 -0.8377
 3621SOL     OW22321   1.382   1.645   9.819  0.6549 -0.1398  0.1746
 3621SOL    HW122322   1.434   1.567   9.840 -1.3105 -1.9771 -1.7413
 3621SOL    HW222323   1.449   1.703   9.853 -0.8533  0.0688  2.8603
 3622SOL     OW22324   3.249   2.379   2.906  0.6694 -0.0132  0.3155
 3622SOL    HW122325   3.300   2.374   2.825 -1.0367 -0.4416 -0.7386
 3622SOL    HW222326   3.213   2.291   2.918 -1.7336  0.7965 -0.9641
 3623SOL     OW22327   2.823   1.040  10.295  0.4747 -0.4339 -1.3394
 3623SOL    HW122328   2.774   0.969  10.254 -0.1893 -1.1098  0.6342
 3623SOL    HW222329   2.788   1.026  10.383  0.8117  0.3828 -1.0793
 3624SOL     OW22330   3.073   3.142   0.534 -0.0053  0.3402  0.1969
 3624SOL    HW122331   3.105   3.134   0.624 -1.5043  1.0280  0.7925
 3624SOL    HW222332   3.102   3.231   0.512  0.7761  0.0582  0.0701
 3625SOL     OW22333   0.979   1.744   0.962  0.6203 -0.1149 -0.1627
 3625SOL    HW122334   0.910   1.738   1.028  0.1560  0.6680 -0.5668
 3625SOL    HW222335   0.946   1.825   0.923 -0.2886  0.2008  1.2622
 3626SOL     OW22336   3.330   3.909   3.074  0.2223 -0.4919  0.1085
 3626SOL    HW122337   3.374   3.984   3.115 -2.0043  0.5116  0.6878
 3626SOL    HW222338   3.408   3.860   3.048 -0.5550 -1.1932 -0.8986
 3627SOL     OW22339   3.591   0.947   2.313 -0.2796  0.2314  0.3424
 3627SOL    HW122340   3.614   1.015   2.249 -0.3655  1.4575  1.6236
 3627SOL    HW222341   3.563   0.874   2.258 -0.9211  0.1428  0.7829
 3628SOL     OW22342   2.113   1.212   7.652 -1.1741 -0.0048  0.2295
 3628SOL    HW122343   2.051   1.282   7.635 -1.2634 -0.3773 -0.9929
 3628SOL    HW222344   2.099   1.160   7.573  1.5166 -0.4215  0.0131
 3629SOL     OW22345   4.360   4.294   6.709  0.0884 -0.3472  0.1092
 3629SOL    HW122346   4.270   4.279   6.735  0.2770 -0.5911  0.6305
 3629SOL    HW222347   4.364   4.387   6.730 -0.2497 -0.0777 -1.0377
 3630SOL     OW22348   1.679   4.521   7.177 -0.3613 -0.5799  0.2730
 3630SOL    HW122349   1.772   4.505   7.193 -0.5762 -1.8324  0.3039
 3630SOL    HW222350   1.675   4.571   7.095 -0.0453 -0.5736  0.2624
 3631SOL     OW22351   1.226   4.092   2.209  0.0035 -0.0971 -0.3862
 3631SOL    HW122352   1.256   4.148   2.282  0.2996 -0.0111 -0.5724
 3631SOL    HW222353   1.305   4.086   2.155 -0.3608 -0.9210 -0.8159
 3632SOL     OW22354   4.029   2.592   8.292 -0.2326 -0.0072 -0.0523
 3632SOL    HW122355   4.079   2.636   8.361  1.3071 -0.2906 -0.9960
 3632SOL    HW222356   4.076   2.509   8.286  1.7224  1.0073  1.1722
 3633SOL     OW22357   1.439   0.150   2.005  0.0114  0.0209  0.5110
 3633SOL    HW122358   1.519   0.182   2.047 -0.4505 -0.3434  1.6578
 3633SOL    HW222359   1.472   0.062   1.985 -0.8282 -1.0358  3.7289
 3634SOL     OW22360   0.649   3.622  16.153 -0.0469  0.1190 -0.0288
 3634SOL    HW122361   0.582   3.690  16.152  2.8002  2.9116 -1.2437
 3634SOL    HW222362   0.593   3.545  16.145  2.1132 -1.4249 -0.4240
 3635SOL     OW22363   0.846   0.912   9.403 -0.0728  0.1250 -0.2953
 3635SOL    HW122364   0.751   0.913   9.405 -0.1311 -2.0522 -1.6520
 3635SOL    HW222365   0.854   0.869   9.489 -0.7749  0.2672 -0.1576
 3636SOL     OW22366   2.338   2.436   5.578 -0.2350 -0.0280  0.4243
 3636SOL    HW122367   2.335   2.374   5.651  1.3032  0.0029  0.5207
 3636SOL    HW222368   2.277   2.500   5.612 -1.1674 -0.4566 -0.4269
 3637SOL     OW22369   3.925   0.104   2.462 -0.1253 -1.0239  0.0280
 3637SOL    HW122370   3.980   0.140   2.531  0.4951 -3.1288  0.6437
 3637SOL    HW222371   3.852   0.166   2.465 -0.2090 -1.0817 -0.7943
 3638SOL     OW22372   4.209   1.408   4.567 -0.1161  0.0889 -0.0747
 3638SOL    HW122373   4.301   1.435   4.572 -0.1698  0.2597  0.0019
 3638SOL    HW222374   4.190   1.372   4.654 -0.3389 -2.2244 -1.0751
 3639SOL     OW22375   0.606   0.083   0.769  0.0642 -0.3019 -0.5024
 3639SOL    HW122376   0.569   0.159   0.813  0.4193 -0.3317 -0.1571
 3639SOL    HW222377   0.565   0.008   0.812 -0.4330  0.3347  0.1426
 3640SOL     OW22378   2.732   1.831  12.184 -0.2180 -0.7082 -0.1999
 3640SOL    HW122379   2.763   1.876  12.105  1.7850 -1.4952  0.1282
 3640SOL    HW222380   2.787   1.753  12.176 -0.3760 -0.7774 -0.6062
 3641SOL     OW22381   1.329   4.203   5.172  0.1481 -0.8196  0.5327
 3641SOL    HW122382   1.257   4.265   5.163  2.2645  1.9887  2.7386
 3641SOL    HW222383   1.310   4.142   5.101  0.0130  0.4890 -0.5697
 3642SOL     OW22384   1.865   0.916  12.600  0.1629  0.3244  0.2656
 3642SOL    HW122385   1.881   0.859  12.525  1.1403 -1.2510  1.6640
 3642SOL    HW222386   1.859   0.998  12.552 -0.0558 -0.2127 -0.6199
 3643SOL     OW22387   2.820   3.361  12.376  0.2863  0.0638  0.5570
 3643SOL    HW122388   2.862   3.423  12.315  0.8763 -1.3713 -0.4968
 3643SOL    HW222389   2.811   3.285  12.319 -2.9653  0.9163 -0.0704
 3644SOL     OW22390   3.814   0.647   6.827 -0.6516 -0.5926  0.4368
 3644SOL    HW122391   3.840   0.669   6.738  2.1012 -0.5245  1.2763
 3644SOL    HW222392   3.886   0.666   6.887 -1.0414  1.6217  0.2110
 3645SOL     OW22393   1.246   2.029   9.441 -0.2198 -0.1370  0.2696
 3645SOL    HW122394   1.333   2.011   9.476  0.5284  0.1129 -1.4589
 3645SOL    HW222395   1.225   2.094   9.508 -2.0446 -1.2356  0.7697
 3646SOL     OW22396   1.829   0.966   6.132 -0.0896 -0.2772 -0.4013
 3646SOL    HW122397   1.740   0.994   6.110 -0.4750 -1.6084 -0.5108
 3646SOL    HW222398   1.850   0.916   6.054  1.9561  1.4183 -0.9207
 3647SOL     OW22399   1.010   0.512   5.864  0.2415 -0.7474  0.5485
 3647SOL    HW122400   0.959   0.433   5.880  3.1067 -3.3968 -3.3432
 3647SOL    HW222401   1.087   0.469   5.826 -0.2703  0.0972 -1.4369
 3648SOL     OW22402   0.833   2.023   6.160  0.3177  0.1232  0.3787
 3648SOL    HW122403   0.820   2.027   6.065 -0.7900 -0.3057  0.5097
 3648SOL    HW222404   0.927   2.008   6.168  0.5573  1.2764 -0.2625
 3649SOL     OW22405   0.767   1.122  11.757  0.3394  0.1503 -0.2055
 3649SOL    HW122406   0.833   1.054  11.775  3.2483  3.1873  0.6586
 3649SOL    HW222407   0.800   1.137  11.668 -1.3224 -2.3134 -1.2258
 3650SOL     OW22408   3.909   1.070   8.657 -0.6762 -0.1684 -0.1332
 3650SOL    HW122409   3.952   0.985   8.662 -0.0647  0.0955 -0.8303
 3650SOL    HW222410   3.974   1.113   8.600 -0.4556 -0.9038 -0.4339
 3651SOL     OW22411   0.343   3.032  15.582  0.6783  0.7551 -0.1311
 3651SOL    HW122412   0.284   3.007  15.653  1.7554  0.9650  0.8389
 3651SOL    HW222413   0.314   3.120  15.560 -0.4106  0.6854  1.0379
 3652SOL     OW22414   2.590   1.794   2.800  0.3051 -0.5465 -0.1844
 3652SOL    HW122415   2.592   1.699   2.810 -0.0255 -0.4920  0.3658
 3652SOL    HW222416   2.681   1.819   2.784 -0.5516  1.1807 -2.5136
 3653SOL     OW22417   2.990   3.135   6.573  0.4638 -0.0339 -0.1669
 3653SOL    HW122418   2.910   3.133   6.626  1.6041 -2.5343  1.4611
 3653SOL    HW222419   3.042   3.074   6.625 -0.1938 -1.7205 -1.5003
 3654SOL     OW22420   0.409   0.480   3.581  0.3341  0.0173 -0.3576
 3654SOL    HW122421   0.481   0.421   3.558  0.5198 -0.4341  1.4179
 3654SOL    HW222422   0.421   0.553   3.520 -1.3937  0.1208 -0.5797
 3655SOL     OW22423   4.688   4.425   4.595 -0.6198  0.5565  0.2308
 3655SOL    HW122424   4.603   4.403   4.556 -0.0712 -1.6557  0.3064
 3655SOL    HW222425   4.689   4.521   4.588 -1.6142  0.5555  0.0748
 3656SOL     OW22426   0.198   1.542   7.203  0.3416  0.0513  0.4752
 3656SOL    HW122427   0.126   1.511   7.148 -0.5096 -0.7005  2.0005
 3656SOL    HW222428   0.202   1.635   7.181 -2.4111 -0.2018 -1.1457
 3657SOL     OW22429   3.202   3.676   6.544  0.0381 -0.7501 -0.1944
 3657SOL    HW122430   3.110   3.651   6.546 -0.1737  0.0681  0.1135
 3657SOL    HW222431   3.214   3.727   6.624 -1.3026  2.2288 -1.9173
 3658SOL     OW22432   2.466   1.969   5.817  0.2819 -0.1324 -0.3468
 3658SOL    HW122433   2.445   1.890   5.867 -0.2914 -0.2767 -0.8121
 3658SOL    HW222434   2.391   1.960   5.758 -1.1630  0.3566  1.4323
 3659SOL     OW22435   2.754   0.728   9.476 -0.0090  0.4671  0.0373
 3659SOL    HW122436   2.750   0.818   9.507 -0.8182  0.0593  1.1037
 3659SOL    HW222437   2.694   0.732   9.402 -0.3231 -0.1320  0.2562
 3660SOL     OW22438   1.713   2.321   8.349 -0.0114 -0.1474  0.0398
 3660SOL    HW122439   1.804   2.345   8.360 -0.4901  1.5197  0.3746
 3660SOL    HW222440   1.686   2.307   8.440 -0.2619  1.1907  0.1736
 3661SOL     OW22441   2.710   2.899   6.955 -0.1222  0.2457  0.1678
 3661SOL    HW122442   2.649   2.914   7.028  0.1301 -2.2705  0.8845
 3661SOL    HW222443   2.675   2.813   6.931 -2.9612  1.7384 -1.0029
 3662SOL     OW22444   4.618   1.172   8.187  0.0631  0.0991  0.3772
 3662SOL    HW122445   4.550   1.237   8.205 -0.2646 -0.0099 -0.4825
 3662SOL    HW222446   4.583   1.092   8.224  0.5635  0.1591  0.9795
 3663SOL     OW22447   0.329   3.536   6.955 -0.0790  0.2560  0.3263
 3663SOL    HW122448   0.417   3.545   6.918 -0.3413  0.5233 -0.2201
 3663SOL    HW222449   0.286   3.495   6.880  2.0481 -1.0362 -0.1888
 3664SOL     OW22450   0.311   2.256   7.153  1.5215 -0.7361  0.0919
 3664SOL    HW122451   0.332   2.208   7.073 -0.6700 -2.1376  0.3514
 3664SOL    HW222452   0.232   2.303   7.126  1.0389 -1.9075 -0.5232
 3665SOL     OW22453   2.622   2.111   0.044 -0.0909 -0.2833 -0.7068
 3665SOL    HW122454   2.578   2.072   0.120  2.7794  0.1561  1.1844
 3665SOL    HW222455   2.614   2.037  17.681  0.8294  0.0507 -1.2385
 3666SOL     OW22456   2.850   2.789  14.840 -0.3338  0.1233 -0.4277
 3666SOL    HW122457   2.758   2.771  14.857 -0.3254  0.4828 -0.0197
 3666SOL    HW222458   2.851   2.737  14.759  2.7455 -0.4613 -0.0040
 3667SOL     OW22459   1.701   2.885  11.465 -0.5708  0.1035 -0.1202
 3667SOL    HW122460   1.712   2.970  11.508 -0.0192  0.2060 -0.4597
 3667SOL    HW222461   1.675   2.822  11.532  0.9742 -0.3358  0.0715
 3668SOL     OW22462   0.720   1.310  15.806 -0.5082 -0.5603 -0.1270
 3668SOL    HW122463   0.757   1.227  15.777  1.0218  0.4683 -1.0833
 3668SOL    HW222464   0.777   1.325  15.882  1.0498 -0.1062 -1.3862
 3669SOL     OW22465   3.843   3.202  11.847 -0.6970 -0.5423 -0.1528
 3669SOL    HW122466   3.820   3.123  11.897 -1.4959 -0.9995 -1.2382
 3669SOL    HW222467   3.913   3.243  11.896  0.9370 -1.8667 -1.3737
 3670SOL     OW22468   2.119   0.264  14.283  0.2425 -0.3833 -0.3029
 3670SOL    HW122469   2.132   0.340  14.226 -1.3705 -0.2220 -0.4496
 3670SOL    HW222470   2.127   0.288  14.375  2.4652 -1.7730 -0.1158
 3671SOL     OW22471   1.372   2.367   9.141  0.5468  0.0528 -0.1537
 3671SOL    HW122472   1.305   2.299   9.134 -0.2170  0.9101 -1.0772
 3671SOL    HW222473   1.442   2.335   9.084 -0.4328 -0.9291 -0.8034
 3672SOL     OW22474   4.024   2.843   6.539  0.4767  0.2715  0.0307
 3672SOL    HW122475   3.994   2.861   6.628 -1.3864  0.0670 -0.5723
 3672SOL    HW222476   3.946   2.856   6.487  1.4044  1.4295 -1.0630
 3673SOL     OW22477   1.974   4.090   7.266  0.1937  0.1284 -0.0195
 3673SOL    HW122478   1.999   4.128   7.351  2.2800 -0.3084 -0.4380
 3673SOL    HW222479   1.879   4.079   7.275  0.1335  0.2335 -0.5160
 3674SOL     OW22480   3.511   4.569   7.083  0.6396  0.4853 -0.0916
 3674SOL    HW122481   3.458   4.641   7.119 -3.6630 -2.9017  0.4148
 3674SOL    HW222482   3.597   4.599   7.110  1.2603 -3.2532  2.0438
 3675SOL     OW22483   2.392   3.706   6.784  0.4788  0.1785  0.0504
 3675SOL    HW122484   2.408   3.773   6.718  1.1127 -1.8688 -1.8884
 3675SOL    HW222485   2.301   3.722   6.809  0.2863 -1.0652  0.1731
 3676SOL     OW22486   3.799   2.918  17.461 -0.0444  0.0987 -0.2610
 3676SOL    HW122487   3.864   2.868  17.411 -0.8678 -0.0452 -1.1763
 3676SOL    HW222488   3.781   2.853  17.529  2.0412 -0.2691 -0.0542
 3677SOL     OW22489   3.209   2.619   3.496 -0.0081  0.2591 -0.3867
 3677SOL    HW122490   3.145   2.578   3.438  0.2408 -2.0644  0.9818
 3677SOL    HW222491   3.278   2.555   3.474 -0.3409  0.1688 -1.1842
 3678SOL     OW22492   0.298   4.656   1.152 -0.4628  0.4381  0.0462
 3678SOL    HW122493   0.272   4.707   1.075 -1.3403  0.8921  0.6393
 3678SOL    HW222494   0.385   4.695   1.163 -0.1697 -0.3251  0.4000
 3679SOL     OW22495   1.828   1.635   4.607 -0.9539 -0.5680  0.2648
 3679SOL    HW122496   1.919   1.657   4.585 -0.6566 -1.8934  0.1258
 3679SOL    HW222497   1.829   1.641   4.702  0.4085 -2.1022  0.3674
 3680SOL     OW22498   2.793   3.622   0.242  0.5496 -0.6016 -0.2417
 3680SOL    HW122499   2.863   3.676   0.277 -1.4777 -0.0661  3.0675
 3680SOL    HW222500   2.722   3.665   0.290  1.5526  0.0974  0.5852
 3681SOL     OW22501   1.277   1.425   4.329  0.0776 -0.5880 -0.1783
 3681SOL    HW122502   1.303   1.341   4.291  0.4901  0.0990 -1.4172
 3681SOL    HW222503   1.266   1.474   4.248  1.2430 -0.1603 -0.0780
 3682SOL     OW22504   1.188   3.023  17.399 -0.1179  0.1358  0.4038
 3682SOL    HW122505   1.265   3.062  17.439  0.4158 -1.4012  0.8686
 3682SOL    HW222506   1.167   2.952  17.460  0.0093 -1.0819 -0.9590
 3683SOL     OW22507   4.315   1.624   4.992  0.4396  0.3808  0.1682
 3683SOL    HW122508   4.351   1.578   5.068  0.6341 -1.5388 -1.0745
 3683SOL    HW222509   4.382   1.693   4.993  0.4866  0.3373 -0.1564
 3684SOL     OW22510   4.629   4.342   5.493  0.3226 -0.3036  0.2471
 3684SOL    HW122511   4.535   4.330   5.510 -0.1911  2.5781 -0.6090
 3684SOL    HW222512   4.632   4.361   5.400 -1.7542  0.3571  0.3090
 3685SOL     OW22513   3.963   0.137  12.661 -0.1675 -0.1678 -0.2197
 3685SOL    HW122514   4.032   0.089  12.615  2.4417  3.4982 -0.1034
 3685SOL    HW222515   3.906   0.155  12.587  0.4805  0.2661 -0.6105
 3686SOL     OW22516   3.392   3.665  16.750  0.2739 -0.6585 -0.1079
 3686SOL    HW122517   3.474   3.620  16.772  0.1452 -2.0335 -2.4965
 3686SOL    HW222518   3.417   3.753  16.780 -0.5475 -0.5445  0.2492
 3687SOL     OW22519   0.904   3.185   1.742  0.5107 -0.4620 -0.1076
 3687SOL    HW122520   0.998   3.173   1.751  0.5513 -0.5015 -0.6039
 3687SOL    HW222521   0.877   3.203   1.832 -0.5733 -0.4650 -0.4295
 3688SOL     OW22522   1.164   1.443   7.183 -0.4661  0.3305 -0.0137
 3688SOL    HW122523   1.071   1.461   7.196  0.3396  2.8951  2.1881
 3688SOL    HW222524   1.180   1.350   7.170 -2.2774 -0.1151  0.9773
 3689SOL     OW22525   4.421   2.203  16.144 -0.1376 -0.9479  0.0671
 3689SOL    HW122526   4.360   2.134  16.169 -0.2717 -0.7695  0.2308
 3689SOL    HW222527   4.352   2.262  16.115 -1.7397 -2.2271  1.3145
 3690SOL     OW22528   2.445   1.918   7.956  0.0930 -0.1350  0.5598
 3690SOL    HW122529   2.464   1.887   8.044  1.4637  0.4103  0.4688
 3690SOL    HW222530   2.401   1.836   7.934 -1.0209  0.8061 -0.6956
 3691SOL     OW22531   1.583   0.936   6.757 -0.6042  0.4358 -0.0634
 3691SOL    HW122532   1.579   1.030   6.739  0.9604  0.7018  0.9475
 3691SOL    HW222533   1.671   0.925   6.794 -0.9257 -0.8877  0.2736
 3692SOL     OW22534   1.337   0.997  11.742 -0.3516 -0.1011  0.2673
 3692SOL    HW122535   1.275   0.988  11.814  0.4019  0.5660  1.0100
 3692SOL    HW222536   1.413   1.040  11.783  0.2087 -0.5083 -0.3466
 3693SOL     OW22537   2.217   1.360   5.001  0.0961 -0.5689  0.0521
 3693SOL    HW122538   2.175   1.446   5.010  1.7997  0.3024 -0.3900
 3693SOL    HW222539   2.146   1.308   5.041 -0.8189  0.5496 -0.0994
 3694SOL     OW22540   2.638   4.010   7.513 -0.5247 -0.3261  0.0404
 3694SOL    HW122541   2.635   4.071   7.587  1.7571  1.3830 -1.2996
 3694SOL    HW222542   2.685   4.065   7.451 -1.7376 -0.5949 -1.1106
 3695SOL     OW22543   0.453   3.024   7.589 -0.2882 -0.5309 -0.3037
 3695SOL    HW122544   0.515   3.033   7.661  0.7879 -1.0062 -1.1873
 3695SOL    HW222545   0.480   3.094   7.529 -0.3265 -1.1903 -1.0936
 3696SOL     OW22546   4.710   2.451  15.209  0.2441  0.0229 -0.0973
 3696SOL    HW122547   0.035   2.373  15.186 -2.1565 -2.0001  1.6622
 3696SOL    HW222548   0.050   2.521  15.197  0.9092 -0.7867 -1.2397
 3697SOL     OW22549   3.084   4.712  16.353 -0.1678 -0.3837 -0.1541
 3697SOL    HW122550   3.130   4.670  16.280  0.8358  2.5049 -1.1547
 3697SOL    HW222551   2.997   0.004  16.318  0.4498  0.3992 -1.3412
 3698SOL     OW22552   1.925   3.990   7.955  0.1863  0.5014 -0.0292
 3698SOL    HW122553   1.845   3.956   7.996  0.3456  0.4168  0.2101
 3698SOL    HW222554   1.964   3.912   7.917 -0.9746 -0.6021  1.0418
 3699SOL     OW22555   3.757   0.654  13.742  0.1151  0.1467  0.1574
 3699SOL    HW122556   3.680   0.658  13.797  1.7856 -1.2753  2.6007
 3699SOL    HW222557   3.802   0.734  13.769  0.1974  0.2371 -0.2419
 3700SOL     OW22558   0.196   1.622   9.332  0.2343  0.5500 -0.3604
 3700SOL    HW122559   0.199   1.600   9.239  1.5579  0.2045 -0.2387
 3700SOL    HW222560   0.104   1.648   9.338 -0.4348 -1.0399 -3.2649
 3701SOL     OW22561   1.991   3.514   1.147 -0.2430  0.4544  0.2948
 3701SOL    HW122562   1.933   3.512   1.071 -0.0533  2.0245  0.1107
 3701SOL    HW222563   2.030   3.427   1.150  0.4034  0.8543  3.2374
 3702SOL     OW22564   0.603   2.001   7.424 -0.3765  0.3417 -0.3379
 3702SOL    HW122565   0.592   2.064   7.352 -0.2262 -1.8061 -2.2250
 3702SOL    HW222566   0.559   2.058   7.487  1.1177  0.2741  0.7794
 3703SOL     OW22567   3.361   3.135   6.226 -0.1139 -0.1818 -0.5387
 3703SOL    HW122568   3.281   3.164   6.183 -0.0202 -1.3483 -1.4961
 3703SOL    HW222569   3.426   3.168   6.164  1.3459 -1.8229  0.1072
 3704SOL     OW22570   0.998   0.528   4.513  0.8088 -0.0985 -0.2379
 3704SOL    HW122571   0.926   0.517   4.451  1.2881 -1.0050 -0.6358
 3704SOL    HW222572   1.065   0.474   4.472  0.5915 -1.8239  1.6270
 3705SOL     OW22573   2.797   3.789   5.237 -0.1674 -0.1151  0.2273
 3705SOL    HW122574   2.726   3.760   5.294  0.6326 -1.1837  0.6976
 3705SOL    HW222575   2.754   3.862   5.193  0.2356 -0.5756 -0.9428
 3706SOL     OW22576   1.487   3.088   4.893  0.7683  0.1400  0.1688
 3706SOL    HW122577   1.538   3.160   4.857  1.4272  0.1195  1.0536
 3706SOL    HW222578   1.454   3.040   4.818  2.4182  1.2447 -1.2567
 3707SOL     OW22579   1.357   1.634   5.929  0.7208 -0.3172 -0.0213
 3707SOL    HW122580   1.275   1.594   5.957  0.4461 -2.2201 -3.6070
 3707SOL    HW222581   1.366   1.593   5.843  2.1763 -0.0914  0.0284
 3708SOL     OW22582   3.073   3.649   1.901  0.0705 -0.0189 -0.4272
 3708SOL    HW122583   3.027   3.706   1.963 -0.9069 -2.8396  1.4740
 3708SOL    HW222584   3.020   3.571   1.882 -0.7617  0.2439  0.8139
 3709SOL     OW22585   3.776   1.932   2.511 -0.1218 -0.0169 -0.5846
 3709SOL    HW122586   3.863   1.964   2.532 -0.2751 -1.2511  2.0328
 3709SOL    HW222587   3.808   1.873   2.443 -1.2012  0.7427 -1.7437
 3710SOL     OW22588   0.091   3.401   9.054 -0.0444  0.5584  0.3259
 3710SOL    HW122589   0.097   3.496   9.058  1.9464  0.3733  1.5610
 3710SOL    HW222590   0.042   3.374   9.132  0.8948 -2.5027 -0.1462
 3711SOL     OW22591   4.504   0.035   2.643  0.3448  0.0645 -0.3578
 3711SOL    HW122592   4.553   4.678   2.635  2.7512  1.5588 -0.8755
 3711SOL    HW222593   4.557   0.108   2.612 -1.0469  0.9771 -0.6176
 3712SOL     OW22594   1.516   4.653   9.364 -0.3174 -0.1180 -0.3517
 3712SOL    HW122595   1.608   4.674   9.348 -0.6525  1.1995 -0.4985
 3712SOL    HW222596   1.499   4.562   9.339  0.2788 -0.2683 -0.2033
 3713SOL     OW22597   4.489   2.221  13.329 -0.0685  0.0200 -0.2191
 3713SOL    HW122598   4.558   2.253  13.389 -0.6793 -0.3086  0.6542
 3713SOL    HW222599   4.408   2.228  13.380 -0.8172 -0.9462 -1.2857
 3714SOL     OW22600   2.348   2.769   3.887  0.0571  0.0929 -0.4325
 3714SOL    HW122601   2.378   2.813   3.966 -0.6756 -0.0240 -0.0913
 3714SOL    HW222602   2.421   2.707   3.874 -0.0720 -0.4329  1.2905
 3715SOL     OW22603   1.699   2.480   2.764 -0.1711  0.6984  0.2579
 3715SOL    HW122604   1.784   2.465   2.805 -0.2082 -1.5944 -0.4725
 3715SOL    HW222605   1.717   2.437   2.680 -1.3508  0.5884  0.0550
 3716SOL     OW22606   4.718   4.545   2.137 -0.3501 -0.9072  0.1643
 3716SOL    HW122607   4.636   4.534   2.089  0.4449 -1.4971 -1.0417
 3716SOL    HW222608   0.040   4.609   2.083  1.0423 -1.2739  0.9348
 3717SOL     OW22609   4.313   0.268   6.919 -0.2337 -0.3633 -0.6381
 3717SOL    HW122610   4.327   0.362   6.932  2.3066 -0.9815  1.1916
 3717SOL    HW222611   4.287   0.241   7.007  0.5040 -1.3376 -0.7206
 3718SOL     OW22612   2.006   1.238  12.044  0.3749  0.1509  0.1904
 3718SOL    HW122613   2.087   1.186  12.049  0.5639  0.4536  0.2995
 3718SOL    HW222614   2.035   1.313  11.991 -0.5380  0.4532  0.1315
 3719SOL     OW22615   0.533   2.965   6.250  0.4172  0.2605  0.0530
 3719SOL    HW122616   0.437   2.967   6.252  0.3629  0.0147 -2.5891
 3719SOL    HW222617   0.541   3.019   6.329  0.2905 -1.8896  1.5444
 3720SOL     OW22618   1.636   3.986   4.534 -0.6493 -0.1105  0.2340
 3720SOL    HW122619   1.666   3.946   4.452 -0.6517 -0.0743  0.2158
 3720SOL    HW222620   1.564   3.928   4.557 -1.6073  0.9604 -0.0432
 3721SOL     OW22621   2.014   3.858  11.067 -0.1298  0.0862  0.3317
 3721SOL    HW122622   2.102   3.866  11.106 -0.3165 -3.0721  1.3762
 3721SOL    HW222623   1.986   3.937  11.114 -0.7438 -0.0592  0.2075
 3722SOL     OW22624   2.410   4.575  13.429  0.1116 -0.3668 -0.2220
 3722SOL    HW122625   2.421   4.623  13.347 -0.1394  1.1431  0.6219
 3722SOL    HW222626   2.504   4.561  13.440 -0.2091 -0.5377  2.3319
 3723SOL     OW22627   2.080   3.121   0.644 -0.5882  0.5872  0.3493
 3723SOL    HW122628   2.145   3.132   0.713  0.1865 -0.0255 -0.2841
 3723SOL    HW222629   2.098   3.200   0.592  1.1320  0.4319  0.7282
 3724SOL     OW22630   0.658   4.567  11.129  0.1635 -0.0239 -0.4118
 3724SOL    HW122631   0.739   4.535  11.090  0.5723  0.6588 -0.1239
 3724SOL    HW222632   0.686   4.566  11.220  0.8304 -0.7457 -0.6284
 3725SOL     OW22633   3.800   1.836   8.229  0.0188  0.0257  0.6344
 3725SOL    HW122634   3.786   1.746   8.202  0.4126  0.1602 -0.0219
 3725SOL    HW222635   3.747   1.851   8.307  0.4903  0.3777  0.8894
 3726SOL     OW22636   3.304   3.772   0.371  0.2270  0.3075  0.4014
 3726SOL    HW122637   3.321   3.801   0.281  1.8661 -2.0016 -0.0446
 3726SOL    HW222638   3.307   3.676   0.364 -1.0052  0.1998  1.4219
 3727SOL     OW22639   2.729   2.359  15.015  0.0403 -0.0387 -0.0235
 3727SOL    HW122640   2.712   2.397  14.929  2.7132 -0.7488 -0.8730
 3727SOL    HW222641   2.782   2.428  15.055 -2.2439  0.6361  1.8551
 3728SOL     OW22642   3.221   0.160   6.394 -1.1645  0.2191  1.0111
 3728SOL    HW122643   3.284   0.146   6.464 -0.3198  0.7174  0.3523
 3728SOL    HW222644   3.229   0.086   6.334  0.3528  2.1043 -1.1082
 3729SOL     OW22645   2.041   3.211   2.110 -0.3218  0.2003 -0.6340
 3729SOL    HW122646   2.097   3.187   2.037  1.6748 -0.6637  1.1801
 3729SOL    HW222647   2.011   3.299   2.086  0.8957  0.2425 -1.9887
 3730SOL     OW22648   2.196   1.577   5.794  0.1736 -0.3131  0.3398
 3730SOL    HW122649   2.273   1.521   5.802  1.7668  1.6461 -1.3846
 3730SOL    HW222650   2.154   1.567   5.880  2.1952  1.5127  1.5430
 3731SOL     OW22651   1.311   1.111   4.223  0.1890 -0.4839 -0.3604
 3731SOL    HW122652   1.330   1.113   4.130  1.5853 -0.1288 -0.0636
 3731SOL    HW222653   1.334   1.019   4.232  0.6436 -0.3189  0.1914
 3732SOL     OW22654   2.371   1.065   5.596 -0.0339 -0.1017 -0.0653
 3732SOL    HW122655   2.349   1.007   5.523 -0.3989  0.4356 -0.3774
 3732SOL    HW222656   2.459   1.093   5.572  1.1478 -2.1845  1.7861
 3733SOL     OW22657   1.135   3.274   6.141  0.4142 -0.3662  0.1553
 3733SOL    HW122658   1.156   3.225   6.062 -2.6819 -1.4809  0.0227
 3733SOL    HW222659   1.130   3.362   6.105 -0.2667 -0.6382 -0.3988
 3734SOL     OW22660   3.276   0.628   0.395 -0.3610 -0.3991  0.0302
 3734SOL    HW122661   3.227   0.698   0.437 -0.5165  0.8019 -2.1518
 3734SOL    HW222662   3.208   0.600   0.334  0.3475 -0.8061 -0.5674
 3735SOL     OW22663   3.663   2.725   3.771  0.2518 -0.0772 -0.4788
 3735SOL    HW122664   3.725   2.746   3.701  1.7829  1.2504  1.2753
 3735SOL    HW222665   3.724   2.709   3.842  0.6755 -0.8215 -1.0099
 3736SOL     OW22666   0.001   1.788   9.634  0.3828 -0.0597  0.1894
 3736SOL    HW122667   0.049   1.853   9.583 -1.5167  0.3427 -1.0550
 3736SOL    HW222668   0.065   1.741   9.688 -0.7892 -1.6002  0.2509
 3737SOL     OW22669   1.155   1.614   9.979 -0.2157 -0.4916  0.1675
 3737SOL    HW122670   1.176   1.690  10.034  1.8386 -0.6192 -0.4260
 3737SOL    HW222671   1.242   1.605   9.939 -0.5404 -3.0288  0.0191
 3738SOL     OW22672   1.551   1.149   4.384 -0.1709  0.0745  0.1092
 3738SOL    HW122673   1.504   1.086   4.439  1.0493 -2.0838 -1.2999
 3738SOL    HW222674   1.496   1.149   4.306 -1.9989 -3.0470  1.3838
 3739SOL     OW22675   4.672   0.678   4.805  0.4055  0.2532  0.4537
 3739SOL    HW122676   4.688   0.760   4.757 -0.4564  0.3564  0.3524
 3739SOL    HW222677   4.577   0.671   4.794  0.7785 -2.3156 -1.2068
 3740SOL     OW22678   4.336   2.538   1.289 -0.0467  0.1570 -0.0787
 3740SOL    HW122679   4.352   2.472   1.356  1.0394  0.4444 -0.0508
 3740SOL    HW222680   4.242   2.551   1.298 -0.5199 -3.0348 -0.5288
 3741SOL     OW22681   3.945   1.739   7.259  0.1499  0.3115 -0.1975
 3741SOL    HW122682   4.007   1.667   7.274 -0.8416 -0.4215  0.3910
 3741SOL    HW222683   3.933   1.774   7.348  1.2218  1.1014 -0.3667
 3742SOL     OW22684   3.467   0.340   6.407  0.1598  0.3324 -1.0111
 3742SOL    HW122685   3.431   0.251   6.414  0.8287  0.0410 -1.2937
 3742SOL    HW222686   3.494   0.343   6.316  0.5471 -1.4622 -0.9457
 3743SOL     OW22687   2.438   1.513   2.291 -0.4098 -0.1212 -0.0547
 3743SOL    HW122688   2.437   1.417   2.298 -2.0609 -0.0219  1.0951
 3743SOL    HW222689   2.528   1.532   2.317 -0.7337  2.0437 -0.4815
 3744SOL     OW22690   2.565   0.160   4.909 -0.5426  0.2253 -0.1778
 3744SOL    HW122691   2.652   0.145   4.947 -0.2740 -1.3731 -1.4596
 3744SOL    HW222692   2.509   0.114   4.972  0.2242  0.5017  0.7112
 3745SOL     OW22693   3.739   2.697   6.446 -0.0799 -0.2144 -0.7907
 3745SOL    HW122694   3.805   2.655   6.501 -0.0402  2.6996  1.4003
 3745SOL    HW222695   3.662   2.693   6.502  0.0997 -1.0879 -0.6083
 3746SOL     OW22696   0.494   0.585   6.058 -0.0601  0.6022 -0.1869
 3746SOL    HW122697   0.426   0.568   6.123  1.2684  3.0309  1.8503
 3746SOL    HW222698   0.560   0.517   6.072  0.7283  1.2943 -0.5361
 3747SOL     OW22699   1.308   1.204  12.112  0.3589 -0.3611  0.1415
 3747SOL    HW122700   1.376   1.217  12.046  0.5174  0.6512  0.5067
 3747SOL    HW222701   1.236   1.186  12.052  1.2431 -1.7583 -0.4941
 3748SOL     OW22702   2.606   0.496   2.289  0.1841  0.1832 -0.6080
 3748SOL    HW122703   2.607   0.546   2.208  1.3228  0.9675 -0.1142
 3748SOL    HW222704   2.626   0.408   2.256  0.0541  0.2758 -0.9284
 3749SOL     OW22705   2.136   0.054   7.056  0.0125 -0.1377 -0.8120
 3749SOL    HW122706   2.135   0.004   6.974  1.4455 -1.1210 -0.2257
 3749SOL    HW222707   2.178   0.132   7.020  0.6743  0.1358  0.5623
 3750SOL     OW22708   1.455   2.766   8.852  0.3195  0.3801  0.7175
 3750SOL    HW122709   1.436   2.770   8.758 -0.9828  0.3786  0.9773
 3750SOL    HW222710   1.389   2.706   8.887  1.2691  0.0622  1.9548
 3751SOL     OW22711   3.825   4.341   7.793  0.4918 -0.0167 -0.2276
 3751SOL    HW122712   3.917   4.318   7.783  0.5499  0.6443 -1.1947
 3751SOL    HW222713   3.838   4.429   7.760  2.7949  0.1665  1.1575
 3752SOL     OW22714   4.489   3.666  10.699  0.2918  0.0436 -0.1595
 3752SOL    HW122715   4.541   3.703  10.628 -0.8965  2.2972  0.1255
 3752SOL    HW222716   4.437   3.602  10.652  1.8095 -1.5217  0.3028
 3753SOL     OW22717   4.571   1.207   3.322  0.8741  0.5156 -0.1775
 3753SOL    HW122718   4.594   1.271   3.255  0.5210 -0.4536 -1.2195
 3753SOL    HW222719   4.543   1.130   3.273 -0.1989 -0.1020  1.3998
 3754SOL     OW22720   0.266   2.675   3.480  0.7318 -0.0330 -0.1419
 3754SOL    HW122721   0.191   2.618   3.465  0.5022  0.7491 -1.9243
 3754SOL    HW222722   0.253   2.697   3.573  2.7642 -2.2554  0.6632
 3755SOL     OW22723   2.609   2.402   2.518  0.9255  0.0552 -0.4548
 3755SOL    HW122724   2.694   2.358   2.515 -0.6012 -2.8915 -0.6572
 3755SOL    HW222725   2.600   2.440   2.431 -0.2568 -0.8448 -0.7334
 3756SOL     OW22726   2.879   0.197   4.757 -0.0820 -0.8595 -0.1749
 3756SOL    HW122727   2.938   0.194   4.832  0.3599  0.9484 -0.4423
 3756SOL    HW222728   2.798   0.220   4.803 -1.2585 -2.2623 -1.5350
 3757SOL     OW22729   3.954   1.349  13.385  0.4911  0.0675  0.4646
 3757SOL    HW122730   3.950   1.325  13.477  2.3091 -0.7752  0.3239
 3757SOL    HW222731   3.888   1.295  13.342  0.8103  1.4290 -1.7473
 3758SOL     OW22732   1.611   3.179   2.493 -0.2890 -0.3312  0.2087
 3758SOL    HW122733   1.627   3.234   2.416  1.3000 -2.4134 -0.9571
 3758SOL    HW222734   1.563   3.242   2.547 -0.1927  0.2970 -0.4338
 3759SOL     OW22735   3.012   3.671  13.394 -0.7404  0.3753 -0.0354
 3759SOL    HW122736   3.080   3.686  13.329 -1.0860  3.7159  0.3806
 3759SOL    HW222737   3.061   3.677  13.475 -2.0967 -2.1945  0.9770
 3760SOL     OW22738   2.597   1.778   6.739  0.5844  0.2067  0.2845
 3760SOL    HW122739   2.679   1.759   6.694  1.1329  1.1256  0.8854
 3760SOL    HW222740   2.552   1.708   6.692  1.2618 -1.4090  2.0335
 3761SOL     OW22741   0.727   0.201   7.864 -0.3942 -0.1468  0.2456
 3761SOL    HW122742   0.644   0.241   7.839 -1.2877 -1.1946  1.4923
 3761SOL    HW222743   0.728   0.220   7.958 -0.9312 -0.1570  0.2530
 3762SOL     OW22744   2.791   2.791   3.820 -0.3171  0.1625 -0.6934
 3762SOL    HW122745   2.878   2.818   3.849 -0.4271  0.1669 -0.3698
 3762SOL    HW222746   2.738   2.808   3.898  0.6422  0.3424 -0.0825
 3763SOL     OW22747   0.345   1.727   9.753 -0.0263  0.4618  0.0613
 3763SOL    HW122748   0.293   1.798   9.793  0.4404  0.8788 -0.0767
 3763SOL    HW222749   0.414   1.785   9.722 -0.5296  0.6886 -0.6317
 3764SOL     OW22750   2.887   4.391   3.369 -0.4614  0.1417 -0.0522
 3764SOL    HW122751   2.812   4.345   3.406 -0.1344 -1.1949 -1.0642
 3764SOL    HW222752   2.920   4.437   3.446  2.5007 -1.1881 -0.5583
 3765SOL     OW22753   1.428   0.456  13.252 -0.1406  0.0088 -0.0015
 3765SOL    HW122754   1.490   0.387  13.275 -0.3004  0.3420  1.4521
 3765SOL    HW222755   1.480   0.508  13.190  1.3508 -0.6680  0.6813
 3766SOL     OW22756   2.117   1.494   8.820  0.4469 -0.4148  0.0657
 3766SOL    HW122757   2.186   1.491   8.886  0.2046 -2.1818  0.2279
 3766SOL    HW222758   2.158   1.448   8.747  1.5152 -0.3402  0.6222
 3767SOL     OW22759   3.787   4.287  16.132 -0.0283 -0.2289 -0.0309
 3767SOL    HW122760   3.847   4.298  16.205 -0.0015 -1.2496  0.1062
 3767SOL    HW222761   3.737   4.209  16.158  0.9627 -0.8318  0.0501
 3768SOL     OW22762   1.332   0.935  15.858 -0.4359  0.4252 -0.1619
 3768SOL    HW122763   1.312   1.016  15.904 -0.2862  1.2807 -1.5701
 3768SOL    HW222764   1.323   0.864  15.921  1.3431 -0.9135 -1.3702
 3769SOL     OW22765   3.677   0.646   6.224 -0.3870 -0.0370  0.0675
 3769SOL    HW122766   3.742   0.580   6.201 -0.5290  0.0397 -0.5746
 3769SOL    HW222767   3.683   0.659   6.318 -0.7228  0.4438  0.0270
 3770SOL     OW22768   3.276   3.417  15.840  0.3600 -0.5231  0.8571
 3770SOL    HW122769   3.202   3.373  15.883 -1.3414  1.2316 -0.2323
 3770SOL    HW222770   3.269   3.388  15.749  1.6540  0.3732  0.4672
 3771SOL     OW22771   3.893   2.093   8.204 -0.1348  0.1746 -0.2356
 3771SOL    HW122772   3.878   2.086   8.110  0.6708 -2.0024 -0.2101
 3771SOL    HW222773   3.853   2.010   8.231  1.6244 -0.3688  0.7156
 3772SOL     OW22774   4.215   1.536   8.496 -0.1090 -0.0337 -0.0090
 3772SOL    HW122775   4.248   1.473   8.560  0.2455 -0.3857 -0.5433
 3772SOL    HW222776   4.135   1.570   8.536 -0.8817 -0.7976 -0.9059
 3773SOL     OW22777   2.669   4.718  14.148 -0.4737 -0.0948 -0.3044
 3773SOL    HW122778   2.717   4.641  14.177  0.8193  0.4209 -1.0778
 3773SOL    HW222779   2.626   0.030  14.226  2.1315 -0.1110  1.1452
 3774SOL     OW22780   3.437   0.868   4.329 -0.3796  0.5308  0.6791
 3774SOL    HW122781   3.474   0.869   4.417 -0.0381 -1.5212  0.5753
 3774SOL    HW222782   3.507   0.833   4.274  0.5504  2.2055  0.8275
 3775SOL     OW22783   1.252   2.924   7.181  0.4605 -0.8393 -0.0754
 3775SOL    HW122784   1.230   2.894   7.092 -2.9991 -0.3499  0.6265
 3775SOL    HW222785   1.215   2.849   7.228 -2.7157 -0.0063 -1.2213
 3776SOL     OW22786   1.995   0.273  11.231 -0.0759 -0.4095  0.0024
 3776SOL    HW122787   1.924   0.269  11.296 -0.7270  1.4210 -0.6038
 3776SOL    HW222788   2.032   0.184  11.230  0.8858  0.0299 -2.2635
 3777SOL     OW22789   1.204   0.510  11.747 -0.0898 -0.0650 -0.4082
 3777SOL    HW122790   1.273   0.551  11.800 -0.4638  0.3493 -0.2378
 3777SOL    HW222791   1.198   0.434  11.804 -0.1955  0.5604  0.4271
 3778SOL     OW22792   2.184   0.239  14.563 -0.0254 -0.3740  0.2788
 3778SOL    HW122793   2.162   0.282  14.645  1.0416 -2.3274  1.6067
 3778SOL    HW222794   2.177   0.147  14.590  1.4122 -0.8632 -0.9372
 3779SOL     OW22795   3.604   2.720  15.977 -0.2273  0.1044  0.0284
 3779SOL    HW122796   3.589   2.744  16.069 -1.7661 -1.8324  0.2694
 3779SOL    HW222797   3.643   2.801  15.945 -1.0045  0.4497 -0.0536
 3780SOL     OW22798   3.010   2.228   5.162 -0.2588  0.2151 -1.1203
 3780SOL    HW122799   2.972   2.162   5.220 -0.5961  2.7153  1.5237
 3780SOL    HW222800   3.083   2.259   5.215  0.2250 -0.2565 -1.5174
 3781SOL     OW22801   4.283   3.454   3.882  0.4307  0.4588 -0.0105
 3781SOL    HW122802   4.286   3.539   3.925  0.8159  1.3446 -1.7797
 3781SOL    HW222803   4.193   3.427   3.900  0.4913 -0.1858 -0.6790
 3782SOL     OW22804   4.256   1.264  15.513 -0.4772 -0.2643 -0.4089
 3782SOL    HW122805   4.265   1.237  15.422 -0.0227 -2.1484  0.2108
 3782SOL    HW222806   4.183   1.325  15.501 -0.2167 -0.4218 -2.6638
 3783SOL     OW22807   1.653   4.450   8.206 -0.8241  0.3415  0.2968
 3783SOL    HW122808   1.713   4.521   8.229 -0.9058  0.0378  1.4388
 3783SOL    HW222809   1.712   4.380   8.236  0.6157  0.3292 -2.6068
 3784SOL     OW22810   4.604   3.403   0.506  0.4264 -0.1687  0.4693
 3784SOL    HW122811   4.594   3.448   0.590  2.0860  0.7995  0.1532
 3784SOL    HW222812   4.517   3.401   0.467  1.1508 -1.7158 -1.0861
 3785SOL     OW22813   0.673   2.359   1.374  0.1914 -0.4643  0.2066
 3785SOL    HW122814   0.656   2.373   1.467  3.0871 -0.3924  0.7258
 3785SOL    HW222815   0.607   2.421   1.344  0.2196 -0.9370 -0.8315
 3786SOL     OW22816   2.532   0.654   7.692  0.3056  0.2367  0.6074
 3786SOL    HW122817   2.502   0.744   7.706  1.6201  0.9731 -1.2898
 3786SOL    HW222818   2.614   0.647   7.742  0.8937 -1.6969 -0.6508
 3787SOL     OW22819   2.097   3.016   8.416 -0.0173  0.1913  0.6871
 3787SOL    HW122820   2.176   3.044   8.462 -0.9170  2.2536  0.9763
 3787SOL    HW222821   2.136   3.009   8.329 -0.5155 -1.1132  0.5701
 3788SOL     OW22822   3.680   3.368   1.458  0.2845 -0.2474  0.3416
 3788SOL    HW122823   3.733   3.424   1.515  0.4460 -1.5099  1.4244
 3788SOL    HW222824   3.738   3.295   1.440  0.0635  0.0935 -1.6919
 3789SOL     OW22825   3.032   3.813   2.419 -0.0171 -0.9607  0.0505
 3789SOL    HW122826   3.012   3.788   2.509 -1.9746  0.1233 -0.0929
 3789SOL    HW222827   2.951   3.847   2.382 -0.6513 -2.1183  0.4096
 3790SOL     OW22828   0.867   0.316  10.924 -0.9490 -0.3945 -0.4781
 3790SOL    HW122829   0.884   0.366  10.844 -1.5159  0.0585 -0.3167
 3790SOL    HW222830   0.948   0.311  10.974  0.0648  0.3088 -2.0320
 3791SOL     OW22831   0.782   0.678   7.104  0.1634 -0.2048  0.5872
 3791SOL    HW122832   0.708   0.674   7.043  1.5188 -3.5199 -0.8454
 3791SOL    HW222833   0.767   0.755   7.158 -0.9039  0.3529 -0.5115
 3792SOL     OW22834   4.525   1.545   5.170  0.6936 -0.0321  0.5421
 3792SOL    HW122835   4.532   1.471   5.232  0.8867 -2.1143 -1.9514
 3792SOL    HW222836   4.543   1.627   5.215 -0.0050 -0.2997  1.3160
 3793SOL     OW22837   2.579   3.390  13.659  0.0889  0.0977  0.1329
 3793SOL    HW122838   2.537   3.453  13.599  0.0451  1.4335  1.5582
 3793SOL    HW222839   2.505   3.330  13.664 -0.4560  0.7538  0.0927
 3794SOL     OW22840   4.655   3.226   5.791  0.2249  0.1815 -0.2371
 3794SOL    HW122841   4.597   3.155   5.817  1.0773  0.4201  2.3371
 3794SOL    HW222842   4.688   3.246   5.879  0.2564 -1.3155  0.0929
 3795SOL     OW22843   3.228   3.924   7.436  0.7485  0.5779  0.2726
 3795SOL    HW122844   3.161   3.873   7.482  0.4295 -0.1098 -0.9386
 3795SOL    HW222845   3.180   3.951   7.357  0.1568  1.3545  0.8941
 3796SOL     OW22846   3.219   3.407   3.464  0.7414  0.2666 -0.0798
 3796SOL    HW122847   3.233   3.359   3.545 -0.9752 -0.1271 -0.0098
 3796SOL    HW222848   3.255   3.493   3.484  0.0840  0.7681 -1.0144
 3797SOL     OW22849   2.789   1.200  11.398 -0.5292 -0.3717 -0.4002
 3797SOL    HW122850   2.792   1.152  11.481  0.1379  0.6532  0.1657
 3797SOL    HW222851   2.694   1.201  11.385 -0.9696  1.2545  2.7123
 3798SOL     OW22852   4.350   3.562   3.436 -0.0848 -0.8378 -0.3249
 3798SOL    HW122853   4.310   3.482   3.403  2.6866 -1.5936 -1.7983
 3798SOL    HW222854   4.341   3.617   3.358  2.1689  0.9686  0.6834
 3799SOL     OW22855   1.140   2.598   3.127  0.1358  0.0960  0.3059
 3799SOL    HW122856   1.222   2.613   3.080 -0.0495  2.4476  0.7316
 3799SOL    HW222857   1.094   2.673   3.089 -0.2907 -1.4907 -2.3142
 3800SOL     OW22858   3.925   4.467   6.994 -0.4432 -0.3717 -0.0279
 3800SOL    HW122859   3.972   4.505   7.069 -1.8521  0.4420  0.4330
 3800SOL    HW222860   3.864   4.412   7.044 -0.1036 -0.3501  0.4101
 3801SOL     OW22861   1.552   3.190   5.643 -0.0992 -0.0788  0.3233
 3801SOL    HW122862   1.591   3.124   5.700  1.3837 -0.9256 -1.6761
 3801SOL    HW222863   1.595   3.260   5.693  1.5269 -2.4648  2.2749
 3802SOL     OW22864   3.131   1.395  14.634  0.0765  0.1623  0.3394
 3802SOL    HW122865   3.139   1.319  14.692 -1.3426  0.5457  1.0400
 3802SOL    HW222866   3.139   1.356  14.547 -3.2877 -1.3339  0.6944
 3803SOL     OW22867   4.695   3.173   8.849 -0.1247 -0.2858 -0.4306
 3803SOL    HW122868   4.723   3.229   8.921  0.3086 -2.5706  1.1769
 3803SOL    HW222869   4.635   3.232   8.804  1.5948  2.3814  0.7569
 3804SOL     OW22870   3.751   2.700  16.292  0.2633 -0.0990  0.1626
 3804SOL    HW122871   3.714   2.781  16.328 -1.3428 -1.2880  1.1729
 3804SOL    HW222872   3.783   2.721  16.204  1.0124 -1.0270  0.2163
 3805SOL     OW22873   2.249   2.653   8.462  0.2705  0.0213 -0.5916
 3805SOL    HW122874   2.219   2.689   8.379 -1.6156 -0.4990 -0.1368
 3805SOL    HW222875   2.323   2.601   8.430  0.9959  1.1747 -0.7805
 3806SOL     OW22876   1.182   2.419   4.546 -0.3691 -0.5189  0.0776
 3806SOL    HW122877   1.158   2.476   4.619 -0.7145 -0.2238 -0.2703
 3806SOL    HW222878   1.250   2.466   4.498  1.1154 -1.2637  1.4569
 3807SOL     OW22879   4.401   4.624   5.238  0.3193 -0.0381 -0.0169
 3807SOL    HW122880   4.369   4.632   5.148 -1.7059  0.9606  0.7779
 3807SOL    HW222881   4.464   4.552   5.230  0.9758  0.6356 -0.8759
 3808SOL     OW22882   3.712   4.180   7.561 -0.4229 -0.0344 -0.4215
 3808SOL    HW122883   3.634   4.126   7.549  0.0042 -1.3971  2.9063
 3808SOL    HW222884   3.728   4.169   7.654  3.6508 -1.3780 -1.2614
 3809SOL     OW22885   0.469   2.787  15.539  0.5547  0.7208  0.0034
 3809SOL    HW122886   0.552   2.822  15.506  0.0671  0.0684 -1.9470
 3809SOL    HW222887   0.433   2.857  15.593 -1.0925  0.4987 -0.7958
 3810SOL     OW22888   4.044   0.388   8.011 -0.3102  0.2317 -0.0321
 3810SOL    HW122889   3.977   0.412   8.075 -0.2454 -0.6740  0.3749
 3810SOL    HW222890   3.995   0.371   7.931  1.8115 -0.8257 -1.1155
 3811SOL     OW22891   4.370   2.744   7.761 -0.6671 -0.1445  0.1435
 3811SOL    HW122892   4.327   2.659   7.775 -0.2145 -0.2904  0.6788
 3811SOL    HW222893   4.442   2.737   7.825  0.5314  1.5296 -1.0307
 3812SOL     OW22894   4.405   3.204   3.640  0.0151  0.3915  0.0517
 3812SOL    HW122895   4.467   3.195   3.568 -1.6607 -2.6374 -1.0161
 3812SOL    HW222896   4.329   3.231   3.588 -0.1783  0.6732  0.4864
 3813SOL     OW22897   4.548   0.010   7.316 -0.5896  0.3508  0.4707
 3813SOL    HW122898   4.490   0.086   7.316 -0.2962  0.5718 -0.7236
 3813SOL    HW222899   4.592   0.008   7.231 -1.6553  1.2643 -0.0841
 3814SOL     OW22900   0.073   1.924   5.147 -0.4254  0.5030 -0.1264
 3814SOL    HW122901   0.139   1.872   5.100  0.7903  1.1289  0.8890
 3814SOL    HW222902   0.091   2.015   5.123 -0.2832  0.2963 -0.8267
 3815SOL     OW22903   1.598   1.128   2.710 -0.3234  0.1302 -0.7910
 3815SOL    HW122904   1.623   1.217   2.688  2.1804 -0.3982 -0.0699
 3815SOL    HW222905   1.577   1.089   2.625 -3.1089  0.1724 -0.1357
 3816SOL     OW22906   0.887   1.904   8.850 -0.9148  0.1353 -0.7133
 3816SOL    HW122907   0.883   1.813   8.880 -2.8574  0.1543 -0.9219
 3816SOL    HW222908   0.918   1.936   8.934  2.2940  0.8123 -2.1580
 3817SOL     OW22909   1.869   4.111   7.669  0.1657 -0.0938  0.1542
 3817SOL    HW122910   1.833   4.170   7.735  1.4453 -1.2138  1.8450
 3817SOL    HW222911   1.956   4.149   7.656 -1.0567  2.2293 -1.2798
 3818SOL     OW22912   3.582   1.519   8.808  0.4382 -1.3242  0.2700
 3818SOL    HW122913   3.535   1.567   8.739  1.1975  0.2185  0.8095
 3818SOL    HW222914   3.616   1.595   8.855 -0.1816 -0.9735  0.1529
 3819SOL     OW22915   0.363   2.143  17.589 -0.4847  0.4335 -0.5892
 3819SOL    HW122916   0.290   2.084  17.572  0.5797 -0.9919 -0.1976
 3819SOL    HW222917   0.431   2.079  17.571 -2.8133 -2.5043  0.8624
 3820SOL     OW22918   2.631   0.085   0.043  0.0395  0.5795  0.2218
 3820SOL    HW122919   2.712   0.036   0.054 -1.2625 -0.9406  3.0469
 3820SOL    HW222920   2.623   0.137   0.123 -1.3362  2.3316 -1.0437
 3821SOL     OW22921   2.127   1.358   6.234  0.4165  0.5927  0.1989
 3821SOL    HW122922   2.046   1.402   6.261  0.2265  0.6754 -0.5029
 3821SOL    HW222923   2.098   1.269   6.215  0.6851  0.6596 -0.5192
 3822SOL     OW22924   2.826   1.855   2.688 -0.0473  0.0777 -0.2621
 3822SOL    HW122925   2.896   1.821   2.632  1.4124  1.9283  0.4706
 3822SOL    HW222926   2.766   1.887   2.620 -0.6421 -1.2029 -0.3324
 3823SOL     OW22927   1.315   1.109   3.207 -0.0248 -0.2644 -1.2227
 3823SOL    HW122928   1.383   1.118   3.140 -0.7492 -0.1717 -1.9512
 3823SOL    HW222929   1.245   1.065   3.159 -0.3062 -1.3247  0.1814
 3824SOL     OW22930   1.368   4.337   3.241 -0.5360 -0.3487 -0.0004
 3824SOL    HW122931   1.294   4.334   3.180 -2.4209  0.4950  2.2713
 3824SOL    HW222932   1.345   4.265   3.299 -0.8749  0.1677  0.5018
 3825SOL     OW22933   1.412   0.417   9.714  0.5085 -0.0052 -0.5404
 3825SOL    HW122934   1.437   0.461   9.632  1.3825  1.6814  0.6314
 3825SOL    HW222935   1.344   0.481   9.732 -0.1407 -0.4031 -1.5685
 3826SOL     OW22936   1.407   1.257  10.528  0.0668 -0.5164 -0.1950
 3826SOL    HW122937   1.402   1.323  10.597  0.9141  1.7365 -2.2680
 3826SOL    HW222938   1.500   1.242  10.515  0.4373  1.7174 -0.0103
 3827SOL     OW22939   2.790   0.049  10.845  0.4162 -0.1574  0.2801
 3827SOL    HW122940   2.804   4.713  10.918  1.0378  0.4724  0.6838
 3827SOL    HW222941   2.816   0.130  10.889 -1.5772  2.0040 -2.5008
 3828SOL     OW22942   3.428   0.964   1.309 -0.4598 -0.1857  0.2890
 3828SOL    HW122943   3.406   0.919   1.228 -2.6425  1.1324  0.1530
 3828SOL    HW222944   3.413   1.057   1.292  0.9168  0.5095  2.8909
 3829SOL     OW22945   3.569   3.984   0.826  0.6963 -0.1959 -0.4427
 3829SOL    HW122946   3.548   3.932   0.904  2.6290  0.0338  0.2384
 3829SOL    HW222947   3.533   4.069   0.851 -1.0322 -0.6891 -1.2801
 3830SOL     OW22948   4.581   1.743   3.710 -0.2507  0.4727  0.9024
 3830SOL    HW122949   4.591   1.834   3.684 -1.4969  0.5550  0.7373
 3830SOL    HW222950   4.488   1.733   3.692 -0.3742  0.4062  1.6028
 3831SOL     OW22951   1.794   1.424   2.280  0.1731  0.2489  0.0296
 3831SOL    HW122952   1.853   1.387   2.346 -0.5312  1.2565  1.2120
 3831SOL    HW222953   1.775   1.505   2.327  0.5741 -0.4851  1.4517
 3832SOL     OW22954   0.777   1.533  15.646 -0.5661 -0.2104 -0.4239
 3832SOL    HW122955   0.693   1.578  15.652 -0.1247  0.2459  2.1574
 3832SOL    HW222956   0.772   1.461  15.709 -0.4461  0.0420 -0.1329
 3833SOL     OW22957   1.784   1.743   4.211 -0.3634 -0.0094  0.8700
 3833SOL    HW122958   1.696   1.746   4.174 -0.7132 -1.1637  1.5984
 3833SOL    HW222959   1.818   1.818   4.162 -0.2413  1.7113  3.6420
 3834SOL     OW22960   3.137   3.501  16.984 -0.2061 -0.2957  0.1303
 3834SOL    HW122961   3.170   3.432  17.041  0.6686 -0.8969 -1.1303
 3834SOL    HW222962   3.163   3.464  16.900  1.3731 -0.1061  0.5341
 3835SOL     OW22963   4.558   4.150   7.782 -0.1429  0.1246 -0.1765
 3835SOL    HW122964   4.574   4.222   7.720 -3.3595  0.2118 -0.9255
 3835SOL    HW222965   4.464   4.164   7.796  0.0239 -0.3822  1.4424
 3836SOL     OW22966   0.759   4.219   6.248  0.9111 -0.2465  0.0240
 3836SOL    HW122967   0.675   4.194   6.209  0.8304  1.2163 -0.7379
 3836SOL    HW222968   0.744   4.185   6.337  1.0202  0.5791  0.3611
 3837SOL     OW22969   0.174   2.386   4.395  0.2310  0.2434 -0.3016
 3837SOL    HW122970   0.209   2.377   4.307 -0.9200 -1.8473 -0.5233
 3837SOL    HW222971   0.244   2.342   4.443  0.6518  1.0800 -0.1467
 3838SOL     OW22972   3.364   1.790   1.700 -0.3867  0.1829 -0.4696
 3838SOL    HW122973   3.386   1.872   1.656  1.9817  0.5334  1.3518
 3838SOL    HW222974   3.336   1.821   1.787 -0.5395 -0.8175 -0.1613
 3839SOL     OW22975   1.553   0.845  13.877 -0.4235  0.2840  0.4324
 3839SOL    HW122976   1.546   0.751  13.864 -0.8323  0.0530  2.3170
 3839SOL    HW222977   1.548   0.871  13.785 -1.0047 -0.6829  0.1910
 3840SOL     OW22978   1.789   1.937   6.262 -0.0107  0.1379 -0.1769
 3840SOL    HW122979   1.791   1.846   6.233 -1.5181  0.2494 -0.6212
 3840SOL    HW222980   1.696   1.951   6.279  0.3478  1.6491  0.4948
 3841SOL     OW22981   3.396   3.515   6.687 -0.6951  0.1307  0.2340
 3841SOL    HW122982   3.314   3.557   6.659  1.2194  2.1947 -2.2873
 3841SOL    HW222983   3.461   3.570   6.643 -0.6422 -0.4614 -0.4369
 3842SOL     OW22984   0.834   1.672   4.470 -0.2107  0.4806  0.0127
 3842SOL    HW122985   0.921   1.646   4.500 -2.1637 -0.9750  4.3911
 3842SOL    HW222986   0.795   1.669   4.557  1.2879  2.4392  0.7378
 3843SOL     OW22987   2.913   1.997   7.607  0.3918  0.5532  0.1203
 3843SOL    HW122988   2.881   2.023   7.521 -0.6820 -0.3695  0.2392
 3843SOL    HW222989   2.979   1.930   7.585 -0.2905 -0.2138  0.4156
 3844SOL     OW22990   4.527   2.802   9.314  0.0292 -0.2564 -0.1208
 3844SOL    HW122991   4.619   2.824   9.330  0.0638  0.1585 -0.8546
 3844SOL    HW222992   4.483   2.826   9.396  0.0818  1.0057 -0.4570
 3845SOL     OW22993   2.238   3.322  11.355 -0.7212 -0.1521  0.7329
 3845SOL    HW122994   2.156   3.360  11.325 -0.9191 -0.8457  0.3873
 3845SOL    HW222995   2.292   3.396  11.329  1.0085 -1.3108  1.0396
 3846SOL     OW22996   1.470   2.972   0.092  0.1261  0.1224  0.4682
 3846SOL    HW122997   1.436   2.921   0.165  0.7447  0.3502  0.9178
 3846SOL    HW222998   1.436   3.058   0.115  0.7012 -0.0871  2.1224
 3847SOL     OW22999   1.073   4.320  15.085  0.1800  0.5322  0.4592
 3847SOL    HW123000   0.988   4.315  15.129 -0.5884 -0.4305 -1.1243
 3847SOL    HW223001   1.046   4.335  14.994 -0.8677  1.2118  0.8795
 3848SOL     OW23002   0.045   4.052  17.053 -0.1482  0.5168 -0.0097
 3848SOL    HW123003   0.129   4.082  17.018  1.1579 -0.8532  1.9716
 3848SOL    HW223004   4.714   4.131  17.049  1.3684  1.5968  0.2265
 3849SOL     OW23005   1.513   4.265  13.018  0.3233  0.4423 -0.1202
 3849SOL    HW123006   1.552   4.180  13.038 -0.4221 -0.4095 -2.4020
 3849SOL    HW223007   1.542   4.276  12.928  0.4885  0.1029 -0.1087
 3850SOL     OW23008   0.373   2.007   2.291 -0.2648  0.3476 -0.0203
 3850SOL    HW123009   0.334   1.941   2.348  0.9463 -0.4547 -0.1194
 3850SOL    HW223010   0.316   1.985   2.217 -0.6400  0.1189  0.3413
 3851SOL     OW23011   1.873   2.863   8.392  0.1172  0.0054  0.1172
 3851SOL    HW123012   1.949   2.903   8.435  0.8294  0.0846 -1.2195
 3851SOL    HW223013   1.915   2.818   8.318 -0.0617 -0.8173  0.5138
 3852SOL     OW23014   2.746   2.566   7.838  0.1800  0.1793  0.8596
 3852SOL    HW123015   2.819   2.505   7.831 -0.6457 -0.6103 -0.8072
 3852SOL    HW223016   2.672   2.510   7.861 -0.0135 -0.6060 -1.6652
 3853SOL     OW23017   0.446   0.347  16.151  0.4004  0.0880 -0.4633
 3853SOL    HW123018   0.376   0.307  16.099  0.5413 -1.7388  0.7477
 3853SOL    HW223019   0.404   0.415  16.204  1.3090  1.0332 -0.9677
 3854SOL     OW23020   2.957   0.911   3.371 -0.3987  0.2578  0.3823
 3854SOL    HW123021   2.876   0.960   3.360 -0.2959  0.6728  1.4633
 3854SOL    HW223022   2.969   0.898   3.277  1.2308  0.0135  0.6246
 3855SOL     OW23023   3.353   4.500   0.492 -0.4283 -0.0726 -0.3350
 3855SOL    HW123024   3.397   4.415   0.487 -1.5101 -0.7347  1.1777
 3855SOL    HW223025   3.418   4.529   0.556 -0.8006 -0.7802  0.3773
 3856SOL     OW23026   2.698   3.759   1.931  0.0347  0.2927  0.2569
 3856SOL    HW123027   2.643   3.765   2.008 -0.4318  0.0652 -0.0584
 3856SOL    HW223028   2.742   3.844   1.927 -1.7543  1.1092 -2.0898
 3857SOL     OW23029   3.131   1.087  15.607  0.4272 -0.2981 -0.1315
 3857SOL    HW123030   3.054   1.141  15.593  1.4599  1.3356  0.5540
 3857SOL    HW223031   3.157   1.068  15.517 -1.3479 -1.2574 -0.4455
 3858SOL     OW23032   3.501   4.545  14.356 -0.2885  0.0086  0.2450
 3858SOL    HW123033   3.441   4.587  14.294 -0.6419 -2.0976 -0.8538
 3858SOL    HW223034   3.505   4.605  14.430  1.3941 -2.3613  2.0903
 3859SOL     OW23035   1.250   1.149   3.936  0.1288  0.0898  0.1383
 3859SOL    HW123036   1.160   1.133   3.906 -0.6369 -0.8809  3.0137
 3859SOL    HW223037   1.295   1.172   3.854 -0.7926 -1.8554 -0.9245
 3860SOL     OW23038   1.432   3.757   3.328  0.1785 -0.3604  0.3250
 3860SOL    HW123039   1.355   3.702   3.343 -0.6628  0.7325  0.0443
 3860SOL    HW223040   1.483   3.735   3.407  0.7749  1.2685  0.4025
 3861SOL     OW23041   1.299   1.657   6.958 -0.0134 -0.3492 -0.6375
 3861SOL    HW123042   1.207   1.683   6.951  0.1126 -0.6880 -3.6076
 3861SOL    HW223043   1.300   1.624   7.048  2.5832 -0.7148 -0.8062
 3862SOL     OW23044   1.875   2.534   0.075 -0.3062  0.1595 -0.3532
 3862SOL    HW123045   1.852   2.463   0.014  0.1618  0.2512 -0.6367
 3862SOL    HW223046   1.865   2.611   0.019 -0.6821  0.9967  0.8712
 3863SOL     OW23047   3.836   1.788   4.112 -0.0690  0.3489  0.1358
 3863SOL    HW123048   3.759   1.837   4.085 -0.0686  0.1870 -0.1652
 3863SOL    HW223049   3.847   1.740   4.030  0.3895 -0.2407  0.5338
 3864SOL     OW23050   1.964   0.851   4.053 -0.3995 -0.2302  0.4801
 3864SOL    HW123051   1.920   0.768   4.072  1.3985 -0.8211  2.0978
 3864SOL    HW223052   2.054   0.829   4.075  0.5922  0.8122 -2.5469
 3865SOL     OW23053   2.134   0.197   9.094  0.9260 -0.0117 -0.0768
 3865SOL    HW123054   2.208   0.257   9.097 -0.7866  2.1306 -0.0511
 3865SOL    HW223055   2.174   0.111   9.088 -2.1782 -1.5089  0.5342
 3866SOL     OW23056   3.100   2.688  13.314  0.4335  0.1514  0.5786
 3866SOL    HW123057   3.106   2.777  13.350 -1.3499  0.6840 -0.4716
 3866SOL    HW223058   3.115   2.642  13.397  0.7587 -0.6841  0.0608
 3867SOL     OW23059   0.550   2.226   5.829 -0.3117  0.0336 -0.4886
 3867SOL    HW123060   0.609   2.225   5.754 -1.3345  1.1085 -1.3112
 3867SOL    HW223061   0.557   2.137   5.865 -0.6115 -0.4310 -1.5688
 3868SOL     OW23062   0.651   1.582   8.274  0.1912  0.2532  0.0672
 3868SOL    HW123063   0.741   1.571   8.243  0.4599  0.6503  0.7082
 3868SOL    HW223064   0.630   1.673   8.250  0.5937 -0.0337 -1.3547
 3869SOL     OW23065   3.300   2.336  15.200 -0.0229  0.3399  0.0377
 3869SOL    HW123066   3.228   2.294  15.153  1.7732 -2.0471 -0.6248
 3869SOL    HW223067   3.356   2.262  15.227 -1.4559 -0.6673  0.2576
 3870SOL     OW23068   3.477   3.215   4.061  0.2971 -0.2517  0.1284
 3870SOL    HW123069   3.463   3.120   4.053 -0.7856 -0.0957  0.1620
 3870SOL    HW223070   3.397   3.246   4.018 -0.2053  0.5627  1.6538
 3871SOL     OW23071   3.182   2.581   1.839  0.0991  0.6043  0.0343
 3871SOL    HW123072   3.189   2.676   1.836  1.5446  0.4749 -0.7248
 3871SOL    HW223073   3.263   2.558   1.793 -0.8400 -1.1376 -0.7653
 3872SOL     OW23074   1.070   1.703   9.423  0.9854  0.5059 -0.2960
 3872SOL    HW123075   1.158   1.688   9.391  0.9296 -0.0872 -0.1736
 3872SOL    HW223076   1.084   1.765   9.494 -0.0311 -0.1606  0.4951
 3873SOL     OW23077   2.036   2.528   0.948  0.4524 -0.0074 -0.3595
 3873SOL    HW123078   2.043   2.615   0.987  2.9944  0.4509 -1.8369
 3873SOL    HW223079   2.098   2.526   0.874  1.7643  0.3105  0.7195
 3874SOL     OW23080   1.249   3.520   9.529 -0.1064  0.0136  0.8350
 3874SOL    HW123081   1.333   3.533   9.573 -0.2860 -1.2056  1.5292
 3874SOL    HW223082   1.210   3.445   9.573 -0.2004  0.1869  1.0456
 3875SOL     OW23083   3.953   3.756  16.150 -0.4230  0.2008 -0.0391
 3875SOL    HW123084   3.885   3.758  16.218 -0.4967 -0.9574 -0.0876
 3875SOL    HW223085   4.009   3.685  16.181 -0.3353  1.3378  2.4528
 3876SOL     OW23086   4.060   2.699   1.943  0.0002 -0.0585  0.3381
 3876SOL    HW123087   4.021   2.785   1.927  0.5136 -0.0355 -0.8103
 3876SOL    HW223088   4.151   2.721   1.962  0.1406 -0.2743 -0.0753
 3877SOL     OW23089   1.546   4.437   4.406 -0.0587 -0.3276  0.1130
 3877SOL    HW123090   1.493   4.398   4.336 -3.5781 -0.0759  2.6518
 3877SOL    HW223091   1.583   4.355   4.440  1.5881  1.6455  3.1007
 3878SOL     OW23092   2.465   1.792   7.345  0.2438 -0.1615 -0.0632
 3878SOL    HW123093   2.448   1.862   7.283 -0.9938 -1.4044 -1.1109
 3878SOL    HW223094   2.440   1.720   7.286 -2.8351 -0.4798  1.6453
 3879SOL     OW23095   3.397   3.766   8.359  0.2150  0.0127  0.0740
 3879SOL    HW123096   3.384   3.810   8.275  0.3720  2.1879  1.1877
 3879SOL    HW223097   3.413   3.840   8.417  1.0914 -1.5179  1.7791
 3880SOL     OW23098   4.578   0.150   8.567  0.7952  0.3030  0.0648
 3880SOL    HW123099   4.491   0.112   8.572 -0.1970  2.5451 -0.0847
 3880SOL    HW223100   4.617   0.122   8.484  2.1217  3.3121 -0.3686
 3881SOL     OW23101   1.018   1.756   5.395 -0.0250 -0.5637  0.3121
 3881SOL    HW123102   0.988   1.739   5.306  1.6249  1.6068 -0.6854
 3881SOL    HW223103   1.056   1.670   5.415 -1.0070 -1.6425 -2.5406
 3882SOL     OW23104   3.764   1.526  14.133 -0.1395 -0.2895 -0.6312
 3882SOL    HW123105   3.684   1.530  14.185  1.0571 -0.2255  1.1639
 3882SOL    HW223106   3.803   1.609  14.159 -0.1723  0.0917 -1.7679
 3883SOL     OW23107   2.039   1.102   2.316  1.3057 -0.4810  0.2940
 3883SOL    HW123108   2.012   1.177   2.369  1.2353  0.7199 -1.4425
 3883SOL    HW223109   2.086   1.047   2.379 -0.1108 -2.0332  0.0036
 3884SOL     OW23110   0.621   0.941  13.832  0.9757  0.4365 -0.9201
 3884SOL    HW123111   0.692   0.982  13.783  0.0035 -0.6931 -3.2553
 3884SOL    HW223112   0.584   0.896  13.757  0.8905  1.1840 -1.3257
 3885SOL     OW23113   2.862   4.233  14.359 -0.2952  0.2351 -0.4300
 3885SOL    HW123114   2.906   4.305  14.404 -0.9265 -1.3512  2.6855
 3885SOL    HW223115   2.896   4.154  14.400 -1.4079 -1.2980 -2.4350
 3886SOL     OW23116   4.057   2.667   9.576 -0.4369 -0.0909 -0.3066
 3886SOL    HW123117   4.094   2.682   9.663  0.2025  0.0163 -0.5969
 3886SOL    HW223118   4.141   2.665   9.531 -0.6278  0.9186 -0.7140
 3887SOL     OW23119   0.129   3.949   9.651 -0.5280  0.0774  0.0056
 3887SOL    HW123120   0.105   4.040   9.667 -1.3662 -0.2558  0.6492
 3887SOL    HW223121   0.121   3.951   9.556 -4.6452 -0.1775  0.3521
 3888SOL     OW23122   3.263   1.200   5.433 -0.2715 -0.4403 -0.3336
 3888SOL    HW123123   3.227   1.139   5.497  1.4637  0.0186  1.0867
 3888SOL    HW223124   3.194   1.195   5.367 -0.1194  0.5052 -0.5682
 3889SOL     OW23125   0.599   0.499   9.930  0.6407  0.0725  0.1500
 3889SOL    HW123126   0.615   0.583   9.973  0.4022  0.5157 -0.6299
 3889SOL    HW223127   0.507   0.479   9.947  0.9575  0.1859  1.9921
 3890SOL     OW23128   0.529   4.166  10.092 -0.0764  0.0306 -0.0429
 3890SOL    HW123129   0.528   4.256  10.123  1.1712  0.4253 -1.1578
 3890SOL    HW223130   0.569   4.121  10.167 -2.0358 -1.9754 -0.1929
 3891SOL     OW23131   3.922   1.908   5.425  0.9815  0.3134 -0.1406
 3891SOL    HW123132   3.985   1.842   5.454  1.6943  0.9358 -0.2770
 3891SOL    HW223133   3.873   1.874   5.351 -1.2248 -1.6208  2.1862
 3892SOL     OW23134   0.876   4.047   5.280  0.1224 -0.2115  0.0043
 3892SOL    HW123135   0.863   4.081   5.191  1.1935  1.2596  0.3999
 3892SOL    HW223136   0.928   3.968   5.269  0.7105  0.1115  0.4376
 3893SOL     OW23137   3.870   1.733   4.560 -0.6107 -0.0352  0.1908
 3893SOL    HW123138   3.929   1.697   4.626 -0.7758 -1.7394 -0.5941
 3893SOL    HW223139   3.887   1.670   4.489  1.0689 -0.3612  0.8881
 3894SOL     OW23140   1.598   1.124   7.062  0.3574 -0.7439  0.3676
 3894SOL    HW123141   1.554   1.039   7.064  0.3005 -0.7522 -1.4435
 3894SOL    HW223142   1.614   1.124   6.967  0.9970 -2.8027  0.4607
 3895SOL     OW23143   0.471   0.944  16.679  0.1025 -0.2658 -0.5486
 3895SOL    HW123144   0.495   1.013  16.617  0.8535  0.1960  0.2470
 3895SOL    HW223145   0.435   1.005  16.744 -0.6118 -1.1976 -0.0640
 3896SOL     OW23146   2.858   4.346  12.948  0.4277  0.5547  0.2998
 3896SOL    HW123147   2.765   4.363  12.958  0.1797 -1.5817  1.4667
 3896SOL    HW223148   2.857   4.321  12.856 -0.0287  1.6834 -0.0092
 3897SOL     OW23149   2.360   1.684   8.889 -0.2160 -0.2923 -0.3155
 3897SOL    HW123150   2.276   1.709   8.852  0.7179  2.0859 -0.7844
 3897SOL    HW223151   2.368   1.590   8.869  0.4863 -0.5098  0.9407
 3898SOL     OW23152   1.946   2.981   5.097 -0.1039 -0.1262  0.1204
 3898SOL    HW123153   1.866   2.948   5.137 -0.1408  0.8345  0.8230
 3898SOL    HW223154   2.018   2.969   5.158  1.9021 -0.5075 -2.2901
 3899SOL     OW23155   1.101   2.274  15.929 -0.4050 -0.3777  0.0739
 3899SOL    HW123156   1.175   2.315  15.885 -0.6883  0.4654  0.3792
 3899SOL    HW223157   1.043   2.248  15.858 -0.7978 -2.1979  1.0642
 3900SOL     OW23158   2.478   0.711   4.201 -0.3209  0.7147  0.1501
 3900SOL    HW123159   2.403   0.764   4.173 -1.6804 -0.6503  1.2340
 3900SOL    HW223160   2.464   0.629   4.154 -1.0900  0.7976  0.2320
 3901SOL     OW23161   0.754   3.222   0.714 -0.4278  0.2144 -0.2670
 3901SOL    HW123162   0.759   3.302   0.662 -4.4064  0.5193 -0.1655
 3901SOL    HW223163   0.843   3.187   0.706 -0.0795  0.8944  0.5926
 3902SOL     OW23164   1.201   4.136   1.096 -0.7333 -0.0587  0.1728
 3902SOL    HW123165   1.255   4.057   1.091  0.5413  0.9853 -2.6821
 3902SOL    HW223166   1.136   4.103   1.157  0.8808  0.4996  2.1791
 3903SOL     OW23167   4.317   1.209   7.453  0.8417 -0.5236  0.0356
 3903SOL    HW123168   4.230   1.172   7.470  0.3316  1.3275  1.5243
 3903SOL    HW223169   4.339   1.248   7.538 -0.6787  0.5325 -0.0464
 3904SOL     OW23170   3.693   4.416  10.924  0.6442 -0.9332 -0.4454
 3904SOL    HW123171   3.718   4.353  10.856 -0.5933 -1.6497 -0.2389
 3904SOL    HW223172   3.715   4.501  10.886  3.3344 -1.3981  0.0369
 3905SOL     OW23173   0.354   4.028   9.366 -0.8334 -0.1569  0.1184
 3905SOL    HW123174   0.371   4.112   9.324 -2.7411  0.0967 -0.1776
 3905SOL    HW223175   0.376   4.060   9.453  4.1201 -1.4168 -0.6895
 3906SOL     OW23176   1.235   1.224   7.909 -0.0952 -0.3856 -0.4010
 3906SOL    HW123177   1.159   1.212   7.852  0.2105  1.9085 -1.2778
 3906SOL    HW223178   1.259   1.135   7.935  3.9328  0.9915  0.4615
 3907SOL     OW23179   2.381   0.760  12.198  0.2518 -0.0227 -0.3320
 3907SOL    HW123180   2.409   0.823  12.132  3.7688 -0.2899  0.9078
 3907SOL    HW223181   2.316   0.816  12.241  1.4278  1.6304 -0.7170
 3908SOL     OW23182   3.172   0.763   4.707 -0.3873  0.2824 -0.1071
 3908SOL    HW123183   3.166   0.849   4.664 -1.8565  0.2167 -0.0567
 3908SOL    HW223184   3.084   0.756   4.744 -1.3450  1.4386 -2.1426
 3909SOL     OW23185   2.987   2.992   6.265  0.4671  0.0996 -0.1154
 3909SOL    HW123186   2.898   3.026   6.274  0.3120 -0.2209 -0.4686
 3909SOL    HW223187   3.029   3.078   6.266  1.4355 -0.3727 -1.0941
 3910SOL     OW23188   4.248   2.881   8.241  0.0015  0.1895  0.6646
 3910SOL    HW123189   4.179   2.946   8.237 -0.9927 -0.9405 -0.6789
 3910SOL    HW223190   4.221   2.833   8.319 -0.4641 -0.0727  0.3414
 3911SOL     OW23191   3.369   1.993   5.574 -0.3470 -0.1883 -0.0973
 3911SOL    HW123192   3.438   1.927   5.583  0.7700  0.9345 -0.5037
 3911SOL    HW223193   3.362   2.008   5.480  0.2843 -0.7492 -0.2369
 3912SOL     OW23194   1.785   3.910   2.775 -0.7901 -0.6444 -0.1112
 3912SOL    HW123195   1.814   4.001   2.770  1.5338 -1.4684 -2.2642
 3912SOL    HW223196   1.858   3.873   2.825  0.9023 -1.8304 -3.4322
 3913SOL     OW23197   3.463   1.370   1.485  0.1817 -0.0562 -0.3776
 3913SOL    HW123198   3.389   1.400   1.537  0.7264 -0.3838  0.5909
 3913SOL    HW223199   3.425   1.340   1.402 -2.0913  0.2826  0.5586
 3914SOL     OW23200   1.610   3.314   6.816  0.1420  0.1649  0.0732
 3914SOL    HW123201   1.632   3.266   6.737  4.1087  1.8237  0.1614
 3914SOL    HW223202   1.686   3.303   6.873 -0.0627  1.3292  0.5831
 3915SOL     OW23203   3.618   3.547  16.759 -0.0818 -0.5216 -0.0346
 3915SOL    HW123204   3.678   3.517  16.827 -0.5045 -3.2940 -0.8565
 3915SOL    HW223205   3.677   3.609  16.717 -1.3973  0.6417 -0.1393
 3916SOL     OW23206   1.430   4.455   5.277 -0.1224 -0.2164 -0.0594
 3916SOL    HW123207   1.418   4.361   5.261  0.2061 -0.3898  0.7281
 3916SOL    HW223208   1.480   4.493   5.206  0.2803 -0.5361  0.0512
 3917SOL     OW23209   0.891   3.346   5.076  0.9952 -0.0099  0.1634
 3917SOL    HW123210   0.957   3.384   5.134  0.0983 -2.4228  2.7766
 3917SOL    HW223211   0.817   3.365   5.134  0.3629 -0.6960 -0.4186
 3918SOL     OW23212   0.817   4.329   4.134  1.2992 -0.0418  0.3558
 3918SOL    HW123213   0.863   4.251   4.103 -1.0363 -0.2897 -2.4505
 3918SOL    HW223214   0.761   4.295   4.204  3.6952 -2.3734  1.1532
 3919SOL     OW23215   3.464   0.236   5.596  0.2884  0.3697  0.3386
 3919SOL    HW123216   3.540   0.287   5.569  0.7178 -0.4614 -0.0214
 3919SOL    HW223217   3.489   0.155   5.552 -2.0799  0.2691 -0.7890
 3920SOL     OW23218   1.737   0.266  14.999 -0.4296  0.1361  0.0356
 3920SOL    HW123219   1.758   0.325  14.926  0.2299  0.2209  0.2967
 3920SOL    HW223220   1.826   0.268  15.034 -0.2526 -1.8392 -0.3558
 3921SOL     OW23221   3.662   4.154   9.627  0.0338  0.3355 -0.8484
 3921SOL    HW123222   3.633   4.065   9.607 -0.0267  0.0573  0.4904
 3921SOL    HW223223   3.756   4.142   9.641 -0.0539 -0.6286 -1.0526
 3922SOL     OW23224   1.016   3.584   0.251 -0.3483 -0.5004  0.2197
 3922SOL    HW123225   0.974   3.622   0.328 -2.6977 -1.0526 -0.8137
 3922SOL    HW223226   0.976   3.635   0.181  2.4623 -1.0533 -1.8141
 3923SOL     OW23227   1.863   1.901   3.436 -0.1481  0.4672  0.1895
 3923SOL    HW123228   1.803   1.847   3.385  0.4849 -1.0906  1.0850
 3923SOL    HW223229   1.937   1.910   3.376 -0.3772 -0.0084 -0.1633
 3924SOL     OW23230   0.234   1.303   9.136 -0.2777  0.0075  0.1875
 3924SOL    HW123231   0.209   1.395   9.125  0.2101  0.2830  1.3916
 3924SOL    HW223232   0.325   1.323   9.159 -1.2215  1.4283  2.7170
 3925SOL     OW23233   2.904   2.541  12.011 -0.6045 -0.2018 -0.7050
 3925SOL    HW123234   2.912   2.593  11.931  0.5365  2.8423  1.3948
 3925SOL    HW223235   2.837   2.590  12.058 -0.8481 -1.3499  0.1451
 3926SOL     OW23236   3.844   2.995  11.221 -0.1121 -0.4743 -0.2268
 3926SOL    HW123237   3.889   2.911  11.209 -0.2341 -0.1567 -2.9614
 3926SOL    HW223238   3.786   2.968  11.292  0.1748  1.2203  0.6484
 3927SOL     OW23239   1.981   1.853  10.109 -0.2304  0.1891 -0.1786
 3927SOL    HW123240   1.979   1.848  10.204  1.3737  2.3274 -0.0320
 3927SOL    HW223241   2.045   1.920  10.087  0.2005 -0.1570  0.0115
 3928SOL     OW23242   1.674   2.714   4.289  0.1262  0.0579  0.3379
 3928SOL    HW123243   1.586   2.707   4.255  0.0118  2.2508  0.1324
 3928SOL    HW223244   1.733   2.711   4.214 -0.9884  2.6074 -0.6392
 3929SOL     OW23245   3.740   2.770  11.891 -0.1474  0.0333  0.5617
 3929SOL    HW123246   3.792   2.695  11.918  0.2755 -0.6284 -2.1458
 3929SOL    HW223247   3.777   2.832  11.954 -0.9101  0.5570  0.4937
 3930SOL     OW23248   0.778   1.121  10.430 -0.7500  0.1479 -0.0419
 3930SOL    HW123249   0.735   1.204  10.452 -0.2964 -0.4174  2.9914
 3930SOL    HW223250   0.797   1.084  10.516 -1.8667 -2.8942 -1.1017
 3931SOL     OW23251   3.015   1.540   3.807  0.6887  0.3520 -0.0405
 3931SOL    HW123252   2.944   1.562   3.747 -0.3978  1.6761  1.7433
 3931SOL    HW223253   3.068   1.498   3.740 -0.1307 -1.6657  0.5792
 3932SOL     OW23254   4.350   3.942   7.515 -0.0113  0.6398 -0.2403
 3932SOL    HW123255   4.372   3.984   7.431 -0.5950  0.3352 -0.5506
 3932SOL    HW223256   4.419   3.877   7.528  0.6704  1.5992  0.9421
 3933SOL     OW23257   2.232   4.036   1.418 -0.0400  0.4398 -0.5309
 3933SOL    HW123258   2.285   4.097   1.366 -1.2261 -0.3999 -2.7272
 3933SOL    HW223259   2.187   4.096   1.478 -0.1551 -0.0228 -0.1616
 3934SOL     OW23260   4.382   1.657  13.757 -0.2936 -0.6834 -0.2388
 3934SOL    HW123261   4.350   1.616  13.837  2.8997  0.0787  1.4172
 3934SOL    HW223262   4.301   1.705  13.740 -0.0873  1.0255  3.5975
 3935SOL     OW23263   0.701   2.983  15.424  0.2362 -0.1345 -0.1704
 3935SOL    HW123264   0.735   3.033  15.498 -3.0058  2.4439 -0.3912
 3935SOL    HW223265   0.783   2.978  15.376 -0.4571 -1.1797 -1.2585
 3936SOL     OW23266   3.861   3.243   8.865  0.2696 -0.7566 -0.4790
 3936SOL    HW123267   3.908   3.200   8.794  0.8819 -1.6200  0.4554
 3936SOL    HW223268   3.820   3.320   8.825  0.5491 -0.5663 -0.4021
 3937SOL     OW23269   0.992   0.641   3.484 -0.4625  0.4962 -0.1354
 3937SOL    HW123270   1.068   0.695   3.461 -0.4745  1.1702  1.3720
 3937SOL    HW223271   0.967   0.589   3.408 -1.1401 -1.1994  1.2641
 3938SOL     OW23272   2.562   2.672   2.660  0.1174  0.0963 -0.7831
 3938SOL    HW123273   2.628   2.740   2.644  0.9703 -0.6780 -0.5352
 3938SOL    HW223274   2.531   2.645   2.573  1.4800 -0.0473 -1.2300
 3939SOL     OW23275   4.513   3.555   4.679 -0.0840 -0.5033  0.3005
 3939SOL    HW123276   4.538   3.578   4.590 -0.0763 -0.9889  0.1745
 3939SOL    HW223277   4.420   3.537   4.669 -0.1417  0.4865 -0.9749
 3940SOL     OW23278   2.484   1.110   9.619  0.5089  0.1440 -0.5022
 3940SOL    HW123279   2.450   1.087   9.706  0.9820 -0.1458 -0.3922
 3940SOL    HW223280   2.457   1.202   9.615 -0.0299 -0.0563 -1.4171
 3941SOL     OW23281   2.236   1.368  14.399  0.0180 -0.1425 -0.2790
 3941SOL    HW123282   2.233   1.322  14.315 -1.6970 -0.7316  0.0948
 3941SOL    HW223283   2.161   1.427  14.388 -0.5137 -0.6412  0.7129
 3942SOL     OW23284   3.956   2.095   0.255 -1.0046  0.4595 -0.4711
 3942SOL    HW123285   3.943   2.003   0.232 -0.6049  0.0825  0.7748
 3942SOL    HW223286   4.038   2.108   0.206  0.6725 -0.3993  2.0766
 3943SOL     OW23287   2.186   2.451   0.700  0.2977 -0.2933 -0.3740
 3943SOL    HW123288   2.125   2.427   0.630 -2.5744 -0.4044  2.1712
 3943SOL    HW223289   2.230   2.369   0.718  1.8790 -0.0292 -3.0036
 3944SOL     OW23290   2.760   2.608   3.605 -0.0962 -0.4162  0.0007
 3944SOL    HW123291   2.790   2.669   3.673  1.6396  2.2684 -3.1913
 3944SOL    HW223292   2.671   2.641   3.593  0.0189 -0.1797 -0.1948
 3945SOL     OW23293   0.572   2.588   1.825  0.2126  0.4702  0.0439
 3945SOL    HW123294   0.587   2.681   1.804 -0.8864  0.2502 -1.7482
 3945SOL    HW223295   0.509   2.602   1.895  0.3912  0.8391  0.1310
 3946SOL     OW23296   4.236   0.286   2.368 -0.0977  0.0360  0.0885
 3946SOL    HW123297   4.310   0.280   2.308  1.0639  1.3227  1.3730
 3946SOL    HW223298   4.230   0.198   2.406 -1.4854  0.3135  0.5030
 3947SOL     OW23299   4.283   2.503   8.590 -0.5032 -0.2572 -0.2724
 3947SOL    HW123300   4.311   2.480   8.679 -1.8928 -2.8651 -0.5237
 3947SOL    HW223301   4.340   2.578   8.570  1.2850 -2.0632 -2.0455
 3948SOL     OW23302   3.610   0.970   8.123  0.2268  0.4282  0.1977
 3948SOL    HW123303   3.678   1.037   8.112 -0.7884  1.6602  1.4342
 3948SOL    HW223304   3.539   1.033   8.136 -0.9560 -0.7455 -0.6363
 3949SOL     OW23305   3.009   3.027   7.713 -0.1794 -0.0194  0.2948
 3949SOL    HW123306   3.014   2.968   7.789  0.4801 -0.1745  0.1293
 3949SOL    HW223307   3.019   2.958   7.647 -0.9044 -0.2320  0.4110
 3950SOL     OW23308   1.217   2.864  12.649 -0.0052 -0.3508 -0.1991
 3950SOL    HW123309   1.275   2.922  12.599 -0.8588  0.9168  0.2638
 3950SOL    HW223310   1.274   2.789  12.663  1.8731  1.2557  0.8875
 3951SOL     OW23311   3.228   3.527   4.485  0.0074  0.1564 -0.5978
 3951SOL    HW123312   3.246   3.596   4.420 -0.9506  0.9299 -0.0363
 3951SOL    HW223313   3.284   3.552   4.558 -1.5547 -0.9987  0.9719
 3952SOL     OW23314   2.924   2.316   4.381  0.0290  0.0276  0.7329
 3952SOL    HW123315   3.011   2.353   4.370 -0.1754  0.9953  2.2712
 3952SOL    HW223316   2.904   2.274   4.298  2.0861 -0.6626  0.5781
 3953SOL     OW23317   3.637   3.111   7.528 -0.4331  0.2102  0.6697
 3953SOL    HW123318   3.563   3.112   7.588  0.1038  2.7658  1.2486
 3953SOL    HW223319   3.598   3.087   7.444 -0.0535 -0.1517  0.5941
 3954SOL     OW23320   2.937   0.963   7.494  0.1558 -0.8986 -0.4170
 3954SOL    HW123321   3.011   0.959   7.434 -0.4127  2.5367 -1.3606
 3954SOL    HW223322   2.973   0.921   7.572 -0.2123  0.0684  0.2782
 3955SOL     OW23323   3.126   1.341   0.665  0.0101 -0.1477 -0.0016
 3955SOL    HW123324   3.038   1.326   0.631 -0.4337 -0.5365  1.3348
 3955SOL    HW223325   3.111   1.309   0.753  0.8211 -1.5521 -0.3736
 3956SOL     OW23326   3.765   2.600  16.535 -0.5564 -0.0650 -0.1920
 3956SOL    HW123327   3.854   2.618  16.564  0.6815 -1.3508 -3.1376
 3956SOL    HW223328   3.765   2.634  16.445 -0.6213  0.4205 -0.0055
 3957SOL     OW23329   2.313   2.193   6.932 -0.0253  0.0631  0.0919
 3957SOL    HW123330   2.345   2.255   6.866  1.4883 -1.5108 -0.6491
 3957SOL    HW223331   2.224   2.227   6.941  0.2534  0.9895 -0.6181
 3958SOL     OW23332   1.869   2.717   5.667 -0.3251 -0.0207 -0.6074
 3958SOL    HW123333   1.863   2.679   5.755 -0.0122  0.7576 -0.2523
 3958SOL    HW223334   1.941   2.779   5.672 -0.3480 -0.1455  1.5191
 3959SOL     OW23335   3.329   0.081   7.095  0.0934  0.0230 -0.3169
 3959SOL    HW123336   3.243   0.072   7.055  0.1410  0.3984 -0.4980
 3959SOL    HW223337   3.371   0.134   7.027 -2.0961  1.2165 -0.7285
 3960SOL     OW23338   1.629   2.280   9.791 -0.6196  0.1671 -0.3493
 3960SOL    HW123339   1.545   2.270   9.746 -1.3855  0.1798  1.0778
 3960SOL    HW223340   1.604   2.343   9.859 -0.0443 -1.9842  1.8546
 3961SOL     OW23341   2.600   3.158   3.680 -0.1062 -0.1715 -0.0137
 3961SOL    HW123342   2.612   3.235   3.735  0.7986 -0.0346 -0.3930
 3961SOL    HW223343   2.637   3.181   3.595 -2.9563 -2.2377 -1.8246
 3962SOL     OW23344   2.143   2.176   7.539  0.2273 -0.3524 -0.5516
 3962SOL    HW123345   2.054   2.158   7.511  0.2333 -0.8068 -0.2700
 3962SOL    HW223346   2.152   2.133   7.624 -0.1879  0.3902 -0.1395
 3963SOL     OW23347   2.892   3.748   2.928  0.3317  0.3161 -0.0859
 3963SOL    HW123348   2.936   3.807   2.989  0.3936  2.2220 -1.9696
 3963SOL    HW223349   2.802   3.758   2.958 -0.1381 -3.4830 -0.1937
 3964SOL     OW23350   0.949   4.189   4.396 -0.3777 -1.2134 -0.1881
 3964SOL    HW123351   0.894   4.258   4.434 -0.5991 -1.7075  0.3995
 3964SOL    HW223352   1.039   4.189   4.429 -0.8734  0.4544  1.1822
 3965SOL     OW23353   3.840   1.159   8.167 -0.5014  0.3109  0.2865
 3965SOL    HW123354   3.927   1.131   8.197 -0.5492 -1.1411 -0.9058
 3965SOL    HW223355   3.846   1.254   8.180  0.7624  0.3406 -0.5103
 3966SOL     OW23356   0.691   1.096   8.137  0.5292  0.1877 -0.5359
 3966SOL    HW123357   0.596   1.085   8.140  0.4976  0.9548  1.2998
 3966SOL    HW223358   0.717   1.029   8.200  1.8060 -0.3612 -1.6442
 3967SOL     OW23359   0.615   0.420   5.351  0.4303 -0.2936 -0.0625
 3967SOL    HW123360   0.602   0.387   5.440 -0.2566 -2.9690 -1.1338
 3967SOL    HW223361   0.591   0.512   5.360  1.1892  0.0198 -1.3653
 3968SOL     OW23362   4.053   3.552   2.933  0.2251 -0.3691 -0.3613
 3968SOL    HW123363   4.061   3.486   2.864 -1.3571  0.3616 -1.2494
 3968SOL    HW223364   4.068   3.628   2.877  2.3879 -1.3937 -1.1643
 3969SOL     OW23365   3.794   1.846  10.763 -0.2085  0.5565  0.2216
 3969SOL    HW123366   3.832   1.884  10.841  1.2393  0.0694 -0.2512
 3969SOL    HW223367   3.875   1.814  10.722 -0.8691  1.8057 -2.0342
 3970SOL     OW23368   4.223   4.640  13.577  0.1802 -0.1714 -0.0987
 3970SOL    HW123369   4.272   4.646  13.660 -0.1758  0.2708  0.0763
 3970SOL    HW223370   4.293   4.594  13.531 -0.0088  1.2860 -1.8181
 3971SOL     OW23371   4.076   4.240   0.791  0.3232  0.0427  0.0913
 3971SOL    HW123372   4.158   4.201   0.820  0.6847  1.4461  1.0002
 3971SOL    HW223373   4.052   4.178   0.723  2.0155 -1.5404  0.9411
 3972SOL     OW23374   2.534   3.800  15.010  0.0131 -0.2777  0.2716
 3972SOL    HW123375   2.495   3.810  14.923 -0.8994 -0.6104  0.6493
 3972SOL    HW223376   2.560   3.709  14.997  0.0768 -0.1708 -0.3607
 3973SOL     OW23377   4.591   4.293  14.236  0.0062  0.0857 -0.1450
 3973SOL    HW123378   4.684   4.303  14.215  0.7987 -0.2417  3.1800
 3973SOL    HW223379   4.564   4.278  14.145 -0.1892 -0.0591 -0.0618
 3974SOL     OW23380   4.059   3.680  16.822  0.4726  0.3083  0.0317
 3974SOL    HW123381   4.080   3.587  16.816 -1.5981 -0.1576 -0.0584
 3974SOL    HW223382   4.137   3.717  16.862  0.0397 -0.3096  1.4412
 3975SOL     OW23383   2.827   2.837   4.567 -0.2268 -0.4241  0.2011
 3975SOL    HW123384   2.793   2.848   4.656 -1.1717 -1.1669 -0.0625
 3975SOL    HW223385   2.881   2.914   4.549  1.8037 -1.6187  1.0670
 3976SOL     OW23386   2.077   0.148  10.192  0.5801 -0.3057  0.1244
 3976SOL    HW123387   1.996   0.113  10.154 -0.5856 -0.7380  2.9797
 3976SOL    HW223388   2.051   0.145  10.284  0.2649  4.1049  0.1589
 3977SOL     OW23389   1.975   4.441   4.232 -0.0965 -0.0155  0.5139
 3977SOL    HW123390   2.067   4.468   4.237 -0.1860  0.4995 -0.6696
 3977SOL    HW223391   1.949   4.461   4.322  0.1257 -0.3379  0.6523
 3978SOL     OW23392   1.278   1.798   1.479  0.1679 -0.3973  0.4313
 3978SOL    HW123393   1.332   1.844   1.415  0.2330  0.6182  1.2227
 3978SOL    HW223394   1.296   1.709   1.448  0.9791  0.2152 -0.8389
 3979SOL     OW23395   1.458   4.252  16.943  0.2634 -0.3499 -0.0241
 3979SOL    HW123396   1.552   4.268  16.952  0.4650 -1.7161  0.3063
 3979SOL    HW223397   1.463   4.161  16.913  2.8775 -0.1551 -0.1728
 3980SOL     OW23398   3.834   2.429  10.613 -0.1191  0.0926 -0.0641
 3980SOL    HW123399   3.791   2.438  10.698  0.6105 -0.6085  0.3871
 3980SOL    HW223400   3.807   2.513  10.576 -0.2646  0.5881  1.1793
 3981SOL     OW23401   3.601   4.661   3.347 -0.3033  0.4053 -0.9668
 3981SOL    HW123402   3.541   4.704   3.286  0.5825  1.8647 -0.8020
 3981SOL    HW223403   3.614   4.582   3.294  2.1272 -0.3479  0.7655
 3982SOL     OW23404   3.253   1.635   3.044  0.0731 -0.6193  0.7686
 3982SOL    HW123405   3.278   1.546   3.019 -2.0464 -0.4424 -2.0234
 3982SOL    HW223406   3.303   1.681   2.977 -0.3812 -0.8075  0.2995
 3983SOL     OW23407   0.929   1.099  15.892 -0.3178  0.1271 -0.2578
 3983SOL    HW123408   0.955   1.177  15.842 -0.1958  0.4167  0.2653
 3983SOL    HW223409   0.879   1.054  15.823 -0.5472  0.6436 -0.4316
 3984SOL     OW23410   1.874   4.721   0.017  0.4644 -0.4637 -0.3029
 3984SOL    HW123411   1.947   4.661   0.006 -1.5743 -2.9211 -0.3742
 3984SOL    HW223412   1.912   0.084   0.013 -4.0320  1.5619  0.5471
 3985SOL     OW23413   4.692   2.133  10.109 -0.2545 -0.1754 -0.7834
 3985SOL    HW123414   4.677   2.085  10.027 -0.2694 -0.4447 -0.6229
 3985SOL    HW223415   4.723   2.217  10.076 -1.1656  0.4822  0.0854
 3986SOL     OW23416   2.909   0.640   4.466 -0.0823 -0.5913  0.4713
 3986SOL    HW123417   2.838   0.700   4.444  1.1635  0.8083  0.2159
 3986SOL    HW223418   2.980   0.682   4.417 -1.1397 -0.2558 -0.7838
 3987SOL     OW23419   3.871   4.010   8.797  0.2570  0.3610 -0.0471
 3987SOL    HW123420   3.804   3.999   8.864 -0.5970  2.9540 -0.4543
 3987SOL    HW223421   3.863   4.104   8.776 -1.4264  0.1151 -0.5323
 3988SOL     OW23422   4.600   4.377   5.226  0.9114 -0.3639  0.2378
 3988SOL    HW123423   4.544   4.346   5.154 -0.3572 -1.1790  1.5652
 3988SOL    HW223424   4.655   4.299   5.236  1.2446 -0.2476 -0.6754
 3989SOL     OW23425   1.699   3.577   6.396  0.0200  0.2089  0.1214
 3989SOL    HW123426   1.768   3.534   6.447 -1.1315  1.1934  2.5147
 3989SOL    HW223427   1.617   3.578   6.444  0.8399  1.8692  1.4920
 3990SOL     OW23428   1.664   3.758   2.546  0.3433 -0.3838  0.1381
 3990SOL    HW123429   1.604   3.735   2.617  0.4458  1.2342  0.7326
 3990SOL    HW223430   1.747   3.757   2.594 -0.5543  1.5616  1.7012
 3991SOL     OW23431   0.015   3.968   7.624  0.5789  0.2907 -0.2790
 3991SOL    HW123432   4.682   3.891   7.630  1.8443 -0.7842 -2.0241
 3991SOL    HW223433   4.686   4.038   7.663 -2.9904 -1.3431 -2.2124
 3992SOL     OW23434   1.507   4.036   3.551  0.1392 -0.5571  0.2952
 3992SOL    HW123435   1.592   4.081   3.554 -0.6592  1.0949 -1.1551
 3992SOL    HW223436   1.530   3.956   3.504 -0.5655 -0.7114  0.2094
 3993SOL     OW23437   0.706   1.639  14.668 -0.1006 -0.1886  0.2056
 3993SOL    HW123438   0.751   1.558  14.693  0.3004  0.2566  0.9158
 3993SOL    HW223439   0.617   1.616  14.697  0.0438  0.7405  1.3760
 3994SOL     OW23440   4.562   3.244  16.398 -0.2932 -0.1328 -0.0635
 3994SOL    HW123441   4.619   3.315  16.368 -0.8099 -0.3906 -1.6698
 3994SOL    HW223442   4.570   3.192  16.318 -0.1034  1.4762 -1.0933
 3995SOL     OW23443   0.201   0.309   5.465 -0.4952 -0.2254  0.6662
 3995SOL    HW123444   0.151   0.333   5.543  1.2381  1.3047  1.3101
 3995SOL    HW223445   0.172   0.218   5.451  0.6208 -0.7126  1.4900
 3996SOL     OW23446   1.481   0.701   3.445  0.0740 -0.1626 -0.2860
 3996SOL    HW123447   1.419   0.755   3.492  2.1278  2.3921 -0.5011
 3996SOL    HW223448   1.541   0.665   3.510  0.1929  0.0059 -0.3032
 3997SOL     OW23449   2.166   3.307   5.612 -0.3153  0.2414  0.6977
 3997SOL    HW123450   2.146   3.400   5.610 -2.3221 -0.2272 -2.0014
 3997SOL    HW223451   2.219   3.287   5.688  1.9416  1.8893 -0.4465
 3998SOL     OW23452   4.653   0.901   9.436  0.1596 -0.0078  0.5320
 3998SOL    HW123453   4.659   0.995   9.415  0.3418 -0.4499 -1.3505
 3998SOL    HW223454   4.709   0.863   9.369  1.8747 -1.1563  2.6375
 3999SOL     OW23455   0.810   4.645   6.078 -0.5157 -0.5932  0.4107
 3999SOL    HW123456   0.772   4.704   6.013  1.1717 -1.8849 -1.7605
 3999SOL    HW223457   0.793   4.563   6.031 -1.1154 -0.1799 -0.0884
 4000SOL     OW23458   2.130   0.915  10.467 -0.2835  0.2493 -0.1437
 4000SOL    HW123459   2.106   0.905  10.559 -0.5616 -0.2598 -0.2739
 4000SOL    HW223460   2.208   0.969  10.481  1.6740 -2.7027  0.2727
 4001SOL     OW23461   1.362   2.686   4.632 -0.2049 -0.4963 -0.4682
 4001SOL    HW123462   1.436   2.652   4.581 -0.1908  1.6865 -1.8823
 4001SOL    HW223463   1.313   2.726   4.560  0.1225  1.0731  0.1775
 4002SOL     OW23464   1.549   2.664   6.251  0.3559 -0.1239  0.1220
 4002SOL    HW123465   1.544   2.684   6.344 -1.1050  2.5947 -0.5545
 4002SOL    HW223466   1.582   2.574   6.253  2.1722  0.4432 -3.8446
 4003SOL     OW23467   2.918   1.729  15.448 -0.0463  0.2619 -0.2840
 4003SOL    HW123468   2.892   1.781  15.523 -1.9186 -0.5881 -0.3315
 4003SOL    HW223469   3.003   1.770  15.436  1.0808 -1.3553  2.1960
 4004SOL     OW23470   0.554   2.955   3.281  0.0830 -0.4554  0.2741
 4004SOL    HW123471   0.536   3.002   3.199  0.4266 -1.7745 -0.5639
 4004SOL    HW223472   0.605   3.020   3.329 -2.1521  0.1913  1.7613
 4005SOL     OW23473   4.347   2.968   7.989 -0.2656  0.2687 -0.4273
 4005SOL    HW123474   4.322   2.993   8.078 -1.4406 -0.3278 -0.5892
 4005SOL    HW223475   4.299   2.885   7.984  0.3939 -0.3033  3.0190
 4006SOL     OW23476   2.366   1.314   1.599  0.2674  0.3594 -0.2389
 4006SOL    HW123477   2.415   1.300   1.518 -0.0558  0.6624 -0.4874
 4006SOL    HW223478   2.362   1.226   1.637 -0.3093  0.5387  0.1170
 4007SOL     OW23479   0.186   0.336   2.438 -0.3175 -0.5555  0.4719
 4007SOL    HW123480   0.177   0.368   2.349 -0.4945 -0.7650  0.4133
 4007SOL    HW223481   0.228   0.251   2.426  2.3663  0.8097  0.2248
 4008SOL     OW23482   1.778   0.603   8.448  0.2620  0.7728 -0.2000
 4008SOL    HW123483   1.717   0.538   8.482  0.6266 -1.9047 -4.5859
 4008SOL    HW223484   1.851   0.596   8.510 -0.0688  1.1713  0.2322
 4009SOL     OW23485   3.706   4.440   6.043  1.1037 -0.2303 -0.0980
 4009SOL    HW123486   3.653   4.361   6.045  0.7775  0.0552  2.5619
 4009SOL    HW223487   3.675   4.487   6.120 -1.7062 -0.2453 -1.2557
 4010SOL     OW23488   0.517   3.548   3.512 -0.2684 -0.0194  0.2919
 4010SOL    HW123489   0.487   3.505   3.432 -0.6355 -2.4504  1.7385
 4010SOL    HW223490   0.504   3.479   3.577  0.8494  0.5458  1.1071
 4011SOL     OW23491   4.515   3.331   8.725 -0.5563  0.2531 -0.1764
 4011SOL    HW123492   4.514   3.374   8.640  0.6936  0.2380 -0.1896
 4011SOL    HW223493   4.427   3.294   8.719  0.4157 -2.3086  1.0845
 4012SOL     OW23494   2.384   2.459   9.327 -0.2445  0.1958  0.2722
 4012SOL    HW123495   2.289   2.458   9.314 -0.4552  0.1784  1.8704
 4012SOL    HW223496   2.415   2.498   9.245 -0.6769  1.8494  0.8958
 4013SOL     OW23497   0.283   3.405   6.678  0.7153  0.0536 -0.1857
 4013SOL    HW123498   0.240   3.363   6.604  1.1504  0.7247 -0.8169
 4013SOL    HW223499   0.316   3.489   6.647  0.5099 -0.5842 -2.0849
 4014SOL     OW23500   3.997   1.755  14.849  0.1676 -0.5248  0.1315
 4014SOL    HW123501   3.969   1.768  14.940  1.4023 -0.4905  0.5152
 4014SOL    HW223502   3.956   1.830  14.807 -1.7712 -0.9119  1.2959
 4015SOL     OW23503   4.288   1.456  14.943  0.1361 -0.1744 -0.3703
 4015SOL    HW123504   4.261   1.459  14.851  1.2850 -0.3797 -0.7257
 4015SOL    HW223505   4.201   1.437  14.977  0.4201  0.7122  0.8130
 4016SOL     OW23506   2.012   3.305  17.449  0.6921  0.3684 -0.4220
 4016SOL    HW123507   1.927   3.344  17.466  0.6432  0.5963 -1.1847
 4016SOL    HW223508   2.009   3.298  17.354 -2.6635 -2.2618 -0.1236
 4017SOL     OW23509   0.191   1.451   7.652  0.4265 -0.5143  0.3276
 4017SOL    HW123510   0.117   1.487   7.701  0.0132  0.6149 -1.1310
 4017SOL    HW223511   0.266   1.496   7.691  0.8401 -0.4808 -0.5023
 4018SOL     OW23512   2.707   2.165   9.259 -0.1265  0.2400 -0.4009
 4018SOL    HW123513   2.690   2.250   9.301  0.5750  1.0668 -1.7750
 4018SOL    HW223514   2.622   2.122   9.269 -0.0225  0.1594  0.0984
 4019SOL     OW23515   4.006   0.875   5.796 -0.5571 -0.1948 -0.3159
 4019SOL    HW123516   4.000   0.788   5.835 -0.2175  0.0692  0.3268
 4019SOL    HW223517   4.004   0.850   5.703 -0.5541  0.8311 -0.5982
 4020SOL     OW23518   1.802   4.496   5.526  0.0721  0.2231 -0.4831
 4020SOL    HW123519   1.891   4.485   5.492  0.4658  0.2546  0.5467
 4020SOL    HW223520   1.799   4.415   5.577 -1.0080  0.4773 -0.1357
 4021SOL     OW23521   0.282   2.327   3.683 -0.0841 -0.4361 -0.0132
 4021SOL    HW123522   0.355   2.282   3.727 -0.0962 -1.4782 -1.0515
 4021SOL    HW223523   0.208   2.272   3.706  0.5309 -0.9228  0.7902
 4022SOL     OW23524   0.738   2.101   8.197  0.7664 -0.1167 -0.3646
 4022SOL    HW123525   0.732   2.154   8.118  2.6736  1.8914  0.8219
 4022SOL    HW223526   0.831   2.113   8.220  0.6665 -0.0340 -0.0046
 4023SOL     OW23527   2.222   3.977  14.900  0.5256 -0.2875  0.2118
 4023SOL    HW123528   2.230   3.909  14.966 -0.8864  0.0637  0.7297
 4023SOL    HW223529   2.304   4.026  14.909  1.1125 -1.2703  0.2915
 4024SOL     OW23530   1.997   2.550  14.043  0.1958 -0.5532 -0.5889
 4024SOL    HW123531   1.903   2.538  14.025  0.0307 -1.3230  0.7759
 4024SOL    HW223532   2.009   2.643  14.022  2.3677 -0.6193  0.3630
 4025SOL     OW23533   0.033   1.785   3.938  0.9231 -0.3826  0.4576
 4025SOL    HW123534   4.697   1.761   3.868  2.2677 -4.6348  0.7552
 4025SOL    HW223535   0.086   1.844   3.883  1.6431  0.0195  1.5703
 4026SOL     OW23536   1.494   3.507  17.546  0.1645  0.3699  0.8540
 4026SOL    HW123537   1.549   3.582  17.570 -0.2794  1.0088 -0.1500
 4026SOL    HW223538   1.419   3.514  17.605  0.2148  2.5925  0.6449
 4027SOL     OW23539   1.627   3.376   5.860  0.3040 -0.2241  0.3574
 4027SOL    HW123540   1.636   3.321   5.937  0.6246 -1.7694 -0.7912
 4027SOL    HW223541   1.569   3.445   5.891 -1.2855 -0.7966 -1.3203
 4028SOL     OW23542   1.998   3.289  10.374 -0.1947 -0.1039  0.4067
 4028SOL    HW123543   1.945   3.343  10.315  0.9426 -0.8709 -1.3045
 4028SOL    HW223544   1.939   3.220  10.406 -3.0968  2.1179 -0.1549
 4029SOL     OW23545   4.617   3.332   9.236 -0.0884 -0.2858  0.2500
 4029SOL    HW123546   4.569   3.382   9.302 -1.0824 -0.4319 -0.3548
 4029SOL    HW223547   4.631   3.255   9.290 -0.4053 -1.3878 -1.2272
 4030SOL     OW23548   3.236   3.423  11.996 -0.1986  0.3690 -0.1104
 4030SOL    HW123549   3.284   3.471  12.064 -0.5874 -0.3024  0.6327
 4030SOL    HW223550   3.147   3.456  12.009 -0.7814 -0.7348 -1.3526
 4031SOL     OW23551   1.411   3.663  16.436 -0.2374  0.0658 -0.5723
 4031SOL    HW123552   1.316   3.653  16.431 -0.2197  0.1635 -1.1149
 4031SOL    HW223553   1.422   3.706  16.351 -0.7610 -0.6799 -1.0218
 4032SOL     OW23554   2.825   2.002   9.062  0.5222 -0.3142 -0.0872
 4032SOL    HW123555   2.840   2.069   8.995  0.0759  1.8124  1.9141
 4032SOL    HW223556   2.781   2.046   9.135  2.0412 -1.1581  1.3213
 4033SOL     OW23557   0.015   2.866   4.032 -0.2169 -0.3931  0.1291
 4033SOL    HW123558   0.030   2.924   4.107 -0.5928  1.6460 -1.3627
 4033SOL    HW223559   0.073   2.912   3.971 -1.0703  0.2732 -0.1896
 4034SOL     OW23560   4.164   3.721   8.473 -0.2738  0.4037  0.6647
 4034SOL    HW123561   4.192   3.784   8.407  1.1113 -1.5047 -0.5823
 4034SOL    HW223562   4.129   3.788   8.532 -1.7146  0.6652 -0.4711
 4035SOL     OW23563   4.478   3.438   6.382  0.2114  0.3020  1.1126
 4035SOL    HW123564   4.499   3.454   6.290  0.2980 -1.2223  0.8691
 4035SOL    HW223565   4.388   3.470   6.389 -0.6890 -1.5682 -1.9991
 4036SOL     OW23566   2.855   4.718  16.171  0.6640 -0.7364 -0.2740
 4036SOL    HW123567   2.897   4.636  16.145 -2.0403 -1.9924 -0.7592
 4036SOL    HW223568   2.832   0.016  16.081  2.6828  1.8778 -0.1521
 4037SOL     OW23569   4.328   1.447  13.397 -0.2357 -0.0266  0.0968
 4037SOL    HW123570   4.345   1.539  13.376 -0.9898  0.2028  0.5191
 4037SOL    HW223571   4.325   1.400  13.313 -1.2779 -2.5284  1.5240
 4038SOL     OW23572   4.247   3.786  10.821  0.4718  0.2599  0.0405
 4038SOL    HW123573   4.332   3.754  10.790 -0.0685  0.5053 -1.6821
 4038SOL    HW223574   4.272   3.872  10.854 -3.7299  0.4228  2.8636
 4039SOL     OW23575   4.003   1.440   3.904 -0.0892  0.3234 -0.7349
 4039SOL    HW123576   3.956   1.490   3.836  1.6671  0.3885 -1.8876
 4039SOL    HW223577   4.087   1.484   3.898  0.0639  0.2901  0.9967
 4040SOL     OW23578   0.118   0.535  11.775 -0.4541 -0.2508 -0.2652
 4040SOL    HW123579   0.121   0.480  11.697 -1.5687  1.9637 -1.8371
 4040SOL    HW223580   0.031   0.572  11.762  0.8152  2.6575 -0.4698
 4041SOL     OW23581   3.345   2.725   3.985  0.8030  0.6778 -0.1572
 4041SOL    HW123582   3.385   2.653   4.033 -0.0012 -0.7034 -1.5789
 4041SOL    HW223583   3.347   2.694   3.894  1.4238  0.1204  0.0479
 4042SOL     OW23584   3.463   0.035   5.411  0.1363  0.0384  0.1383
 4042SOL    HW123585   3.546   0.033   5.364  1.1663 -0.7096  1.9657
 4042SOL    HW223586   3.426   4.681   5.369  1.4778 -0.5154 -0.0214
 4043SOL     OW23587   3.735   0.291   2.461 -0.4133  0.8194  0.5606
 4043SOL    HW123588   3.697   0.376   2.440 -1.0667  0.3605 -0.1349
 4043SOL    HW223589   3.682   0.274   2.539  0.2742 -2.7721  0.2442
 4044SOL     OW23590   3.899   0.467   6.250  0.3480 -0.1415  0.2219
 4044SOL    HW123591   3.969   0.408   6.280  0.9566  1.3976  1.8442
 4044SOL    HW223592   3.959   0.536   6.222 -0.3606  0.7762  0.9901
 4045SOL     OW23593   0.738   0.839   8.880  0.3359 -0.1484  0.1936
 4045SOL    HW123594   0.818   0.858   8.831  1.0016  1.0123  1.7417
 4045SOL    HW223595   0.777   0.818   8.965  0.5956 -0.1720  0.0694
 4046SOL     OW23596   2.715   2.197   2.016  0.1383 -0.7551 -0.4936
 4046SOL    HW123597   2.733   2.108   1.985 -0.6925 -0.1429 -2.7236
 4046SOL    HW223598   2.801   2.208   2.058  0.5810 -2.7038 -0.8866
 4047SOL     OW23599   2.556   2.344   1.401  0.1047  0.1263  0.1750
 4047SOL    HW123600   2.633   2.381   1.443  0.0843 -0.6348  0.8740
 4047SOL    HW223601   2.525   2.427   1.364  0.8492  0.0889 -0.5311
 4048SOL     OW23602   3.466   2.187  16.273 -0.0910 -0.4293 -0.1648
 4048SOL    HW123603   3.420   2.213  16.193 -0.2454  1.7466  0.6099
 4048SOL    HW223604   3.407   2.228  16.337  1.0460 -1.1627  1.3409
 4049SOL     OW23605   3.562   2.871  11.692 -0.1873  0.0081 -0.0145
 4049SOL    HW123606   3.486   2.918  11.725 -0.5533 -0.7709  0.2553
 4049SOL    HW223607   3.599   2.825  11.767 -0.1382 -1.1766 -0.7589
 4050SOL     OW23608   4.319   1.034  17.636 -0.1955 -0.4574  0.1055
 4050SOL    HW123609   4.277   1.008   0.020 -0.5610  1.3616  0.4949
 4050SOL    HW223610   4.407   0.998  17.644  0.7505  1.8948  0.3765
 4051SOL     OW23611   3.083   3.453   3.933 -0.3217  0.1411 -0.1043
 4051SOL    HW123612   3.041   3.437   4.017  0.6183  1.9370  0.7121
 4051SOL    HW223613   3.046   3.375   3.892  0.8651 -0.9773  0.9423
 4052SOL     OW23614   0.654   2.871   4.385  0.2874 -0.5895  0.3060
 4052SOL    HW123615   0.605   2.789   4.389 -0.3139 -0.2092  0.7319
 4052SOL    HW223616   0.603   2.918   4.450  0.9269 -0.6966  0.8858
 4053SOL     OW23617   0.966   2.994   7.374  0.1104 -0.1345 -0.0035
 4053SOL    HW123618   0.921   2.962   7.452  1.9113 -0.6530  0.8305
 4053SOL    HW223619   0.894   2.983   7.312  0.2298 -1.5717  0.1207
 4054SOL     OW23620   2.619   1.801   4.420 -0.0476 -0.3387 -0.4811
 4054SOL    HW123621   2.555   1.742   4.460 -0.3150 -1.6344 -2.7866
 4054SOL    HW223622   2.659   1.843   4.496 -0.8538  3.1185 -1.9689
 4055SOL     OW23623   4.171   3.924   8.888  0.4082  0.3216  0.0109
 4055SOL    HW123624   4.101   3.957   8.945  0.7112  1.4430 -0.2691
 4055SOL    HW223625   4.203   3.839   8.919  0.4960 -0.4278 -2.1907
 4056SOL     OW23626   4.074   2.634   6.329 -0.2124  0.8663  0.0854
 4056SOL    HW123627   4.135   2.566   6.356 -0.6218  1.0241  1.4313
 4056SOL    HW223628   4.055   2.679   6.412 -2.5371 -0.1112  0.0788
 4057SOL     OW23629   2.164   0.422   3.475 -0.7769 -0.7414 -0.2470
 4057SOL    HW123630   2.156   0.337   3.432 -1.9722 -0.4398 -0.6255
 4057SOL    HW223631   2.072   0.447   3.484 -0.2593  1.7448 -1.6261
 4058SOL     OW23632   4.345   1.743   7.309  0.0501 -0.0075  1.1337
 4058SOL    HW123633   4.354   1.820   7.366 -0.2190  1.9896 -1.5450
 4058SOL    HW223634   4.434   1.708   7.300 -0.4464 -1.5466  2.2239
 4059SOL     OW23635   1.353   3.997   8.840  0.2128 -0.4838 -0.5037
 4059SOL    HW123636   1.416   3.929   8.813 -0.8450 -1.2876 -0.9281
 4059SOL    HW223637   1.347   4.045   8.757  0.4356  1.3806  0.5540
 4060SOL     OW23638   3.448   0.604  12.088  0.0537 -0.8577  0.7169
 4060SOL    HW123639   3.467   0.513  12.110 -0.8969 -0.7203  2.0647
 4060SOL    HW223640   3.364   0.614  12.132 -0.6482 -1.4205 -0.5057
 4061SOL     OW23641   1.295   4.608   8.150  0.6563 -0.3575 -0.4673
 4061SOL    HW123642   1.336   4.610   8.237 -2.4983  0.6046  1.0367
 4061SOL    HW223643   1.243   4.528   8.148 -1.1967  0.8136  0.1978
 4062SOL     OW23644   0.755   2.254   3.163 -0.3208  0.2700 -0.3044
 4062SOL    HW123645   0.697   2.229   3.091  2.6412  0.1013 -2.6616
 4062SOL    HW223646   0.827   2.294   3.113 -1.3011  1.4517 -0.7752
 4063SOL     OW23647   2.514   4.250   9.202 -0.2911  0.3455 -1.0410
 4063SOL    HW123648   2.565   4.235   9.123 -0.9356 -1.9963 -1.0049
 4063SOL    HW223649   2.471   4.333   9.180 -0.2746  0.1971 -1.6228
 4064SOL     OW23650   3.952   0.487  13.465 -0.0607  0.3119  0.7189
 4064SOL    HW123651   4.026   0.426  13.463 -1.0178 -0.7960 -0.1100
 4064SOL    HW223652   3.908   0.464  13.384 -1.3194  1.4826  1.0656
 4065SOL     OW23653   2.502   0.367   8.790 -0.4637  0.3883 -0.0359
 4065SOL    HW123654   2.593   0.337   8.795 -0.9657 -0.9852  0.8264
 4065SOL    HW223655   2.519   0.446   8.842 -0.7078 -0.2397  1.0035
 4066SOL     OW23656   4.721   0.381   5.225 -0.1327  0.3765 -0.4201
 4066SOL    HW123657   0.014   0.347   5.137 -0.2635 -0.0994 -0.2630
 4066SOL    HW223658   0.079   0.416   5.259 -0.8967  3.4766 -1.8411
 4067SOL     OW23659   1.960   4.337   2.291  0.1618 -0.0110  0.0190
 4067SOL    HW123660   1.877   4.307   2.328  0.8643 -1.5236  0.4168
 4067SOL    HW223661   1.977   4.253   2.248  2.0011 -0.9937  2.6156
 4068SOL     OW23662   1.508   3.808  17.604  0.2549 -0.8404  0.1714
 4068SOL    HW123663   1.600   3.834  17.601  0.1895 -0.5634  0.7400
 4068SOL    HW223664   1.493   3.814  17.509 -0.8171  2.2863  0.5452
 4069SOL     OW23665   2.910   3.132   4.635  0.4704 -0.1092  0.2469
 4069SOL    HW123666   2.998   3.159   4.659  0.9299 -0.0501 -1.5200
 4069SOL    HW223667   2.868   3.176   4.710 -0.1654  0.3145 -0.3584
 4070SOL     OW23668   1.876   2.137   7.483  0.2770 -0.0862  0.1023
 4070SOL    HW123669   1.814   2.084   7.433 -0.0188  1.5523 -1.2577
 4070SOL    HW223670   1.870   2.098   7.570  0.3564 -0.8464 -0.2349
 4071SOL     OW23671   2.941   4.646   5.222  0.6345 -0.1668 -0.6361
 4071SOL    HW123672   3.027   4.649   5.264 -0.4387  0.1743  1.5732
 4071SOL    HW223673   2.959   4.609   5.136 -2.3340 -0.0897 -1.3005
 4072SOL     OW23674   2.440   0.654   5.932 -0.4111  0.2379  0.1748
 4072SOL    HW123675   2.536   0.656   5.925 -0.4513 -1.4468 -0.8251
 4072SOL    HW223676   2.425   0.578   5.988 -0.7436 -0.6731 -1.1544
 4073SOL     OW23677   2.992   1.603   7.681 -0.3393  0.1421  1.4837
 4073SOL    HW123678   3.047   1.585   7.758  0.4808  0.2900  0.9284
 4073SOL    HW223679   3.053   1.653   7.626 -0.9677 -0.5533  0.1632
 4074SOL     OW23680   3.964   1.504   9.393  0.1596  0.0094 -0.4344
 4074SOL    HW123681   4.011   1.500   9.310 -1.6019 -0.8053 -1.3848
 4074SOL    HW223682   3.973   1.595   9.422 -0.4411 -0.2314  0.5018
 4075SOL     OW23683   0.378   3.599  15.158  0.9223 -0.4397  0.0019
 4075SOL    HW123684   0.471   3.582  15.142  0.6708 -3.1250  1.5511
 4075SOL    HW223685   0.383   3.615  15.252  1.0683 -0.1941 -0.0462
 4076SOL     OW23686   0.707   0.255   6.722  0.1303 -0.0539  0.1112
 4076SOL    HW123687   0.751   0.246   6.638  1.5451  1.9157  0.6379
 4076SOL    HW223688   0.702   0.162   6.741  1.6388  0.2155  1.8014
 4077SOL     OW23689   2.103   3.949   0.145 -0.3731  0.0493 -0.3498
 4077SOL    HW123690   2.076   4.018   0.085 -1.1262 -1.5508 -1.8614
 4077SOL    HW223691   2.022   3.913   0.180  0.3094 -0.5075  0.6459
 4078SOL     OW23692   2.448   2.160   3.089  0.4763  0.0976 -0.1781
 4078SOL    HW123693   2.383   2.092   3.073  0.9787 -0.8690  1.8352
 4078SOL    HW223694   2.521   2.109   3.053 -0.5889 -2.6577  1.5426
 4079SOL     OW23695   4.116   3.337   9.598 -0.5778 -0.1436  0.5292
 4079SOL    HW123696   4.048   3.270   9.592 -0.3930 -0.2507 -0.3743
 4079SOL    HW223697   4.052   3.406   9.583 -1.1330 -0.8503 -0.4065
 4080SOL     OW23698   2.555   1.285   4.068  0.3385  0.2072  0.4962
 4080SOL    HW123699   2.552   1.292   3.973 -2.3935 -1.3174  0.4943
 4080SOL    HW223700   2.466   1.269   4.099  0.1538  1.4254  0.6135
 4081SOL     OW23701   3.414   1.584   8.597 -0.1797  0.2461  0.0783
 4081SOL    HW123702   3.358   1.541   8.533 -0.9267 -1.3133  1.7859
 4081SOL    HW223703   3.350   1.625   8.655  1.7941  2.7107  0.5481
 4082SOL     OW23704   1.507   4.315   7.223  0.1610  0.5474  0.0812
 4082SOL    HW123705   1.560   4.395   7.218  1.1459 -0.0480  1.0274
 4082SOL    HW223706   1.430   4.350   7.269 -0.5522 -0.1327 -0.6156
 4083SOL     OW23707   0.940   0.215   5.856  0.1575  0.2859 -0.0254
 4083SOL    HW123708   0.997   0.179   5.925 -1.3553 -0.9200  0.5931
 4083SOL    HW223709   0.976   0.173   5.778  0.2795  1.3934 -0.5675
 4084SOL     OW23710   2.830   4.137  17.315  0.2532  0.5302  0.0360
 4084SOL    HW123711   2.760   4.190  17.278  0.0010  0.8701  1.0109
 4084SOL    HW223712   2.824   4.052  17.270 -2.5213  0.4306  0.6451
 4085SOL     OW23713   1.711   1.379   6.129  0.1477  0.2091  0.1684
 4085SOL    HW123714   1.797   1.385   6.171  0.5740  1.0511 -0.8385
 4085SOL    HW223715   1.673   1.310   6.185  0.0768  0.1859  0.0906
 4086SOL     OW23716   2.156   3.174   3.995  0.1212 -0.1037  0.5332
 4086SOL    HW123717   2.124   3.175   3.905  0.3006  0.4946  0.4768
 4086SOL    HW223718   2.184   3.265   4.003 -0.6571  0.0035  2.0781
 4087SOL     OW23719   1.217   0.676  15.992 -0.3689 -0.1892 -0.5645
 4087SOL    HW123720   1.171   0.598  16.025  0.6584 -0.7125 -0.3575
 4087SOL    HW223721   1.138   0.722  15.962  0.2920  1.2795 -0.0374
 4088SOL     OW23722   2.327   3.913   9.551  0.1823  0.1886  0.4193
 4088SOL    HW123723   2.297   3.986   9.496  2.4021  0.5940 -0.2384
 4088SOL    HW223724   2.286   3.931   9.636 -1.1118 -0.3385 -0.0885
 4089SOL     OW23725   1.663   2.739  11.959 -0.1322  0.2020 -0.1524
 4089SOL    HW123726   1.653   2.818  12.012 -2.5801  0.2672 -0.7214
 4089SOL    HW223727   1.598   2.683  12.001  1.2012  0.3174  2.1091
 4090SOL     OW23728   3.005   4.384  12.083  0.4430  0.1706 -0.6270
 4090SOL    HW123729   2.955   4.304  12.102  0.3158 -0.1518 -2.2977
 4090SOL    HW223730   3.090   4.343  12.063  0.6145  0.6467 -0.8739
 4091SOL     OW23731   3.028   2.500   2.409  0.3176  0.0489 -0.4284
 4091SOL    HW123732   3.123   2.486   2.403  0.5609  1.1350  0.8751
 4091SOL    HW223733   3.011   2.554   2.332  1.8770  1.7400  0.3948
 4092SOL     OW23734   0.041   2.851   1.316  0.2478 -0.0759  0.4047
 4092SOL    HW123735   0.025   2.808   1.400 -0.8482 -0.4460  0.0127
 4092SOL    HW223736   4.681   2.837   1.271  0.1175  3.8335 -0.5168
 4093SOL     OW23737   3.349   4.343  15.045 -0.1504 -0.4232  0.2080
 4093SOL    HW123738   3.395   4.412  15.092 -0.8828  0.4621 -0.3800
 4093SOL    HW223739   3.275   4.397  15.018  2.0394  1.9538 -1.0345
 4094SOL     OW23740   2.523   2.078   8.706  0.1837 -0.0472 -0.5077
 4094SOL    HW123741   2.536   2.028   8.787 -1.2640  2.1000  1.0291
 4094SOL    HW223742   2.606   2.123   8.687 -0.6679  1.7108 -0.0540
 4095SOL     OW23743   0.533   1.255   1.847  0.5117 -0.1551 -0.1335
 4095SOL    HW123744   0.554   1.325   1.785  0.2540  1.1150  1.2341
 4095SOL    HW223745   0.445   1.233   1.817  0.8140 -0.0822 -1.0847
 4096SOL     OW23746   4.444   2.885  16.086 -0.2938 -0.2490 -0.1957
 4096SOL    HW123747   4.368   2.915  16.137  0.0392  2.6282 -1.4013
 4096SOL    HW223748   4.395   2.815  16.044  0.6033 -0.0394 -1.5862
 4097SOL     OW23749   3.464   4.064  16.512  0.1882  0.6415  0.0716
 4097SOL    HW123750   3.393   4.017  16.554  1.1603 -0.4788  0.4822
 4097SOL    HW223751   3.542   4.022  16.549 -0.0838 -0.2045 -0.3060
 4098SOL     OW23752   1.843   1.769   8.448 -0.0003 -0.3812  0.3788
 4098SOL    HW123753   1.904   1.826   8.495 -0.3986 -0.2856  0.7756
 4098SOL    HW223754   1.760   1.809   8.472  0.0574 -0.9287  1.5054
 4099SOL     OW23755   2.608   1.031   2.520  0.3961  0.1624 -0.3568
 4099SOL    HW123756   2.692   0.991   2.498 -0.6229 -1.4779 -1.2746
 4099SOL    HW223757   2.581   0.957   2.575  1.8645  0.3649  0.6209
 4100SOL     OW23758   2.676   1.033   7.069  0.0280 -0.5733 -0.7680
 4100SOL    HW123759   2.647   1.122   7.090 -1.8952 -2.0249  2.6799
 4100SOL    HW223760   2.767   1.030   7.096 -0.6887  2.6278  2.0496
 4101SOL     OW23761   0.890   2.018  13.030  0.3938 -0.1169 -0.2294
 4101SOL    HW123762   0.947   2.022  12.952 -0.3980  3.2889 -0.6154
 4101SOL    HW223763   0.824   1.953  13.007  2.1855 -1.1809 -2.4410
 4102SOL     OW23764   1.326   2.352   8.444 -0.3180 -0.1293  0.0346
 4102SOL    HW123765   1.377   2.433   8.441  0.8132 -0.7882  1.8225
 4102SOL    HW223766   1.295   2.355   8.353  1.0268  1.4305 -0.3777
 4103SOL     OW23767   4.558   3.456   8.494 -0.1869 -0.1500  0.2376
 4103SOL    HW123768   4.562   3.549   8.514 -0.8673 -0.4468  1.7412
 4103SOL    HW223769   4.501   3.462   8.417  0.8735 -0.4001 -0.5650
 4104SOL     OW23770   0.731   3.004   7.213 -0.1879  0.0672 -0.3737
 4104SOL    HW123771   0.666   2.946   7.253  1.3392 -1.4024 -0.0372
 4104SOL    HW223772   0.719   2.999   7.119 -0.1247  1.2770 -0.4551
 4105SOL     OW23773   0.911   4.446   8.726 -0.0699 -0.1919 -0.0492
 4105SOL    HW123774   0.923   4.419   8.816 -0.3739  0.9966  0.3503
 4105SOL    HW223775   0.815   4.453   8.729 -0.3578 -3.4843 -1.7599
 4106SOL     OW23776   2.618   2.736   0.505 -0.2231 -0.2001  0.0798
 4106SOL    HW123777   2.542   2.677   0.511  0.4529 -1.1094 -0.3171
 4106SOL    HW223778   2.651   2.728   0.595  0.0456 -0.4640 -0.0424
 4107SOL     OW23779   3.738   2.828   2.551  0.2370 -0.9672  0.1213
 4107SOL    HW123780   3.718   2.766   2.481  3.9060 -1.2666 -0.6485
 4107SOL    HW223781   3.671   2.808   2.616 -0.1672  0.1556  0.0557
 4108SOL     OW23782   2.218   4.175   5.362  0.0411  0.4284 -0.7060
 4108SOL    HW123783   2.304   4.134   5.352  0.2013  0.3400  1.1119
 4108SOL    HW223784   2.162   4.100   5.382  0.2665  0.7890  1.2425
 4109SOL     OW23785   2.384   4.496   0.540 -0.0369 -0.8115 -0.4128
 4109SOL    HW123786   2.358   4.434   0.472  1.9915 -2.0950 -0.0234
 4109SOL    HW223787   2.353   4.578   0.502  1.6067 -0.5505 -1.1940
 4110SOL     OW23788   4.396   3.198   8.997  0.1983  0.7972  0.5304
 4110SOL    HW123789   4.468   3.136   8.985  0.1682  1.0144 -0.7411
 4110SOL    HW223790   4.373   3.222   8.907 -1.6900  1.4904  1.1980
 4111SOL     OW23791   3.776   0.190   5.620 -0.1567 -0.1037 -0.2903
 4111SOL    HW123792   3.827   0.115   5.587  0.7786 -0.3272  1.6487
 4111SOL    HW223793   3.766   0.237   5.537  4.1644 -1.0057 -1.3240
 4112SOL     OW23794   0.071   0.674   7.813 -0.3764 -0.3152 -0.3075
 4112SOL    HW123795   0.094   0.601   7.871 -0.3074  0.4371  0.6220
 4112SOL    HW223796   0.075   0.635   7.726  1.7037 -1.6064  0.3577
 4113SOL     OW23797   4.332   4.235   0.172 -0.3493 -0.0894  0.1421
 4113SOL    HW123798   4.344   4.144   0.145  0.5432  0.1072 -0.1204
 4113SOL    HW223799   4.420   4.265   0.194 -0.5537  1.5245 -1.2074
 4114SOL     OW23800   2.194   3.008   5.555  0.0700  0.4800 -0.1503
 4114SOL    HW123801   2.212   3.096   5.589 -2.9141  0.8384  0.4567
 4114SOL    HW223802   2.148   2.962   5.625  2.0048 -1.7624 -0.3585
 4115SOL     OW23803   3.210   3.378   0.446 -0.6213 -0.2710  0.6809
 4115SOL    HW123804   3.250   3.406   0.528  2.3353  3.1664 -1.9212
 4115SOL    HW223805   3.255   3.297   0.422 -0.1729 -0.0151  0.6641
 4116SOL     OW23806   2.078   2.429  10.378 -0.0780  0.3486  0.6739
 4116SOL    HW123807   2.046   2.356  10.324 -1.2207 -0.4949  2.4636
 4116SOL    HW223808   2.172   2.414  10.370 -0.5689 -1.5653 -1.5855
 4117SOL     OW23809   4.276   2.528   7.909  0.2558  0.4161  0.2035
 4117SOL    HW123810   4.302   2.511   7.999 -0.3383 -1.7551 -0.0462
 4117SOL    HW223811   4.181   2.526   7.917  0.5405 -0.9747  3.0475
 4118SOL     OW23812   4.368   3.552   0.181  0.4051  0.4715  0.1367
 4118SOL    HW123813   4.402   3.605   0.253 -0.6799  1.2472  0.0803
 4118SOL    HW223814   4.443   3.494   0.169 -0.8854 -1.6041  2.0949
 4119SOL     OW23815   0.015   1.058   0.931  0.9419  0.0029  0.4953
 4119SOL    HW123816   0.100   1.041   0.891 -0.0949 -0.1262 -1.6722
 4119SOL    HW223817   4.697   1.108   0.861  1.7956 -2.1284 -1.5465
 4120SOL     OW23818   1.668   0.323  10.129 -0.1364 -1.0639 -0.3501
 4120SOL    HW123819   1.641   0.281  10.047 -2.6945 -2.7003  1.3337
 4120SOL    HW223820   1.615   0.276  10.194 -0.5322  0.0231  0.1157
 4121SOL     OW23821   3.166   3.204   6.963  0.0131 -0.2768  0.2374
 4121SOL    HW123822   3.252   3.208   6.919  0.3313  1.4086  1.0177
 4121SOL    HW223823   3.154   3.298   6.959  0.9201 -0.2597 -1.9870
 4122SOL     OW23824   2.194   1.426  16.955  0.3608 -0.3220 -0.1490
 4122SOL    HW123825   2.252   1.359  16.991 -2.8153 -3.1528 -0.2667
 4122SOL    HW223826   2.112   1.412  17.003  1.7176 -1.4438  1.8338
 4123SOL     OW23827   1.584   2.414  10.033 -0.1671  0.0106  0.0840
 4123SOL    HW123828   1.598   2.467  10.111 -2.5707 -2.1661  2.0032
 4123SOL    HW223829   1.590   2.331  10.081 -1.5522 -0.3240 -0.3194
 4124SOL     OW23830   0.050   1.537   3.730  0.0023  0.2072  0.5664
 4124SOL    HW123831   0.004   1.472   3.675 -0.3341 -0.7192  1.9361
 4124SOL    HW223832   4.705   1.603   3.732 -0.2648 -0.0780  0.7733
 4125SOL     OW23833   1.022   2.142   5.095 -0.1196 -0.1524  0.4166
 4125SOL    HW123834   1.091   2.205   5.074 -1.0945  0.4728 -0.9090
 4125SOL    HW223835   1.057   2.106   5.176 -1.2835 -1.0014  0.5441
 4126SOL     OW23836   4.261   2.835   9.225 -0.1217  0.0478 -0.4361
 4126SOL    HW123837   4.355   2.841   9.212 -0.0766 -0.7475 -0.4787
 4126SOL    HW223838   4.252   2.761   9.285  2.7241 -1.0255 -1.3598
 4127SOL     OW23839   3.471   2.453   8.540 -0.2571 -0.3866  0.6814
 4127SOL    HW123840   3.496   2.477   8.629  3.0647 -0.6173 -0.2030
 4127SOL    HW223841   3.445   2.540   8.509 -1.4981 -1.7185 -2.0368
 4128SOL     OW23842   0.774   2.605   7.627  0.1362  0.1046  0.6972
 4128SOL    HW123843   0.721   2.526   7.620 -0.2651  0.5610 -1.4540
 4128SOL    HW223844   0.849   2.584   7.571  1.5473  0.1652  2.5536
 4129SOL     OW23845   4.697   4.459  12.724  0.4226  0.1243  0.2823
 4129SOL    HW123846   4.655   4.397  12.784  1.4422  1.6653  2.5947
 4129SOL    HW223847   0.052   4.409  12.704 -1.2681 -1.7516 -1.6524
 4130SOL     OW23848   0.389   0.860   8.759  0.2367  0.0721  0.2246
 4130SOL    HW123849   0.389   0.783   8.816  1.9803 -0.4205 -0.4192
 4130SOL    HW223850   0.433   0.924   8.814 -0.2234 -0.1983  0.9041
 4131SOL     OW23851   1.651   3.656   6.811 -0.5101 -0.4629 -0.3965
 4131SOL    HW123852   1.676   3.610   6.891 -0.0338 -2.1552 -1.5068
 4131SOL    HW223853   1.719   3.722   6.798 -0.5637 -0.0942  1.2471
 4132SOL     OW23854   1.612   1.829  15.948  0.1062 -0.1830  0.2218
 4132SOL    HW123855   1.675   1.786  15.889 -2.1451 -0.7865 -1.7576
 4132SOL    HW223856   1.622   1.918  15.916  1.9132 -0.8604 -1.0900
 4133SOL     OW23857   2.263   3.733   0.334  0.1194  0.6136  0.0685
 4133SOL    HW123858   2.295   3.804   0.279 -0.6558  0.5436 -0.4580
 4133SOL    HW223859   2.327   3.663   0.324 -0.2607 -0.0533  2.2190
 4134SOL     OW23860   2.986   2.942   8.175 -1.0858  0.2805  0.0337
 4134SOL    HW123861   2.914   2.923   8.236 -1.5913  1.0898 -0.3025
 4134SOL    HW223862   2.947   3.017   8.129  1.8560  2.4356  1.0658
 4135SOL     OW23863   2.739   3.462   3.657 -0.1513 -0.1883  0.0165
 4135SOL    HW123864   2.788   3.519   3.598  0.0724 -0.9337 -0.5242
 4135SOL    HW223865   2.664   3.435   3.605 -0.4831  0.8608 -0.0541
 4136SOL     OW23866   1.895   4.567   8.363  0.3368 -0.0654  0.2200
 4136SOL    HW123867   1.919   4.650   8.406 -1.3821  0.4947  0.1020
 4136SOL    HW223868   1.856   4.523   8.438 -0.8108 -0.9450 -0.9085
 4137SOL     OW23869   2.974   3.804  15.188  0.3514  0.3250 -0.4771
 4137SOL    HW123870   2.938   3.716  15.193  0.4802  0.3776  1.2425
 4137SOL    HW223871   2.966   3.829  15.096 -0.9822  0.5484 -0.2976
 4138SOL     OW23872   0.308   1.507   4.604  0.5661  0.6199 -0.3433
 4138SOL    HW123873   0.371   1.456   4.554 -1.5201 -0.4420 -1.8561
 4138SOL    HW223874   0.251   1.514   4.528  1.7198  0.7199 -1.2017
 4139SOL     OW23875   0.680   0.655  10.306 -0.5504  0.1753 -0.1130
 4139SOL    HW123876   0.755   0.702  10.342  0.4992 -1.2324 -0.4808
 4139SOL    HW223877   0.669   0.680  10.214  1.7281  0.7289 -0.2353
 4140SOL     OW23878   2.749   2.067   6.132  0.1389 -0.0039  0.1426
 4140SOL    HW123879   2.696   1.987   6.134 -1.6641  1.0367 -5.3048
 4140SOL    HW223880   2.792   2.067   6.046  0.7773 -2.8059  0.4694
 4141SOL     OW23881   3.976   1.820   8.776  0.3720  0.0887 -0.4144
 4141SOL    HW123882   4.012   1.842   8.862  0.1998  0.5550 -0.4654
 4141SOL    HW223883   4.021   1.740   8.747  2.3551  1.9104 -2.3369
 4142SOL     OW23884   3.256   1.342   5.862  0.4300 -0.3770 -1.0533
 4142SOL    HW123885   3.300   1.270   5.818  0.3578 -0.0517 -1.6551
 4142SOL    HW223886   3.315   1.371   5.932  0.8530 -1.2834 -1.0391
 4143SOL     OW23887   1.771   1.453   4.192  0.5541  0.1904  0.2020
 4143SOL    HW123888   1.754   1.506   4.114  1.2575  0.8282  0.4784
 4143SOL    HW223889   1.711   1.491   4.256  0.4596  0.8822 -0.2968
 4144SOL     OW23890   2.784   3.364  12.652 -0.1141  0.2713 -0.2352
 4144SOL    HW123891   2.695   3.395  12.636  0.4627  1.4062 -1.2141
 4144SOL    HW223892   2.813   3.366  12.561  0.5840 -0.3216 -0.0270
 4145SOL     OW23893   3.060   3.669  10.961 -0.2632 -0.0986  0.3810
 4145SOL    HW123894   3.039   3.711  10.877 -5.0580  0.6617  1.9771
 4145SOL    HW223895   3.117   3.595  10.940  0.1119  0.3093 -0.0450
 4146SOL     OW23896   2.409   0.219   4.034  0.0730 -0.1627  0.7495
 4146SOL    HW123897   2.346   0.152   4.006 -1.2858  2.0500 -1.4349
 4146SOL    HW223898   2.492   0.180   4.005 -0.4341  0.6946 -1.7995
 4147SOL     OW23899   3.394   2.536   7.736  0.4435  0.4217 -0.1124
 4147SOL    HW123900   3.398   2.504   7.646 -0.5087  1.8648 -0.6798
 4147SOL    HW223901   3.375   2.455   7.783  0.3066 -0.0143 -0.9100
 4148SOL     OW23902   4.068   2.004   7.655 -0.0682 -0.3041 -0.5181
 4148SOL    HW123903   4.055   2.091   7.692  2.1658 -0.2256  0.0289
 4148SOL    HW223904   4.147   2.026   7.606 -0.8805  1.5020 -1.0231
 4149SOL     OW23905   4.411   3.463   9.043  0.0491  0.1023 -0.3516
 4149SOL    HW123906   4.493   3.436   9.083  0.9283  1.8662 -0.9888
 4149SOL    HW223907   4.383   3.381   9.000 -0.4575 -0.2692  0.7053
 4150SOL     OW23908   1.961   0.747  12.375  0.5851 -0.4391  0.7412
 4150SOL    HW123909   2.029   0.680  12.375  1.2983  0.2894  0.8715
 4150SOL    HW223910   2.001   0.813  12.317  0.9294 -1.2262  0.0756
 4151SOL     OW23911   4.381   3.831   6.243 -0.0487  0.1100 -0.0532
 4151SOL    HW123912   4.313   3.766   6.225  1.6104 -1.7625  0.4833
 4151SOL    HW223913   4.413   3.801   6.327 -1.6573 -1.2628  0.0828
 4152SOL     OW23914   0.564   1.229   7.072  0.1882 -1.1816 -0.7034
 4152SOL    HW123915   0.499   1.178   7.024 -1.2653 -0.4850  0.5437
 4152SOL    HW223916   0.569   1.316   7.032 -3.2183 -0.4505  0.5001
 4153SOL     OW23917   2.321   4.387  17.459  0.0170  0.0302 -0.0776
 4153SOL    HW123918   2.327   4.439  17.539  0.9881 -1.8934  1.0876
 4153SOL    HW223919   2.317   4.299  17.496  0.3971  0.1712  0.2915
 4154SOL     OW23920   1.832   2.629   3.252  0.4035  0.1391 -0.3627
 4154SOL    HW123921   1.908   2.579   3.223  0.5536  1.3190 -1.9551
 4154SOL    HW223922   1.827   2.600   3.344 -3.1281  1.6868 -0.0521
 4155SOL     OW23923   2.054   3.322   3.266  0.3135  0.7040 -0.5387
 4155SOL    HW123924   2.143   3.289   3.273  0.1036  0.5342  1.2708
 4155SOL    HW223925   1.997   3.256   3.226  0.3481  0.5140 -0.2734
 4156SOL     OW23926   2.233   3.977   2.810 -0.5495  0.0115  0.1187
 4156SOL    HW123927   2.294   3.908   2.836 -0.6966 -0.0222  0.3747
 4156SOL    HW223928   2.168   3.916   2.775  0.7782 -1.6248  0.4966
 4157SOL     OW23929   2.047   0.882   8.772 -0.3617 -0.3380 -0.2434
 4157SOL    HW123930   2.057   0.948   8.841 -0.2271 -0.9636  0.3375
 4157SOL    HW223931   2.111   0.904   8.704  1.7808 -0.5658  1.6920
 4158SOL     OW23932   1.400   2.964   9.078  0.2477  0.6000  0.3690
 4158SOL    HW123933   1.405   2.903   9.005  0.1203  0.8176  0.1794
 4158SOL    HW223934   1.370   2.898   9.140  2.0831 -0.9043 -0.3404
 4159SOL     OW23935   1.658   3.992   0.466  0.1742  0.2044 -0.0746
 4159SOL    HW123936   1.681   3.900   0.479  0.9044  0.3328 -0.4615
 4159SOL    HW223937   1.635   4.029   0.551 -0.4002  2.6540 -1.2727
 4160SOL     OW23938   0.548   0.672   3.013 -0.0372  0.2193  0.0811
 4160SOL    HW123939   0.605   0.596   3.017  0.6898  0.7793  0.3486
 4160SOL    HW223940   0.541   0.676   2.918 -1.0845  0.6181  0.1656
 4161SOL     OW23941   0.682   3.168   3.432  0.3110 -0.1073  0.2052
 4161SOL    HW123942   0.697   3.227   3.507 -1.1101  1.8948 -1.0897
 4161SOL    HW223943   0.742   3.096   3.452  1.7104  0.7133 -1.0547
 4162SOL     OW23944   0.283   2.341   5.098  0.0859 -0.3948 -0.0884
 4162SOL    HW123945   0.193   2.372   5.088 -0.9820 -2.4913  3.3265
 4162SOL    HW223946   0.293   2.348   5.193  2.9108 -1.5075 -0.2791
 4163SOL     OW23947   1.807   3.550   9.371 -0.2718  0.1055  0.2614
 4163SOL    HW123948   1.852   3.520   9.449 -2.3118 -0.8603  1.0704
 4163SOL    HW223949   1.726   3.500   9.378 -0.0953 -0.3446 -0.8489
 4164SOL     OW23950   2.165   0.400  13.026 -0.0356 -0.3417  0.4886
 4164SOL    HW123951   2.101   0.469  13.007  0.0330  0.1506  2.0583
 4164SOL    HW223952   2.116   0.320  13.007 -2.5182  0.7859  2.0614
 4165SOL     OW23953   1.198   2.413   7.787 -0.2550 -1.2394  0.2592
 4165SOL    HW123954   1.133   2.477   7.816  0.6782 -0.0114 -0.3717
 4165SOL    HW223955   1.137   2.345   7.760 -0.8297 -0.5455 -0.1943
 4166SOL     OW23956   0.369   0.186  10.358 -0.1769  0.6937  0.7381
 4166SOL    HW123957   0.337   0.156  10.273 -0.4401 -0.2383  1.1735
 4166SOL    HW223958   0.291   0.201  10.411 -0.2968  1.8081  0.2460
 4167SOL     OW23959   2.283   0.616   8.633  0.2576  0.4027  0.2862
 4167SOL    HW123960   2.346   0.671   8.679 -0.2095  0.8720  0.3650
 4167SOL    HW223961   2.276   0.534   8.681 -0.8286  0.1506 -0.3140
 4168SOL     OW23962   0.788   2.946   2.998 -0.1384 -0.2519 -0.2833
 4168SOL    HW123963   0.866   2.896   3.023 -0.8758 -1.8412 -1.1768
 4168SOL    HW223964   0.755   2.898   2.922  2.7424  0.0033 -1.7147
 4169SOL     OW23965   4.375   2.523  10.565  0.3717  0.1547 -0.4305
 4169SOL    HW123966   4.287   2.497  10.538  0.1500  0.0403  0.3949
 4169SOL    HW223967   4.378   2.492  10.656 -0.2820  0.4014 -0.3252
 4170SOL     OW23968   3.501   2.572   1.142 -0.2033 -0.3160  0.2776
 4170SOL    HW123969   3.468   2.618   1.219 -2.6526  0.3173 -1.1427
 4170SOL    HW223970   3.525   2.642   1.081  0.7303 -1.5272 -0.7576
 4171SOL     OW23971   4.034   3.038  12.905  0.1399  0.3281 -0.6814
 4171SOL    HW123972   3.959   2.982  12.925  0.1617 -0.2571 -2.2016
 4171SOL    HW223973   4.084   2.989  12.840  1.6123 -0.0561  0.7583
 4172SOL     OW23974   1.237   0.846   7.792 -1.0928  0.2739  0.0187
 4172SOL    HW123975   1.161   0.788   7.787 -0.2577 -0.6403 -1.8909
 4172SOL    HW223976   1.231   0.886   7.879 -1.8454  1.6200 -0.6587
 4173SOL     OW23977   0.186   0.946   4.365 -0.1330  0.6673 -0.0030
 4173SOL    HW123978   0.178   0.924   4.272 -1.9208  0.3274  0.2180
 4173SOL    HW223979   0.231   1.030   4.360 -2.5052  1.8823 -1.0499
 4174SOL     OW23980   3.634   1.279   1.920 -0.2600 -0.0382 -0.0400
 4174SOL    HW123981   3.620   1.198   1.871  0.2149 -1.9215  2.9334
 4174SOL    HW223982   3.682   1.256   1.999  0.7622  0.2160 -0.5832
 4175SOL     OW23983   2.536   0.397   4.335  0.0061  0.6968 -0.0023
 4175SOL    HW123984   2.628   0.403   4.364  0.4311  0.6148 -1.3567
 4175SOL    HW223985   2.495   0.450   4.404 -3.6588 -1.3014 -0.6587
 4176SOL     OW23986   0.638   4.440  12.040 -0.0326 -0.4174 -0.6393
 4176SOL    HW123987   0.633   4.484  12.125 -0.3012  0.1962 -0.9764
 4176SOL    HW223988   0.561   4.469  11.992 -1.3988 -0.7257  1.3934
 4177SOL     OW23989   3.196   1.711  13.729 -0.3351 -0.2151  0.2033
 4177SOL    HW123990   3.120   1.733  13.675  0.6230  1.6689 -0.3667
 4177SOL    HW223991   3.144   1.721  13.809 -0.7561 -1.9242  0.1406
 4178SOL     OW23992   1.037   2.937   4.649 -0.1767 -0.0215 -0.4807
 4178SOL    HW123993   1.127   2.958   4.674 -0.3011  0.1056 -0.1507
 4178SOL    HW223994   1.062   2.903   4.563 -0.0109 -2.9088  0.7220
 4179SOL     OW23995   3.500   0.712  13.819  0.1414 -1.1368  0.2328
 4179SOL    HW123996   3.541   0.775  13.760  0.5980 -1.1440  0.5402
 4179SOL    HW223997   3.432   0.669  13.767  0.5133  0.4671 -1.5499
 4180SOL     OW23998   4.109   1.337   8.972  0.0248  0.0700  0.4200
 4180SOL    HW123999   4.041   1.396   8.939  0.0586 -0.2960 -0.3013
 4180SOL    HW224000   4.099   1.262   8.913 -1.7544 -1.7722  3.0310
 4181SOL     OW24001   0.760   0.314   6.276  0.3923  0.1165 -0.0734
 4181SOL    HW124002   0.830   0.307   6.212 -0.2214 -1.3799 -0.5775
 4181SOL    HW224003   0.803   0.254   6.337  0.1397 -0.3792 -0.3841
 4182SOL     OW24004   3.476   1.077   6.892  0.1408  0.0754  0.2894
 4182SOL    HW124005   3.420   1.128   6.832 -1.0444  0.0413  1.3700
 4182SOL    HW224006   3.549   1.056   6.834 -1.6383 -0.2711 -1.8538
 4183SOL     OW24007   1.176   2.608   1.047 -0.4560  0.1034  0.3795
 4183SOL    HW124008   1.223   2.667   0.989  1.9540  0.0246  2.2262
 4183SOL    HW224009   1.118   2.664   1.099 -1.3210 -1.6213  1.3025
 4184SOL     OW24010   2.482   4.530   0.046 -0.0384  0.3963 -0.3894
 4184SOL    HW124011   2.486   4.625   0.057  1.8237  0.4858 -1.9505
 4184SOL    HW224012   2.567   4.503   0.012  0.3114  0.4568  0.4487
 4185SOL     OW24013   1.829   3.075  15.847 -0.0568  0.0820  0.3001
 4185SOL    HW124014   1.916   3.049  15.820  0.2768  1.3894  0.0843
 4185SOL    HW224015   1.829   3.077  15.943 -2.6453  0.7695  0.3113
 4186SOL     OW24016   2.846   3.289  11.316  0.8672 -0.3377 -0.0306
 4186SOL    HW124017   2.897   3.247  11.384 -0.8493 -0.9938  0.8486
 4186SOL    HW224018   2.792   3.356  11.359  1.8759  0.0271  0.6478
 4187SOL     OW24019   0.481   2.529   8.793 -0.3625  0.3600  0.2669
 4187SOL    HW124020   0.466   2.468   8.721  1.1476  0.6436 -0.2996
 4187SOL    HW224021   0.457   2.471   8.866  1.7106 -0.1694  0.5387
 4188SOL     OW24022   1.766   3.193   8.611 -0.1510 -0.2275 -0.3962
 4188SOL    HW124023   1.706   3.121   8.593  2.3728 -2.0706 -1.3899
 4188SOL    HW224024   1.804   3.168   8.695 -3.2445  3.0958  2.0241
 4189SOL     OW24025   3.588   4.582   3.847  0.1842 -0.1308 -0.9048
 4189SOL    HW124026   3.596   4.493   3.883 -0.1551  0.2102  0.0237
 4189SOL    HW224027   3.677   4.615   3.858 -0.4024  1.3906 -0.7728
 4190SOL     OW24028   0.382   4.508  17.365  0.7806  0.2558  0.4086
 4190SOL    HW124029   0.354   4.568  17.295 -0.6731 -1.2424 -0.2927
 4190SOL    HW224030   0.460   4.470  17.325  1.7498  0.9180  1.6537
 4191SOL     OW24031   2.168   3.782   4.805  0.0356  0.7671  0.2943
 4191SOL    HW124032   2.135   3.810   4.720 -0.5227  0.4241  0.4016
 4191SOL    HW224033   2.095   3.805   4.862  0.3474 -1.8081  1.6958
 4192SOL     OW24034   3.075   3.159   5.459  0.6434 -0.4243 -0.0568
 4192SOL    HW124035   3.020   3.237   5.454  0.7316 -0.3601 -0.0214
 4192SOL    HW224036   3.163   3.196   5.461  0.3082  0.4949 -1.9337
 4193SOL     OW24037   3.129   4.243  12.996 -0.2432 -0.1800 -0.4392
 4193SOL    HW124038   3.070   4.282  12.932 -2.0182  1.0986  1.9382
 4193SOL    HW224039   3.089   4.273  13.078  1.9201  1.7886 -0.1191
 4194SOL     OW24040   1.591   0.529   9.174 -0.0682 -0.0113  0.2282
 4194SOL    HW124041   1.662   0.477   9.210 -0.5589 -0.0001  1.1883
 4194SOL    HW224042   1.610   0.621   9.191  0.6221 -0.3173  1.0374
 4195SOL     OW24043   0.577   2.501   3.590 -0.2458 -0.8236 -0.4062
 4195SOL    HW124044   0.632   2.454   3.528 -0.2335 -1.0071 -0.2582
 4195SOL    HW224045   0.557   2.581   3.541 -0.9349  0.0415  1.2751
 4196SOL     OW24046   1.646   2.086   7.161  0.3375 -0.5627  0.7194
 4196SOL    HW124047   1.678   2.051   7.245 -0.2214  1.4945  1.7993
 4196SOL    HW224048   1.604   2.170   7.180 -0.6219 -1.0626  0.7821
 4197SOL     OW24049   4.027   3.892   2.398 -0.4767 -0.2593  0.5892
 4197SOL    HW124050   3.966   3.823   2.426  0.2301 -1.0884  0.0861
 4197SOL    HW224051   4.060   3.851   2.319 -0.2596  0.4789  0.2996
 4198SOL     OW24052   1.026   1.707   4.793 -0.4563  0.1294 -0.0568
 4198SOL    HW124053   1.108   1.708   4.744  0.3740 -2.1504  1.2799
 4198SOL    HW224054   1.044   1.777   4.855 -0.4466  0.9118 -0.9507
 4199SOL     OW24055   2.753   0.304   7.925  0.4558 -0.0803 -0.5478
 4199SOL    HW124056   2.818   0.262   7.981  0.9511 -1.2744 -2.0144
 4199SOL    HW224057   2.742   0.225   7.871 -0.0055  1.2010 -2.3574
 4200SOL     OW24058   0.252   2.993   5.233 -0.0894  0.3401  0.1389
 4200SOL    HW124059   0.230   2.984   5.325  1.8342 -1.0538  0.4348
 4200SOL    HW224060   0.323   2.930   5.228  1.5749  2.2537 -0.6019
 4201SOL     OW24061   2.135   0.848   4.623 -0.0410  0.0417  0.1658
 4201SOL    HW124062   2.129   0.774   4.684 -0.1551 -1.1017 -1.2353
 4201SOL    HW224063   2.170   0.806   4.545  3.8198 -2.7385  3.3491
 4202SOL     OW24064   3.500   0.749   1.810  0.0611 -0.7420  0.8130
 4202SOL    HW124065   3.495   0.794   1.726 -0.5720 -1.4291  0.4819
 4202SOL    HW224066   3.595   0.749   1.824  0.1970 -0.5537 -0.1600
 4203SOL     OW24067   2.635   2.077   4.254 -0.0317  0.1047 -0.3902
 4203SOL    HW124068   2.710   2.018   4.248 -0.8359 -1.2037  2.3591
 4203SOL    HW224069   2.649   2.121   4.338  1.0971  0.4740 -0.7690
 4204SOL     OW24070   1.489   3.405  10.281 -0.3449  0.2700 -0.5878
 4204SOL    HW124071   1.402   3.421  10.318  0.0839  0.1588  0.4915
 4204SOL    HW224072   1.495   3.478  10.220 -1.8656 -0.1001 -1.1751
 4205SOL     OW24073   0.793   2.768   3.232 -0.1642  0.2241 -0.6375
 4205SOL    HW124074   0.749   2.690   3.200  0.5604 -1.1746  1.7873
 4205SOL    HW224075   0.747   2.838   3.185 -1.3079  0.1421  0.3554
 4206SOL     OW24076   3.626   0.607  13.432  0.2471 -0.3021  0.9382
 4206SOL    HW124077   3.683   0.609  13.509  0.2539  0.9842  0.9034
 4206SOL    HW224078   3.677   0.657  13.369  0.1977 -3.0941 -1.2972
 4207SOL     OW24079   0.121   3.552  13.298  0.4861  0.7529 -0.0359
 4207SOL    HW124080   0.130   3.585  13.209 -1.3080  0.7481 -0.2309
 4207SOL    HW224081   0.108   3.458  13.282 -1.7751  1.0268  0.1140
 4208SOL     OW24082   2.102   0.779  15.296 -0.3080  0.1242  0.1967
 4208SOL    HW124083   2.016   0.745  15.272 -0.6342  0.5830  0.7368
 4208SOL    HW224084   2.076   0.859  15.342 -0.5248 -1.3607  2.6429
 4209SOL     OW24085   0.992   2.640   3.410 -0.0635 -1.0143 -0.0984
 4209SOL    HW124086   0.922   2.680   3.359  0.6442  1.1165  0.6096
 4209SOL    HW224087   1.022   2.572   3.350 -1.9996 -1.2722 -0.7648
 4210SOL     OW24088   4.517   4.647   4.895  0.5591 -0.0507  0.3148
 4210SOL    HW124089   4.423   4.634   4.882  0.4954 -1.4309  2.1883
 4210SOL    HW224090   4.545   4.678   4.809  0.7624  0.2755  0.5007
 4211SOL     OW24091   4.232   1.406   0.298 -0.0895 -0.3218 -0.3148
 4211SOL    HW124092   4.237   1.313   0.277 -1.9088 -0.3760 -0.5689
 4211SOL    HW224093   4.321   1.435   0.315  0.4195 -2.9348  1.3867
 4212SOL     OW24094   3.592   2.543   1.509  0.4049 -0.3229  0.3390
 4212SOL    HW124095   3.601   2.632   1.475  1.1681 -0.7254 -0.5251
 4212SOL    HW224096   3.622   2.500   1.429 -1.0715  0.0055 -0.3919
 4213SOL     OW24097   2.444   1.745  17.455 -0.6874 -0.0412 -0.0741
 4213SOL    HW124098   2.416   1.654  17.459 -1.4068  0.3829  3.8645
 4213SOL    HW224099   2.378   1.775  17.393  0.0085  2.9496  0.6255
 4214SOL     OW24100   1.552   2.367   0.241 -0.4591  0.6137  0.1291
 4214SOL    HW124101   1.611   2.440   0.257  1.8713 -1.0987 -0.5487
 4214SOL    HW224102   1.483   2.409   0.190 -1.0228  0.5843  0.8698
 4215SOL     OW24103   1.252   3.971  17.449 -0.3571 -0.3798  0.3845
 4215SOL    HW124104   1.320   3.918  17.407 -2.6129 -1.7547 -1.5626
 4215SOL    HW224105   1.245   4.052  17.398 -0.9881 -0.5212  0.2432
 4216SOL     OW24106   3.944   1.989  17.039  0.0937 -0.5356 -0.5823
 4216SOL    HW124107   3.940   1.898  17.011  0.2645 -1.3127  1.9032
 4216SOL    HW224108   3.991   2.040  16.974  0.9714 -1.2088 -0.4683
 4217SOL     OW24109   4.315   2.643   4.044  0.4087 -0.2005  0.3824
 4217SOL    HW124110   4.374   2.718   4.046 -1.4264  1.3984 -4.2512
 4217SOL    HW224111   4.309   2.645   3.948  0.0485 -0.0899  0.4030
 4218SOL     OW24112   4.255   0.786  15.677 -0.7861 -0.0430  0.2954
 4218SOL    HW124113   4.250   0.692  15.692 -2.5620 -0.0944 -0.5479
 4218SOL    HW224114   4.255   0.791  15.581  0.1300 -1.0972  0.2468
 4219SOL     OW24115   1.980   3.796   3.583 -0.0700 -0.5211  1.2330
 4219SOL    HW124116   1.942   3.724   3.533 -0.8908  0.5571  0.3037
 4219SOL    HW224117   1.904   3.845   3.611 -1.3054  0.2885 -3.5274
 4220SOL     OW24118   4.441   3.440   8.219 -0.5648 -0.2912 -0.1380
 4220SOL    HW124119   4.378   3.404   8.156  1.5933 -1.0738 -1.8618
 4220SOL    HW224120   4.448   3.532   8.192 -3.1192  0.1968  0.9138
 4221SOL     OW24121   0.674   3.024   6.943  0.4238  0.2508 -0.0058
 4221SOL    HW124122   0.649   2.975   6.866  1.6829 -0.2980 -0.0696
 4221SOL    HW224123   0.645   3.113   6.923  0.7056  0.2088 -0.5843
 4222SOL     OW24124   2.059   3.332  14.904  0.0781 -0.0333  0.3137
 4222SOL    HW124125   2.064   3.418  14.945 -0.1179 -1.2672  2.8755
 4222SOL    HW224126   1.996   3.350  14.834 -0.1140 -1.1905  0.1895
 4223SOL     OW24127   1.582   3.066   7.293 -0.3795 -0.3706 -0.0724
 4223SOL    HW124128   1.663   3.016   7.288 -0.4723 -0.6003  0.6050
 4223SOL    HW224129   1.621   3.152   7.282  1.7053 -1.5827 -2.1866
 4224SOL     OW24130   3.230   1.532   5.390  0.4186  0.0499 -0.4065
 4224SOL    HW124131   3.262   1.615   5.355 -2.7725  1.0618 -0.8883
 4224SOL    HW224132   3.307   1.511   5.443  0.4059 -0.5008 -0.6029
 4225SOL     OW24133   3.655   1.994   8.010  0.1184 -0.0557 -0.4790
 4225SOL    HW124134   3.604   1.919   8.038  1.0792  0.0903  1.6349
 4225SOL    HW224135   3.595   2.066   8.029  1.4601  0.7884  0.6171
 4226SOL     OW24136   4.147   2.869   7.498 -0.4162 -0.2020  0.4696
 4226SOL    HW124137   4.097   2.928   7.554  0.3230 -0.9751  1.9653
 4226SOL    HW224138   4.077   2.806   7.481 -1.7821  1.4837 -0.0999
 4227SOL     OW24139   3.651   3.704   9.270 -0.0165 -0.0611  0.7948
 4227SOL    HW124140   3.616   3.630   9.321 -0.5333 -0.4557 -0.1416
 4227SOL    HW224141   3.684   3.655   9.195 -1.9440  0.2307 -0.2515
 4228SOL     OW24142   3.106   2.358  12.615  0.2325  0.0296 -0.4336
 4228SOL    HW124143   3.057   2.277  12.626  1.8382 -0.6842  1.6505
 4228SOL    HW224144   3.168   2.342  12.686  1.9249  2.7382 -1.2977
 4229SOL     OW24145   3.935   2.821  13.210  0.0725 -0.3189 -0.1985
 4229SOL    HW124146   3.949   2.916  13.213  1.2453 -0.5696  2.0549
 4229SOL    HW224147   3.973   2.796  13.294  1.6913 -0.2472 -0.9270
 4230SOL     OW24148   1.826   2.276   7.876  0.5690 -0.2580 -0.3167
 4230SOL    HW124149   1.790   2.363   7.892 -0.0092 -0.0013 -2.9626
 4230SOL    HW224150   1.853   2.257   7.966  0.7587  0.0101 -0.3156
 4231SOL     OW24151   3.925   3.811  13.663  0.0439 -0.2967  0.4810
 4231SOL    HW124152   3.843   3.861  13.665  0.9629  1.2806 -0.7217
 4231SOL    HW224153   3.930   3.801  13.758 -0.8185 -0.8945  0.4676
 4232SOL     OW24154   0.112   4.393   1.025  0.9702  0.0401  0.2278
 4232SOL    HW124155   0.175   4.457   0.992  1.9257 -1.1038 -0.2171
 4232SOL    HW224156   0.124   4.316   0.969  0.4811  0.4396 -0.4222
 4233SOL     OW24157   3.425   3.207   0.342 -0.0296 -0.0917  0.1760
 4233SOL    HW124158   3.425   3.260   0.262  0.7014  1.7922  1.4290
 4233SOL    HW224159   3.487   3.258   0.393  2.5943 -1.8554 -1.2877
 4234SOL     OW24160   1.521   0.265   9.920 -0.0343 -0.4664 -0.0584
 4234SOL    HW124161   1.458   0.306   9.860  1.4028  0.0570 -1.2064
 4234SOL    HW224162   1.470   0.200   9.968  1.1581 -0.9247  0.5824
 4235SOL     OW24163   4.064   2.740  13.425  0.3392 -0.4212  0.5101
 4235SOL    HW124164   4.053   2.781  13.511 -2.5540 -1.2276  0.5237
 4235SOL    HW224165   4.155   2.759  13.402  0.5086 -0.9194  0.7713
 4236SOL     OW24166   1.625   2.112  15.892 -0.5750 -0.0429 -0.4654
 4236SOL    HW124167   1.533   2.127  15.914 -0.9775 -2.2164 -0.7010
 4236SOL    HW224168   1.655   2.201  15.875  0.3456  0.2246  2.7291
 4237SOL     OW24169   3.696   3.488   6.062 -0.2282  0.0912 -0.1854
 4237SOL    HW124170   3.679   3.393   6.056  0.3044  0.0943 -1.6944
 4237SOL    HW224171   3.629   3.512   6.126  0.6739  0.8346  0.4578
 4238SOL     OW24172   1.665   2.276   2.099 -0.1515  0.1213 -0.0976
 4238SOL    HW124173   1.741   2.329   2.123 -0.3313  1.1176 -1.7136
 4238SOL    HW224174   1.673   2.264   2.005  0.2262  0.9918 -0.1756
 4239SOL     OW24175   4.022   3.556  15.379 -0.4851  0.0310 -0.0581
 4239SOL    HW124176   3.955   3.509  15.429  1.3010 -0.7693  1.5913
 4239SOL    HW224177   3.973   3.588  15.303  0.4024  0.1449 -0.5851
 4240SOL     OW24178   3.533   1.443   0.761 -0.0255  0.3397  0.0271
 4240SOL    HW124179   3.608   1.383   0.757  0.3218  0.5855  3.1940
 4240SOL    HW224180   3.560   1.493   0.838  1.1991 -2.9122  1.7355
 4241SOL     OW24181   1.724   2.924   9.023 -0.4145 -0.0939 -0.7531
 4241SOL    HW124182   1.699   2.907   9.114  0.6844 -0.0731 -0.4560
 4241SOL    HW224183   1.733   3.019   9.017 -1.2662 -0.0621 -1.6166
 4242SOL     OW24184   3.051   3.277   7.592  0.2648  0.3871  0.3386
 4242SOL    HW124185   3.000   3.204   7.627  0.3542 -0.2587 -0.9037
 4242SOL    HW224186   2.991   3.351   7.585 -0.3112 -0.0945  0.2037
 4243SOL     OW24187   3.985   3.649   6.332  0.3148  0.2077  0.4125
 4243SOL    HW124188   4.023   3.732   6.301 -0.4329  0.0620 -0.8888
 4243SOL    HW224189   3.900   3.682   6.360 -0.1264 -0.1774 -0.4779
 4244SOL     OW24190   4.645   3.412  10.954  0.1310 -0.6105  0.2038
 4244SOL    HW124191   4.665   3.425  10.862 -3.1150  1.2522 -0.2386
 4244SOL    HW224192   4.549   3.409  10.951  0.0722 -0.0494  1.4529
 4245SOL     OW24193   3.130   2.099  16.198  0.0653  0.1782 -0.7230
 4245SOL    HW124194   3.189   2.117  16.271 -0.0446 -1.4370 -0.2495
 4245SOL    HW224195   3.050   2.113  16.248  1.7122 -0.5979  2.1464
 4246SOL     OW24196   0.488   1.265   8.820  0.2475  0.0195 -0.4221
 4246SOL    HW124197   0.490   1.320   8.742  0.9070  0.8104  0.1612
 4246SOL    HW224198   0.566   1.289   8.869  1.4321  0.9134 -2.7381
 4247SOL     OW24199   2.024   3.025   3.391 -0.5291 -0.2120  0.0142
 4247SOL    HW124200   2.024   3.022   3.296 -1.7081 -1.0078  0.0416
 4247SOL    HW224201   2.112   3.055   3.413 -0.1502  0.5880 -2.6071
 4248SOL     OW24202   1.704   3.377   4.200 -0.0591  0.8667 -0.0150
 4248SOL    HW124203   1.738   3.320   4.269 -0.5695 -0.0526 -0.5162
 4248SOL    HW224204   1.716   3.321   4.124 -1.2830  2.5373 -1.4240
 4249SOL     OW24205   1.492   0.537   5.600  0.1329 -0.2191  0.2982
 4249SOL    HW124206   1.548   0.507   5.672  0.8491 -0.7260 -0.4747
 4249SOL    HW224207   1.547   0.606   5.563  0.6357 -0.0794  1.2957
 4250SOL     OW24208   2.891   1.394   8.051  0.0806 -0.3358  0.2967
 4250SOL    HW124209   2.889   1.393   8.147  1.3693  2.1279  0.3590
 4250SOL    HW224210   2.821   1.458   8.040 -0.4231 -1.2165 -1.6350
 4251SOL     OW24211   0.274   1.898  11.726  0.2976  0.2669  0.7931
 4251SOL    HW124212   0.260   1.873  11.635  0.3354 -1.1480  1.1692
 4251SOL    HW224213   0.342   1.836  11.752 -0.2554 -0.9710 -0.6975
 4252SOL     OW24214   1.924   2.219   3.625 -0.0979 -1.1710  0.1462
 4252SOL    HW124215   1.849   2.169   3.594  0.4443 -2.1288  0.3903
 4252SOL    HW224216   1.895   2.221   3.716 -1.7779 -0.3941 -0.4067
 4253SOL     OW24217   2.177   0.190   7.576 -0.1881  0.4236 -0.3691
 4253SOL    HW124218   2.179   0.118   7.513 -0.0708 -0.2411  0.3860
 4253SOL    HW224219   2.265   0.225   7.567 -1.0123  2.0732 -1.9353
 4254SOL     OW24220   2.511   2.072   1.708 -0.2178 -0.0604 -0.1935
 4254SOL    HW124221   2.486   2.145   1.765 -0.6482 -0.3333 -0.0339
 4254SOL    HW224222   2.440   2.088   1.646  0.2153  0.2668 -0.6059
 4255SOL     OW24223   3.117   0.275   8.547 -0.2045 -0.3872  0.8556
 4255SOL    HW124224   3.207   0.261   8.518 -0.7165 -1.5978 -0.1494
 4255SOL    HW224225   3.126   0.291   8.641  4.0513  0.9643  0.2194
 4256SOL     OW24226   2.833   4.150  15.814  0.3310  0.0793 -0.0698
 4256SOL    HW124227   2.751   4.112  15.783  1.2175  0.5881 -3.0977
 4256SOL    HW224228   2.803   4.188  15.897 -0.1291 -1.4544  0.4522
 4257SOL     OW24229   0.927   0.620   5.597  0.3176  0.5567 -0.2201
 4257SOL    HW124230   0.976   0.645   5.675 -0.4297  1.0710  0.0802
 4257SOL    HW224231   0.949   0.527   5.597 -1.4617  0.1407  2.0222
 4258SOL     OW24232   1.872   1.187  12.798  0.6555 -0.3155  0.1710
 4258SOL    HW124233   1.837   1.175  12.710 -0.9084 -0.0758  0.7595
 4258SOL    HW224234   1.904   1.099  12.816 -0.1818 -0.8782 -1.1452
 4259SOL     OW24235   2.166   0.976   6.301 -0.3138 -0.4643  0.0950
 4259SOL    HW124236   2.213   0.922   6.238 -0.2465  0.7969 -0.9241
 4259SOL    HW224237   2.123   1.021   6.228  0.7712  1.2328  0.5009
 4260SOL     OW24238   2.769   1.568  12.102  0.0465 -0.3504 -0.0933
 4260SOL    HW124239   2.845   1.530  12.059  0.7675  0.6681  0.2745
 4260SOL    HW224240   2.775   1.535  12.191  0.2743  0.8837  0.3478
 4261SOL     OW24241   2.479   3.657   9.179 -1.0044 -0.1448  0.0340
 4261SOL    HW124242   2.474   3.562   9.171  2.0455 -0.3400  0.3153
 4261SOL    HW224243   2.552   3.676   9.120 -1.5566 -1.5074 -1.0590
 4262SOL     OW24244   0.957   3.157   4.907  0.3528  0.5550  0.4604
 4262SOL    HW124245   1.038   3.123   4.944 -2.0171 -2.9709  2.4066
 4262SOL    HW224246   0.933   3.218   4.976 -2.0487  2.0619 -1.6837
 4263SOL     OW24247   3.227   4.326   2.154  0.7922 -0.1858 -0.0292
 4263SOL    HW124248   3.213   4.232   2.153 -0.8267  0.0502 -0.7420
 4263SOL    HW224249   3.172   4.350   2.078 -0.3365 -1.3918  0.4150
 4264SOL     OW24250   3.464   3.895   7.918  0.9050  0.0590 -0.8047
 4264SOL    HW124251   3.402   3.959   7.882 -0.7276 -1.1746 -0.2294
 4264SOL    HW224252   3.530   3.895   7.849  0.8388  0.9376 -0.8675
 4265SOL     OW24253   4.044   3.521   9.994  1.3662  0.2963 -0.1385
 4265SOL    HW124254   4.138   3.535  10.009  1.6804 -0.0780 -1.8020
 4265SOL    HW224255   4.029   3.594   9.933 -1.0028  0.4006  0.5599
 4266SOL     OW24256   0.102   1.969   8.707 -0.1264 -0.2247  0.3992
 4266SOL    HW124257   0.123   2.047   8.758  0.5876  1.0553 -1.8803
 4266SOL    HW224258   0.054   2.004   8.632  3.3689  1.6426 -0.9873
 4267SOL     OW24259   3.100   0.243   8.255 -0.3706  0.1141 -0.1512
 4267SOL    HW124260   3.158   0.319   8.264 -1.8231  0.9211  2.5596
 4267SOL    HW224261   3.027   0.273   8.310 -0.3245  1.1037 -0.6435
 4268SOL     OW24262   0.098   4.274   5.986 -0.1122  0.2828  0.1253
 4268SOL    HW124263   0.130   4.349   5.938 -0.6716 -0.3402 -1.2280
 4268SOL    HW224264   0.033   4.239   5.925 -2.1210  0.8863  1.8850
 4269SOL     OW24265   1.258   4.361  12.980  0.1798  0.0324  1.0101
 4269SOL    HW124266   1.205   4.290  13.016 -1.5593  0.9383  0.2310
 4269SOL    HW224267   1.344   4.334  13.013 -0.0893  1.8072  3.1095
 4270SOL     OW24268   2.672   1.458   3.097  0.5101  1.2419  0.2877
 4270SOL    HW124269   2.681   1.446   3.003  1.9386  0.4675  0.5188
 4270SOL    HW224270   2.615   1.383   3.112 -1.2103  1.9621 -2.6252
 4271SOL     OW24271   0.917   1.788   3.948  0.1714 -0.5445  0.2756
 4271SOL    HW124272   0.887   1.697   3.947 -1.0760 -0.1399  1.0300
 4271SOL    HW224273   0.895   1.816   4.037 -2.7283  2.0609 -1.2477
 4272SOL     OW24274   1.346   4.344   7.884 -0.4366  0.0420  0.9968
 4272SOL    HW124275   1.429   4.391   7.895 -1.0695  1.3966  0.0224
 4272SOL    HW224276   1.346   4.331   7.789  3.9524 -0.8915  1.1364
 4273SOL     OW24277   3.362   3.733  14.631  0.0193 -0.0717 -0.3162
 4273SOL    HW124278   3.425   3.696  14.693 -0.4233 -1.0885 -0.4723
 4273SOL    HW224279   3.417   3.759  14.557 -1.4577 -0.5452 -1.5767
 4274SOL     OW24280   4.435   2.421   9.279  0.1181 -0.3806 -0.1673
 4274SOL    HW124281   4.516   2.467   9.258  0.6785 -1.0783  0.4651
 4274SOL    HW224282   4.455   2.407   9.371 -2.1208  1.3205  0.5819
 4275SOL     OW24283   0.674   2.245   9.008  0.0729 -0.6721 -0.3524
 4275SOL    HW124284   0.603   2.278   9.064  1.2593  0.8333  0.2415
 4275SOL    HW224285   0.619   2.215   8.936 -1.7338  0.5642  0.5007
 4276SOL     OW24286   1.371   2.943   4.709 -0.5053  0.2445 -0.3764
 4276SOL    HW124287   1.421   2.958   4.629 -2.4601 -1.3894 -1.9317
 4276SOL    HW224288   1.371   2.847   4.720 -0.5609  0.3293  0.3534
 4277SOL     OW24289   0.490   4.387   1.022 -0.6925  0.5933 -0.1306
 4277SOL    HW124290   0.442   4.358   1.100 -0.5644 -0.9054 -0.6226
 4277SOL    HW224291   0.549   4.459   1.047  0.5374 -0.0280 -1.2075
 4278SOL     OW24292   4.561   3.120   9.486  0.4781  0.8905  0.1908
 4278SOL    HW124293   4.481   3.172   9.475 -0.9435 -1.0066  1.7066
 4278SOL    HW224294   4.525   3.037   9.517 -1.7328  1.6890 -0.2259
 4279SOL     OW24295   3.372   2.069  10.776  0.0458 -0.3235 -0.5873
 4279SOL    HW124296   3.297   2.012  10.789 -1.7360  1.7263 -1.9391
 4279SOL    HW224297   3.342   2.148  10.821  0.5679  0.3468 -1.4086
 4280SOL     OW24298   4.165   0.883   7.886  0.2030  0.3119  0.2428
 4280SOL    HW124299   4.173   0.804   7.939 -1.0005 -0.2955 -0.4838
 4280SOL    HW224300   4.084   0.919   7.921 -0.0742 -0.3336  0.2583
 4281SOL     OW24301   4.511   3.068   8.421 -0.7700  0.1093  0.0426
 4281SOL    HW124302   4.424   3.039   8.449 -1.0939  0.6310 -0.4322
 4281SOL    HW224303   4.512   3.153   8.464 -2.2457  0.2161 -0.1313
 4282SOL     OW24304   3.796   3.400   4.563  0.1924  0.0528  0.6860
 4282SOL    HW124305   3.850   3.393   4.484 -0.0311  1.6811  0.3878
 4282SOL    HW224306   3.748   3.479   4.537  1.6065  0.6515 -0.1002
 4283SOL     OW24307   1.123   0.825  10.194  0.5436 -0.3250 -0.1697
 4283SOL    HW124308   1.136   0.736  10.164 -0.6447 -1.3982  2.5168
 4283SOL    HW224309   1.212   0.838  10.226  0.3312 -0.0118  0.3010
 4284SOL     OW24310   1.309   4.700   5.304 -0.1158 -0.1291 -0.1207
 4284SOL    HW124311   1.333   4.620   5.349 -2.8416 -1.5232 -1.1127
 4284SOL    HW224312   1.369   0.037   5.346  0.2153  0.0387 -0.8293
 4285SOL     OW24313   0.842   3.260   7.579 -0.2118 -0.8418  0.3530
 4285SOL    HW124314   0.772   3.258   7.644 -1.8972  1.6851 -1.3935
 4285SOL    HW224315   0.820   3.199   7.510 -1.1240 -0.2979  0.1648
 4286SOL     OW24316   2.125   2.595  12.099 -0.5074 -0.1684 -0.1645
 4286SOL    HW124317   2.210   2.601  12.143 -0.6944 -3.3607  0.6131
 4286SOL    HW224318   2.094   2.509  12.125  0.8218 -0.6854 -0.3145
 4287SOL     OW24319   0.230   1.310   3.857  0.0488  0.4759  0.4467
 4287SOL    HW124320   0.167   1.382   3.860 -1.2964 -0.6361 -1.7450
 4287SOL    HW224321   0.172   1.239   3.833  1.9934 -0.3563 -1.8567
 4288SOL     OW24322   1.713   2.712   8.838  0.7217 -0.2877 -0.5779
 4288SOL    HW124323   1.739   2.776   8.905 -0.3105 -1.3123  0.8184
 4288SOL    HW224324   1.619   2.729   8.829  0.8034 -0.3837 -1.5459
 4289SOL     OW24325   3.758   0.566  16.038  0.3519 -0.0452  0.1537
 4289SOL    HW124326   3.825   0.502  16.064  1.6736  0.4390 -2.0518
 4289SOL    HW224327   3.803   0.647  16.062  1.0527 -1.0533  2.2180
 4290SOL     OW24328   1.856   1.961   6.561  0.5011  0.3535  0.3337
 4290SOL    HW124329   1.838   1.982   6.470 -1.3171  2.9279  1.2639
 4290SOL    HW224330   1.865   2.048   6.600 -0.4934  0.5871  0.0354
 4291SOL     OW24331   3.788   0.921  13.822 -0.2927  0.0148  0.0453
 4291SOL    HW124332   3.754   0.939  13.910 -1.0049 -2.7709  0.3475
 4291SOL    HW224333   3.717   0.949  13.764  0.8679 -0.5192 -1.6077
 4292SOL     OW24334   3.792   1.389   4.785  0.0397  0.3488  0.2126
 4292SOL    HW124335   3.744   1.360   4.862  0.9702 -1.6722  0.0333
 4292SOL    HW224336   3.817   1.479   4.804  0.1450  0.2365  0.5890
 4293SOL     OW24337   1.015   2.864   0.901  0.2260 -0.0869  0.3341
 4293SOL    HW124338   0.982   2.946   0.937  0.1782  0.7441 -1.6496
 4293SOL    HW224339   1.038   2.810   0.977  2.9075  0.6144  0.0023
 4294SOL     OW24340   4.198   2.751   4.621  0.0110 -0.1773  0.8083
 4294SOL    HW124341   4.226   2.674   4.670 -0.1131 -0.1675  0.8977
 4294SOL    HW224342   4.198   2.727   4.529  1.9764 -2.8109  1.4969
 4295SOL     OW24343   0.906   1.448  14.219 -0.2627 -0.0912  0.4345
 4295SOL    HW124344   0.935   1.534  14.251 -3.1529  0.5586  1.3982
 4295SOL    HW224345   0.813   1.469  14.204 -0.4337 -2.7724 -2.1052
 4296SOL     OW24346   1.841   2.401  16.287  0.6579 -0.3329 -0.8292
 4296SOL    HW124347   1.839   2.320  16.339 -0.7732  0.2530  0.0168
 4296SOL    HW224348   1.931   2.397  16.256  1.0863 -0.8709  0.4384
 4297SOL     OW24349   2.082   0.556  12.150  0.6916  0.3554 -0.3692
 4297SOL    HW124350   2.102   0.567  12.243  0.0313 -1.4860 -0.0102
 4297SOL    HW224351   1.991   0.531  12.161  1.3989 -0.9762  2.3776
 4298SOL     OW24352   3.912   3.162   9.107 -0.2807  0.6584 -0.0559
 4298SOL    HW124353   3.894   3.193   9.018  0.5702  1.2932 -0.0014
 4298SOL    HW224354   3.986   3.219   9.127 -0.5646  1.4188 -1.1852
 4299SOL     OW24355   1.163   4.169   7.264 -0.5971 -0.7698 -0.5779
 4299SOL    HW124356   1.103   4.140   7.195 -0.6060 -0.8871 -0.5216
 4299SOL    HW224357   1.178   4.258   7.234  2.3453 -1.0126  0.2208
 4300SOL     OW24358   4.218   0.352  14.591  0.2705 -0.2781  0.3035
 4300SOL    HW124359   4.265   0.289  14.645 -1.7224 -2.7827 -0.8922
 4300SOL    HW224360   4.269   0.428  14.620 -0.0816  0.2937 -0.5751
 4301SOL     OW24361   1.418   1.069   6.524 -0.2920  0.1231  0.2539
 4301SOL    HW124362   1.512   1.083   6.522 -0.0340 -1.5026  1.6049
 4301SOL    HW224363   1.401   0.981   6.491 -1.6380 -0.5419  2.7508
 4302SOL     OW24364   2.938   3.058   0.988  0.2409 -0.1083 -0.4698
 4302SOL    HW124365   2.962   2.972   1.021 -0.1193 -0.6049 -1.5101
 4302SOL    HW224366   3.022   3.091   0.954  0.4740  0.9754  1.1701
 4303SOL     OW24367   3.638   1.991  11.240 -0.3591 -0.0325 -0.2450
 4303SOL    HW124368   3.569   1.983  11.306  0.8142  0.0520  0.9772
 4303SOL    HW224369   3.619   2.077  11.202  0.0856 -0.0750 -0.5672
 4304SOL     OW24370   0.462   4.058   6.808 -0.1860  0.5658  0.1867
 4304SOL    HW124371   0.497   4.141   6.776  0.5125  0.2044  0.0010
 4304SOL    HW224372   0.383   4.086   6.854  0.2385  0.0192  1.2628
 4305SOL     OW24373   1.084   3.189   3.876 -0.1390  0.5432  0.2412
 4305SOL    HW124374   1.015   3.128   3.850  1.0574  0.7834 -3.5393
 4305SOL    HW224375   1.029   3.262   3.905 -2.7226 -0.4381 -2.2059
 4306SOL     OW24376   0.490   4.117   9.580  0.3617  0.5003 -0.4364
 4306SOL    HW124377   0.575   4.160   9.568  0.8005  0.5785  2.9908
 4306SOL    HW224378   0.475   4.093   9.671 -2.9119  0.1201 -1.1024
 4307SOL     OW24379   0.557   0.790   5.335 -0.3474 -0.1360  0.0217
 4307SOL    HW124380   0.594   0.777   5.422 -2.1261 -0.6959  0.7007
 4307SOL    HW224381   0.641   0.781   5.292  1.7518 -0.6446  4.2403
 4308SOL     OW24382   2.681   0.128   6.075  0.0798 -0.4909 -0.3421
 4308SOL    HW124383   2.653   0.219   6.079 -1.6009 -0.9252 -1.9243
 4308SOL    HW224384   2.717   0.116   6.163 -2.7217 -0.6511  0.8062
 4309SOL     OW24385   2.572   0.509   5.390  0.3381  0.3044  0.3309
 4309SOL    HW124386   2.523   0.499   5.471  0.2001 -2.3075 -0.0856
 4309SOL    HW224387   2.548   0.595   5.356  1.2749 -0.1393 -1.4581
 4310SOL     OW24388   3.556   4.505  14.932 -0.2102  0.2098  0.3120
 4310SOL    HW124389   3.504   4.479  14.856  0.0365 -0.1510  0.2648
 4310SOL    HW224390   3.606   4.579  14.898 -0.5051 -0.5100 -1.6696
 4311SOL     OW24391   3.047   1.831   3.964  0.7077 -0.0574  0.0608
 4311SOL    HW124392   2.993   1.770   4.014 -0.0293  0.9726  0.5204
 4311SOL    HW224393   3.129   1.820   4.013 -0.1383 -1.0285  1.2520
 4312SOL     OW24394   1.006   3.919   8.002  0.6920  0.5286  0.5686
 4312SOL    HW124395   0.978   3.888   8.088 -1.7189 -1.6757 -1.0294
 4312SOL    HW224396   0.976   4.010   7.994 -0.1908  0.1821 -0.0455
 4313SOL     OW24397   0.087   3.890   2.894 -0.1484 -0.3387 -0.3619
 4313SOL    HW124398   0.163   3.894   2.836 -0.0712  4.0841  0.0436
 4313SOL    HW224399   0.134   3.873   2.975 -2.1847  1.1819  1.1361
 4314SOL     OW24400   2.973   3.805   4.270  0.1306 -0.0368 -0.6866
 4314SOL    HW124401   2.977   3.886   4.321 -0.4283 -1.1657  1.1738
 4314SOL    HW224402   2.936   3.834   4.187 -1.4979 -3.0909 -1.0235
 4315SOL     OW24403   4.442   0.269   7.270 -0.2164 -0.2223 -0.3954
 4315SOL    HW124404   4.368   0.218   7.238 -0.2963 -0.4347  0.1416
 4315SOL    HW224405   4.413   0.310   7.351 -0.3072 -0.9847 -0.0462
 4316SOL     OW24406   1.978   2.472  16.592 -0.1362  0.1534 -0.2795
 4316SOL    HW124407   2.015   2.462  16.679 -1.7547  3.5977  0.7699
 4316SOL    HW224408   1.911   2.404  16.587  1.4020 -1.5243  1.9587
 4317SOL     OW24409   1.868   2.078   4.523 -0.4623 -0.1878 -0.4378
 4317SOL    HW124410   1.836   1.996   4.485 -0.4434 -0.3521 -0.0946
 4317SOL    HW224411   1.957   2.085   4.488 -1.0103 -1.2918 -2.0777
 4318SOL     OW24412   4.051   3.247   6.027  0.8771  0.1420 -0.1599
 4318SOL    HW124413   3.995   3.178   6.062  0.1436  0.8664  0.0957
 4318SOL    HW224414   4.104   3.260   6.105 -1.9745  0.5491  1.6934
 4319SOL     OW24415   4.580   2.977   5.351 -0.0808 -0.2712  0.0475
 4319SOL    HW124416   4.649   3.037   5.322 -1.6460  1.3167 -0.3467
 4319SOL    HW224417   4.503   3.033   5.341 -0.8744 -1.6814 -1.6954
 4320SOL     OW24418   0.343   3.268   8.996  0.1065 -0.1277 -0.8044
 4320SOL    HW124419   0.274   3.329   9.021  1.0182  0.1097  1.1443
 4320SOL    HW224420   0.343   3.299   8.906 -0.2327 -4.8600 -2.4190
 4321SOL     OW24421   1.142   2.822   0.650 -0.1434  0.0455 -0.7523
 4321SOL    HW124422   1.098   2.849   0.730  1.1517 -1.0764  0.3233
 4321SOL    HW224423   1.070   2.796   0.592  0.0759  0.1514 -1.0759
 4322SOL     OW24424   1.889   0.039   2.478  0.2233 -0.3746  0.7014
 4322SOL    HW124425   1.882   0.048   2.383 -1.6170  0.2379  0.8788
 4322SOL    HW224426   1.797   0.031   2.504 -0.1956 -0.8409 -0.9307
 4323SOL     OW24427   0.733   2.703  16.890 -0.8583 -0.4009 -0.4390
 4323SOL    HW124428   0.690   2.628  16.930  0.1428 -1.4940 -1.3757
 4323SOL    HW224429   0.721   2.694  16.795  1.6185 -0.5948 -0.7406
 4324SOL     OW24430   4.707   2.418   5.980  0.4785 -0.4240  0.0124
 4324SOL    HW124431   4.692   2.512   5.971 -1.3260 -0.6304  0.8335
 4324SOL    HW224432   0.011   2.416   6.071 -0.5086  1.1421  0.3602
 4325SOL     OW24433   3.559   0.186   0.614  0.6834 -0.5423  0.2859
 4325SOL    HW124434   3.654   0.189   0.607  0.7797  0.3873  1.9788
 4325SOL    HW224435   3.532   0.273   0.585  0.9239 -0.6632 -0.2936
 4326SOL     OW24436   1.035   3.528   7.312  0.8407  0.0218  0.5362
 4326SOL    HW124437   0.958   3.584   7.301  0.9131  0.5126  2.6210
 4326SOL    HW224438   1.007   3.437   7.310 -0.6533  0.4223  3.1429
 4327SOL     OW24439   0.221   2.460   1.773  0.1550 -0.2165 -0.1504
 4327SOL    HW124440   0.179   2.374   1.779 -0.6835  0.0603 -2.0099
 4327SOL    HW224441   0.286   2.440   1.706  0.5628  0.1313  0.1422
 4328SOL     OW24442   4.079   1.490   7.548 -0.4126  0.4015 -0.3204
 4328SOL    HW124443   4.127   1.500   7.466  0.5069 -2.8793 -0.1973
 4328SOL    HW224444   4.141   1.528   7.611 -1.6290  1.7615  0.0503
 4329SOL     OW24445   4.317   2.117   7.047  0.2918  0.8724 -0.1289
 4329SOL    HW124446   4.378   2.078   7.109 -0.8329 -0.2464  0.2641
 4329SOL    HW224447   4.254   2.046   7.034  0.1359  0.9632  0.1214
 4330SOL     OW24448   2.314   3.875   0.926  0.2732  1.0301 -0.0676
 4330SOL    HW124449   2.269   3.830   0.997  1.3530 -1.0838 -0.6867
 4330SOL    HW224450   2.239   3.926   0.896  0.9540  1.7317 -0.5871
 4331SOL     OW24451   2.769   2.823   2.423 -0.2827  0.0475 -0.1894
 4331SOL    HW124452   2.819   2.806   2.502 -1.9469  1.1533  1.0977
 4331SOL    HW224453   2.826   2.887   2.381  2.6568 -1.3820  1.6692
 4332SOL     OW24454   1.845   0.367  13.067  0.3391 -0.2336 -0.7015
 4332SOL    HW124455   1.892   0.437  13.021 -2.2756  1.2536 -1.1319
 4332SOL    HW224456   1.906   0.295  13.084 -0.7652 -0.7240  1.2141
 4333SOL     OW24457   4.629   2.264   4.548 -0.3529 -0.2604  0.6307
 4333SOL    HW124458   4.576   2.186   4.561  0.2174 -0.4063  2.0415
 4333SOL    HW224459   4.672   2.248   4.464  1.9500 -0.6890  1.8908
 4334SOL     OW24460   3.791   0.954  12.529  0.3480  0.2160 -0.0340
 4334SOL    HW124461   3.740   1.034  12.534 -0.2836 -0.0583 -2.2775
 4334SOL    HW224462   3.734   0.898  12.477 -1.2050  1.6336  0.1671
 4335SOL     OW24463   2.300   1.459   5.467  0.1157 -0.4055  0.1297
 4335SOL    HW124464   2.357   1.427   5.396 -0.0722  0.1517 -0.2772
 4335SOL    HW224465   2.360   1.455   5.542 -1.7918  0.5432  1.6864
 4336SOL     OW24466   3.114   4.622  12.204 -0.1981  0.6938  0.2784
 4336SOL    HW124467   3.065   4.547  12.171  1.5952 -0.0972 -0.5670
 4336SOL    HW224468   3.062   4.692  12.164 -0.7798 -0.1496 -0.4317
 4337SOL     OW24469   0.457   0.059   5.290  0.0802  0.0243 -0.6301
 4337SOL    HW124470   0.415   0.144   5.280  3.1954  1.7496  0.9064
 4337SOL    HW224471   0.530   0.078   5.349  0.4182 -2.0934 -0.3786
 4338SOL     OW24472   1.144   0.086   6.953 -0.4077 -0.7176  0.0792
 4338SOL    HW124473   1.191   0.053   7.029  0.1020 -0.0083  0.0675
 4338SOL    HW224474   1.051   0.091   6.976 -1.0976 -1.7337 -2.4203
 4339SOL     OW24475   1.793   1.169   5.127  0.1039 -0.0074  0.0941
 4339SOL    HW124476   1.713   1.123   5.103 -1.1829  0.8229  2.7538
 4339SOL    HW224477   1.781   1.234   5.057  0.3537  1.1768  1.1359
 4340SOL     OW24478   2.259   2.726   8.717  0.0419  0.2319  0.1901
 4340SOL    HW124479   2.251   2.687   8.630  2.5247  2.3592 -0.9932
 4340SOL    HW224480   2.169   2.748   8.741  0.4839  1.4806  0.7107
 4341SOL     OW24481   2.459   3.184   5.088  0.1641  0.7430 -0.0392
 4341SOL    HW124482   2.490   3.164   5.000  1.3650  0.9722  0.3325
 4341SOL    HW224483   2.369   3.152   5.093  0.5172 -0.1523  0.8689
 4342SOL     OW24484   0.024   4.700   5.967 -0.0310 -0.3144 -0.7129
 4342SOL    HW124485   0.058   0.065   5.957 -0.1523 -0.3589 -1.5100
 4342SOL    HW224486   4.694   4.705   5.887  0.3185 -0.4943 -0.9583
 4343SOL     OW24487   1.360   4.707   7.119  0.4849  0.0807 -0.4548
 4343SOL    HW124488   1.439   0.037   7.120  1.1455 -0.8806 -0.2652
 4343SOL    HW224489   1.330   4.708   7.210  1.6545  0.0766 -0.0594
 4344SOL     OW24490   3.888   0.928  13.474  0.1309  0.5688  0.5515
 4344SOL    HW124491   3.844   0.961  13.552 -0.0080  0.1457  0.6521
 4344SOL    HW224492   3.978   0.946  13.503  0.4886  2.3325 -1.6275
 4345SOL     OW24493   2.020   2.480   6.572 -0.1166 -0.4339 -0.2978
 4345SOL    HW124494   2.052   2.558   6.528  0.4353 -0.2412  0.4472
 4345SOL    HW224495   1.937   2.517   6.602  0.9373  1.5610  0.1078
 4346SOL     OW24496   1.042   2.159   7.189 -0.0050  0.3266 -0.3694
 4346SOL    HW124497   0.987   2.088   7.155  1.0729 -0.9190  0.4916
 4346SOL    HW224498   0.975   2.200   7.244 -0.2104 -3.4051  2.1544
 4347SOL     OW24499   1.374   1.523   4.555  0.1607  0.3289 -0.4102
 4347SOL    HW124500   1.328   1.479   4.484  1.5976 -0.3949 -0.8770
 4347SOL    HW224501   1.410   1.459   4.617 -0.9774 -0.9908 -1.0960
 4348SOL     OW24502   0.867   2.727   5.356 -0.0327  0.1374 -0.4606
 4348SOL    HW124503   0.859   2.670   5.433 -1.6284 -0.7095 -1.2409
 4348SOL    HW224504   0.876   2.812   5.398 -1.3757  0.1915 -0.2749
 4349SOL     OW24505   0.946   2.978   2.537  0.2189 -0.1984  0.3676
 4349SOL    HW124506   0.991   3.030   2.470 -1.0809  0.6090  0.1143
 4349SOL    HW224507   0.951   2.889   2.502  0.7018  0.3570 -1.0076
 4350SOL     OW24508   4.110   3.926  14.671 -0.1692 -0.1296 -0.2911
 4350SOL    HW124509   4.139   4.017  14.681  0.9410 -0.4990 -0.1488
 4350SOL    HW224510   4.016   3.944  14.669  0.1432  1.5269 -0.0510
 4351SOL     OW24511   4.580   1.854   6.577 -0.2286 -0.4920 -0.3337
 4351SOL    HW124512   4.560   1.801   6.654 -0.3800  0.8736  0.5656
 4351SOL    HW224513   4.502   1.911   6.576  1.4659  1.8984  2.5092
 4352SOL     OW24514   1.613   4.499   8.886  0.4199  0.2236 -0.1628
 4352SOL    HW124515   1.558   4.447   8.945  2.2422 -1.1193  0.3355
 4352SOL    HW224516   1.548   4.556   8.844  1.2526  2.1976  1.2116
 4353SOL     OW24517   1.123   2.615   6.827  0.2719  0.1668  0.1839
 4353SOL    HW124518   1.037   2.654   6.811 -0.0265 -0.8158 -0.5497
 4353SOL    HW224519   1.119   2.527   6.791  0.9281  0.3280 -0.2840
 4354SOL     OW24520   2.001   4.015   4.425  0.1247  0.4551  0.0220
 4354SOL    HW124521   2.015   3.942   4.365  1.0076  1.9821 -1.6023
 4354SOL    HW224522   1.994   4.085   4.361 -0.8036 -1.3928 -1.8966
 4355SOL     OW24523   1.048   0.946   4.899  0.3786 -0.2614  0.2033
 4355SOL    HW124524   1.048   1.008   4.973  1.7754  0.4796 -0.4146
 4355SOL    HW224525   0.999   0.880   4.949 -1.0666  1.4550  1.0522
 4356SOL     OW24526   4.403   1.363   7.679  0.1219 -0.3562 -0.4644
 4356SOL    HW124527   4.450   1.445   7.668  1.1719 -0.7698  0.8798
 4356SOL    HW224528   4.475   1.304   7.701 -0.9231 -1.2890  0.4698
 4357SOL     OW24529   1.178   2.901   5.621 -0.4012  0.1368  0.4393
 4357SOL    HW124530   1.217   2.827   5.574 -0.2419 -1.4978  3.1264
 4357SOL    HW224531   1.115   2.932   5.556 -1.7293 -0.3521  1.4972
 4358SOL     OW24532   2.762   0.661   2.114 -0.1014 -0.1722  0.1168
 4358SOL    HW124533   2.822   0.615   2.056 -0.0183  3.3038 -2.6197
 4358SOL    HW224534   2.683   0.663   2.059 -1.0660 -0.8313  1.4661
 4359SOL     OW24535   3.562   1.608   1.778  0.4604  0.3378  0.0220
 4359SOL    HW124536   3.494   1.664   1.743 -1.3254 -1.0773  1.2221
 4359SOL    HW224537   3.603   1.664   1.844 -0.5255 -1.1782  1.9481
 4360SOL     OW24538   1.757   4.674   4.603 -0.9107 -0.2761 -0.5958
 4360SOL    HW124539   1.769   0.031   4.554 -0.7324  0.3683  0.5247
 4360SOL    HW224540   1.814   4.622   4.546  0.9425  0.2008  0.8404
 4361SOL     OW24541   0.663   4.460   1.389  0.2120  0.0642 -0.0319
 4361SOL    HW124542   0.605   4.537   1.392 -0.6069 -0.5030 -1.3781
 4361SOL    HW224543   0.655   4.433   1.480 -0.2086 -2.3376 -0.7841
 4362SOL     OW24544   0.057   0.994   2.964  0.7578  0.6816 -0.1643
 4362SOL    HW124545   0.122   1.060   2.940  0.7375 -0.1936 -2.5632
 4362SOL    HW224546   0.109   0.915   2.946 -1.2400 -0.7916  0.4885
 4363SOL     OW24547   0.184   1.590   5.268 -0.1372 -0.5666  0.2051
 4363SOL    HW124548   0.166   1.541   5.188  1.4688 -0.5253 -0.1835
 4363SOL    HW224549   0.230   1.662   5.225 -1.8296 -0.3734 -1.2721
 4364SOL     OW24550   4.692   0.674  14.561  0.0931  0.4769  0.1882
 4364SOL    HW124551   4.714   0.583  14.541  0.6886  0.9218 -1.1323
 4364SOL    HW224552   4.609   0.682  14.516  0.0555 -1.6299 -0.1208
 4365SOL     OW24553   0.494   4.499   9.311 -0.3024  0.4660  0.5272
 4365SOL    HW124554   0.443   4.574   9.341  0.7464  0.7390  1.6311
 4365SOL    HW224555   0.543   4.546   9.244  1.5056 -1.7098  0.2838
 4366SOL     OW24556   2.158   1.633   2.001  0.4451  0.0850  0.0092
 4366SOL    HW124557   2.094   1.562   2.001 -0.6784  1.1078 -1.3084
 4366SOL    HW224558   2.209   1.607   1.924  0.3834 -2.0736  0.6943
 4367SOL     OW24559   3.606   2.490   4.572 -0.4861  0.7249  0.1956
 4367SOL    HW124560   3.605   2.574   4.617 -0.2984  0.4870  0.6475
 4367SOL    HW224561   3.551   2.436   4.628 -0.2102 -0.2225 -0.4451
 4368SOL     OW24562   2.651   3.116  13.517 -0.6354 -0.1442  0.1976
 4368SOL    HW124563   2.682   3.205  13.535 -1.4678  0.0937  0.4254
 4368SOL    HW224564   2.583   3.112  13.584  0.3160  0.3738  1.1940
 4369SOL     OW24565   3.547   1.254   5.465  0.2485  0.8426 -0.3728
 4369SOL    HW124566   3.458   1.219   5.462  0.4698  0.2167  0.3154
 4369SOL    HW224567   3.597   1.173   5.473 -1.1394  0.0023 -0.1772
 4370SOL     OW24568   2.161   1.388   4.517 -0.3016  0.3441  0.3451
 4370SOL    HW124569   2.080   1.342   4.538  0.4430 -1.2936 -0.3220
 4370SOL    HW224570   2.225   1.339   4.569  0.8947  1.3279 -0.1876
 4371SOL     OW24571   3.535   0.311   0.217  0.2624  0.8165 -0.1087
 4371SOL    HW124572   3.571   0.235   0.262 -1.2316  0.4870  0.5519
 4371SOL    HW224573   3.481   0.353   0.284 -1.3005 -1.7925  0.2532
 4372SOL     OW24574   0.433   0.131  15.000  0.0437  0.1483  0.2019
 4372SOL    HW124575   0.344   0.142  14.967  1.0548  2.5842 -1.6357
 4372SOL    HW224576   0.440   0.187  15.077 -1.0984 -0.3371  0.6559
 4373SOL     OW24577   4.406   3.834   5.968  0.6342 -0.6410 -0.0632
 4373SOL    HW124578   4.388   3.813   6.060 -1.0897  0.8811 -0.0481
 4373SOL    HW224579   4.410   3.746   5.930  0.1764 -0.6453 -0.0972
 4374SOL     OW24580   1.698   4.442  14.077 -0.0218 -0.1285 -0.5097
 4374SOL    HW124581   1.735   4.481  13.998  1.1622  1.2519  0.7236
 4374SOL    HW224582   1.755   4.470  14.149 -0.7925 -0.0002  0.0527
 4375SOL     OW24583   3.723   1.521  11.017 -0.2554 -0.0603  0.0369
 4375SOL    HW124584   3.685   1.446  11.062 -2.4508  1.7336  1.1510
 4375SOL    HW224585   3.817   1.523  11.036 -0.1674 -2.4542 -0.2060
 4376SOL     OW24586   4.125   3.797   2.798  0.7874  0.1381  0.5305
 4376SOL    HW124587   4.030   3.808   2.804  0.0962 -4.1001 -2.4615
 4376SOL    HW224588   4.153   3.882   2.764 -0.9088  0.5579  0.1540
 4377SOL     OW24589   3.059   2.099   5.880 -0.2176 -0.6490  0.9263
 4377SOL    HW124590   3.036   2.029   5.820  0.8649 -1.6608  1.7014
 4377SOL    HW224591   2.978   2.151   5.883 -0.1233 -0.5232  1.3807
 4378SOL     OW24592   2.222   0.023   5.944 -0.0051 -0.5136 -0.4389
 4378SOL    HW124593   2.262   0.055   6.026 -1.7344  2.5129 -0.7916
 4378SOL    HW224594   2.285   4.683   5.911  0.0587  0.4369 -2.1579
 4379SOL     OW24595   2.430   1.426   9.823 -0.1290 -0.3903 -0.9170
 4379SOL    HW124596   2.370   1.497   9.848  1.9818  0.8733  0.5301
 4379SOL    HW224597   2.369   1.375   9.769 -1.4759  1.3499 -1.0451
 4380SOL     OW24598   2.085   3.519   0.178 -0.8970  0.3586  0.1453
 4380SOL    HW124599   2.180   3.513   0.193 -0.6312  0.3640 -1.5851
 4380SOL    HW224600   2.079   3.449   0.113  1.4396 -0.6253  0.9664
 4381SOL     OW24601   1.846   1.720   6.712 -0.2183  0.1096  0.0144
 4381SOL    HW124602   1.780   1.697   6.646  1.1422 -0.4021 -1.1538
 4381SOL    HW224603   1.859   1.811   6.684 -0.7115 -0.1193 -0.9392
 4382SOL     OW24604   4.449   2.216  11.835 -0.2076  0.7807 -0.1849
 4382SOL    HW124605   4.534   2.199  11.874 -0.3740 -1.3857 -0.7535
 4382SOL    HW224606   4.452   2.310  11.819  2.9327  0.7384  0.1201
 4383SOL     OW24607   3.060   0.995   4.592 -0.4212 -0.1899  0.4108
 4383SOL    HW124608   3.100   1.073   4.630 -0.9839  1.0993 -1.5882
 4383SOL    HW224609   2.967   1.002   4.614 -1.1796  1.7685 -3.2981
 4384SOL     OW24610   3.255   0.942   4.137 -0.0057  0.0617 -0.0001
 4384SOL    HW124611   3.317   0.912   4.205  2.2803  2.6920 -0.9128
 4384SOL    HW224612   3.213   1.006   4.194 -2.1440 -0.6609 -0.7799
 4385SOL     OW24613   1.872   4.393  12.132 -0.5839 -0.7272  0.1912
 4385SOL    HW124614   1.866   4.474  12.082 -0.2938 -1.8414 -1.6247
 4385SOL    HW224615   1.894   4.324  12.070 -1.0427  1.7407 -2.7321
 4386SOL     OW24616   4.255   4.594   4.758 -0.2506 -0.0346 -0.0001
 4386SOL    HW124617   4.189   4.528   4.736  1.7122 -1.8678 -0.3369
 4386SOL    HW224618   4.191   4.660   4.786 -2.2226 -2.2498  0.6772
 4387SOL     OW24619   2.638   2.427   4.301 -0.5146  0.4177 -0.0900
 4387SOL    HW124620   2.555   2.475   4.296 -0.3491  0.7237  0.0873
 4387SOL    HW224621   2.646   2.407   4.208 -1.2855 -1.5132  0.2548
 4388SOL     OW24622   0.510   0.032  13.516  0.3266  0.0103 -0.2080
 4388SOL    HW124623   0.471   0.105  13.468 -2.3382 -1.9813 -1.1008
 4388SOL    HW224624   0.434   4.722  13.564  2.5332 -0.7553  2.7228
 4389SOL     OW24625   2.037   0.657   9.253  0.2982  0.3476 -0.0086
 4389SOL    HW124626   2.036   0.752   9.265 -2.1380 -0.2767  4.3512
 4389SOL    HW224627   2.058   0.649   9.159 -0.4944 -0.5760 -0.1044
 4390SOL     OW24628   2.225   2.472   9.085  0.4510 -0.4442  0.3014
 4390SOL    HW124629   2.135   2.442   9.072  0.2777  0.6764 -1.0712
 4390SOL    HW224630   2.284   2.397   9.086  1.7063  0.5232 -2.6336
 4391SOL     OW24631   3.428   4.328   7.090 -0.1505 -0.5082 -0.3142
 4391SOL    HW124632   3.472   4.413   7.088 -0.1300 -0.4889  0.9928
 4391SOL    HW224633   3.490   4.273   7.137  0.4165 -0.2750 -0.7905
 4392SOL     OW24634   1.324   2.706   2.394  0.7391 -0.5972  0.0675
 4392SOL    HW124635   1.255   2.726   2.331  1.7287  0.5214 -0.6683
 4392SOL    HW224636   1.390   2.774   2.383 -0.0634  0.3972  1.4192
 4393SOL     OW24637   4.171   2.520  16.270  0.2469 -0.0881  0.0457
 4393SOL    HW124638   4.200   2.489  16.355 -0.3893 -1.5077 -0.2483
 4393SOL    HW224639   4.098   2.457  16.267  0.1418  0.0371 -0.0416
 4394SOL     OW24640   3.002   3.678  11.590 -0.3018  0.6479 -0.2364
 4394SOL    HW124641   3.005   3.759  11.538  1.9030 -1.0979 -2.8572
 4394SOL    HW224642   2.972   3.620  11.520  2.8860 -0.7374 -0.4529
 4395SOL     OW24643   0.540   3.014  11.778  0.4287  0.2304  0.5507
 4395SOL    HW124644   0.614   3.072  11.758  0.9414 -0.2355  1.0826
 4395SOL    HW224645   0.529   3.039  11.870 -0.8765 -3.5252  1.3956
 4396SOL     OW24646   4.113   2.539  11.801 -0.0516  0.4430 -0.2179
 4396SOL    HW124647   4.063   2.457  11.804 -1.2783  1.1871 -0.3246
 4396SOL    HW224648   4.064   2.592  11.865  1.0528 -0.1226  1.1003
 4397SOL     OW24649   1.675   0.454   5.801  0.2077  0.0014 -0.2301
 4397SOL    HW124650   1.735   0.413   5.739  1.4101  0.5558  0.5614
 4397SOL    HW224651   1.737   0.509   5.850 -0.2321 -1.1350  1.6205
 4398SOL     OW24652   0.652   1.561   6.626  0.0315  0.4126  0.2748
 4398SOL    HW124653   0.670   1.487   6.684  0.2365  0.7038  0.5883
 4398SOL    HW224654   0.741   1.592   6.609  0.5836 -0.4663  1.5075
 4399SOL     OW24655   4.308   3.552  10.012 -0.7447 -0.1582  0.8027
 4399SOL    HW124656   4.346   3.521   9.930 -0.2090  2.8437 -0.0784
 4399SOL    HW224657   4.333   3.644  10.007 -0.9204 -0.1583  0.0420
 4400SOL     OW24658   2.946   3.709  10.296  0.7549  0.1338  0.6784
 4400SOL    HW124659   2.939   3.741  10.386  0.7567 -2.8396  1.7495
 4400SOL    HW224660   2.869   3.651  10.299 -0.7471  2.1252  0.3108
 4401SOL     OW24661   3.639   0.871  17.069 -0.0701  0.2491  0.1766
 4401SOL    HW124662   3.549   0.854  17.043  0.5643 -3.1678  0.2790
 4401SOL    HW224663   3.626   0.863  17.164 -1.2968  0.9831  0.0647
 4402SOL     OW24664   1.673   0.218   6.477 -0.4230  0.1165  0.0463
 4402SOL    HW124665   1.723   0.156   6.425 -0.9524  1.6101 -2.2446
 4402SOL    HW224666   1.592   0.233   6.429 -0.0687 -0.4696 -0.7346
 4403SOL     OW24667   3.521   0.225   7.418  0.3686  0.2392  0.1231
 4403SOL    HW124668   3.545   0.317   7.433  1.5226  0.0067 -0.2416
 4403SOL    HW224669   3.435   0.216   7.459 -0.4577 -0.5792 -1.7660
 4404SOL     OW24670   0.337   0.013   6.830  0.3867 -0.3282 -0.2700
 4404SOL    HW124671   0.423   4.697   6.814  0.0508 -0.6663 -1.2218
 4404SOL    HW224672   0.313   0.060   6.751  0.2829 -2.7206 -1.6783
 4405SOL     OW24673   2.745   3.232   1.028  0.3725 -0.2039  0.5651
 4405SOL    HW124674   2.708   3.190   1.106 -2.8245 -0.1815 -0.9278
 4405SOL    HW224675   2.815   3.172   1.006  0.8008  0.4176  0.2376
 4406SOL     OW24676   4.085   0.699   9.581  0.4952 -0.4747 -0.1911
 4406SOL    HW124677   4.173   0.695   9.620  0.8721 -0.6205 -1.0720
 4406SOL    HW224678   4.086   0.779   9.528 -1.9013  0.2842  0.8743
 4407SOL     OW24679   2.778   4.531  11.829  0.3027  0.0260  0.2292
 4407SOL    HW124680   2.793   4.626  11.827 -0.0384  0.0419 -1.5999
 4407SOL    HW224681   2.698   4.520  11.778 -1.1174  3.4990  1.7270
 4408SOL     OW24682   3.388   0.068  11.154 -0.0430  0.2553  0.4382
 4408SOL    HW124683   3.411   0.037  11.067  0.4471  0.6205  0.4409
 4408SOL    HW224684   3.359   0.155  11.130 -1.8802  0.2578  2.5913
 4409SOL     OW24685   3.727   1.337  15.183 -0.1174  0.0242  0.2014
 4409SOL    HW124686   3.794   1.293  15.236  0.7289  1.1610  0.0762
 4409SOL    HW224687   3.675   1.379  15.252  3.5819  1.0644  2.3954
 4410SOL     OW24688   0.985   2.503   1.549 -0.5393  0.1092  0.3603
 4410SOL    HW124689   1.070   2.541   1.527 -0.9797  0.4549 -0.7061
 4410SOL    HW224690   0.962   2.476   1.460  1.7094 -1.7488  0.3150
 4411SOL     OW24691   4.583   0.884   4.167 -0.1436  0.5861 -0.0888
 4411SOL    HW124692   4.544   0.801   4.191 -0.0861  0.2646 -1.0827
 4411SOL    HW224693   4.557   0.949   4.232  0.3434  1.0956 -0.4007
 4412SOL     OW24694   2.232   0.006   7.846  0.3539 -0.0680 -0.2136
 4412SOL    HW124695   2.150   0.008   7.797  0.4351  0.5989 -0.3306
 4412SOL    HW224696   2.218   4.646   7.889  0.2871 -0.7924 -1.6570
 4413SOL     OW24697   0.412   0.668   1.032  0.1783  0.2556  0.2501
 4413SOL    HW124698   0.343   0.630   0.979  2.3608 -0.4755 -2.0701
 4413SOL    HW224699   0.467   0.695   0.958 -2.3139  3.2514 -0.5099
 4414SOL     OW24700   1.008   1.532   1.251  0.3995 -0.2966  0.1404
 4414SOL    HW124701   1.103   1.540   1.263  0.0933  2.4356  0.7218
 4414SOL    HW224702   1.013   1.482   1.170 -0.5561  0.5794 -0.4611
 4415SOL     OW24703   0.460   2.640   4.408 -0.7006  0.1388 -0.3521
 4415SOL    HW124704   0.488   2.612   4.495 -1.8316  1.2483  0.3662
 4415SOL    HW224705   0.467   2.557   4.361 -0.4114  0.6435 -1.1868
 4416SOL     OW24706   4.235   1.335   0.649  0.3734 -0.1547 -0.0831
 4416SOL    HW124707   4.186   1.414   0.671  1.7906  0.5456  0.6137
 4416SOL    HW224708   4.170   1.269   0.670 -1.1812  0.9591 -1.4350
 4417SOL     OW24709   2.464   3.081   8.092 -0.3721 -0.1370  0.4489
 4417SOL    HW124710   2.404   3.012   8.064 -0.4091 -0.9256  2.4636
 4417SOL    HW224711   2.474   3.070   8.187  0.6269 -1.4332  0.1806
 4418SOL     OW24712   4.440   1.236   0.490 -0.0052 -0.0038 -0.1091
 4418SOL    HW124713   4.373   1.297   0.521  0.9955  0.9280  0.1750
 4418SOL    HW224714   4.375   1.174   0.456 -0.1809 -0.2784  0.7297
 4419SOL     OW24715   4.078   3.820   4.228 -0.2343  0.2191  0.9870
 4419SOL    HW124716   4.161   3.789   4.192 -2.0103  0.6691 -3.5093
 4419SOL    HW224717   4.100   3.912   4.244  1.1939  0.4031 -2.1128
 4420SOL     OW24718   3.793   1.973   5.121  0.4182  0.4473  0.1875
 4420SOL    HW124719   3.721   1.957   5.183  0.0552  0.3621 -0.2540
 4420SOL    HW224720   3.826   2.055   5.159 -1.5141  1.3174  0.0073
 4421SOL     OW24721   4.338   1.007   9.793 -0.0042  0.1635 -0.0732
 4421SOL    HW124722   4.302   1.093   9.812 -1.1455 -0.0043 -1.5293
 4421SOL    HW224723   4.328   1.015   9.699  1.0665  1.3925 -0.0786
 4422SOL     OW24724   1.733   2.815   1.108 -0.4048  0.3800  0.0833
 4422SOL    HW124725   1.805   2.755   1.124 -1.1885 -0.2991  1.0539
 4422SOL    HW224726   1.666   2.752   1.131 -0.5959  1.0409  1.3350
 4423SOL     OW24727   1.424   0.491   4.974 -0.5182  0.2139  0.1631
 4423SOL    HW124728   1.423   0.565   5.035 -0.6160  0.2784  0.0836
 4423SOL    HW224729   1.380   0.420   5.020  0.1536 -1.1807 -1.3612
 4424SOL     OW24730   0.793   3.141  10.629  0.6079  0.1302 -0.8787
 4424SOL    HW124731   0.753   3.179  10.707  0.4297 -2.2325  0.1527
 4424SOL    HW224732   0.713   3.109  10.588  0.5310 -0.5401 -0.2045
 4425SOL     OW24733   4.569   0.685   1.971 -0.5187  0.0890 -0.3184
 4425SOL    HW124734   4.493   0.741   1.984 -0.5459  0.3116 -1.4837
 4425SOL    HW224735   4.570   0.636   2.053 -0.7018  1.4570  0.5023
 4426SOL     OW24736   2.318   4.492   3.673  0.0399 -0.6008  0.5535
 4426SOL    HW124737   2.337   4.551   3.600  1.9513 -0.4743  1.1738
 4426SOL    HW224738   2.226   4.519   3.671  0.6530  1.3702 -0.6488
 4427SOL     OW24739   2.445   0.805   2.336  0.1854 -0.3501  0.2638
 4427SOL    HW124740   2.540   0.797   2.338  0.3271  0.8221 -1.9472
 4427SOL    HW224741   2.429   0.766   2.250  0.0521 -1.4780  0.7952
 4428SOL     OW24742   2.869   0.485  13.758  0.0489  0.1822 -0.9369
 4428SOL    HW124743   2.817   0.558  13.791 -1.2364 -1.3176  0.3362
 4428SOL    HW224744   2.808   0.437  13.702  0.1799 -0.1378 -0.8070
 4429SOL     OW24745   4.017   1.002   4.202 -0.5229 -0.5147 -0.6446
 4429SOL    HW124746   3.930   1.039   4.222 -0.9428 -1.2731 -1.0676
 4429SOL    HW224747   4.034   1.045   4.118  1.7694 -1.8637 -0.8645
 4430SOL     OW24748   0.362   1.563   8.856  0.1415 -0.4263 -0.2583
 4430SOL    HW124749   0.344   1.628   8.788  2.6637 -0.8312 -1.3069
 4430SOL    HW224750   0.380   1.486   8.802 -1.3024 -1.3683  0.6191
 4431SOL     OW24751   4.549   1.192  13.139  0.4527  0.8630  0.2122
 4431SOL    HW124752   4.603   1.170  13.215  0.9347 -1.3453 -0.7721
 4431SOL    HW224753   4.462   1.200  13.179  1.2055  0.6268  1.8826
 4432SOL     OW24754   0.657   0.973   6.164  0.5068  0.0973  0.4962
 4432SOL    HW124755   0.611   0.922   6.098 -0.4038 -1.0704  2.0124
 4432SOL    HW224756   0.681   1.052   6.116  1.1181  0.4437  1.3714
 4433SOL     OW24757   3.018   4.544   5.546 -0.4888  0.0343 -0.8001
 4433SOL    HW124758   3.039   4.488   5.472 -2.7947  0.4069 -1.7690
 4433SOL    HW224759   2.933   4.506   5.569  0.7223 -1.7897  0.6052
 4434SOL     OW24760   2.163   1.771  15.653 -0.2269  0.4007 -0.0956
 4434SOL    HW124761   2.074   1.757  15.685  1.6590 -0.1056  4.7795
 4434SOL    HW224762   2.140   1.811  15.569 -0.5311 -1.6737 -0.9980
 4435SOL     OW24763   0.992   0.216   1.843  0.6114 -0.0348 -0.4395
 4435SOL    HW124764   1.034   0.294   1.807  1.3073 -1.3468 -2.4491
 4435SOL    HW224765   1.034   0.208   1.929 -1.1492  0.5153  0.4798
 4436SOL     OW24766   0.252   3.573  10.215  0.3015 -0.2775  0.4133
 4436SOL    HW124767   0.285   3.586  10.304 -0.0149  1.0684  0.3247
 4436SOL    HW224768   0.185   3.641  10.210 -1.5675 -2.1516  0.0220
 4437SOL     OW24769   4.663   1.154   7.442  0.0341  0.3111 -0.6289
 4437SOL    HW124770   4.721   1.229   7.433 -2.1953  1.9083 -1.6348
 4437SOL    HW224771   4.605   1.190   7.509 -0.1599  2.0866 -1.7486
 4438SOL     OW24772   0.659   0.610   9.213  0.6820  0.4964 -0.5533
 4438SOL    HW124773   0.596   0.669   9.170  0.5493  0.5657 -0.2652
 4438SOL    HW224774   0.704   0.570   9.139  0.9285  0.2934 -0.2909
 4439SOL     OW24775   1.539   1.071   1.221 -0.1447 -0.2459 -0.1126
 4439SOL    HW124776   1.606   1.132   1.192 -1.8628  1.2209 -1.0388
 4439SOL    HW224777   1.582   1.028   1.295  1.6305  0.5003 -0.7112
 4440SOL     OW24778   2.621   1.287   2.646  0.5583 -0.1668 -0.3543
 4440SOL    HW124779   2.714   1.273   2.664  1.0038 -0.1693 -2.5962
 4440SOL    HW224780   2.618   1.222   2.576 -0.1245 -1.7303  1.1194
 4441SOL     OW24781   0.334   2.249   7.958 -0.1825  0.3317 -0.0465
 4441SOL    HW124782   0.299   2.180   8.013  0.5179  1.6946  2.1061
 4441SOL    HW224783   0.261   2.311   7.964 -0.4843 -0.2192  1.9138
 4442SOL     OW24784   3.052   3.973  15.683  0.2900  0.0571  0.0977
 4442SOL    HW124785   3.139   4.002  15.657 -0.2614  1.8126  0.2424
 4442SOL    HW224786   2.988   4.042  15.669  1.7234  1.1648 -1.0272
 4443SOL     OW24787   4.625   1.839   7.158 -0.4796  0.9019  0.2334
 4443SOL    HW124788   4.595   1.755   7.124  0.2305  0.8408 -0.2343
 4443SOL    HW224789   4.719   1.827   7.148 -0.5543  0.5433 -0.0202
 4444SOL     OW24790   1.906   0.602  10.392 -0.0430 -0.2733  0.0728
 4444SOL    HW124791   1.898   0.537  10.323  1.2136  0.4541 -0.7572
 4444SOL    HW224792   1.877   0.545  10.463  0.0996  0.5904  0.8282
 4445SOL     OW24793   0.548   4.383   8.960 -0.1283  0.2459  0.2057
 4445SOL    HW124794   0.579   4.437   8.888 -1.3775 -1.0950 -1.3128
 4445SOL    HW224795   0.470   4.434   8.981  0.2034  0.5623  0.6883
 4446SOL     OW24796   3.895   4.161   2.685  0.0867  0.3757  0.0813
 4446SOL    HW124797   3.840   4.122   2.617  0.0971  1.4375 -0.5481
 4446SOL    HW224798   3.828   4.156   2.752 -1.5679  1.0763 -1.5285
 4447SOL     OW24799   3.647   4.126   7.241  0.3987 -0.8877 -0.2151
 4447SOL    HW124800   3.573   4.089   7.290  0.9725  1.3193  2.2872
 4447SOL    HW224801   3.696   4.048   7.214 -1.3739 -2.7937  1.9900
 4448SOL     OW24802   0.605   1.688   8.967  0.6926 -0.1202  0.2750
 4448SOL    HW124803   0.611   1.663   8.875  1.6322  1.1740 -0.0125
 4448SOL    HW224804   0.518   1.653   8.982 -0.0087  1.3991 -0.2273
 4449SOL     OW24805   1.520   3.969   2.774  0.1789  0.2282 -0.4771
 4449SOL    HW124806   1.490   3.882   2.749  1.8424 -0.6130  0.4483
 4449SOL    HW224807   1.611   3.941   2.777  0.5473  1.6204  1.8521
 4450SOL     OW24808   2.945   2.208   6.256  0.0447  0.3244 -0.2934
 4450SOL    HW124809   2.878   2.144   6.233  0.4794 -0.3235  0.2457
 4450SOL    HW224810   2.984   2.226   6.170  1.0311  1.4376  0.3917
 4451SOL     OW24811   0.709   0.961   2.408 -0.0630  0.0561  0.6593
 4451SOL    HW124812   0.704   1.044   2.361 -0.0661 -0.2032  0.2001
 4451SOL    HW224813   0.797   0.970   2.446  0.2625  0.8863 -0.2731
 4452SOL     OW24814   0.108   0.406   5.721  0.2921  0.6189  0.6258
 4452SOL    HW124815   0.126   0.465   5.795 -0.2965  0.5951  0.7878
 4452SOL    HW224816   0.036   0.452   5.678 -0.5439 -1.9404 -0.6563
 4453SOL     OW24817   3.563   2.754  13.013  0.2337 -0.3288  0.7233
 4453SOL    HW124818   3.499   2.710  13.067 -0.9921  1.3963  0.6637
 4453SOL    HW224819   3.543   2.748  12.919 -1.4682 -0.3365  1.0961
 4454SOL     OW24820   3.071   3.250  13.968 -0.5860 -0.0830 -0.2869
 4454SOL    HW124821   3.015   3.295  14.032 -2.1709 -1.1641 -0.9174
 4454SOL    HW224822   3.063   3.158  13.991 -2.7132 -0.3007 -1.9441
 4455SOL     OW24823   1.128   3.857  10.032 -0.6465  0.0199 -0.3730
 4455SOL    HW124824   1.160   3.910  10.105  0.1324 -0.3113 -0.4706
 4455SOL    HW224825   1.209   3.810  10.009 -1.3214 -1.0245 -0.6202
 4456SOL     OW24826   4.219   4.263   5.318  0.1933 -0.4467  0.1302
 4456SOL    HW124827   4.270   4.295   5.392  1.6709 -0.9211 -0.6822
 4456SOL    HW224828   4.289   4.226   5.264  0.7891 -2.5482  2.3263
 4457SOL     OW24829   4.154   3.313   3.571 -0.1708 -0.2111  0.4753
 4457SOL    HW124830   4.092   3.357   3.629  0.0070  2.3847 -1.3071
 4457SOL    HW224831   4.156   3.358   3.487 -0.6736  1.4595  1.3504
 4458SOL     OW24832   2.452   3.573   2.292  0.0158  0.3706 -0.7395
 4458SOL    HW124833   2.501   3.648   2.259 -0.3872  0.4497 -1.1659
 4458SOL    HW224834   2.366   3.586   2.251 -0.1842  3.6581  0.7328
 4459SOL     OW24835   3.324   4.302  17.346  0.0389  0.0726 -0.0310
 4459SOL    HW124836   3.315   4.344  17.260  0.2903 -0.8940 -0.5229
 4459SOL    HW224837   3.347   4.374  17.405  0.5811 -1.0355  1.1000
 4460SOL     OW24838   1.233   1.479   4.051  0.0986  0.6594 -0.1485
 4460SOL    HW124839   1.256   1.486   3.959  2.5539  0.3429  0.4323
 4460SOL    HW224840   1.217   1.385   4.055 -2.9611  1.2222  0.7425
 4461SOL     OW24841   3.559   2.108  13.754 -0.2702  0.1367  0.2579
 4461SOL    HW124842   3.586   2.026  13.796  2.6567  2.9769  3.8664
 4461SOL    HW224843   3.595   2.094  13.666 -1.8176 -1.1156 -0.1865
 4462SOL     OW24844   1.546   3.886  15.519 -0.7157  0.5870  0.1800
 4462SOL    HW124845   1.505   3.971  15.532 -0.7159  0.8704 -1.7853
 4462SOL    HW224846   1.569   3.890  15.427 -0.5769 -0.5441  0.1655
 4463SOL     OW24847   1.214   2.731   7.827 -0.0459 -0.6617 -0.2171
 4463SOL    HW124848   1.181   2.812   7.788 -1.4695 -2.2518 -2.3289
 4463SOL    HW224849   1.164   2.727   7.908  2.5079  0.2906  1.3988
 4464SOL     OW24850   1.064   0.847   3.297 -0.2036  1.0744 -0.6942
 4464SOL    HW124851   1.120   0.907   3.249  1.3170  0.3030  0.1108
 4464SOL    HW224852   0.985   0.885   3.257 -1.6725 -1.3319 -0.0977
 4465SOL     OW24853   1.647   2.593   6.956 -0.1513 -0.7489  0.1531
 4465SOL    HW124854   1.558   2.587   6.920  0.7872 -1.2399 -2.0678
 4465SOL    HW224855   1.631   2.644   7.036 -1.5885 -1.3917  0.2796
 4466SOL     OW24856   1.037   1.179  10.326  0.3376  0.4049 -0.6587
 4466SOL    HW124857   0.943   1.164  10.332  0.2497  0.5283 -1.8566
 4466SOL    HW224858   1.041   1.235  10.404  1.5344 -0.7736  0.1205
 4467SOL     OW24859   3.001   1.668  13.024  0.3522 -0.7029 -0.4346
 4467SOL    HW124860   2.998   1.748  12.971 -1.6811  0.7358  1.7982
 4467SOL    HW224861   3.028   1.698  13.111 -1.7922 -0.6821  0.2340
 4468SOL     OW24862   1.281   1.344  10.042  0.6626 -0.3333  0.5161
 4468SOL    HW124863   1.204   1.380   9.998  0.2646  0.0476  1.5180
 4468SOL    HW224864   1.267   1.372  10.133 -2.4471 -1.0918  0.2614
 4469SOL     OW24865   1.799   1.192   5.588  0.5154  0.0219  0.3258
 4469SOL    HW124866   1.740   1.259   5.622  0.7248  0.3248  0.0982
 4469SOL    HW224867   1.750   1.175   5.508 -2.7999  0.8470  2.1902
 4470SOL     OW24868   0.251   2.401  11.824 -0.2533  0.2109  0.1173
 4470SOL    HW124869   0.255   2.369  11.914 -0.8187  1.6193  0.6497
 4470SOL    HW224870   0.310   2.346  11.773  0.3522  0.8216  0.1553
 4471SOL     OW24871   1.060   2.916  12.870  0.5399 -0.2753  0.0348
 4471SOL    HW124872   1.105   2.844  12.915 -0.3304 -0.6035  0.3782
 4471SOL    HW224873   1.087   2.908  12.778 -1.5169  0.1285 -0.6010
 4472SOL     OW24874   1.832   0.015  11.668  0.8820 -0.1062  0.3684
 4472SOL    HW124875   1.871   0.059  11.744 -1.8952  0.4710  1.4548
 4472SOL    HW224876   1.902   4.673  11.672  0.1633 -0.8998 -0.1693
 4473SOL     OW24877   1.797   0.318   5.313  0.0905  0.5085 -0.7138
 4473SOL    HW124878   1.886   0.294   5.286 -1.4383 -2.2347 -3.3413
 4473SOL    HW224879   1.768   0.389   5.255  2.9108  1.2863 -1.1989
 4474SOL     OW24880   3.925   2.877   9.463  0.6267  0.1642 -0.1884
 4474SOL    HW124881   3.961   2.807   9.517 -3.6079 -0.5383  1.7193
 4474SOL    HW224882   3.998   2.938   9.467  0.0553  0.8153  0.3274
 4475SOL     OW24883   1.993   4.089  14.790  0.0314  0.6919  0.0847
 4475SOL    HW124884   2.079   4.063  14.824 -0.6915 -3.1805 -0.9692
 4475SOL    HW224885   2.002   4.184  14.783 -1.8891  0.8586 -0.2134
 4476SOL     OW24886   2.743   2.327   9.604 -0.1179  0.3239  0.0321
 4476SOL    HW124887   2.745   2.360   9.514 -1.4461 -0.6748 -0.3513
 4476SOL    HW224888   2.650   2.305   9.603  0.2142 -1.0398 -0.2632
 4477SOL     OW24889   3.354   0.588   8.026  0.3000  0.4109 -0.2549
 4477SOL    HW124890   3.426   0.631   8.073 -0.6209 -0.9146  2.4141
 4477SOL    HW224891   3.325   0.525   8.093  0.6868 -0.3337 -0.7836
 4478SOL     OW24892   2.504   3.674   3.650  1.0527 -0.0657 -0.1563
 4478SOL    HW124893   2.522   3.691   3.743  0.5293 -2.2066  0.3520
 4478SOL    HW224894   2.526   3.760   3.615  2.4284 -0.0236  0.8247
 4479SOL     OW24895   4.071   0.120   3.851  0.2149 -0.0491 -0.0742
 4479SOL    HW124896   4.156   0.141   3.890  1.8253 -3.1718 -1.8781
 4479SOL    HW224897   4.093   0.097   3.761 -0.1324 -0.0871 -0.1490
 4480SOL     OW24898   1.804   0.705   9.798  0.0245  0.1955 -0.3905
 4480SOL    HW124899   1.807   0.711   9.702 -1.0770  1.2993 -0.3612
 4480SOL    HW224900   1.781   0.613   9.804  1.0761 -0.0242  0.2686
 4481SOL     OW24901   1.083   4.049   5.992  0.0314  0.3060 -0.2598
 4481SOL    HW124902   1.155   4.091   6.039 -0.0655 -0.1541  0.2932
 4481SOL    HW224903   1.110   4.058   5.900  1.8060 -0.6227  0.1749
 4482SOL     OW24904   0.929   0.715   9.909 -0.1851 -0.0188 -0.0423
 4482SOL    HW124905   0.842   0.714   9.949 -0.6192 -0.2574 -1.0111
 4482SOL    HW224906   0.937   0.622   9.887 -0.1075  0.1048 -0.5237
 4483SOL     OW24907   1.812   0.842  10.586 -0.2495 -0.0192  0.4780
 4483SOL    HW124908   1.800   0.842  10.681 -2.1730 -1.3889  0.2550
 4483SOL    HW224909   1.724   0.827  10.552  0.3092 -0.5605 -0.7195
 4484SOL     OW24910   3.310   4.185   4.372  0.0180 -0.1971  0.0507
 4484SOL    HW124911   3.319   4.146   4.286  1.5548 -1.0414  0.5848
 4484SOL    HW224912   3.390   4.239   4.371 -0.4013  0.4147 -0.1003
 4485SOL     OW24913   2.281   3.180   7.689 -0.0456 -0.1348  0.1829
 4485SOL    HW124914   2.290   3.222   7.774  0.2324  1.7933 -0.7959
 4485SOL    HW224915   2.320   3.094   7.702 -0.2040  0.1557  2.5895
 4486SOL     OW24916   2.392   2.188  10.155  0.3564 -0.0342 -0.4026
 4486SOL    HW124917   2.460   2.255  10.149 -0.8822  1.2482 -0.0876
 4486SOL    HW224918   2.438   2.104  10.154 -0.2064 -0.3234 -5.1798
 4487SOL     OW24919   4.121   4.150   2.895  0.5353 -0.2310 -0.5870
 4487SOL    HW124920   4.042   4.172   2.945  1.2737  3.0025 -0.8140
 4487SOL    HW224921   4.077   4.124   2.814  1.3214 -2.4893 -0.2891
 4488SOL     OW24922   0.620   2.793   2.675  0.0459  0.3086 -0.4796
 4488SOL    HW124923   0.614   2.886   2.653 -0.5610  0.0628 -1.3377
 4488SOL    HW224924   0.645   2.750   2.594 -1.7557  0.4597 -1.1227
 4489SOL     OW24925   2.380   1.047   5.182 -0.0620 -0.0655 -0.7939
 4489SOL    HW124926   2.308   1.052   5.119  0.1426  1.9230 -0.8956
 4489SOL    HW224927   2.375   1.137   5.216 -0.4845 -1.8896  3.9554
 4490SOL     OW24928   2.681   1.113  17.186 -0.6727  0.5668  0.6575
 4490SOL    HW124929   2.618   1.067  17.242 -1.4274 -0.8023 -1.3056
 4490SOL    HW224930   2.636   1.196  17.170 -1.2823 -0.1500 -1.3413
 4491SOL     OW24931   3.377   1.774  11.068 -0.4940 -0.3510 -0.1660
 4491SOL    HW124932   3.340   1.780  10.980  1.1570 -1.3323 -0.9474
 4491SOL    HW224933   3.468   1.770  11.038 -1.0533 -0.7872 -1.8173
 4492SOL     OW24934   1.038   3.498   5.709  0.2502 -0.1450  0.6511
 4492SOL    HW124935   1.032   3.569   5.773 -0.4425  0.8341 -0.4970
 4492SOL    HW224936   1.012   3.426   5.767 -0.3122 -1.1813 -0.8808
 4493SOL     OW24937   2.241   0.401  17.605  0.0081 -0.3518  0.6351
 4493SOL    HW124938   2.161   0.408  17.553 -0.1204 -0.0448  0.8790
 4493SOL    HW224939   2.302   0.344  17.557 -1.9342  0.4667 -2.7827
 4494SOL     OW24940   4.711   0.311  11.345 -0.0791  0.1640  0.2750
 4494SOL    HW124941   4.683   0.222  11.322 -2.6468  0.8514  0.7807
 4494SOL    HW224942   0.058   0.326  11.283 -1.2909 -0.5236 -1.2757
 4495SOL     OW24943   0.013   0.179   2.169  0.2070  0.4894  0.0639
 4495SOL    HW124944   0.026   0.112   2.102 -0.6044 -0.7084  1.1172
 4495SOL    HW224945   0.056   0.251   2.122 -2.3647  1.8119 -0.2532
 4496SOL     OW24946   1.683   2.683   5.491  0.1964  0.0832 -0.0048
 4496SOL    HW124947   1.766   2.693   5.537 -0.1130 -0.6226  0.6878
 4496SOL    HW224948   1.695   2.766   5.445 -0.1846  0.4594  0.5738
 4497SOL     OW24949   3.641   0.983  13.088  0.4580  0.2673  0.3201
 4497SOL    HW124950   3.585   1.020  13.156  0.3967 -0.5500  0.7210
 4497SOL    HW224951   3.658   0.899  13.129  1.0258 -0.6265 -1.7264
 4498SOL     OW24952   4.430   1.784   1.113  0.1002  0.0448 -0.4087
 4498SOL    HW124953   4.345   1.778   1.156  0.1067 -0.7576 -0.5056
 4498SOL    HW224954   4.403   1.822   1.029 -1.3286 -1.1828 -0.5052
 4499SOL     OW24955   0.067   4.121   5.562 -0.1328 -0.4930  0.5127
 4499SOL    HW124956   0.006   4.163   5.623  2.1053  0.7288  1.9296
 4499SOL    HW224957   0.057   4.030   5.589 -0.8229  0.1693  2.5017
 4500SOL     OW24958   1.924   1.288   4.481  0.0841  0.4356  0.3948
 4500SOL    HW124959   1.840   1.290   4.526 -0.3530 -2.0832 -0.2834
 4500SOL    HW224960   1.897   1.354   4.417 -0.9009  0.5384  0.9323
 4501SOL     OW24961   2.352   3.277   2.699  0.0366 -0.1529  0.3347
 4501SOL    HW124962   2.371   3.369   2.716 -2.1106  0.2047  0.8067
 4501SOL    HW224963   2.345   3.285   2.604 -2.9942  1.6608  0.7083
 4502SOL     OW24964   2.239   2.366   1.698  0.2005 -0.3503 -0.4894
 4502SOL    HW124965   2.204   2.365   1.787  0.5742 -1.8682 -0.3526
 4502SOL    HW224966   2.256   2.272   1.699 -0.3803 -0.4887 -1.9232
 4503SOL     OW24967   1.885   4.613   2.155  0.3753  0.0523 -0.2186
 4503SOL    HW124968   1.807   4.596   2.209  0.3243 -1.1316 -0.6520
 4503SOL    HW224969   1.942   4.540   2.180  0.2894 -0.0337 -0.2704
 4504SOL     OW24970   2.422   0.781   2.073 -0.2223  0.5782  0.4890
 4504SOL    HW124971   2.398   0.869   2.044 -0.4806  0.9197  1.7541
 4504SOL    HW224972   2.494   0.753   2.017  0.1031  3.2388 -0.4186
 4505SOL     OW24973   4.157   0.537   2.043  0.6802  0.4419  0.0824
 4505SOL    HW124974   4.202   0.573   2.120  2.5550 -1.3939 -0.1729
 4505SOL    HW224975   4.146   0.449   2.080 -2.1972  0.0446 -1.7780
 4506SOL     OW24976   1.516   2.402   5.849 -0.1736  0.2388 -0.5380
 4506SOL    HW124977   1.556   2.486   5.872 -0.8877  0.4681 -0.1165
 4506SOL    HW224978   1.580   2.345   5.891  0.8906  2.1070  0.3667
 4507SOL     OW24979   3.565   0.286  14.990 -0.7167  0.0622 -0.0039
 4507SOL    HW124980   3.500   0.322  15.049 -1.1364  1.3105 -1.2301
 4507SOL    HW224981   3.621   0.363  14.982  0.1494 -0.3886  1.8821
 4508SOL     OW24982   4.335   0.372   3.127  0.3597 -0.0898  0.3103
 4508SOL    HW124983   4.304   0.459   3.100  0.3671 -0.3401 -0.4837
 4508SOL    HW224984   4.411   0.370   3.069  0.7403 -1.1780  0.8575
 4509SOL     OW24985   1.393   2.127   8.044 -0.1810 -0.1649  0.0848
 4509SOL    HW124986   1.426   2.155   7.959 -0.3412  2.1282  0.7820
 4509SOL    HW224987   1.339   2.052   8.017  0.6752 -1.1441  1.0566
 4510SOL     OW24988   3.193   0.057   5.297  0.5924 -0.5738  0.0787
 4510SOL    HW124989   3.269   0.084   5.348  0.1035  1.1118 -0.0907
 4510SOL    HW224990   3.227   0.073   5.209  0.9616 -1.0802  0.1244
 4511SOL     OW24991   3.111   0.551   7.120  0.7082  0.0068  0.1142
 4511SOL    HW124992   3.111   0.600   7.202  0.8310 -0.6920  0.5265
 4511SOL    HW224993   3.163   0.473   7.140  0.1616 -0.9507 -2.2574
 4512SOL     OW24994   4.077   1.764   7.880 -0.7217 -0.8346 -0.0978
 4512SOL    HW124995   4.059   1.816   7.802  0.0329 -0.0026  0.2786
 4512SOL    HW224996   4.096   1.841   7.934  0.2368 -1.1598  0.0257
 4513SOL     OW24997   0.669   1.505   7.832 -0.1060  0.2488  0.4760
 4513SOL    HW124998   0.658   1.415   7.861 -0.0435  0.5408  1.4437
 4513SOL    HW224999   0.594   1.514   7.773  0.0792 -1.5414 -0.0139
 4514SOL     OW25000   0.461   1.127   3.164  0.1374 -0.3289 -0.3473
 4514SOL    HW125001   0.527   1.125   3.095 -1.4756  0.0939 -1.8898
 4514SOL    HW225002   0.431   1.036   3.162  1.1918 -0.6468 -1.3527
 4515SOL     OW25003   0.673   1.759   1.406 -0.5193 -0.1287 -0.3224
 4515SOL    HW125004   0.627   1.837   1.376 -1.0829  0.1250  1.1707
 4515SOL    HW225005   0.589   1.713   1.415 -0.9558  0.7709  0.2165
 4516SOL     OW25006   4.164   1.381   7.818  0.2742  0.2288  0.1677
 4516SOL    HW125007   4.244   1.353   7.774  1.2106  1.0320  1.3432
 4516SOL    HW225008   4.166   1.473   7.789 -0.2631 -0.8741 -3.3238
 4517SOL     OW25009   0.393   3.703   1.629 -0.2518 -0.4927 -0.1493
 4517SOL    HW125010   0.378   3.761   1.704  0.5360  0.5352 -0.7980
 4517SOL    HW225011   0.391   3.614   1.665  0.3490  0.1903  1.5614
 4518SOL     OW25012   2.670   3.293  15.864  0.1834  0.0279  0.0919
 4518SOL    HW125013   2.741   3.333  15.813 -0.9287  0.8519 -0.8395
 4518SOL    HW225014   2.634   3.245  15.789 -0.5594 -0.4871  0.7791
 4519SOL     OW25015   1.065   4.451  11.168 -0.0109 -0.1799 -0.1961
 4519SOL    HW125016   1.155   4.429  11.191 -0.5804  1.3971  3.4756
 4519SOL    HW225017   1.033   4.461  11.257 -0.9654  0.3807 -0.5978
 4520SOL     OW25018   0.319   2.910   5.731  0.3559  0.2592  0.5409
 4520SOL    HW125019   0.279   2.838   5.780 -0.9254 -0.0782 -1.0158
 4520SOL    HW225020   0.411   2.902   5.757  0.6005  2.6544  0.3671
 4521SOL     OW25021   0.810   3.657   6.991  0.8630  0.1061 -0.3876
 4521SOL    HW125022   0.905   3.658   6.976  0.8032  0.4069 -0.7341
 4521SOL    HW225023   0.799   3.680   7.083  1.1397 -1.2709 -0.0225
 4522SOL     OW25024   1.598   2.626  11.095 -0.6171 -0.4658 -0.1850
 4522SOL    HW125025   1.596   2.535  11.065 -0.3561 -0.8820  1.0311
 4522SOL    HW225026   1.577   2.659  11.008 -0.3783 -0.0816 -0.0999
 4523SOL     OW25027   1.114   3.216  12.605 -0.0658 -0.0342  0.4529
 4523SOL    HW125028   1.068   3.299  12.612  1.4303  0.6498  2.3672
 4523SOL    HW225029   1.161   3.227  12.688  2.9471  0.5792 -1.3330
 4524SOL     OW25030   3.726   0.737   3.468  0.3734  0.2245 -0.0495
 4524SOL    HW125031   3.797   0.761   3.409  0.2976 -0.4757 -0.4128
 4524SOL    HW225032   3.721   0.822   3.512  2.8893 -1.0002  2.6075
 4525SOL     OW25033   3.957   2.693  12.451  0.5714  0.3667  0.5950
 4525SOL    HW125034   3.976   2.600  12.458 -0.1194  0.4489  3.7453
 4525SOL    HW225035   3.983   2.723  12.539 -0.1388 -1.3440  1.3922
 4526SOL     OW25036   2.108   3.603   7.660  0.0310  0.0808 -0.3416
 4526SOL    HW125037   2.035   3.636   7.712 -0.6907 -0.2600 -1.1398
 4526SOL    HW225038   2.187   3.598   7.714 -0.4788  0.5535  0.4486
 4527SOL     OW25039   2.842   0.047   0.902 -0.3705  0.1828  0.1872
 4527SOL    HW125040   2.751   0.025   0.883 -0.5065  1.8836 -1.1120
 4527SOL    HW225041   2.837   0.135   0.867 -1.7112 -0.7271 -1.8877
 4528SOL     OW25042   3.151   3.949   5.866 -0.4592  0.0329  0.2048
 4528SOL    HW125043   3.201   4.031   5.871  1.6136 -1.2939  1.0381
 4528SOL    HW225044   3.070   3.974   5.822  0.2957 -0.6942 -1.6248
 4529SOL     OW25045   2.499   2.058  11.241 -0.6644 -0.3347  0.2460
 4529SOL    HW125046   2.589   2.070  11.272 -0.0937 -2.0542 -0.7530
 4529SOL    HW225047   2.464   2.001  11.310 -1.2662 -0.6447 -0.3230
 4530SOL     OW25048   2.120   4.484   6.848  0.0050 -0.0604  0.9375
 4530SOL    HW125049   2.064   4.554   6.815 -1.0219 -0.8963  0.9212
 4530SOL    HW225050   2.193   4.496   6.787 -0.8626 -1.9981 -0.4851
 4531SOL     OW25051   4.620   2.141   9.724 -0.0665 -0.2312  0.3113
 4531SOL    HW125052   4.709   2.170   9.702  0.6727 -1.4454  1.6881
 4531SOL    HW225053   4.629   2.066   9.784 -1.1326 -0.7220 -0.1512
 4532SOL     OW25054   3.627   1.391   4.581  0.2001 -0.2621 -0.0815
 4532SOL    HW125055   3.579   1.474   4.571 -0.3338 -0.3434  1.9230
 4532SOL    HW225056   3.671   1.400   4.665  1.9597 -2.2191 -0.7990
 4533SOL     OW25057   1.002   2.525  15.433  0.3621  0.4013  0.0404
 4533SOL    HW125058   0.979   2.537  15.525 -3.3252 -1.2955 -0.6536
 4533SOL    HW225059   0.911   2.531  15.405 -0.4754 -0.0226  2.7644
 4534SOL     OW25060   0.004   1.769  12.420  0.3788 -0.2491 -0.4295
 4534SOL    HW125061   0.036   1.680  12.429  0.2848 -0.1977  0.4666
 4534SOL    HW225062   0.025   1.785  12.328  1.6925 -0.7784 -0.2223
 4535SOL     OW25063   0.984   4.189   8.298 -0.3984 -0.1966  0.0877
 4535SOL    HW125064   0.897   4.195   8.338 -0.2689 -0.6063  0.4256
 4535SOL    HW225065   0.971   4.147   8.213 -0.2092 -0.3038  0.1119
 4536SOL     OW25066   4.520   1.495   7.968  0.5146  0.3173 -0.3006
 4536SOL    HW125067   4.484   1.432   8.031  1.3353 -1.4340 -1.6105
 4536SOL    HW225068   4.475   1.575   7.997  1.4636 -0.2098  2.6756
 4537SOL     OW25069   0.292   1.354   5.867 -0.3815 -0.3714 -0.2972
 4537SOL    HW125070   0.352   1.315   5.804  1.9957  1.7103  0.6857
 4537SOL    HW225071   0.276   1.442   5.832  3.6943  0.5127  0.0502
 4538SOL     OW25072   1.243   3.139   8.229  0.5781 -0.8975  0.0889
 4538SOL    HW125073   1.266   3.128   8.137  3.3382  3.1771  0.2985
 4538SOL    HW225074   1.151   3.114   8.234 -0.0256  1.2487  0.0774
 4539SOL     OW25075   2.705   4.337  13.191  0.2181 -0.1915  0.0581
 4539SOL    HW125076   2.760   4.372  13.261  1.0601 -0.4240 -0.4777
 4539SOL    HW225077   2.616   4.336  13.225  0.3538  1.2340  0.4804
 4540SOL     OW25078   1.266   0.212  15.104  0.0830 -0.1758  0.1373
 4540SOL    HW125079   1.312   0.275  15.048 -2.6211  0.7492 -1.0395
 4540SOL    HW225080   1.233   0.259  15.182 -0.1345 -1.7560  0.9948
 4541SOL     OW25081   4.574   0.616   5.183 -0.2083 -0.0277 -0.2117
 4541SOL    HW125082   4.626   0.686   5.222 -1.3717  0.5435  0.3153
 4541SOL    HW225083   4.643   0.577   5.129 -0.0041  1.2258 -0.8527
 4542SOL     OW25084   1.936   2.744  11.179  0.0157  0.0656 -0.3536
 4542SOL    HW125085   1.999   2.813  11.158  0.0266 -0.2528 -1.3932
 4542SOL    HW225086   1.941   2.682  11.106 -2.1692 -0.5132 -0.0186
 4543SOL     OW25087   4.356   0.642   7.293 -0.1509  0.1047  0.4364
 4543SOL    HW125088   4.382   0.733   7.304  1.2025 -0.1012 -1.1240
 4543SOL    HW225089   4.306   0.637   7.375  1.3815 -1.9178  1.2376
 4544SOL     OW25090   3.337   2.530   0.878  0.1827 -0.1848 -0.3281
 4544SOL    HW125091   3.273   2.483   0.824 -0.5706 -0.5656  0.8955
 4544SOL    HW225092   3.296   2.607   0.917  0.5439 -1.2922  2.2327
 4545SOL     OW25093   3.060   3.941   8.657  0.1623  0.2855 -0.3042
 4545SOL    HW125094   3.061   3.888   8.576  3.7556  1.3749 -0.9645
 4545SOL    HW225095   3.033   3.874   8.720  0.3661  2.4256  2.0308
 4546SOL     OW25096   2.710   0.103  12.306  0.0791  0.1961 -0.0585
 4546SOL    HW125097   2.667   0.093  12.391 -0.4386 -1.7670 -0.5317
 4546SOL    HW225098   2.777   0.171  12.309 -1.1296  1.2847  2.1036
 4547SOL     OW25099   3.628   1.640   5.116 -0.1275 -0.0401  0.1205
 4547SOL    HW125100   3.722   1.649   5.132 -0.2825  1.0418  0.3844
 4547SOL    HW225101   3.599   1.712   5.172 -0.0003 -0.9457  1.3678
 4548SOL     OW25102   1.480   1.674  11.588  0.1278 -0.7329 -0.4721
 4548SOL    HW125103   1.468   1.679  11.493  0.7800 -0.4487 -0.5382
 4548SOL    HW225104   1.510   1.585  11.607  1.5851  0.1851  1.4738
 4549SOL     OW25105   1.375   3.373   0.487  0.2729 -0.7452  0.3357
 4549SOL    HW125106   1.466   3.363   0.513  0.4429 -2.3041 -0.8355
 4549SOL    HW225107   1.347   3.452   0.533  0.9195  0.0832 -0.7090
 4550SOL     OW25108   4.246   0.727   5.850 -0.0792 -0.1426 -0.7126
 4550SOL    HW125109   4.218   0.635   5.855 -1.0876  0.3069  2.2599
 4550SOL    HW225110   4.310   0.729   5.779 -0.1132  1.3005 -0.7014
 4551SOL     OW25111   4.350   1.882   3.305  0.3412 -0.3251 -0.1979
 4551SOL    HW125112   4.311   1.969   3.319  0.3882 -0.4810  0.9185
 4551SOL    HW225113   4.301   1.828   3.367  2.1148  0.0583  1.5652
 4552SOL     OW25114   0.392   2.502  16.694 -0.4730 -0.7373  0.6335
 4552SOL    HW125115   0.488   2.504  16.695 -0.4827 -1.1124  2.0270
 4552SOL    HW225116   0.375   2.559  16.620  0.3563  0.8532  1.6767
 4553SOL     OW25117   2.770   2.699  13.658 -0.1720  0.1680  0.6912
 4553SOL    HW125118   2.760   2.616  13.611 -2.0664  0.8797 -0.1715
 4553SOL    HW225119   2.783   2.671  13.749  0.2318  0.6511  0.7782
 4554SOL     OW25120   1.358   3.429  10.965 -0.1787  0.3547  0.5221
 4554SOL    HW125121   1.266   3.428  10.991 -0.5642 -0.3488 -0.8538
 4554SOL    HW225122   1.365   3.523  10.977  1.2957  0.0273  2.3423
 4555SOL     OW25123   4.680   3.960   6.370 -0.5156  0.1900 -0.0686
 4555SOL    HW125124   4.713   4.033   6.422  0.3607 -0.9037  0.9339
 4555SOL    HW225125   4.588   3.963   6.394 -0.2285 -1.1709  1.2962
 4556SOL     OW25126   1.332   3.058   1.784  0.3632 -0.6321 -0.3724
 4556SOL    HW125127   1.358   2.987   1.842  3.2007  0.5722 -0.2027
 4556SOL    HW225128   1.368   3.038   1.698 -0.4952  0.9861 -1.1186
 4557SOL     OW25129   2.319   4.416   2.906  1.3756  0.3826 -0.4774
 4557SOL    HW125130   2.354   4.410   2.817 -0.7048 -2.5141 -1.0923
 4557SOL    HW225131   2.249   4.477   2.883  1.6827  0.1979 -1.8983
 4558SOL     OW25132   4.284   1.235   5.076  0.2780  0.6508 -0.0108
 4558SOL    HW125133   4.370   1.193   5.080  1.0360  2.3742  1.7162
 4558SOL    HW225134   4.273   1.272   5.164  1.3218  0.5281  0.1668
 4559SOL     OW25135   2.287   3.635   5.369  0.6978 -0.0976  0.5925
 4559SOL    HW125136   2.364   3.588   5.401 -0.1912 -2.2126 -0.3632
 4559SOL    HW225137   2.289   3.590   5.284 -2.1902 -0.9089  0.9596
 4560SOL     OW25138   2.864   2.497   0.812 -0.4853 -0.3534  0.1512
 4560SOL    HW125139   2.952   2.485   0.778  0.0520 -0.2420  1.5029
 4560SOL    HW225140   2.818   2.435   0.756  0.1475 -0.2414 -0.4967
 4561SOL     OW25141   3.908   0.851  11.083  0.4099 -0.6377  0.0336
 4561SOL    HW125142   3.902   0.757  11.062 -1.2085 -1.0100  2.1747
 4561SOL    HW225143   3.993   0.849  11.127  0.9151 -0.3200 -0.9462
 4562SOL     OW25144   1.038   3.317   3.015 -0.4783 -0.0024 -0.0873
 4562SOL    HW125145   1.073   3.301   2.928 -1.2278  0.6146 -0.4965
 4562SOL    HW225146   0.950   3.282   3.005 -0.1408 -0.9979  0.4068
 4563SOL     OW25147   0.676   0.109   5.447 -0.6098 -0.2217 -0.2608
 4563SOL    HW125148   0.715   0.029   5.483  1.0573  1.8337  2.5165
 4563SOL    HW225149   0.706   0.173   5.513  1.3462  0.3724 -1.7253
 4564SOL     OW25150   4.271   2.471  16.509  1.0042 -0.2601 -0.2057
 4564SOL    HW125151   4.348   2.420  16.485  1.3895  0.3545 -0.2586
 4564SOL    HW225152   4.316   2.551  16.536  0.5085  0.1405 -0.5617
 4565SOL     OW25153   3.620   0.155   2.679 -0.0191 -0.1083 -0.0663
 4565SOL    HW125154   3.705   0.121   2.706  0.6728  1.8053  0.1669
 4565SOL    HW225155   3.580   0.179   2.763 -0.0694 -1.3717  0.2618
 4566SOL     OW25156   3.911   3.755   0.851  0.3800 -0.0301  0.1698
 4566SOL    HW125157   4.002   3.767   0.878  0.8624 -2.6812 -0.2548
 4566SOL    HW225158   3.913   3.745   0.756 -2.8064 -1.0910  0.2288
 4567SOL     OW25159   2.955   1.431  14.322  0.8071  0.1402  0.5654
 4567SOL    HW125160   2.968   1.433  14.228 -0.3702  0.4654  0.4100
 4567SOL    HW225161   3.022   1.365  14.342  1.8306  0.5544 -1.6047
 4568SOL     OW25162   3.573   1.127   4.442 -0.2574 -0.5999  0.0813
 4568SOL    HW125163   3.511   1.195   4.468  0.1932 -0.1057 -0.1484
 4568SOL    HW225164   3.539   1.055   4.496  2.5493 -2.0014 -0.0529
 4569SOL     OW25165   4.370   0.532   6.265  0.0887 -0.3386  0.4719
 4569SOL    HW125166   4.370   0.472   6.339 -2.1216  0.7827  1.3915
 4569SOL    HW225167   4.405   0.601   6.321 -0.3489  1.8713 -1.9373
 4570SOL     OW25168   1.739   0.534  17.397 -0.0411  0.5139 -0.1515
 4570SOL    HW125169   1.654   0.561  17.430  0.8328 -0.2287  2.7400
 4570SOL    HW225170   1.756   0.578  17.314  2.8075 -1.8104 -0.8314
 4571SOL     OW25171   0.561   3.062   4.555 -0.1293  0.1917 -0.0681
 4571SOL    HW125172   0.566   3.150   4.516 -2.5046  0.5987  0.5071
 4571SOL    HW225173   0.631   3.059   4.620 -0.6603  0.2979  0.5142
 4572SOL     OW25174   0.940   4.289   8.994  0.2630  0.0849  0.0333
 4572SOL    HW125175   0.981   4.222   9.050 -3.6329 -2.6189 -0.2871
 4572SOL    HW225176   0.852   4.304   9.028  0.7364  0.5270  1.0574
 4573SOL     OW25177   2.946   4.635  12.948 -0.1574  0.6266  0.9020
 4573SOL    HW125178   2.999   4.609  12.872 -1.0249  1.4098  0.0400
 4573SOL    HW225179   2.870   4.578  12.939  0.1673  0.3738 -0.2773
 4574SOL     OW25180   1.316   2.389   1.060 -0.3805  0.0939 -0.0531
 4574SOL    HW125181   1.390   2.449   1.059  0.2124 -0.6518 -0.9942
 4574SOL    HW225182   1.256   2.463   1.049  1.1178  1.3679  0.4156
 4575SOL     OW25183   0.140   1.889  16.905 -0.0821  0.1739  0.2100
 4575SOL    HW125184   0.084   1.845  16.969 -0.7661 -0.7559 -1.0137
 4575SOL    HW225185   0.221   1.838  16.903  0.8900  1.7367 -0.8108
 4576SOL     OW25186   3.425   2.658  16.849  0.1701 -0.3543 -0.0534
 4576SOL    HW125187   3.478   2.710  16.910 -0.7046  0.4718  0.0063
 4576SOL    HW225188   3.338   2.681  16.881 -0.2124 -0.5036 -0.9750
 4577SOL     OW25189   2.773   4.357  14.689  0.0398  0.0170  0.5714
 4577SOL    HW125190   2.822   4.428  14.731  2.1035 -0.7457 -0.5222
 4577SOL    HW225191   2.779   4.388  14.599  1.5086  2.1095  1.3886
 4578SOL     OW25192   2.258   4.440   5.125  0.3929  0.3174 -0.2896
 4578SOL    HW125193   2.296   4.416   5.040  1.9725 -0.4122  0.6306
 4578SOL    HW225194   2.190   4.373   5.135  0.4766  0.1780 -0.6396
 4579SOL     OW25195   2.963   0.787   3.141 -0.3059  0.0924 -0.0031
 4579SOL    HW125196   3.055   0.777   3.117 -0.1792 -0.9531  0.9526
 4579SOL    HW225197   2.940   0.712   3.086 -0.2934  0.9471 -1.1678
 4580SOL     OW25198   0.269   3.378  16.280 -0.0940 -0.4706 -0.2958
 4580SOL    HW125199   0.192   3.371  16.337  0.7191 -0.1886  0.8516
 4580SOL    HW225200   0.338   3.364  16.344 -0.4669  3.2981  0.9372
 4581SOL     OW25201   3.453   2.488   0.501  0.1652 -0.4545  0.8814
 4581SOL    HW125202   3.452   2.570   0.450  2.1497 -0.0595  1.4881
 4581SOL    HW225203   3.435   2.422   0.434  1.3922  1.0633 -0.9813
 4582SOL     OW25204   0.154   0.078  17.492  0.5780 -0.0376 -0.1052
 4582SOL    HW125205   0.182   0.141  17.558 -1.7890 -0.6811  1.5045
 4582SOL    HW225206   0.136   0.126  17.411  0.3888 -1.9245 -1.1809
 4583SOL     OW25207   3.748   0.357   4.503 -0.1808  0.9944  0.2224
 4583SOL    HW125208   3.669   0.338   4.452  0.3413 -0.1839 -0.1370
 4583SOL    HW225209   3.766   0.438   4.455  0.2637  0.5387 -0.3745
 4584SOL     OW25210   2.059   2.804   1.394  0.2362 -0.1131  0.1698
 4584SOL    HW125211   2.141   2.764   1.422  1.3094  2.4375  0.7034
 4584SOL    HW225212   2.073   2.882   1.448  1.2384 -1.3515  1.7122
 4585SOL     OW25213   2.459   2.190  12.121 -0.3191  0.1899  0.2195
 4585SOL    HW125214   2.399   2.241  12.066 -2.7998 -2.5868  0.3186
 4585SOL    HW225215   2.408   2.189  12.203 -0.8391  0.8386 -0.1013
 4586SOL     OW25216   0.077   3.980  13.891  0.6712  0.4679 -0.2720
 4586SOL    HW125217   0.076   3.917  13.962  1.6864  0.7072 -0.0444
 4586SOL    HW225218   0.048   3.913  13.829  0.0479 -0.0231  0.5562
 4587SOL     OW25219   1.066   3.182  12.929  0.6952 -0.2846 -0.1195
 4587SOL    HW125220   1.122   3.116  12.968 -0.0169 -0.2338  0.9907
 4587SOL    HW225221   1.006   3.127  12.878 -1.3264  2.0901 -0.3540
 4588SOL     OW25222   1.048   3.523   8.244  0.3492 -0.1312  0.1269
 4588SOL    HW125223   1.118   3.504   8.181 -2.0453 -1.6561 -2.0387
 4588SOL    HW225224   1.089   3.574   8.314 -0.8046  1.4136 -0.3326
 4589SOL     OW25225   3.187   3.571   8.634  0.3191 -0.0121 -0.1798
 4589SOL    HW125226   3.136   3.634   8.686  0.5244  1.1505 -1.3778
 4589SOL    HW225227   3.223   3.515   8.702  1.5835 -0.6926 -1.4158
 4590SOL     OW25228   0.246   4.703   5.647  0.2575  0.5545 -0.0150
 4590SOL    HW125229   0.199   0.023   5.577  0.1418  1.1017  0.4001
 4590SOL    HW225230   0.220   4.616   5.618 -0.1027  0.8009 -0.4271
 4591SOL     OW25231   3.215   0.362   6.713 -0.7482  0.0191  0.6505
 4591SOL    HW125232   3.269   0.347   6.791 -0.4691  3.1215  1.0408
 4591SOL    HW225233   3.152   0.290   6.721 -1.5406  0.3442 -2.8657
 4592SOL     OW25234   4.681   1.137   9.308 -0.1383  0.3671  1.0578
 4592SOL    HW125235   0.025   1.157   9.244 -0.7146  0.7195  0.5551
 4592SOL    HW225236   4.666   1.221   9.352 -0.9441 -0.2422  1.9476
 4593SOL     OW25237   2.248   1.349  13.697  0.9479  0.3916 -0.0813
 4593SOL    HW125238   2.199   1.428  13.722 -0.9475 -0.3644 -1.4095
 4593SOL    HW225239   2.177   1.286  13.707 -0.0653  1.6072  0.4899
 4594SOL     OW25240   3.032   3.161   8.761  0.1028  0.1433  0.1100
 4594SOL    HW125241   2.993   3.176   8.847 -4.0160  0.6016 -1.8317
 4594SOL    HW225242   2.962   3.103   8.731 -1.7926  2.1441  0.7257
 4595SOL     OW25243   4.503   1.459   9.187  0.5159  0.0667 -0.4769
 4595SOL    HW125244   4.434   1.477   9.124  0.4712  2.4537  0.2502
 4595SOL    HW225245   4.560   1.416   9.123  1.4689 -1.5376  1.4521
 4596SOL     OW25246   1.350   1.087   1.473 -0.1803  0.7202  0.1861
 4596SOL    HW125247   1.373   1.096   1.380 -1.0726  0.4074 -0.0634
 4596SOL    HW225248   1.311   1.000   1.484 -0.6707  1.1389  1.7764
 4597SOL     OW25249   0.480   1.955   8.630 -0.0545 -0.2238 -0.2867
 4597SOL    HW125250   0.471   1.984   8.539 -2.4608 -1.9511 -0.6031
 4597SOL    HW225251   0.573   1.935   8.620 -0.1953 -0.4712 -1.0646
 4598SOL     OW25252   3.988   3.168   4.561 -0.1228  0.4664 -0.1203
 4598SOL    HW125253   3.930   3.240   4.538 -1.3784 -0.6389 -0.4435
 4598SOL    HW225254   3.974   3.109   4.487 -2.4461  1.9592 -0.8822
 4599SOL     OW25255   0.909   3.666   0.533 -0.4287  0.3640 -0.2190
 4599SOL    HW125256   0.894   3.597   0.599  0.8072 -2.3289 -2.7550
 4599SOL    HW225257   0.995   3.700   0.558 -0.3724 -0.0392  0.1498
 4600SOL     OW25258   1.969   1.180   8.390  0.0615 -0.2834  0.0594
 4600SOL    HW125259   2.046   1.122   8.394  0.9362  0.9326  0.9892
 4600SOL    HW225260   1.950   1.186   8.484 -2.2309  1.7529 -0.5486
 4601SOL     OW25261   2.091   3.829   3.127 -0.2689  0.0942  0.1200
 4601SOL    HW125262   2.130   3.840   3.214 -0.3272 -1.9472  0.3995
 4601SOL    HW225263   2.032   3.757   3.150 -1.1058  0.7080 -0.1056
 4602SOL     OW25264   4.282   4.621  13.856  0.4745 -0.4687  0.0529
 4602SOL    HW125265   4.342   4.613  13.930 -0.2881  1.0602  0.8353
 4602SOL    HW225266   4.290   4.529  13.830 -1.3519 -1.2348  2.2156
 4603SOL     OW25267   1.205   3.381   2.093 -0.1101  0.5758 -0.6460
 4603SOL    HW125268   1.236   3.374   2.184  1.5683  1.2817 -1.1617
 4603SOL    HW225269   1.174   3.294   2.071  0.9437  0.7669 -2.8826
 4604SOL     OW25270   0.465   4.620   0.030  0.1532  0.2025 -0.5552
 4604SOL    HW125271   0.549   4.622  17.682  0.4309 -2.4094 -0.1881
 4604SOL    HW225272   0.426   4.544  17.684  0.7815 -0.5976  0.2577
 4605SOL     OW25273   0.353   1.189   6.480 -0.3954 -0.2263  0.1069
 4605SOL    HW125274   0.442   1.176   6.450 -0.0840  0.1541  0.8492
 4605SOL    HW225275   0.337   1.110   6.532  1.0958  0.2409  1.2728
 4606SOL     OW25276   4.569   4.451   7.215  0.1518  0.0327 -0.0693
 4606SOL    HW125277   4.541   4.526   7.268  2.7605 -0.3638  1.8464
 4606SOL    HW225278   4.511   4.461   7.139 -0.6933  0.7533  0.6681
 4607SOL     OW25279   1.267   0.824  10.579 -0.2674  0.2480 -0.8310
 4607SOL    HW125280   1.321   0.853  10.652  1.1649  0.1901 -1.8670
 4607SOL    HW225281   1.266   0.903  10.525  2.2769 -0.1436 -1.4411
 4608SOL     OW25282   1.211   1.086  14.287 -0.1533 -0.3532 -0.6444
 4608SOL    HW125283   1.256   1.091  14.371 -1.5516  0.8778  0.0248
 4608SOL    HW225284   1.130   1.132  14.306  0.1706 -0.0405 -0.0384
 4609SOL     OW25285   1.525   4.128   5.342  0.1712  0.5091 -0.0979
 4609SOL    HW125286   1.606   4.121   5.291 -0.3454  2.0040 -1.1315
 4609SOL    HW225287   1.462   4.145   5.273  1.0651 -0.0043 -1.0361
 4610SOL     OW25288   0.373   1.104   4.967  0.2906 -0.0897  0.3008
 4610SOL    HW125289   0.453   1.086   4.918  1.3512 -0.9698  2.4113
 4610SOL    HW225290   0.396   1.196   4.980  3.1358 -0.4950 -1.8964
 4611SOL     OW25291   1.710   4.296   5.701  0.1076  0.0015  0.4418
 4611SOL    HW125292   1.688   4.203   5.698 -2.5558  0.7024 -2.5338
 4611SOL    HW225293   1.634   4.335   5.658  1.7592  1.9538 -0.7478
 4612SOL     OW25294   1.068   1.475   3.643  0.3095 -0.5260 -0.1708
 4612SOL    HW125295   1.110   1.451   3.726 -0.8214  0.5681  0.7051
 4612SOL    HW225296   1.039   1.390   3.609 -0.2747 -0.4166  0.0490
 4613SOL     OW25297   0.012   1.782   8.949  0.4105 -0.0315 -0.5772
 4613SOL    HW125298   0.017   1.877   8.960  1.6430 -0.1196 -0.4283
 4613SOL    HW225299   4.702   1.779   8.859 -1.0212 -0.7351 -0.0179
 4614SOL     OW25300   2.139   1.253   5.923  0.3831 -0.4462 -0.3470
 4614SOL    HW125301   2.105   1.261   5.833  1.2569  0.5845 -0.5870
 4614SOL    HW225302   2.223   1.208   5.917 -0.4906 -2.3156  1.9529
 4615SOL     OW25303   1.078   2.595   5.780 -0.2640 -0.1972  0.2243
 4615SOL    HW125304   1.014   2.597   5.709  0.6432  1.4811 -0.5378
 4615SOL    HW225305   1.154   2.556   5.738 -0.4247 -0.3352  0.0629
 4616SOL     OW25306   2.049   1.684  14.940 -0.2992 -0.2657  0.6986
 4616SOL    HW125307   1.968   1.703  14.892 -0.9417  0.0317  1.9018
 4616SOL    HW225308   2.120   1.740  14.909 -1.3831  1.3935  1.2093
 4617SOL     OW25309   1.869   0.021   5.712  0.3136  0.4596 -0.6442
 4617SOL    HW125310   1.881   4.650   5.712  1.3247  0.5820  0.0052
 4617SOL    HW225311   1.774   0.028   5.701  0.4682  0.8207 -1.6717
 4618SOL     OW25312   2.312   2.871  13.892 -0.4525 -0.0059  0.2047
 4618SOL    HW125313   2.331   2.877  13.985 -1.2066  1.8149  0.2305
 4618SOL    HW225314   2.398   2.903  13.865 -0.6764  0.0561 -0.4523
 4619SOL     OW25315   2.983   1.046   4.214 -0.6241 -0.2576 -0.2243
 4619SOL    HW125316   2.959   1.040   4.122 -0.9677 -0.2585 -0.1345
 4619SOL    HW225317   2.912   1.100   4.248 -2.7236 -3.7537  0.9091
 4620SOL     OW25318   1.213   2.162   9.675 -0.2936  0.4600  0.1000
 4620SOL    HW125319   1.156   2.114   9.736 -1.4698  1.6913 -0.0274
 4620SOL    HW225320   1.278   2.193   9.739  1.1127  1.8905 -2.0250
 4621SOL     OW25321   4.343   0.722   9.693 -0.5163 -0.6433  0.1032
 4621SOL    HW125322   4.430   0.734   9.655 -1.3211 -0.6522 -1.7578
 4621SOL    HW225323   4.336   0.806   9.737 -2.7341 -0.8308  0.1454
 4622SOL     OW25324   3.177   0.211  15.946  0.3561 -0.3725  0.4957
 4622SOL    HW125325   3.197   0.253  15.862  1.0259 -0.9273  0.3803
 4622SOL    HW225326   3.203   0.286  15.999 -0.8122 -0.2911  0.9403
 4623SOL     OW25327   3.726   2.789   4.091 -0.0735 -0.0858  0.6081
 4623SOL    HW125328   3.815   2.753   4.082  0.4373  0.8961  1.7295
 4623SOL    HW225329   3.733   2.803   4.186  1.6807 -1.0751  0.6253
 4624SOL     OW25330   0.558   1.155  14.021 -0.5960  0.2903  0.2878
 4624SOL    HW125331   0.503   1.094  14.072  0.8285 -1.1615  0.0971
 4624SOL    HW225332   0.558   1.110  13.937  2.0240  0.1823  0.3530
 4625SOL     OW25333   1.189   2.043   2.270 -0.1059  0.0488 -0.0719
 4625SOL    HW125334   1.125   1.993   2.219 -0.8228  0.7647  0.1169
 4625SOL    HW225335   1.207   1.982   2.341 -1.5441  0.6567  0.8232
 4626SOL     OW25336   4.007   2.496   5.074 -0.5986 -0.1163 -0.4140
 4626SOL    HW125337   4.017   2.547   5.155 -4.6979  1.1931 -0.7584
 4626SOL    HW225338   3.983   2.565   5.012  0.9410 -0.4030 -1.3266
 4627SOL     OW25339   3.674   2.623   5.118  0.9747  0.5820 -0.6285
 4627SOL    HW125340   3.754   2.648   5.072  1.9828 -1.1094  0.1900
 4627SOL    HW225341   3.709   2.605   5.205 -2.1126 -1.9122  0.1168
 4628SOL     OW25342   2.409   1.110   6.155 -0.1718 -0.2259 -0.2579
 4628SOL    HW125343   2.337   1.172   6.156  0.5219  0.5608  0.3757
 4628SOL    HW225344   2.427   1.098   6.061 -2.7104 -1.8471 -0.5254
 4629SOL     OW25345   1.413   3.811   1.489 -0.3335 -0.0481  0.7061
 4629SOL    HW125346   1.460   3.797   1.571 -2.6455  1.1428  2.2414
 4629SOL    HW225347   1.482   3.789   1.427 -0.9416 -0.9035  0.3252
 4630SOL     OW25348   2.553   4.046   2.042 -0.3018 -0.0194 -0.4361
 4630SOL    HW125349   2.488   3.985   2.006 -1.5091  0.2572  1.2696
 4630SOL    HW225350   2.629   4.018   1.991  1.3039  2.1194  0.7542
 4631SOL     OW25351   3.741   0.213   6.291  0.2300  0.5348 -0.7262
 4631SOL    HW125352   3.649   0.236   6.289 -0.0337 -0.4407  0.0894
 4631SOL    HW225353   3.772   0.303   6.283 -1.5296  1.2570  0.6685
 4632SOL     OW25354   4.113   1.799   5.095  0.7426  0.2976  0.0432
 4632SOL    HW125355   4.182   1.755   5.045 -0.4766 -1.1492 -0.3923
 4632SOL    HW225356   4.131   1.891   5.077 -0.5540  0.3168 -1.1446
 4633SOL     OW25357   0.400   3.067   8.770 -0.0386 -0.1585  0.2752
 4633SOL    HW125358   0.358   2.983   8.750  2.3724 -1.5548  0.9612
 4633SOL    HW225359   0.334   3.135   8.758  0.8769  0.9279  1.3675
 4634SOL     OW25360   1.615   3.057  17.434 -0.6272 -0.4948  0.0894
 4634SOL    HW125361   1.575   3.140  17.409 -0.8565  0.0831  2.4042
 4634SOL    HW225362   1.658   3.085  17.515  0.1965 -0.0117 -0.5026
 4635SOL     OW25363   4.393   1.393   9.623  0.4111  0.6538  0.6476
 4635SOL    HW125364   4.338   1.472   9.627  0.4738  0.8176 -2.2183
 4635SOL    HW225365   4.369   1.366   9.534  2.3873 -2.4299  1.0613
 4636SOL     OW25366   0.758   3.430   5.528  0.3907 -0.2236  0.0272
 4636SOL    HW125367   0.685   3.470   5.480 -3.2695 -1.8537  4.2029
 4636SOL    HW225368   0.715   3.368   5.587  0.3801  0.7150  1.0050
 4637SOL     OW25369   2.200   3.093   2.823  0.2544  0.5226  0.1579
 4637SOL    HW125370   2.270   3.146   2.784  2.0904 -1.3293  0.9797
 4637SOL    HW225371   2.168   3.162   2.881  1.5788  0.0704  1.4220
 4638SOL     OW25372   0.906   1.285   2.949  0.1005 -0.5652  0.1204
 4638SOL    HW125373   0.929   1.217   3.013  0.4572 -0.1293  0.4645
 4638SOL    HW225374   0.984   1.342   2.954  1.6604 -2.5605 -1.6797
 4639SOL     OW25375   2.644   1.169  14.770  0.5583  0.0908 -0.1648
 4639SOL    HW125376   2.572   1.116  14.804 -0.6723  1.0364 -1.3093
 4639SOL    HW225377   2.580   1.239  14.752 -1.0678 -1.3224  0.1784
 4640SOL     OW25378   1.680   4.273   8.732  0.3996 -0.8376 -0.9236
 4640SOL    HW125379   1.621   4.308   8.665  0.7098  1.0569 -0.1903
 4640SOL    HW225380   1.652   4.326   8.806  3.0098  0.1191 -0.6315
 4641SOL     OW25381   2.455   2.842   1.544  0.0280 -0.3612 -0.8000
 4641SOL    HW125382   2.408   2.836   1.461  1.6596  1.0372 -1.7996
 4641SOL    HW225383   2.457   2.749   1.568  1.0059 -0.0600  0.2806
 4642SOL     OW25384   1.301   2.645  16.963 -0.5533  0.2273  0.1323
 4642SOL    HW125385   1.209   2.672  16.963  0.4311  3.5329 -1.3762
 4642SOL    HW225386   1.340   2.700  16.895  0.9339 -0.0561  0.7597
 4643SOL     OW25387   1.017   3.894   9.004 -0.0930 -0.2759 -0.1493
 4643SOL    HW125388   0.964   3.914   8.926 -0.2717 -2.1805 -0.5349
 4643SOL    HW225389   1.074   3.832   8.959  1.0383 -0.6024  1.7649
 4644SOL     OW25390   4.001   3.427   7.129 -0.2692 -0.0851  0.1756
 4644SOL    HW125391   3.986   3.366   7.057  1.8942  2.8181 -2.7134
 4644SOL    HW225392   4.058   3.386   7.193 -0.7479 -2.2171 -0.7825
 4645SOL     OW25393   3.497   0.564   3.737  0.0536  0.2362  0.2234
 4645SOL    HW125394   3.493   0.551   3.832  0.2587  2.3199  0.5088
 4645SOL    HW225395   3.416   0.613   3.719  0.2075  0.4901  0.2255
 4646SOL     OW25396   4.457   3.554   1.459 -0.5285 -0.2003 -0.3093
 4646SOL    HW125397   4.531   3.505   1.423 -1.6648 -2.0842 -0.0920
 4646SOL    HW225398   4.399   3.482   1.483 -3.9378  2.1450 -1.6109
 4647SOL     OW25399   1.954   1.004   6.672 -0.0517 -0.3730  0.2560
 4647SOL    HW125400   1.960   1.096   6.647  0.9935 -0.1200  1.3952
 4647SOL    HW225401   2.010   0.999   6.750  0.1434 -2.3864 -0.0203
 4648SOL     OW25402   4.015   1.746   6.464  0.0743  0.2287 -0.1215
 4648SOL    HW125403   3.935   1.745   6.517 -0.3060  1.7004 -0.6516
 4648SOL    HW225404   4.006   1.676   6.399 -1.0967  0.2957 -0.0321
 4649SOL     OW25405   1.661   0.006   2.605  0.5902  0.6929 -0.0461
 4649SOL    HW125406   1.577   0.008   2.558  0.5537  0.5783  0.0140
 4649SOL    HW225407   1.642   0.066   2.676 -0.4983  0.5961 -0.2544
 4650SOL     OW25408   2.628   1.722   7.734  0.1918  0.3158  0.2825
 4650SOL    HW125409   2.644   1.652   7.798  2.4282 -0.9885 -1.7072
 4650SOL    HW225410   2.534   1.740   7.741 -0.1800 -1.0149 -1.1798
 4651SOL     OW25411   0.204   4.585   9.654 -0.3243  0.6968  0.2867
 4651SOL    HW125412   0.267   4.518   9.627  0.3325  1.8709 -1.1156
 4651SOL    HW225413   0.240   4.664   9.614 -1.2094  0.3654 -1.1840
 4652SOL     OW25414   1.788   1.146   3.224 -0.1233  0.5467 -0.0162
 4652SOL    HW125415   1.762   1.197   3.301 -0.6785 -0.5144  0.4983
 4652SOL    HW225416   1.709   1.093   3.216 -0.1046  0.4067  0.7147
 4653SOL     OW25417   2.666   3.196   5.282  0.2633  0.7513  0.0987
 4653SOL    HW125418   2.578   3.165   5.260  1.2505 -1.0451 -1.3777
 4653SOL    HW225419   2.724   3.140   5.230  0.5057  2.1378 -1.1238
 4654SOL     OW25420   3.502   2.404   9.622 -0.4071  0.2344 -1.0038
 4654SOL    HW125421   3.564   2.383   9.692 -0.5323 -1.4791 -1.4186
 4654SOL    HW225422   3.544   2.480   9.580  0.4187 -1.9125 -4.0690
 4655SOL     OW25423   2.847   0.318   5.861  0.0683 -0.2572  0.6793
 4655SOL    HW125424   2.762   0.304   5.821 -0.2254 -0.7724  1.4868
 4655SOL    HW225425   2.855   0.414   5.858  3.2936 -0.5552 -0.5231
 4656SOL     OW25426   2.551   3.700   4.067 -0.2217 -0.4849  0.4215
 4656SOL    HW125427   2.628   3.692   4.010 -1.3292  0.8847 -1.2828
 4656SOL    HW225428   2.559   3.620   4.120 -0.2010 -0.9462 -0.2658
 4657SOL     OW25429   3.816   4.090   2.433  0.2075  0.7967 -0.0087
 4657SOL    HW125430   3.851   4.172   2.397 -2.0820  1.5500 -0.5239
 4657SOL    HW225431   3.895   4.041   2.456 -0.8231 -0.8366  0.0280
 4658SOL     OW25432   0.757   0.231   3.221 -0.2048  0.1846  0.2933
 4658SOL    HW125433   0.824   0.171   3.253 -0.4483  0.5529  1.5007
 4658SOL    HW225434   0.822   0.281   3.170  2.0052  0.7125  3.6402
 4659SOL     OW25435   1.821   3.925   8.390 -0.0472  0.4562 -0.6388
 4659SOL    HW125436   1.839   3.884   8.475  1.6448 -0.0781 -1.2528
 4659SOL    HW225437   1.734   3.892   8.370 -0.3313  1.3319 -0.8506
 4660SOL     OW25438   4.085   0.169   3.337 -1.2680  0.3354  0.2525
 4660SOL    HW125439   4.009   0.118   3.311 -1.2461  0.3740  0.1084
 4660SOL    HW225440   4.141   0.140   3.265 -0.5368  1.7725  0.2291
 4661SOL     OW25441   3.959   0.061   2.999 -0.1360 -0.5808  0.0839
 4661SOL    HW125442   4.040   0.059   3.049  0.4433  1.1112 -0.7923
 4661SOL    HW225443   3.947   0.155   2.982 -0.8497 -0.5855  0.5584
 4662SOL     OW25444   2.078   3.857   8.244  0.5690  0.2489 -0.4015
 4662SOL    HW125445   1.989   3.891   8.252 -0.3223 -1.8150 -1.5774
 4662SOL    HW225446   2.074   3.765   8.219 -0.3910  1.0209 -2.9997
 4663SOL     OW25447   4.096   4.603   2.379  0.3437  0.2954 -0.0054
 4663SOL    HW125448   4.178   4.650   2.391  0.5159 -0.1351  0.4741
 4663SOL    HW225449   4.033   4.674   2.369 -0.1410 -0.2999 -1.2746
 4664SOL     OW25450   3.904   0.502   9.509  0.0417  0.3095 -0.2759
 4664SOL    HW125451   3.948   0.575   9.551  1.2958  0.0626 -1.1584
 4664SOL    HW225452   3.946   0.429   9.555  0.0464 -0.3544 -1.3309
 4665SOL     OW25453   0.745   3.748   8.034 -0.3331  0.3665  0.1376
 4665SOL    HW125454   0.817   3.752   8.097 -1.6272  0.6883  1.5986
 4665SOL    HW225455   0.797   3.708   7.964  1.3740  1.0125  1.0654
 4666SOL     OW25456   1.439   2.280   1.741 -0.0513 -0.1199 -0.8597
 4666SOL    HW125457   1.425   2.267   1.648 -1.1691 -1.3064 -0.5195
 4666SOL    HW225458   1.411   2.200   1.784  1.5569 -0.4868 -0.4966
 4667SOL     OW25459   1.911   2.782   7.576  0.2992  0.0091 -0.4357
 4667SOL    HW125460   1.923   2.717   7.645 -0.7031  0.2775 -0.0009
 4667SOL    HW225461   1.937   2.863   7.621 -3.2177  1.8980 -1.7572
 4668SOL     OW25462   1.120   1.474   5.439  0.2574 -0.1780  0.4439
 4668SOL    HW125463   1.182   1.435   5.377 -0.6382  1.9133 -1.7715
 4668SOL    HW225464   1.175   1.499   5.514  0.8082 -2.0679  0.6718
 4669SOL     OW25465   2.226   1.634   9.822 -0.3845  0.0300 -0.4424
 4669SOL    HW125466   2.155   1.621   9.886  0.0599  1.9809  0.4243
 4669SOL    HW225467   2.267   1.717   9.844 -2.4374  0.1981  2.7700
 4670SOL     OW25468   0.476   0.358   5.114  0.1459  0.5192  0.0298
 4670SOL    HW125469   0.525   0.310   5.047 -0.2862 -2.1898  1.6297
 4670SOL    HW225470   0.541   0.372   5.182  0.2844  2.7900 -0.5761
 4671SOL     OW25471   1.055   2.318   8.953 -0.2542 -0.3935 -0.0990
 4671SOL    HW125472   0.976   2.342   8.906 -0.2593 -2.3153 -1.0518
 4671SOL    HW225473   1.104   2.259   8.896  1.0747  0.6962 -0.1029
 4672SOL     OW25474   2.661   3.488   1.980  0.0445 -0.1535 -0.6570
 4672SOL    HW125475   2.701   3.523   2.060  0.0608  2.1027 -1.6437
 4672SOL    HW225476   2.669   3.561   1.919 -2.3163  0.1158 -0.6478
 4673SOL     OW25477   4.683   1.588   3.330  0.6026  0.1786  0.2686
 4673SOL    HW125478   4.622   1.630   3.270 -0.1044  0.3143  1.0882
 4673SOL    HW225479   4.663   1.497   3.350 -0.3422  0.7763  2.0053
 4674SOL     OW25480   0.774   3.038   4.704  0.0043 -0.2055 -0.1075
 4674SOL    HW125481   0.830   3.057   4.779 -1.2108 -0.4445  0.8639
 4674SOL    HW225482   0.845   3.033   4.639 -0.6532 -0.9003 -0.7800
 4675SOL     OW25483   1.104   3.144   4.409 -0.2549  0.0386  0.2041
 4675SOL    HW125484   1.090   3.200   4.486 -2.0489  2.7477 -2.1108
 4675SOL    HW225485   1.056   3.187   4.339 -1.0276  0.3439  0.9188
 4676SOL     OW25486   3.539   0.031  11.395 -0.7758 -0.3062 -0.1955
 4676SOL    HW125487   3.614   0.087  11.416 -0.3684  0.0807 -2.7045
 4676SOL    HW225488   3.518   0.048  11.303 -2.9569 -0.1412  0.3280
 4677SOL     OW25489   1.843   1.016  10.290  0.0906 -0.1955 -0.6377
 4677SOL    HW125490   1.890   1.098  10.270 -0.6454  0.3784 -0.0207
 4677SOL    HW225491   1.789   1.006  10.212 -1.2978 -1.2625  0.4668
 4678SOL     OW25492   2.963   3.573   5.280 -0.0097 -0.1747 -0.2944
 4678SOL    HW125493   2.900   3.639   5.251  0.3459 -0.1403 -0.9971
 4678SOL    HW225494   3.024   3.631   5.325 -1.9094  1.6616 -0.0741
 4679SOL     OW25495   2.396   1.131   5.873 -0.1335  0.2036 -0.2825
 4679SOL    HW125496   2.478   1.081   5.874 -0.2879 -0.0322  0.6463
 4679SOL    HW225497   2.378   1.120   5.779 -1.6270 -0.2801  0.0627
 4680SOL     OW25498   4.497   2.379   9.787  0.2798  0.3642  0.2763
 4680SOL    HW125499   4.535   2.292   9.773 -0.0056  0.5660 -1.7574
 4680SOL    HW225500   4.542   2.397   9.869  0.3832  0.6934  0.1454
 4681SOL     OW25501   2.351   1.233   2.677 -0.3025 -0.7246 -0.4147
 4681SOL    HW125502   2.444   1.236   2.697 -0.7215  0.8032  1.3554
 4681SOL    HW225503   2.346   1.206   2.585 -1.2555  0.7011 -0.7723
 4682SOL     OW25504   1.434   2.885   1.073 -0.6752  0.6498 -0.1445
 4682SOL    HW125505   1.529   2.897   1.073 -0.6128  0.1768 -0.5295
 4682SOL    HW225506   1.421   2.855   0.983 -0.9605 -1.4072  0.5749
 4683SOL     OW25507   4.010   4.133  10.223 -0.0046 -0.0591 -0.2125
 4683SOL    HW125508   3.914   4.132  10.214  0.0107  0.3899 -0.4303
 4683SOL    HW225509   4.018   4.161  10.314  0.0410  1.1929 -0.5954
 4684SOL     OW25510   4.463   2.988   6.806  0.0470  0.0501 -0.5137
 4684SOL    HW125511   4.547   3.034   6.801  1.3415 -1.8602  3.6709
 4684SOL    HW225512   4.408   3.049   6.854  2.2741  2.8881 -1.5602
 4685SOL     OW25513   4.650   0.311   0.981 -0.7287 -0.2145  0.0541
 4685SOL    HW125514   4.572   0.270   1.017 -0.8603 -0.1435 -0.1511
 4685SOL    HW225515   4.680   0.383   1.037  0.6793 -0.5305 -0.2920
 4686SOL     OW25516   2.595   2.851   5.060 -0.2821  0.0904  1.0776
 4686SOL    HW125517   2.628   2.802   5.135 -3.1648 -0.5118  1.9717
 4686SOL    HW225518   2.518   2.892   5.101 -0.8965  1.1031 -1.1258
 4687SOL     OW25519   0.990   3.266   4.200 -0.1417  0.3325 -0.1555
 4687SOL    HW125520   0.970   3.291   4.110  0.4936 -0.7834 -0.6047
 4687SOL    HW225521   0.936   3.322   4.256 -0.3810  0.6441 -0.7052
 4688SOL     OW25522   1.795   2.423   2.475 -0.1312  0.3479  0.4228
 4688SOL    HW125523   1.834   2.440   2.390  3.1030 -3.4198  1.1722
 4688SOL    HW225524   1.702   2.441   2.463  0.1467  1.2003 -0.3846
 4689SOL     OW25525   2.321   1.243  17.097  0.1498 -0.4008  0.3576
 4689SOL    HW125526   2.331   1.168  17.156 -1.1304 -1.4627 -0.7803
 4689SOL    HW225527   2.407   1.285  17.099  0.1231 -0.3268  0.0341
 4690SOL     OW25528   2.395   2.212  12.605  0.2535 -0.1373  0.0809
 4690SOL    HW125529   2.488   2.196  12.617  0.3060 -0.0200 -0.1867
 4690SOL    HW225530   2.362   2.131  12.566  1.9348 -0.1532 -1.2578
 4691SOL     OW25531   1.307   1.184  13.042  0.1589 -0.0321  0.1386
 4691SOL    HW125532   1.309   1.088  13.043 -0.5942 -0.0489  0.1481
 4691SOL    HW225533   1.391   1.205  13.083  0.0420  0.8387 -0.0674
 4692SOL     OW25534   3.739   4.057  15.094 -0.4747 -0.0456 -0.1321
 4692SOL    HW125535   3.649   4.037  15.117 -0.9400  0.2863 -1.6400
 4692SOL    HW225536   3.731   4.148  15.062 -2.0400 -0.5186 -1.1023
 4693SOL     OW25537   0.752   0.058   2.575 -0.6066  0.0109 -0.0831
 4693SOL    HW125538   0.774   0.146   2.606  0.5270 -0.5024  0.5747
 4693SOL    HW225539   0.692   0.034   2.646 -1.2525 -2.6628 -1.5257
 4694SOL     OW25540   4.631   2.167   7.075 -0.7778 -0.2570  0.5131
 4694SOL    HW125541   4.688   2.241   7.057  0.0743 -1.4184 -1.6053
 4694SOL    HW225542   4.657   2.096   7.016  0.0259  3.2170 -3.2675
 4695SOL     OW25543   1.633   1.724   2.211 -0.2927  0.1341 -0.6059
 4695SOL    HW125544   1.588   1.793   2.162  2.9425  3.0894  0.5902
 4695SOL    HW225545   1.558   1.672   2.241 -0.2237  0.2227 -0.2843
 4696SOL     OW25546   4.666   3.876   8.969  0.2085 -0.1694  0.3431
 4696SOL    HW125547   4.618   3.796   8.949 -0.1904 -0.1801  1.3229
 4696SOL    HW225548   4.679   3.915   8.883 -0.7214  1.6643  1.0211
 4697SOL     OW25549   1.619   1.305   4.589 -0.0575  0.1161  0.2597
 4697SOL    HW125550   1.584   1.233   4.642  2.5518 -0.4844  1.1771
 4697SOL    HW225551   1.603   1.276   4.499 -0.3239  0.4667  0.1948
 4698SOL     OW25552   1.161   3.769   0.643  0.4102 -0.0052 -0.1399
 4698SOL    HW125553   1.211   3.693   0.672  1.1235 -0.7624 -3.2856
 4698SOL    HW225554   1.225   3.800   0.578  0.8156 -0.4507  0.0475
 4699SOL     OW25555   0.255   3.279  11.176 -0.0083 -0.7625  0.2958
 4699SOL    HW125556   0.253   3.284  11.080 -2.8995  1.3752  0.4954
 4699SOL    HW225557   0.163   3.289  11.197  0.4939 -0.5631  2.3539
 4700SOL     OW25558   4.714   4.604  17.556 -0.0857 -0.1979 -0.1720
 4700SOL    HW125559   4.668   4.572  17.478 -1.2561  0.1764  0.3649
 4700SOL    HW225560   0.044   4.677  17.525  2.1088 -2.1954 -1.0363
 4701SOL     OW25561   0.964   1.747  15.706 -0.2531  0.0146 -0.2601
 4701SOL    HW125562   0.894   1.803  15.673 -2.2938 -1.5665  1.4167
 4701SOL    HW225563   0.939   1.657  15.682 -2.3454  0.5359 -0.0031
 4702SOL     OW25564   1.408   1.324   1.976 -0.2895 -0.1745  0.2344
 4702SOL    HW125565   1.423   1.281   1.892 -0.2715  0.4736 -0.0933
 4702SOL    HW225566   1.480   1.293   2.031 -0.1849  0.8244  0.6536
 4703SOL     OW25567   1.988   0.283   3.030  0.2248 -0.3081 -0.7459
 4703SOL    HW125568   2.073   0.240   3.017  0.0616 -1.4228  2.0249
 4703SOL    HW225569   1.991   0.299   3.124  1.3950  1.1571 -1.0190
 4704SOL     OW25570   1.263   0.961   8.395  0.2080 -0.5657 -0.1072
 4704SOL    HW125571   1.341   0.958   8.451  1.2092 -0.6519 -1.4836
 4704SOL    HW225572   1.269   0.869   8.366  0.3347 -0.3665 -0.7178
 4705SOL     OW25573   4.565   3.340   0.138 -0.0241 -0.1923  0.4112
 4705SOL    HW125574   4.563   3.256   0.185  0.6827  1.1523  2.8221
 4705SOL    HW225575   4.655   3.372   0.148 -0.2238  0.5772 -0.2919
 4706SOL     OW25576   4.651   2.275   3.804  0.1581  0.5969 -0.2485
 4706SOL    HW125577   4.628   2.364   3.776  1.1474  0.4597 -1.5573
 4706SOL    HW225578   4.718   2.293   3.870  2.2837 -3.3986 -1.2815
 4707SOL     OW25579   2.388   1.285   3.559 -0.3547 -0.0188  0.6062
 4707SOL    HW125580   2.446   1.296   3.635  0.1226  0.2519  0.2023
 4707SOL    HW225581   2.374   1.190   3.551  3.2470 -0.4761 -0.4976
 4708SOL     OW25582   0.937   0.551   7.403 -0.9449 -0.8433  0.1040
 4708SOL    HW125583   0.930   0.643   7.429  0.3265  0.0072 -2.4940
 4708SOL    HW225584   1.001   0.516   7.465  0.4496  1.2281 -0.1792
 4709SOL     OW25585   3.378   0.600   8.496  0.4828  1.0999 -0.2478
 4709SOL    HW125586   3.320   0.580   8.569 -0.2745  0.1541 -1.0977
 4709SOL    HW225587   3.411   0.684   8.529 -0.3236  0.9974  0.8125
 4710SOL     OW25588   2.190   2.011   5.941 -0.1818  0.0812 -0.3212
 4710SOL    HW125589   2.191   1.967   5.856  0.9454 -2.1693  0.8356
 4710SOL    HW225590   2.096   2.000   5.957 -0.3826  2.2024 -0.0193
 4711SOL     OW25591   2.751   0.252  16.753 -0.2852  0.5972 -0.5868
 4711SOL    HW125592   2.747   0.175  16.811 -2.2728  0.8330 -0.3969
 4711SOL    HW225593   2.715   0.319  16.810  0.2514  1.7194 -1.5637
 4712SOL     OW25594   0.475   1.308  15.685 -0.2273  0.0010 -0.0746
 4712SOL    HW125595   0.446   1.217  15.691  0.7912 -0.3179 -0.1166
 4712SOL    HW225596   0.556   1.296  15.735 -1.0881  0.2316  1.3918
 4713SOL     OW25597   0.563   2.921  16.866 -0.2086 -0.0581 -0.2212
 4713SOL    HW125598   0.484   2.883  16.905  0.3493 -0.6840  0.3005
 4713SOL    HW225599   0.623   2.849  16.888 -1.0100 -0.5871  0.2641
 4714SOL     OW25600   1.716   3.868   9.014 -0.0355 -0.0207  0.1019
 4714SOL    HW125601   1.685   3.802   9.076  0.5880 -1.1556 -0.8031
 4714SOL    HW225602   1.700   3.952   9.057 -2.4152 -0.1186 -0.6047
 4715SOL     OW25603   2.520   2.637  12.676  0.5218 -0.2839  0.0356
 4715SOL    HW125604   2.582   2.564  12.682 -1.8084 -2.1894  0.9067
 4715SOL    HW225605   2.464   2.613  12.603 -0.2609 -1.0293  0.8808
 4716SOL     OW25606   4.380   4.307  15.768 -0.1022  0.0193  0.6056
 4716SOL    HW125607   4.339   4.315  15.682 -1.3312  1.6004  1.3397
 4716SOL    HW225608   4.446   4.240  15.753  0.7830  0.9394  0.3638
 4717SOL     OW25609   0.465   1.257   1.464  0.2150 -0.2735 -0.7403
 4717SOL    HW125610   0.370   1.262   1.448  0.2618  1.0434 -0.5957
 4717SOL    HW225611   0.463   1.193   1.536 -1.2049 -2.1008 -2.3931
 4718SOL     OW25612   2.378   1.328   5.230 -0.3657 -0.4047  0.0975
 4718SOL    HW125613   2.447   1.390   5.206  0.1981 -1.3151 -0.6434
 4718SOL    HW225614   2.342   1.304   5.144 -2.1558  2.7858 -0.0266
 4719SOL     OW25615   0.831   1.282   0.301  0.1584  0.0231  0.2868
 4719SOL    HW125616   0.917   1.295   0.261  0.3737  0.3238  0.8408
 4719SOL    HW225617   0.841   1.200   0.349 -0.0002 -0.3637 -0.3394
 4720SOL     OW25618   3.462   0.425   5.848 -0.2315  0.1682  0.1190
 4720SOL    HW125619   3.489   0.337   5.824 -2.2103 -0.8119  1.5390
 4720SOL    HW225620   3.497   0.478   5.776 -0.5255 -0.3528 -0.4054
 4721SOL     OW25621   2.034   4.185  12.216 -0.1553 -0.3777 -0.2088
 4721SOL    HW125622   1.973   4.259  12.216 -0.1571 -0.3828  0.5032
 4721SOL    HW225623   2.054   4.197  12.123 -1.0347 -0.2326 -0.3852
 4722SOL     OW25624   2.267   3.416   1.022  0.1488 -0.3684  0.2573
 4722SOL    HW125625   2.186   3.463   1.009  0.0477 -0.8827 -1.0096
 4722SOL    HW225626   2.312   3.470   1.087 -0.2887  0.4561 -0.1414
 4723SOL     OW25627   3.888   2.180   9.644  0.0720  0.2411 -0.0907
 4723SOL    HW125628   3.887   2.273   9.625 -1.1099  0.0602 -0.9116
 4723SOL    HW225629   3.899   2.175   9.739  0.1744 -0.6578 -0.1419
 4724SOL     OW25630   2.544   4.344  10.350 -0.1873  0.4691  0.2647
 4724SOL    HW125631   2.551   4.307  10.439  0.8241  2.2251  0.9208
 4724SOL    HW225632   2.534   4.437  10.372  1.2138  0.8450 -0.6836
 4725SOL     OW25633   4.722   3.837  14.107  0.3702 -0.2147 -0.3067
 4725SOL    HW125634   4.684   3.749  14.103 -1.7020  0.5564  2.3628
 4725SOL    HW225635   0.023   3.839  14.200 -0.7656  0.9048 -0.0252
 4726SOL     OW25636   1.396   1.334   9.422 -0.1219 -0.3564 -0.2643
 4726SOL    HW125637   1.341   1.396   9.470  0.9264  0.0854  0.3683
 4726SOL    HW225638   1.402   1.266   9.488  0.4785  0.1957  0.2524
 4727SOL     OW25639   0.624   0.822   1.553  0.4475 -0.3345  0.6124
 4727SOL    HW125640   0.677   0.888   1.599  0.9962 -0.6589  0.4455
 4727SOL    HW225641   0.552   0.873   1.516  0.3960  0.0585  1.2515
 4728SOL     OW25642   2.220   3.102   5.039  0.5010  0.5553  0.5238
 4728SOL    HW125643   2.158   3.159   5.086 -0.6667  0.7512 -1.2316
 4728SOL    HW225644   2.207   3.131   4.948 -1.6649 -0.1533  0.5963
 4729SOL     OW25645   4.639   2.033   6.301  0.3148  0.2087 -0.0534
 4729SOL    HW125646   4.622   2.065   6.389 -0.2725  2.2898 -0.9220
 4729SOL    HW225647   4.705   2.097   6.274  0.7237  0.2082  0.9360
 4730SOL     OW25648   2.406   4.093   5.663 -0.0815 -0.3930 -0.3273
 4730SOL    HW125649   2.394   4.183   5.635  0.9630  0.2423  1.2825
 4730SOL    HW225650   2.490   4.101   5.708 -0.5323  1.1527  0.2217
 4731SOL     OW25651   0.187   1.684   8.424 -0.3364  0.2241  0.7152
 4731SOL    HW125652   0.126   1.610   8.419  0.1369 -0.0802 -0.7113
 4731SOL    HW225653   0.213   1.688   8.516  0.1195 -0.5086  0.6230
 4732SOL     OW25654   3.779   0.898   6.139 -0.0017  0.0404  0.5402
 4732SOL    HW125655   3.715   0.827   6.131  2.1454 -1.7562 -0.8195
 4732SOL    HW225656   3.852   0.843   6.168  0.9579  1.4865  0.8328
 4733SOL     OW25657   0.976   2.170   8.263 -0.3042 -0.2092  0.1500
 4733SOL    HW125658   1.015   2.169   8.351 -1.2097 -1.5693  0.5155
 4733SOL    HW225659   1.055   2.190   8.211 -0.4568  0.1522  0.0526
 4734SOL     OW25660   3.013   2.996   6.972  0.2860  0.0880  0.0663
 4734SOL    HW125661   3.074   3.070   6.967  0.6712 -0.2355 -0.0095
 4734SOL    HW225662   3.054   2.925   6.923  2.6553  1.5767 -0.1044
 4735SOL     OW25663   0.629   0.939  11.041  0.1711  0.8306 -0.1947
 4735SOL    HW125664   0.716   0.978  11.042 -0.3294  1.9206  0.5076
 4735SOL    HW225665   0.576   1.001  10.991 -1.2616  0.0085  0.2833
 4736SOL     OW25666   2.316   1.425  14.965 -0.2924  0.4691 -0.0728
 4736SOL    HW125667   2.238   1.440  15.018 -1.2651 -0.6028 -1.2032
 4736SOL    HW225668   2.292   1.455  14.877 -0.3503  0.1765 -0.1592
 4737SOL     OW25669   0.062   3.229   8.251 -0.3940 -0.1036 -0.2441
 4737SOL    HW125670   0.156   3.211   8.253 -0.3172  0.2804 -0.4123
 4737SOL    HW225671   0.059   3.302   8.188  3.0714  0.2920  0.0586
 4738SOL     OW25672   3.598   4.567   1.662 -0.6616  0.0869 -0.0062
 4738SOL    HW125673   3.508   4.594   1.679  0.4277  2.9347  1.2005
 4738SOL    HW225674   3.601   4.539   1.571 -0.6450  0.6522 -0.1758
 4739SOL     OW25675   2.004   2.739   1.117 -0.3745 -0.1686  0.8060
 4739SOL    HW125676   2.036   2.723   1.207 -2.3060 -2.1581  1.1251
 4739SOL    HW225677   2.013   2.834   1.120 -0.1174 -0.1530 -0.5321
 4740SOL     OW25678   1.790   1.568   1.952 -0.0144  0.1110  0.2693
 4740SOL    HW125679   1.861   1.510   1.980 -1.1952 -1.1888  0.5842
 4740SOL    HW225680   1.737   1.556   2.031 -1.1697 -2.4713 -0.8811
 4741SOL     OW25681   0.985   1.152   9.587  0.5009 -0.9276 -0.3641
 4741SOL    HW125682   0.929   1.192   9.654 -0.2598  0.1738 -1.6363
 4741SOL    HW225683   0.973   1.057   9.594 -0.8057 -0.9873 -3.1636
 4742SOL     OW25684   2.520   4.584  10.862  0.2934  0.0043 -0.3355
 4742SOL    HW125685   2.612   4.574  10.887 -0.3431 -1.9396  1.2645
 4742SOL    HW225686   2.516   4.642  10.786  0.3515 -1.9454 -1.8036
 4743SOL     OW25687   0.983   2.148   6.495 -0.0820 -0.1572  0.5368
 4743SOL    HW125688   0.968   2.241   6.512 -1.3442 -0.4312  0.9685
 4743SOL    HW225689   1.071   2.128   6.526  0.8716  0.1958 -1.9042
 4744SOL     OW25690   1.855   2.028   9.346  0.7500  0.1638  0.2281
 4744SOL    HW125691   1.918   1.960   9.371  0.7568 -0.4906 -1.5884
 4744SOL    HW225692   1.843   2.070   9.431 -0.1798  0.0115  0.1709
 4745SOL     OW25693   2.194   2.100   7.860  0.3480 -0.0631  0.1346
 4745SOL    HW125694   2.239   2.089   7.944  0.6216  1.9286  0.2520
 4745SOL    HW225695   2.176   2.010   7.833 -0.3558  0.0710  0.1617
 4746SOL     OW25696   1.839   1.225   2.968  0.8933 -0.8360 -0.7116
 4746SOL    HW125697   1.760   1.210   2.915  0.5297 -0.3824 -0.3046
 4746SOL    HW225698   1.822   1.186   3.054 -1.1225  0.1413 -0.6505
 4747SOL     OW25699   3.979   1.099   7.236  0.0668  0.1246  0.3623
 4747SOL    HW125700   3.948   1.184   7.267 -2.7733 -1.1673  1.0657
 4747SOL    HW225701   3.986   1.048   7.317 -0.7794  0.7637  0.8398
 4748SOL     OW25702   4.525   1.580   2.890 -0.4092  0.6042 -0.2657
 4748SOL    HW125703   4.455   1.569   2.955  0.1045  0.9471  0.3481
 4748SOL    HW225704   4.502   1.670   2.866 -0.9744  0.8031  1.0133
 4749SOL     OW25705   2.879   0.349  12.304  0.2933 -0.5581 -0.7179
 4749SOL    HW125706   2.832   0.407  12.364  1.7671 -0.0917 -0.0159
 4749SOL    HW225707   2.969   0.371  12.327  0.3000 -1.7038  0.3482
 4750SOL     OW25708   3.438   3.803   5.596 -0.2859 -0.0455  0.0703
 4750SOL    HW125709   3.395   3.719   5.608 -1.0214  0.1737 -1.0358
 4750SOL    HW225710   3.440   3.832   5.687 -0.8698 -1.8958  0.6709
 4751SOL     OW25711   1.063   3.316   4.662 -0.7976 -0.4884 -0.4414
 4751SOL    HW125712   1.156   3.331   4.681 -1.1604  1.4542 -0.2383
 4751SOL    HW225713   1.052   3.231   4.704  2.6062 -0.4068  0.6462
 4752SOL     OW25714   4.233   0.570  12.875 -0.0480 -0.2625 -0.1413
 4752SOL    HW125715   4.157   0.517  12.852 -1.0267  0.6005  1.0819
 4752SOL    HW225716   4.225   0.649  12.821  1.3879 -1.1819 -1.7067
 4753SOL     OW25717   2.883   0.466   9.492 -0.0999  1.1312  0.6154
 4753SOL    HW125718   2.794   0.432   9.493  0.5253 -0.5094  0.0810
 4753SOL    HW225719   2.856   0.556   9.473 -0.9100  0.9785  1.0367
 4754SOL     OW25720   2.105   3.725   1.798  0.3959  0.2151 -0.0683
 4754SOL    HW125721   2.048   3.703   1.724  0.9591 -0.7134 -0.2248
 4754SOL    HW225722   2.158   3.796   1.763 -1.7933  0.7792 -2.2365
 4755SOL     OW25723   1.846   0.764   6.591 -0.4439 -0.3632  0.3134
 4755SOL    HW125724   1.860   0.786   6.499 -0.5372 -0.7388  0.2068
 4755SOL    HW225725   1.875   0.846   6.630  0.9926 -1.4879  1.5986
 4756SOL     OW25726   1.693   1.229   6.514 -0.6162 -0.4538 -0.2036
 4756SOL    HW125727   1.674   1.174   6.438  0.8102 -1.2900  0.0386
 4756SOL    HW225728   1.642   1.303   6.483 -1.8798 -0.3840  2.0787
 4757SOL     OW25729   3.375   0.303  16.205  0.0874  0.1709  0.0761
 4757SOL    HW125730   3.421   0.353  16.138 -1.8767 -0.4900 -1.7711
 4757SOL    HW225731   3.358   0.373  16.268 -1.1099  0.1517 -0.2324
 4758SOL     OW25732   3.277   3.885  13.978  0.1883  0.5730 -0.0148
 4758SOL    HW125733   3.194   3.922  13.949 -0.5242 -1.1742 -0.1717
 4758SOL    HW225734   3.347   3.929  13.929  0.0511 -0.5200 -1.1758
 4759SOL     OW25735   0.574   0.219   7.173 -0.1545  0.3256 -0.1432
 4759SOL    HW125736   0.586   0.169   7.253 -1.0664  1.5195  0.7344
 4759SOL    HW225737   0.634   0.292   7.189 -2.1083  1.6894  0.9851
 4760SOL     OW25738   1.596   1.262   1.481  0.1076 -0.0520  0.9366
 4760SOL    HW125739   1.516   1.212   1.471 -0.4681  1.1831 -0.5162
 4760SOL    HW225740   1.645   1.201   1.538 -0.8923 -0.6158  1.1871
 4761SOL     OW25741   1.602   2.919  11.216  0.3289  0.2589  0.1230
 4761SOL    HW125742   1.537   2.974  11.261  1.2934  1.8655 -0.4297
 4761SOL    HW225743   1.676   2.976  11.195  2.5481 -1.7274  2.4668
 4762SOL     OW25744   4.507   1.252   4.464 -0.2520 -0.2378  0.2235
 4762SOL    HW125745   4.504   1.313   4.537 -0.1196 -0.3327  0.3082
 4762SOL    HW225746   4.538   1.306   4.392  0.0483 -0.1862  0.3932
 4763SOL     OW25747   3.538   0.732   5.954  0.1163  0.1380  0.3661
 4763SOL    HW125748   3.546   0.699   6.044 -2.9499  1.4397  1.1171
 4763SOL    HW225749   3.524   0.645   5.918 -0.3633  0.6901 -0.7480
 4764SOL     OW25750   4.090   1.661   4.725 -0.0591  0.6689 -0.7689
 4764SOL    HW125751   4.025   1.616   4.778  0.4380 -0.4499 -1.1010
 4764SOL    HW225752   4.156   1.592   4.723  0.5476  1.2511 -1.1598
 4765SOL     OW25753   0.903   2.511   7.869  0.9491 -0.5151  0.2454
 4765SOL    HW125754   0.850   2.586   7.844 -1.2479 -2.3327 -0.5699
 4765SOL    HW225755   0.836   2.443   7.882 -1.4696  1.5976 -1.0832
 4766SOL     OW25756   2.905   1.555   3.209  0.2616 -0.3021 -0.7203
 4766SOL    HW125757   2.939   1.557   3.119  4.7223 -0.3089  0.9842
 4766SOL    HW225758   2.822   1.508   3.198  1.0199 -1.8096 -0.1038
 4767SOL     OW25759   0.614   1.794   5.080  0.2343  0.0726  0.0709
 4767SOL    HW125760   0.623   1.821   4.989 -0.8942 -0.6312 -0.2548
 4767SOL    HW225761   0.685   1.839   5.125  0.6708  0.0442 -0.5818
 4768SOL     OW25762   1.759   3.517   0.993 -0.1142  0.0443  0.1419
 4768SOL    HW125763   1.781   3.444   0.936 -1.1211  1.2909 -1.8262
 4768SOL    HW225764   1.667   3.525   0.967  0.2313 -0.0342 -1.0560
 4769SOL     OW25765   2.164   4.174  11.964  0.3655  0.0329 -0.0923
 4769SOL    HW125766   2.237   4.180  12.026 -0.6748 -2.8756  1.4077
 4769SOL    HW225767   2.183   4.086  11.933 -5.2394 -0.2712 -2.5353
 4770SOL     OW25768   3.873   0.851  16.110 -0.3015  0.0860  0.0588
 4770SOL    HW125769   3.919   0.846  16.026  1.2907 -0.9713  0.9860
 4770SOL    HW225770   3.797   0.908  16.099 -0.6079 -0.6123 -1.4785
 4771SOL     OW25771   0.823   0.299  12.365  0.3968 -0.1198 -0.2338
 4771SOL    HW125772   0.842   0.383  12.408 -0.4228  0.1833 -0.4729
 4771SOL    HW225773   0.877   0.236  12.413  0.6279  2.2892  2.7138
 4772SOL     OW25774   0.007   3.466  17.039 -0.0346  0.2077  0.1226
 4772SOL    HW125775   0.092   3.430  17.015  0.4547  0.7841  1.0002
 4772SOL    HW225776   0.047   3.537  17.090  0.0537  1.3398 -1.5336
 4773SOL     OW25777   0.502   0.269   5.820  0.2781  0.8733 -0.0711
 4773SOL    HW125778   0.429   0.208   5.818  0.8735  0.0675  3.2802
 4773SOL    HW225779   0.457   0.353   5.811 -0.1314  0.7121  0.5017
 4774SOL     OW25780   0.260   0.523   5.205  0.5488 -0.2517 -0.7111
 4774SOL    HW125781   0.227   0.524   5.115 -2.1820 -1.1209  0.2834
 4774SOL    HW225782   0.332   0.460   5.204  0.8148  0.0320  0.5588
 4775SOL     OW25783   3.327   2.064   4.939 -0.0773 -0.0562  0.2956
 4775SOL    HW125784   3.247   2.110   4.912 -1.0909 -0.7253  2.1147
 4775SOL    HW225785   3.327   1.989   4.880 -0.9383 -0.1935  0.4608
 4776SOL     OW25786   0.250   4.471   5.832  0.7525 -0.3927 -0.8829
 4776SOL    HW125787   0.336   4.511   5.844  0.1982  0.5236  0.0489
 4776SOL    HW225788   0.198   4.551   5.822  1.4500 -0.1288 -2.3922
 4777SOL     OW25789   2.789   4.427   2.442  0.2290 -0.0128 -0.0339
 4777SOL    HW125790   2.722   4.358   2.442  0.7066 -0.4810 -0.8054
 4777SOL    HW225791   2.851   4.373   2.393  1.3178  0.1024  1.2067
 4778SOL     OW25792   2.247   2.729  16.042 -0.2027  0.3748 -0.8688
 4778SOL    HW125793   2.252   2.817  16.079  0.6835  0.0375 -0.1922
 4778SOL    HW225794   2.268   2.671  16.115  1.9275  0.6804 -1.2359
 4779SOL     OW25795   0.924   3.105   0.982 -0.1626  0.2038  0.3404
 4779SOL    HW125796   0.891   3.182   1.029 -1.2647 -0.4728  0.6728
 4779SOL    HW225797   0.880   3.107   0.897  0.5751  2.2966  0.0208
 4780SOL     OW25798   0.159   2.721  16.163  0.5370 -0.0704 -0.2657
 4780SOL    HW125799   0.160   2.651  16.228 -0.8734 -1.0473 -1.3042
 4780SOL    HW225800   0.149   2.669  16.084  1.2952 -0.6272  0.0095
 4781SOL     OW25801   4.288   1.635   2.528 -0.2885 -0.1439 -0.2832
 4781SOL    HW125802   4.335   1.569   2.579 -0.5963 -0.0287  0.1517
 4781SOL    HW225803   4.231   1.581   2.473 -0.3932  0.3687 -0.6815
 4782SOL     OW25804   1.252   3.321   3.667 -0.0580  0.4629  0.9327
 4782SOL    HW125805   1.193   3.282   3.731 -0.4696  0.7111  0.7082
 4782SOL    HW225806   1.338   3.309   3.706  0.7045  2.5361 -0.1059
 4783SOL     OW25807   1.015   1.699   7.717  0.6511 -0.2185 -0.2708
 4783SOL    HW125808   1.101   1.691   7.677 -0.3617 -0.8951 -2.3338
 4783SOL    HW225809   0.956   1.661   7.652  0.5860 -1.2993  0.4098
 4784SOL     OW25810   3.560   3.641   0.208  0.2411  1.0038  0.5661
 4784SOL    HW125811   3.568   3.715   0.267  1.4087  0.0161  1.6456
 4784SOL    HW225812   3.548   3.683   0.123 -0.3724 -0.8864 -0.2844
 4785SOL     OW25813   4.259   4.036   5.861 -0.0600 -0.4163  0.4914
 4785SOL    HW125814   4.206   3.976   5.809  0.8051 -3.0671  2.7033
 4785SOL    HW225815   4.323   3.973   5.894 -0.4838 -0.1988  1.7249
 4786SOL     OW25816   0.159   0.657   3.773  0.2697  0.6009  0.2917
 4786SOL    HW125817   0.084   0.702   3.811  1.2687  2.4482  0.0932
 4786SOL    HW225818   0.182   0.718   3.703 -1.6570 -0.7029 -1.4834
 4787SOL     OW25819   1.400   1.366   7.643  0.8422 -0.2536  0.4331
 4787SOL    HW125820   1.416   1.461   7.640  0.5759 -0.3493 -3.5278
 4787SOL    HW225821   1.455   1.356   7.721  2.3894 -1.2219 -0.7961
 4788SOL     OW25822   0.371   1.864   8.997 -0.3490 -0.0497 -0.2724
 4788SOL    HW125823   0.363   1.843   8.904 -1.2553 -1.1983  0.0655
 4788SOL    HW225824   0.464   1.847   9.011 -0.4702 -1.6144 -1.3786
 4789SOL     OW25825   0.970   3.634   3.927  0.4861  0.0318 -0.3116
 4789SOL    HW125826   0.896   3.684   3.894 -0.0992 -1.4315 -1.2337
 4789SOL    HW225827   0.989   3.694   3.999  1.1712  0.7586 -1.0998
 4790SOL     OW25828   1.419   2.398   2.167  0.7853  1.3386  0.1927
 4790SOL    HW125829   1.479   2.329   2.138  1.0234  1.7588 -0.2984
 4790SOL    HW225830   1.397   2.369   2.256  0.9214  0.1756 -0.1411
 4791SOL     OW25831   0.089   1.060   3.783 -0.1356 -0.1176  0.5302
 4791SOL    HW125832   0.158   1.017   3.734  0.5931  0.3463  1.1481
 4791SOL    HW225833   0.021   1.063   3.716 -0.8633 -0.1027  1.2713
 4792SOL     OW25834   2.017   3.072   8.734  0.1396 -0.7995  0.3301
 4792SOL    HW125835   2.064   3.075   8.651 -1.1026 -0.1576 -0.3472
 4792SOL    HW225836   2.014   3.162   8.767 -3.6400 -0.9691  0.3636
 4793SOL     OW25837   0.985   2.179  14.592  0.1196 -0.0200  0.2326
 4793SOL    HW125838   0.929   2.254  14.612  1.3616  0.7485  0.8449
 4793SOL    HW225839   0.935   2.140  14.520  0.6283 -0.3861  0.0795
 4794SOL     OW25840   1.793   4.312  17.257  0.3229  0.1358 -0.5415
 4794SOL    HW125841   1.791   4.393  17.309 -0.4912  0.5690 -1.2543
 4794SOL    HW225842   1.862   4.332  17.195  0.8813 -1.5329 -0.4423
 4795SOL     OW25843   1.914   2.987   0.402  0.6215  0.3570  0.2557
 4795SOL    HW125844   1.841   3.036   0.439 -1.3097 -2.7299  0.5567
 4795SOL    HW225845   1.953   2.945   0.479 -2.0812  3.8717  3.5011
 4796SOL     OW25846   3.044   1.710   7.243  0.1756 -0.1726  0.3921
 4796SOL    HW125847   2.957   1.737   7.273  0.4350  0.6444  0.4025
 4796SOL    HW225848   3.089   1.715   7.328 -0.1258 -0.5711  0.5787
 4797SOL     OW25849   2.598   1.022  14.318 -0.1785  0.8087 -0.5623
 4797SOL    HW125850   2.604   1.036  14.224 -0.4831  0.4897 -0.6307
 4797SOL    HW225851   2.536   1.091  14.344 -0.7747 -0.8469  2.4575
 4798SOL     OW25852   1.846   3.946   6.210  0.1399 -0.1696 -0.3849
 4798SOL    HW125853   1.834   3.915   6.121 -2.8229  1.4208 -0.5313
 4798SOL    HW225854   1.777   3.907   6.263  0.4256  0.3566  0.3882
 4799SOL     OW25855   2.500   4.356  15.752  0.0174 -0.4766 -0.3479
 4799SOL    HW125856   2.430   4.407  15.794  0.7930  0.1070  0.2490
 4799SOL    HW225857   2.579   4.386  15.797  0.4498 -0.4405 -1.1323
 4800SOL     OW25858   1.046   3.255   7.218  0.2941 -0.6744 -0.5070
 4800SOL    HW125859   1.044   3.187   7.285 -1.0727 -0.9395 -0.8118
 4800SOL    HW225860   1.122   3.232   7.163  0.1548 -1.0864 -0.5274
 4801SOL     OW25861   0.545   4.219   0.806 -0.0147 -0.3428 -0.1668
 4801SOL    HW125862   0.524   4.253   0.893  1.6312 -0.6805  0.3540
 4801SOL    HW225863   0.469   4.237   0.750 -1.0050  1.2259  1.6911
 4802SOL     OW25864   3.727   1.356   3.981 -0.0818 -0.1004 -0.1810
 4802SOL    HW125865   3.672   1.414   4.032  0.4187 -0.2571  0.5394
 4802SOL    HW225866   3.800   1.418   3.974 -1.2656  1.1765 -1.0368
 4803SOL     OW25867   3.621   3.076   8.457  0.4695  0.2771 -0.0023
 4803SOL    HW125868   3.634   2.989   8.493  0.6999  1.0041  1.6534
 4803SOL    HW225869   3.579   3.045   8.377  1.9421 -0.8389 -0.3379
 4804SOL     OW25870   3.114   2.432   4.591  0.1590  0.3180 -0.3277
 4804SOL    HW125871   3.169   2.399   4.520 -0.6709 -0.1653 -0.7461
 4804SOL    HW225872   3.102   2.526   4.575 -0.3371  0.2239 -0.5283
 4805SOL     OW25873   1.005   2.568   2.796 -0.4537  0.3611  0.3930
 4805SOL    HW125874   1.067   2.640   2.784  0.6529 -0.2977  2.1566
 4805SOL    HW225875   1.070   2.503   2.823 -0.3938  0.1591 -0.2254
 4806SOL     OW25876   1.289   4.644   9.552 -0.0826  0.4309 -0.2118
 4806SOL    HW125877   1.231   4.606   9.485  0.3689  0.5997 -0.7010
 4806SOL    HW225878   1.373   4.612   9.518  0.2207  2.6306 -1.5285
 4807SOL     OW25879   0.378   3.421   1.698  0.6220 -0.2974 -0.6083
 4807SOL    HW125880   0.370   3.325   1.702  1.4270 -0.3946 -1.3755
 4807SOL    HW225881   0.289   3.443   1.670  2.1085  1.1441 -4.0487
 4808SOL     OW25882   0.919   4.435   0.793 -0.2904  0.4846 -0.2741
 4808SOL    HW125883   0.836   4.484   0.801 -0.1383  1.0347 -2.0047
 4808SOL    HW225884   0.873   4.356   0.765  1.4208 -1.2424  1.7893
 4809SOL     OW25885   1.585   2.419  16.159  0.1245 -0.0557  0.2322
 4809SOL    HW125886   1.531   2.495  16.182  2.6036  3.0165 -4.1802
 4809SOL    HW225887   1.667   2.429  16.208 -0.3438 -2.5523  1.5116
 4810SOL     OW25888   1.029   3.103  17.651  0.3270  0.1036 -0.0926
 4810SOL    HW125889   1.077   3.051  17.587  0.8249 -0.9580  1.1441
 4810SOL    HW225890   1.025   3.187  17.604  3.0091 -0.3022 -1.0333
 4811SOL     OW25891   4.543   4.062   3.899  0.2284  0.6315  0.1318
 4811SOL    HW125892   4.461   4.012   3.896 -0.1119  1.2385 -0.5176
 4811SOL    HW225893   4.556   4.082   3.992 -2.1522  0.6124  0.4793
 4812SOL     OW25894   0.436   1.188   9.359 -0.4642 -0.0059 -0.4275
 4812SOL    HW125895   0.431   1.228   9.446  2.0872  0.5811 -0.5739
 4812SOL    HW225896   0.476   1.263   9.314 -0.1624 -0.7690 -1.4206
 4813SOL     OW25897   4.439   1.863   7.748  0.3668  0.8177 -0.2767
 4813SOL    HW125898   4.422   1.957   7.755 -0.1375  0.7738 -0.9389
 4813SOL    HW225899   4.533   1.858   7.728  1.0432 -0.1871  3.0900
 4814SOL     OW25900   2.545   0.944   0.737  0.2846 -0.3020  0.1689
 4814SOL    HW125901   2.522   0.952   0.830 -0.5961  0.2170 -0.0895
 4814SOL    HW225902   2.640   0.939   0.749 -0.4095 -1.5480  5.1968
 4815SOL     OW25903   0.111   0.955   5.725 -0.4173 -0.1018 -0.2389
 4815SOL    HW125904   0.103   0.875   5.674  1.8050 -0.4025 -0.1063
 4815SOL    HW225905   0.023   0.958   5.764  0.7198  2.3116  2.1676
 4816SOL     OW25906   1.517   3.681   2.760  0.2186  0.1920 -0.5084
 4816SOL    HW125907   1.465   3.606   2.790 -0.4176 -0.2843 -2.8202
 4816SOL    HW225908   1.578   3.687   2.834 -0.2242 -0.1711 -0.1124
 4817SOL     OW25909   3.999   1.927   7.051  0.4708 -0.0828  0.4724
 4817SOL    HW125910   3.964   1.870   7.120  1.1447 -1.2234 -0.1316
 4817SOL    HW225911   4.088   1.890   7.053  0.2331 -0.7191 -1.0123
 4818SOL     OW25912   4.333   3.722   4.923 -0.1174 -0.1957 -0.5813
 4818SOL    HW125913   4.370   3.692   4.840 -0.2541 -2.3425  0.1220
 4818SOL    HW225914   4.316   3.637   4.962 -0.9707  0.5745  0.7255
 4819SOL     OW25915   2.651   1.130   5.489  0.4440 -0.0892  0.1077
 4819SOL    HW125916   2.725   1.181   5.456 -0.2827  0.5510 -0.5011
 4819SOL    HW225917   2.695   1.089   5.564  0.6191  1.1530  0.6796
 4820SOL     OW25918   3.470   3.404   5.872  0.3347  0.2085  0.3310
 4820SOL    HW125919   3.447   3.361   5.955  0.0704 -0.4552 -0.0872
 4820SOL    HW225920   3.561   3.426   5.896  0.0248  0.4912  1.2486
 4821SOL     OW25921   0.652   3.019   7.769 -0.1017 -0.5495  0.2630
 4821SOL    HW125922   0.649   3.097   7.824  0.4744 -1.3596  1.4464
 4821SOL    HW225923   0.668   2.955   7.839  0.4741  1.1280  1.6496
 4822SOL     OW25924   4.175   0.959  17.425 -0.6321  0.2212  0.4234
 4822SOL    HW125925   4.220   0.929  17.346  1.4166  2.4093  0.7482
 4822SOL    HW225926   4.243   1.001  17.477  0.5366  0.6062 -1.4001
 4823SOL     OW25927   4.191   4.628   7.256  0.4134 -0.5485 -0.1454
 4823SOL    HW125928   4.214   4.633   7.349 -0.6308  2.0243 -0.0290
 4823SOL    HW225929   4.101   4.600   7.268  0.0547 -0.5944 -2.9132
 4824SOL     OW25930   1.514   4.504  17.165  0.0211  0.3870 -0.6541
 4824SOL    HW125931   1.505   4.437  17.097 -0.8576 -0.4940  0.3295
 4824SOL    HW225932   1.579   4.460  17.219 -0.5466 -0.0188 -0.3097
 4825SOL     OW25933   2.456   3.868   2.504 -0.0109  0.9438 -0.1251
 4825SOL    HW125934   2.533   3.824   2.542  0.5688  1.6427 -0.5033
 4825SOL    HW225935   2.474   3.953   2.543  0.8698  0.8670 -0.3563
 4826SOL     OW25936   4.140   3.197   7.640 -0.3716 -0.5083 -0.3778
 4826SOL    HW125937   4.185   3.221   7.720 -1.3571 -0.2737  0.1014
 4826SOL    HW225938   4.082   3.127   7.671  0.6412 -2.1273 -2.1107
 4827SOL     OW25939   4.437   2.727  15.016 -0.2825 -0.0667 -0.1497
 4827SOL    HW125940   4.481   2.749  14.934  0.4842 -0.0790  0.2658
 4827SOL    HW225941   4.509   2.736  15.079 -0.4186  2.0328 -0.2868
 4828SOL     OW25942   2.196   0.453  14.044  0.4269 -0.8436  0.0036
 4828SOL    HW125943   2.111   0.489  14.017  0.8657  1.0497  1.1354
 4828SOL    HW225944   2.237   0.529  14.086 -0.5574 -1.0154  1.2612
 4829SOL     OW25945   1.589   0.528  12.015 -0.4694 -0.2157  0.0442
 4829SOL    HW125946   1.653   0.514  12.084  0.3619  0.3513 -0.6137
 4829SOL    HW225947   1.563   0.436  12.008 -1.8231  0.4208 -3.1253
 4830SOL     OW25948   1.940   4.721   5.039 -0.0792 -0.1140 -0.3323
 4830SOL    HW125949   1.866   4.675   4.999  0.9458 -1.0779 -1.1316
 4830SOL    HW225950   1.888   0.078   5.044 -0.1884 -0.1478 -0.8399
 4831SOL     OW25951   1.750   2.471   3.035  0.3347  0.2746 -0.1266
 4831SOL    HW125952   1.731   2.507   3.121  0.5277  2.8037 -1.1519
 4831SOL    HW225953   1.846   2.464   3.037  0.3339  0.9119  1.6486
 4832SOL     OW25954   0.722   0.087  10.816  0.0084  0.1734 -0.1269
 4832SOL    HW125955   0.759   0.002  10.839  0.6275 -0.0335 -1.9290
 4832SOL    HW225956   0.787   0.149  10.850  1.6460 -1.4060 -0.4138
 4833SOL     OW25957   0.933   1.336  12.339 -0.3173 -0.2466 -0.1425
 4833SOL    HW125958   0.868   1.389  12.293 -0.5725 -1.4149 -1.1250
 4833SOL    HW225959   1.012   1.375  12.302 -1.7871  3.1430  0.2901
 4834SOL     OW25960   1.199   4.595  10.231  0.7465  0.2092 -0.4312
 4834SOL    HW125961   1.171   4.670  10.178 -2.8064 -0.3072  0.7669
 4834SOL    HW225962   1.146   4.533  10.181  1.6899  0.0826 -1.2788
 4835SOL     OW25963   2.390   4.431   7.710 -0.4122  0.1930  0.3216
 4835SOL    HW125964   2.362   4.359   7.767  0.3130 -1.0513 -0.8728
 4835SOL    HW225965   2.406   4.494   7.779 -0.3295 -0.9363  1.3392
 4836SOL     OW25966   1.445   1.686   4.825 -0.0946 -0.3548 -0.1125
 4836SOL    HW125967   1.375   1.711   4.764  0.1672 -1.7111 -0.9893
 4836SOL    HW225968   1.454   1.764   4.879 -0.1539 -2.4036  2.8556
 4837SOL     OW25969   0.990   2.815  15.650 -0.7929 -0.2306  0.3335
 4837SOL    HW125970   0.997   2.722  15.672 -1.5874 -0.8459 -1.9930
 4837SOL    HW225971   0.916   2.847  15.702 -0.8557 -0.7137  0.5357
 4838SOL     OW25972   2.208   1.583   8.377 -0.6131 -0.2336  0.5747
 4838SOL    HW125973   2.114   1.588   8.358 -0.3384  0.7853 -0.5237
 4838SOL    HW225974   2.238   1.526   8.306 -0.5754  0.4159  0.0675
 4839SOL     OW25975   2.677   1.966   8.363 -0.7377 -0.0208 -0.7091
 4839SOL    HW125976   2.773   1.961   8.366 -0.6733  0.6403 -1.4042
 4839SOL    HW225977   2.655   2.052   8.326 -2.1831  0.5586  1.5259
 4840SOL     OW25978   0.168   0.729   6.473  0.4047 -0.2292  0.3424
 4840SOL    HW125979   0.190   0.804   6.529  0.9153  0.1293 -0.3295
 4840SOL    HW225980   0.125   0.668   6.534 -0.1137  0.6696  0.8833
 4841SOL     OW25981   4.252   3.533  16.568  0.2235  0.3992  0.2780
 4841SOL    HW125982   4.326   3.523  16.629  1.5895  0.8217 -1.2994
 4841SOL    HW225983   4.260   3.622  16.533  1.2679  0.6119  1.0585
 4842SOL     OW25984   3.401   0.056   3.206  0.1976 -0.1423 -0.2976
 4842SOL    HW125985   3.378   0.075   3.115  1.1227  1.1019 -0.2693
 4842SOL    HW225986   3.386   0.142   3.245 -0.5010 -0.2213 -0.4015
 4843SOL     OW25987   1.885   3.287   5.753  0.1514  0.4668  0.1301
 4843SOL    HW125988   1.960   3.291   5.812  0.1159  4.2175 -0.1000
 4843SOL    HW225989   1.823   3.342   5.800 -0.9445  1.1430 -2.0856
 4844SOL     OW25990   1.583   3.781   3.629 -0.1927 -0.1857  0.1951
 4844SOL    HW125991   1.593   3.694   3.590 -0.8802 -0.2046  0.0697
 4844SOL    HW225992   1.598   3.765   3.722  0.7163 -2.0745 -0.2860
 4845SOL     OW25993   4.483   2.279  12.740 -0.1225 -0.1115  0.1695
 4845SOL    HW125994   4.397   2.289  12.782  0.2965  0.9452  0.7598
 4845SOL    HW225995   4.451   2.233  12.662  0.7276 -3.1546  1.6341
 4846SOL     OW25996   4.054   1.058   5.007 -0.0481  0.1230 -0.0755
 4846SOL    HW125997   4.020   1.067   4.918 -0.9932  0.0482  0.2799
 4846SOL    HW225998   4.090   1.145   5.026  0.9067 -0.4543  0.7550
 4847SOL     OW25999   2.359   1.385  14.001  0.0737  0.1820 -0.3396
 4847SOL    HW126000   2.281   1.337  14.028 -0.4138  0.9618 -0.3565
 4847SOL    HW226001   2.388   1.431  14.080 -2.4541  0.9313  0.1519
 4848SOL     OW26002   4.288   2.928   7.168  0.2340  0.1955  0.2409
 4848SOL    HW126003   4.198   2.897   7.162  0.0091  1.0552 -0.8509
 4848SOL    HW226004   4.325   2.861   7.111  0.7155 -0.0214  0.8108
 4849SOL     OW26005   1.234   4.519   8.609 -0.1060 -0.6308 -0.2190
 4849SOL    HW126006   1.185   4.455   8.558  1.1835 -0.9498 -1.0620
 4849SOL    HW226007   1.210   4.487   8.696  0.1755 -1.0900 -0.3060
 4850SOL     OW26008   3.486   1.254   2.752  0.3289 -0.4517  0.4016
 4850SOL    HW126009   3.453   1.200   2.681  0.1237  1.2618 -0.8008
 4850SOL    HW226010   3.556   1.195   2.781  1.8581  0.6910 -0.9195
 4851SOL     OW26011   1.772   1.429   7.990  0.3034 -0.2181  0.1739
 4851SOL    HW126012   1.700   1.435   8.053 -0.4866 -0.7168 -0.6963
 4851SOL    HW226013   1.850   1.442   8.044 -0.2451  2.5722  0.2888
 4852SOL     OW26014   2.575   2.800   5.546  0.2986 -0.8188  0.5641
 4852SOL    HW126015   2.520   2.737   5.499 -1.9077  1.5905 -0.0733
 4852SOL    HW226016   2.533   2.883   5.521 -0.2371 -1.0357  0.7445
 4853SOL     OW26017   1.593   2.822   8.428 -0.1393 -0.4559 -1.0858
 4853SOL    HW126018   1.575   2.902   8.378  1.4266  1.6526  1.6381
 4853SOL    HW226019   1.687   2.833   8.439 -0.5501  0.7095  1.4213
 4854SOL     OW26020   0.473   0.371   2.015 -0.2988 -0.2532  0.1789
 4854SOL    HW126021   0.550   0.338   1.969  0.9401  1.5983  0.9222
 4854SOL    HW226022   0.508   0.436   2.077 -2.7440 -0.0249  1.3256
 4855SOL     OW26023   3.655   0.782   6.584  0.5734  0.5554 -0.7061
 4855SOL    HW126024   3.606   0.757   6.663  0.3455 -1.6036 -1.5460
 4855SOL    HW226025   3.739   0.736   6.588  0.5973  0.7678  1.5195
 4856SOL     OW26026   1.038   4.248   2.432  0.1265 -0.2391  0.4605
 4856SOL    HW126027   1.070   4.313   2.369 -0.1880  1.0443  1.6365
 4856SOL    HW226028   0.944   4.266   2.435  0.2953  0.8965 -1.2633
 4857SOL     OW26029   1.476   3.101   7.627 -0.3898 -0.3630  0.1880
 4857SOL    HW126030   1.537   3.150   7.682  0.6143 -0.6892 -0.6373
 4857SOL    HW226031   1.492   3.023   7.681  3.2420 -0.3725 -0.8781
 4858SOL     OW26032   4.399   3.777   6.508 -0.7336  0.1020  0.1548
 4858SOL    HW126033   4.427   3.863   6.539 -3.0921  0.2715  1.8196
 4858SOL    HW226034   4.342   3.745   6.578  0.9757  0.4355  1.6776
 4859SOL     OW26035   1.827   0.767   9.544  0.0995  0.1087 -0.4563
 4859SOL    HW126036   1.824   0.827   9.470  0.3455 -0.3639 -0.8459
 4859SOL    HW226037   1.921   0.766   9.558 -0.1002 -4.0659  0.5751
 4860SOL     OW26038   0.245   4.574   3.863  0.4514  0.3664 -0.8859
 4860SOL    HW126039   0.155   4.565   3.832 -0.1193  1.1941  0.5633
 4860SOL    HW226040   0.249   4.505   3.929  0.9976  0.3684 -0.9158
 4861SOL     OW26041   2.472   1.219   6.740 -0.5659 -0.5079  0.1603
 4861SOL    HW126042   2.432   1.241   6.824  0.7784 -0.4713  0.7977
 4861SOL    HW226043   2.433   1.134   6.724  1.1042 -1.6091  1.8802
 4862SOL     OW26044   4.630   3.169   3.477 -0.4300  0.4455 -0.4714
 4862SOL    HW126045   4.601   3.096   3.421 -1.9724  0.6716  0.0377
 4862SOL    HW226046   4.615   3.237   3.411  0.1027  2.8067  1.8535
 4863SOL     OW26047   0.530   4.508   7.329  0.2879  0.0646  0.0066
 4863SOL    HW126048   0.524   4.484   7.422  0.5968  0.8174  0.2179
 4863SOL    HW226049   0.580   4.433   7.296  1.2934  1.1869 -1.0350
 4864SOL     OW26050   2.690   3.980   8.079 -0.0398 -0.0816  0.7419
 4864SOL    HW126051   2.743   4.034   8.137 -0.2971 -0.2747  1.1594
 4864SOL    HW226052   2.759   3.928   8.039  0.3950  1.7219 -0.8183
 4865SOL     OW26053   2.755   0.447   1.842 -0.0933 -0.6154 -0.6079
 4865SOL    HW126054   2.777   0.369   1.893 -0.0614 -0.4469 -0.3648
 4865SOL    HW226055   2.833   0.500   1.858 -1.5592  1.5463 -0.7295
 4866SOL     OW26056   1.261   1.658   7.624  0.1914  0.0844  0.4315
 4866SOL    HW126057   1.266   1.600   7.548 -0.1520  2.2057 -1.2282
 4866SOL    HW226058   1.351   1.667   7.654  0.6916 -0.1148 -1.0436
 4867SOL     OW26059   4.565   0.169   7.701  0.1320  0.2885 -0.1204
 4867SOL    HW126060   4.618   0.194   7.776  0.3037  0.6252 -0.3530
 4867SOL    HW226061   4.484   0.215   7.723 -2.0757 -2.1526 -3.0796
 4868SOL     OW26062   3.488   2.432  16.562 -0.5638 -0.1728  0.1026
 4868SOL    HW126063   3.491   2.353  16.616  4.0401 -0.4426 -0.5789
 4868SOL    HW226064   3.397   2.433  16.532 -0.2732  0.5814 -0.7533
 4869SOL     OW26065   2.206   4.082   3.069 -0.3516 -0.2654  0.3466
 4869SOL    HW126066   2.239   4.086   2.980 -1.8806  0.2606 -0.2022
 4869SOL    HW226067   2.172   3.993   3.071  1.6413 -1.0976 -2.9128
 4870SOL     OW26068   1.638   4.532   2.311 -0.3879  0.1316  0.3952
 4870SOL    HW126069   1.549   4.505   2.292  0.1748 -1.4687  0.0277
 4870SOL    HW226070   1.662   4.475   2.384  0.0433 -1.5043 -1.0276
 4871SOL     OW26071   3.390   4.485   6.518  0.3965 -0.3785 -0.0123
 4871SOL    HW126072   3.393   4.445   6.431 -1.6944 -0.3330 -0.1010
 4871SOL    HW226073   3.466   4.451   6.565 -0.1941  0.6582  1.7110
 4872SOL     OW26074   0.409   0.810   4.785  0.5734 -0.5682 -0.1639
 4872SOL    HW126075   0.453   0.860   4.717 -1.0944 -1.5405 -1.9406
 4872SOL    HW226076   0.360   0.752   4.727  0.4552 -1.2017  0.5640
 4873SOL     OW26077   2.985   2.793   1.064  1.0768 -0.0444  0.2882
 4873SOL    HW126078   2.907   2.759   1.020  0.9370 -0.0380  0.5314
 4873SOL    HW226079   2.947   2.781   1.151  2.7543 -3.3395  0.5402
 4874SOL     OW26080   4.537   2.739   5.119  0.0589  0.3650 -0.1725
 4874SOL    HW126081   4.582   2.800   5.060 -1.2985  0.8950 -0.6716
 4874SOL    HW226082   4.548   2.653   5.079 -0.4282 -0.4744  1.4912
 4875SOL     OW26083   1.340   2.537   5.142 -0.1805  0.8365  0.6993
 4875SOL    HW126084   1.415   2.558   5.086  0.1543 -0.0671  0.8071
 4875SOL    HW226085   1.361   2.445   5.160  0.7678  1.0166  0.5045
 4876SOL     OW26086   2.619   0.156  11.529 -0.1672 -0.2329  0.1289
 4876SOL    HW126087   2.557   0.224  11.557  0.8252  1.0438 -0.7455
 4876SOL    HW226088   2.671   0.151  11.610  0.4192 -2.2338 -0.3931
 4877SOL     OW26089   3.421   1.975   2.174 -0.0159 -0.6803  0.6705
 4877SOL    HW126090   3.431   1.897   2.229 -3.5304 -0.3470  1.8278
 4877SOL    HW226091   3.477   2.033   2.224  0.2736 -1.3535  1.1335
 4878SOL     OW26092   2.345   2.570   2.379  0.2670  0.5631 -0.2024
 4878SOL    HW126093   2.436   2.565   2.351  0.5859 -0.5676  1.0252
 4878SOL    HW226094   2.305   2.623   2.310 -1.0231  2.4257  1.9646
 4879SOL     OW26095   4.254   3.127   0.509 -0.4481 -0.3720  0.2334
 4879SOL    HW126096   4.171   3.120   0.463 -0.2721 -1.7763  0.1350
 4879SOL    HW226097   4.263   3.047   0.560  0.4990  1.1114  2.3902
 4880SOL     OW26098   1.777   2.696   2.136 -0.5884  0.8885 -0.1968
 4880SOL    HW126099   1.726   2.671   2.059 -0.5306  0.7164 -0.1798
 4880SOL    HW226100   1.861   2.719   2.098 -0.3560  0.9088  0.3227
 4881SOL     OW26101   3.695   1.394   5.257  0.0732 -0.6149 -0.0838
 4881SOL    HW126102   3.654   1.477   5.233  0.7024 -0.6817 -1.3885
 4881SOL    HW226103   3.648   1.358   5.333 -2.1047 -2.2357 -2.2206
 4882SOL     OW26104   2.306   4.328   4.428  0.4302 -0.8001 -0.2816
 4882SOL    HW126105   2.354   4.335   4.346  1.4554 -2.6982  0.1508
 4882SOL    HW226106   2.301   4.421   4.452  1.6802 -0.5363 -1.0445
 4883SOL     OW26107   1.413   4.328   1.351  0.0351  0.0622 -0.4487
 4883SOL    HW126108   1.435   4.412   1.392 -0.6162  0.6741 -1.3501
 4883SOL    HW226109   1.465   4.260   1.394 -1.3275 -0.2887  0.6366
 4884SOL     OW26110   3.634   0.407   7.653 -0.0679  0.5364  0.5165
 4884SOL    HW126111   3.602   0.497   7.659  1.2171  1.0568 -0.5410
 4884SOL    HW226112   3.556   0.357   7.678  0.9395 -1.4074 -0.3002
 4885SOL     OW26113   2.110   1.784   8.564  0.0927  0.4052 -0.0866
 4885SOL    HW126114   2.149   1.724   8.500  1.6066 -0.3230  1.5111
 4885SOL    HW226115   2.185   1.838   8.590 -0.2835  0.1591  1.5170
 4886SOL     OW26116   4.199   3.230   2.984 -0.2129  0.3479 -0.2242
 4886SOL    HW126117   4.192   3.303   3.046 -0.2594  0.0462  0.1293
 4886SOL    HW226118   4.134   3.263   2.922 -1.2914 -2.4950 -0.6262
 4887SOL     OW26119   0.373   3.100  11.336  0.2733  0.3285  0.1938
 4887SOL    HW126120   0.286   3.130  11.362  0.6293  1.2390  0.3050
 4887SOL    HW226121   0.373   3.124  11.243 -2.2023  0.5286  0.2378
 4888SOL     OW26122   1.130   2.460  17.661 -0.1318  0.1544  0.0543
 4888SOL    HW126123   1.045   2.494  17.691 -1.2160 -1.8741 -0.7794
 4888SOL    HW226124   1.115   2.455  17.567  2.5133  1.2533 -0.4502
 4889SOL     OW26125   2.805   1.883   3.508 -0.8978 -0.4065  0.2708
 4889SOL    HW126126   2.856   1.807   3.482  2.4641  1.5672  1.0094
 4889SOL    HW226127   2.859   1.913   3.581  0.4907 -0.6418 -0.6491
 4890SOL     OW26128   3.141   3.364   6.663 -0.4607 -0.2211 -0.3380
 4890SOL    HW126129   3.118   3.271   6.663 -0.3300 -0.2529 -0.9738
 4890SOL    HW226130   3.178   3.377   6.750 -0.9418  0.6245 -0.2556
 4891SOL     OW26131   2.035   2.987  11.094 -0.1672  0.2235  0.0670
 4891SOL    HW126132   2.090   3.065  11.088  0.6629 -0.5134 -1.6036
 4891SOL    HW226133   1.953   3.009  11.050 -1.3822 -0.6611  1.8797
 4892SOL     OW26134   1.531   0.086   1.704  0.0011  0.0789 -0.4093
 4892SOL    HW126135   1.493   0.103   1.791 -0.8445 -2.6749 -0.2615
 4892SOL    HW226136   1.573   0.172   1.692  1.4619 -0.5350  0.3247
 4893SOL     OW26137   1.991   1.819   7.495 -0.4868 -0.2092  0.0638
 4893SOL    HW126138   1.971   1.737   7.540  1.2045 -0.8740 -0.3596
 4893SOL    HW226139   2.033   1.784   7.416  1.3482  1.1745  0.4243
 4894SOL     OW26140   3.777   3.199   7.786 -0.2081 -0.4781 -0.0731
 4894SOL    HW126141   3.823   3.269   7.739 -1.2667  0.9724  1.0769
 4894SOL    HW226142   3.704   3.174   7.730  0.3303 -0.5312 -0.7623
 4895SOL     OW26143   1.873   0.535   3.833  0.6005  0.1616  0.1675
 4895SOL    HW126144   1.937   0.597   3.799  1.0268  0.1002  0.8465
 4895SOL    HW226145   1.793   0.587   3.820 -0.6712 -2.2121 -1.5341
 4896SOL     OW26146   1.583   1.537   9.410  0.3215  0.1602 -0.4106
 4896SOL    HW126147   1.536   1.456   9.427  2.1254 -1.0113 -0.9919
 4896SOL    HW226148   1.520   1.602   9.440  0.9998  0.4065  0.4590
 4897SOL     OW26149   2.214   0.727   4.090 -0.0587  0.2797 -0.0920
 4897SOL    HW126150   2.237   0.764   4.005 -1.4559  1.3004 -0.0132
 4897SOL    HW226151   2.198   0.637   4.061  3.0526  0.0276 -1.0830
 4898SOL     OW26152   1.811   0.625  14.954 -0.0188 -1.0017  0.2648
 4898SOL    HW126153   1.791   0.552  14.896  3.0165 -2.0414  0.5357
 4898SOL    HW226154   1.906   0.625  14.952 -0.0281 -0.1075 -0.0515
 4899SOL     OW26155   2.436   0.738   7.359  0.4079  0.1732  0.3681
 4899SOL    HW126156   2.501   0.755   7.428 -0.2152 -2.2254  1.5430
 4899SOL    HW226157   2.409   0.649   7.380 -0.5132  0.8071  1.8960
 4900SOL     OW26158   3.222   3.452  16.737  0.5428  0.4981  0.1303
 4900SOL    HW126159   3.202   3.438  16.644 -2.5068 -0.5007  0.9520
 4900SOL    HW226160   3.267   3.537  16.730 -0.4452  0.9576 -0.7427
 4901SOL     OW26161   3.613   2.610   7.071 -0.0028 -0.1090  0.1886
 4901SOL    HW126162   3.611   2.638   6.979 -0.4839  1.1583  0.5891
 4901SOL    HW226163   3.644   2.522   7.053 -1.4720 -0.6126  0.0930
 4902SOL     OW26164   1.370   0.018  15.811  0.0063 -0.0431  0.0696
 4902SOL    HW126165   1.387   0.112  15.813 -0.5872  0.0694 -0.5282
 4902SOL    HW226166   1.389   0.004  15.719  3.1373 -3.6777  1.2600
 4903SOL     OW26167   0.810   3.508   9.734 -0.3684 -0.1642 -0.2672
 4903SOL    HW126168   0.824   3.597   9.702 -1.7491  0.4027  0.6604
 4903SOL    HW226169   0.735   3.512   9.794  0.7851 -3.6808  1.4156
 4904SOL     OW26170   1.538   1.930   0.534 -0.6566  0.2057 -0.6675
 4904SOL    HW126171   1.540   1.950   0.628 -0.5090  1.2107 -0.8883
 4904SOL    HW226172   1.519   2.016   0.498 -0.7481 -0.2866 -1.7736
 4905SOL     OW26173   1.141   0.390   7.212 -0.4115  0.2174  0.5560
 4905SOL    HW126174   1.124   0.300   7.241  0.5079 -0.2615 -0.3675
 4905SOL    HW226175   1.070   0.433   7.259 -0.3543  0.7482  0.1501
 4906SOL     OW26176   1.915   2.330   0.288  0.1500  0.0176  0.6952
 4906SOL    HW126177   1.888   2.397   0.226 -1.3674 -1.0995  0.1515
 4906SOL    HW226178   1.842   2.268   0.282  1.2378 -0.9275 -2.5795
 4907SOL     OW26179   2.727   0.260  14.715  0.3273 -0.0428  0.0629
 4907SOL    HW126180   2.632   0.254  14.713  0.1983  2.0980  0.7891
 4907SOL    HW226181   2.738   0.165  14.726  1.0251  0.1337  0.9416
 4908SOL     OW26182   1.191   4.515   4.227 -0.0743 -0.9597 -0.0674
 4908SOL    HW126183   1.138   4.540   4.303 -1.4116 -0.5303 -1.1421
 4908SOL    HW226184   1.238   4.441   4.264 -0.6234 -1.0862  0.3880
 4909SOL     OW26185   1.562   0.672   1.418 -0.2218  0.3037  0.1335
 4909SOL    HW126186   1.624   0.616   1.371 -1.7597  0.6346 -2.2936
 4909SOL    HW226187   1.613   0.690   1.497  0.8964 -0.5725 -0.3768
 4910SOL     OW26188   2.613   3.761   0.385 -0.0701 -0.4683 -0.6768
 4910SOL    HW126189   2.522   3.791   0.387  0.5414  1.4329 -2.3527
 4910SOL    HW226190   2.659   3.842   0.408  0.6817 -0.5844 -1.7961
 4911SOL     OW26191   0.074   2.707   8.774 -0.0002  0.3098  0.3472
 4911SOL    HW126192   0.064   2.753   8.691 -2.5781 -0.3439  0.2842
 4911SOL    HW226193   0.022   2.758   8.837  2.4186  0.7138  2.0139
 4912SOL     OW26194   1.664   2.667   3.497  0.0541  0.1538 -0.4545
 4912SOL    HW126195   1.704   2.752   3.518 -0.6974  0.4817 -0.3368
 4912SOL    HW226196   1.589   2.666   3.556  1.3682  0.5752  1.2408
 4913SOL     OW26197   2.087   2.118   8.408 -0.3366 -0.4390 -0.0697
 4913SOL    HW126198   2.070   2.051   8.341 -1.5396 -0.2172  0.0167
 4913SOL    HW226199   2.181   2.106   8.423 -0.2001 -0.1017 -0.6489
 4914SOL     OW26200   3.568   0.784  11.212  0.2924  0.3581  0.7498
 4914SOL    HW126201   3.623   0.800  11.289 -2.7161  2.9357  2.3445
 4914SOL    HW226202   3.613   0.834  11.144  0.6803 -1.9679 -0.7348
 4915SOL     OW26203   3.089   2.516   4.975 -0.3549  0.1020  0.2562
 4915SOL    HW126204   3.066   2.534   5.066 -1.7771  0.3061 -0.1342
 4915SOL    HW226205   3.044   2.589   4.933 -2.6518  0.2963  3.0453
 4916SOL     OW26206   0.507   2.861   9.227  0.1812 -0.4802  0.5908
 4916SOL    HW126207   0.549   2.923   9.167  0.4823 -0.6393  0.6365
 4916SOL    HW226208   0.442   2.915   9.271 -0.9532 -1.4375  0.1143
 4917SOL     OW26209   3.472   2.346   4.780  0.0150 -0.4235  0.0430
 4917SOL    HW126210   3.397   2.293   4.754  0.8154 -1.4197 -0.2222
 4917SOL    HW226211   3.424   2.409   4.834  0.7651  1.4317 -1.4672
 4918SOL     OW26212   2.908   0.698  12.300  0.3767 -0.5525 -0.8740
 4918SOL    HW126213   2.887   0.634  12.232  0.5405  1.1637 -2.5615
 4918SOL    HW226214   2.828   0.748  12.317  2.1371  1.0685  2.7961
 4919SOL     OW26215   3.931   2.919   2.799 -0.1983 -0.0690  0.1633
 4919SOL    HW126216   4.026   2.915   2.800 -0.2872 -2.2743 -0.9275
 4919SOL    HW226217   3.906   2.889   2.711 -0.0899 -0.0221  0.1169
 4920SOL     OW26218   0.398   2.596   3.055  0.5600 -0.5155 -0.1223
 4920SOL    HW126219   0.382   2.597   2.960 -1.6645 -1.6446  0.2400
 4920SOL    HW226220   0.342   2.669   3.084 -0.0928 -0.7285 -0.8537
 4921SOL     OW26221   0.113   2.561   1.306 -0.3117  0.8429 -0.1588
 4921SOL    HW126222   0.025   2.568   1.268 -0.7247  0.5282  0.7406
 4921SOL    HW226223   0.093   2.570   1.399  0.3745  0.4628  0.0226
 4922SOL     OW26224   0.101   0.196   2.961 -0.4341 -0.1082  0.8697
 4922SOL    HW126225   0.084   0.135   3.033  2.1785  0.4655  1.9672
 4922SOL    HW226226   0.187   0.234   2.980  1.3962 -2.7944 -2.0398
 4923SOL     OW26227   0.372   0.443  11.915 -0.1347  0.3039 -0.1916
 4923SOL    HW126228   0.433   0.511  11.887  1.2156 -0.6457  0.4452
 4923SOL    HW226229   0.354   0.393  11.835 -1.2797  0.1474  0.1636
 4924SOL     OW26230   2.495   3.392  11.506  0.2099 -0.5848  0.1105
 4924SOL    HW126231   2.578   3.393  11.554 -0.0061 -1.8709  0.5194
 4924SOL    HW226232   2.439   3.437  11.569  0.6254 -0.9138  0.7192
 4925SOL     OW26233   4.290   1.135   2.332 -0.1219  0.0014 -0.2462
 4925SOL    HW126234   4.361   1.163   2.274 -2.4259  3.5361 -1.4123
 4925SOL    HW226235   4.318   1.052   2.369  0.5630  0.7598  0.9367
 4926SOL     OW26236   0.348   0.797   2.621  0.6142  0.1896  0.2007
 4926SOL    HW126237   0.380   0.707   2.630  0.3051 -0.0329 -0.8753
 4926SOL    HW226238   0.383   0.835   2.540 -2.4583  2.8244  0.1111
 4927SOL     OW26239   0.700   0.206   4.333  0.2950  0.6719 -0.5418
 4927SOL    HW126240   0.734   0.118   4.315  0.9419  0.5862  1.0723
 4927SOL    HW226241   0.690   0.248   4.248  1.7030 -0.1942 -1.1341
 4928SOL     OW26242   2.898   0.831   4.847  0.2583 -0.3668 -0.8773
 4928SOL    HW126243   2.808   0.840   4.816  0.0369  0.0200 -0.1165
 4928SOL    HW226244   2.872   0.869   4.931  3.0031 -2.4780  0.9377
 4929SOL     OW26245   0.388   3.292   5.151  0.1925  0.4749 -0.0316
 4929SOL    HW126246   0.431   3.257   5.073 -0.4825 -2.0502  0.7385
 4929SOL    HW226247   0.331   3.222   5.182 -0.2864  0.3100 -1.2858
 4930SOL     OW26248   1.806   1.839   3.821  0.4574  0.2690 -0.2984
 4930SOL    HW126249   1.859   1.878   3.891  0.6224  1.3639 -1.0206
 4930SOL    HW226250   1.721   1.881   3.831 -0.1534 -1.5996  2.3037
 4931SOL     OW26251   0.854   1.960   7.149  0.4720 -0.4304  0.2989
 4931SOL    HW126252   0.827   1.968   7.058 -0.5850 -0.8400  0.5730
 4931SOL    HW226253   0.800   1.890   7.186 -0.9016  1.0394  1.0296
 4932SOL     OW26254   1.467   0.720   4.740 -0.0839 -0.3969  0.0730
 4932SOL    HW126255   1.383   0.705   4.784 -0.1986  0.0658  0.0073
 4932SOL    HW226256   1.468   0.664   4.662  0.6600  0.4883 -0.5528
 4933SOL     OW26257   2.726   2.459   5.066  0.1610  0.3880 -0.0556
 4933SOL    HW126258   2.714   2.520   4.994 -0.1591  1.2266  0.7055
 4933SOL    HW226259   2.649   2.404   5.054 -1.3466  1.7880  3.1032
 4934SOL     OW26260   4.663   2.216   8.088  0.5130 -0.0007  0.0655
 4934SOL    HW126261   4.651   2.302   8.047  0.6539  0.0376  0.1056
 4934SOL    HW226262   4.577   2.180   8.066  2.0887 -2.5829 -1.8517
 4935SOL     OW26263   2.722   2.300   0.651 -0.1555  0.5383 -0.2271
 4935SOL    HW126264   2.698   2.277   0.561 -0.9877  1.1932 -0.1731
 4935SOL    HW226265   2.741   2.225   0.706 -1.7244 -1.2165 -2.1073
 4936SOL     OW26266   2.619   1.185   5.023  0.5245  0.2770 -0.5270
 4936SOL    HW126267   2.674   1.243   5.076  1.6840 -1.2958  0.0015
 4936SOL    HW226268   2.556   1.134   5.074  2.8900 -1.4741  0.6938
 4937SOL     OW26269   1.972   2.688   6.114 -0.6694 -0.0979  0.0987
 4937SOL    HW126270   1.985   2.626   6.041  1.4589  1.9862 -1.2962
 4937SOL    HW226271   2.018   2.649   6.188  2.4993  1.4617 -1.0310
 4938SOL     OW26272   1.280   0.621   3.998 -0.2435 -0.0574 -0.4029
 4938SOL    HW126273   1.230   0.653   3.923 -1.8438  0.7182  0.9957
 4938SOL    HW226274   1.265   0.527   3.987 -1.9208 -0.0248  1.6485
 4939SOL     OW26275   1.448   2.277   7.819  0.0410  0.3021 -0.4462
 4939SOL    HW126276   1.514   2.298   7.753 -0.6653  0.0963 -1.2193
 4939SOL    HW226277   1.385   2.346   7.798 -1.3737 -1.1616 -0.9795
 4940SOL     OW26278   4.419   0.770   0.368 -0.6262 -0.5524  0.3014
 4940SOL    HW126279   4.428   0.729   0.454 -0.9126 -1.2418  0.0063
 4940SOL    HW226280   4.383   0.689   0.332  0.6395 -0.9438 -0.0891
 4941SOL     OW26281   1.526   3.276   1.040 -0.3453  0.4209 -0.4645
 4941SOL    HW126282   1.483   3.320   1.113  1.4077 -1.3455  1.6114
 4941SOL    HW226283   1.609   3.258   1.083  0.2003 -0.9906 -2.1355
 4942SOL     OW26284   3.735   4.307   7.077  0.0798  0.5753 -0.5350
 4942SOL    HW126285   3.701   4.239   7.135 -0.8051  1.7400  0.3226
 4942SOL    HW226286   3.751   4.267   6.992 -2.1136 -1.4363  0.0106
 4943SOL     OW26287   1.546   2.901   7.815 -0.1553  0.3219 -0.3656
 4943SOL    HW126288   1.501   2.844   7.877  0.4959 -0.1792 -0.3531
 4943SOL    HW226289   1.636   2.889   7.845  0.1088 -0.1045 -1.3337
 4944SOL     OW26290   4.585   0.130   5.275  0.9161  0.1332 -0.5088
 4944SOL    HW126291   4.600   0.225   5.277 -1.2648  0.4752 -0.5900
 4944SOL    HW226292   4.641   0.094   5.206  0.8353 -0.0867 -0.4571
 4945SOL     OW26293   4.201   0.076   5.724  0.1717 -0.3496  0.4760
 4945SOL    HW126294   4.119   0.124   5.736  0.8789  0.4937  1.9095
 4945SOL    HW226295   4.170   4.710   5.708  3.1205 -1.0635 -1.1667
 4946SOL     OW26296   1.758   3.958  17.551 -0.1248  0.4570 -0.4700
 4946SOL    HW126297   1.836   3.986  17.504  1.2647 -0.9800  0.9828
 4946SOL    HW226298   1.793   3.954  17.640 -3.6196  2.4504  1.0264
 4947SOL     OW26299   2.865   2.870  14.169 -0.2079  0.5342  0.4530
 4947SOL    HW126300   2.929   2.922  14.119 -2.3996  0.0609 -2.8246
 4947SOL    HW226301   2.829   2.934  14.230  0.7938  0.3659  1.2126
 4948SOL     OW26302   3.407   0.560  14.919 -0.3813 -0.1083  0.2562
 4948SOL    HW126303   3.458   0.617  14.861 -0.2646 -1.5658 -1.0665
 4948SOL    HW226304   3.382   0.623  14.986 -2.5514  1.6668 -2.2265
 4949SOL     OW26305   2.657   1.825  15.867  0.4646  0.3984 -0.3933
 4949SOL    HW126306   2.601   1.891  15.908  0.3933 -0.4785  0.8878
 4949SOL    HW226307   2.614   1.821  15.781  0.3988 -2.3936 -0.2006
 4950SOL     OW26308   2.276   3.367   2.413  0.2894 -0.2986 -0.2416
 4950SOL    HW126309   2.205   3.401   2.359 -0.4159 -2.9208 -1.0069
 4950SOL    HW226310   2.360   3.397   2.379  0.5640 -0.4516  0.2993
 4951SOL     OW26311   1.916   3.722   0.320  0.3208  0.3614 -0.0189
 4951SOL    HW126312   1.968   3.775   0.380  0.1894 -1.2109  1.4933
 4951SOL    HW226313   1.980   3.674   0.268  1.4848  0.8809  0.9310
 4952SOL     OW26314   4.249   1.128   8.744 -0.1750 -0.4130 -0.0107
 4952SOL    HW126315   4.191   1.102   8.815 -1.5199  1.4465 -0.4017
 4952SOL    HW226316   4.331   1.090   8.774  0.7851  0.3938 -1.5904
 4953SOL     OW26317   3.265   0.810   2.845  0.0057 -0.7682 -0.6190
 4953SOL    HW126318   3.174   0.839   2.840  0.2954  0.1447 -0.6106
 4953SOL    HW226319   3.269   0.779   2.936  0.5523 -0.6577 -0.6049
 4954SOL     OW26320   0.384   2.701   5.020  0.5195 -0.0142 -0.0581
 4954SOL    HW126321   0.367   2.608   5.035 -2.5969  0.6712  0.5702
 4954SOL    HW226322   0.444   2.724   5.090 -2.6573  0.7614  2.3954
 4955SOL     OW26323   3.946   2.905  16.454  0.3229 -0.5677 -0.5864
 4955SOL    HW126324   3.881   2.917  16.523 -0.9675  2.4565 -2.3821
 4955SOL    HW226325   4.029   2.927  16.498  1.0800 -3.3674 -0.5981
 4956SOL     OW26326   0.855   3.488   6.141  0.8202 -0.3322 -0.3713
 4956SOL    HW126327   0.889   3.468   6.228 -2.0492 -0.2268  0.7843
 4956SOL    HW226328   0.778   3.544   6.150 -0.0429 -1.5942  0.0570
 4957SOL     OW26329   0.139   0.244  10.506 -0.3401  0.5035  0.3094
 4957SOL    HW126330   0.063   0.188  10.518  0.1295 -0.6153 -1.8197
 4957SOL    HW226331   0.112   0.326  10.547 -2.4709  0.5219 -1.1492
 4958SOL     OW26332   1.787   4.246   7.883  0.3655  0.0147 -0.3454
 4958SOL    HW126333   1.859   4.306   7.866 -1.0740  1.9668  0.4419
 4958SOL    HW226334   1.818   4.177   7.941  0.0253 -1.2251 -1.6344
 4959SOL     OW26335   3.936   4.716   5.538  0.0887  0.2796  0.5438
 4959SOL    HW126336   4.019   4.705   5.490 -0.0502 -2.1711  0.9023
 4959SOL    HW226337   3.914   4.626   5.559 -0.1971  0.6946  2.0819
 4960SOL     OW26338   3.144   2.899   2.127  0.1611 -0.2373 -0.2031
 4960SOL    HW126339   3.056   2.931   2.146  0.1257 -1.0061  0.8901
 4960SOL    HW226340   3.133   2.855   2.042  1.0849 -0.8273 -0.0234
 4961SOL     OW26341   0.782   0.868  11.417 -0.0543  0.4604 -0.6705
 4961SOL    HW126342   0.827   0.855  11.334 -1.0925 -0.3937 -1.0927
 4961SOL    HW226343   0.844   0.924  11.464  1.0735 -1.9147  0.6374
 4962SOL     OW26344   2.351   0.393   0.146  0.9472  0.1380 -0.2606
 4962SOL    HW126345   2.434   0.437   0.125  0.2868  0.9987 -1.0398
 4962SOL    HW226346   2.326   0.376   0.055 -0.5033 -0.4348  0.2453
 4963SOL     OW26347   0.597   1.141   6.372  0.4000 -1.0394  0.2826
 4963SOL    HW126348   0.630   1.072   6.314  1.2456  0.0509 -0.5144
 4963SOL    HW226349   0.675   1.184   6.406  0.9994 -0.2722 -2.0657
 4964SOL     OW26350   1.033   4.083   1.282  0.0146  0.2110  0.2250
 4964SOL    HW126351   0.952   4.130   1.303  1.1442  2.3121 -0.1536
 4964SOL    HW226352   1.086   4.131   1.345 -0.0424  2.0851 -1.1598
 4965SOL     OW26353   2.701   4.293  16.078 -0.4006  0.2659 -0.4638
 4965SOL    HW126354   2.750   4.313  16.157 -3.1616 -0.1177  1.3314
 4965SOL    HW226355   2.613   4.286  16.114 -0.7316 -0.8328 -1.4690
 4966SOL     OW26356   0.359   0.282  12.137 -0.3283 -0.3983 -0.4943
 4966SOL    HW126357   0.381   0.336  12.061  0.9952 -0.3847 -0.0913
 4966SOL    HW226358   0.322   0.349  12.193  0.1721  0.1180 -0.7795
 4967SOL     OW26359   4.244   2.279   2.307 -0.8820  0.3984  0.0425
 4967SOL    HW126360   4.326   2.233   2.328 -1.0634  0.7010  1.4229
 4967SOL    HW226361   4.274   2.367   2.288 -1.9768  0.9664  0.9556
 4968SOL     OW26362   2.302   4.239   7.893 -0.4910 -0.3859 -0.2292
 4968SOL    HW126363   2.344   4.204   7.972  1.4470  0.5967 -0.8153
 4968SOL    HW226364   2.215   4.215   7.926 -0.1121 -2.2480 -0.6243
 4969SOL     OW26365   4.213   0.768   6.626  0.1195 -0.5011  0.1169
 4969SOL    HW126366   4.221   0.858   6.659 -0.7066 -0.1437 -0.6286
 4969SOL    HW226367   4.118   0.774   6.615 -0.0878 -1.4760  1.4466
 4970SOL     OW26368   4.597   0.757   8.013  0.5234 -0.0518 -0.0813
 4970SOL    HW126369   4.611   0.851   8.004  2.2361 -0.3589 -0.5358
 4970SOL    HW226370   4.689   0.734   8.027  0.4759 -0.7340 -0.8501
 4971SOL     OW26371   3.811   4.615   7.677 -0.3692  0.3774 -0.2901
 4971SOL    HW126372   3.777   4.556   7.610  0.7891  0.2660 -0.7753
 4971SOL    HW226373   3.828   4.696   7.628  4.8520 -1.0305 -0.8071
 4972SOL     OW26374   2.807   1.804  14.370  0.6039  0.4303 -0.1830
 4972SOL    HW126375   2.901   1.791  14.356  0.3389 -1.8372  0.1384
 4972SOL    HW226376   2.780   1.805  14.278 -0.6629  1.5788  0.2070
 4973SOL     OW26377   2.116   2.184   6.153  0.0968 -0.7275 -0.4493
 4973SOL    HW126378   2.200   2.231   6.151 -1.1600  1.5421 -0.2821
 4973SOL    HW226379   2.143   2.105   6.107  0.6342 -1.9162  1.9268
 4974SOL     OW26380   2.897   2.943   3.154  0.2190  0.0698 -0.1545
 4974SOL    HW126381   2.838   3.018   3.163  0.5076  0.4110 -1.2237
 4974SOL    HW226382   2.900   2.905   3.242  0.4074  0.3330 -0.0478
 4975SOL     OW26383   0.880   1.538   7.561 -0.0056  0.3767  0.1999
 4975SOL    HW126384   0.907   1.447   7.575  0.5363  0.9703  2.9822
 4975SOL    HW226385   0.786   1.519   7.552 -0.3008  1.2931  1.3884
 4976SOL     OW26386   0.390   2.633   2.475 -0.4087  0.3157  0.1627
 4976SOL    HW126387   0.346   2.699   2.528  0.2928  0.9507 -0.0393
 4976SOL    HW226388   0.320   2.617   2.412  0.0311  1.9389 -0.7455
 4977SOL     OW26389   3.786   0.138  15.038  0.2590 -0.0690  0.1311
 4977SOL    HW126390   3.702   0.183  15.030  2.1527  3.0076 -2.7713
 4977SOL    HW226391   3.819   0.196  15.107 -2.3887 -0.7247  1.9617
 4978SOL     OW26392   0.695   0.477  16.090  0.0992 -0.8375 -0.1884
 4978SOL    HW126393   0.712   0.527  16.010 -2.0163  0.8590  0.4482
 4978SOL    HW226394   0.626   0.414  16.070  0.6781 -1.1797 -1.1585
 4979SOL     OW26395   1.367   4.419   0.411  0.0047 -0.2532  0.2744
 4979SOL    HW126396   1.340   4.496   0.462  1.2362  1.4809 -1.6977
 4979SOL    HW226397   1.358   4.437   0.317 -1.8800  0.7365  0.6346
 4980SOL     OW26398   1.572   1.965  15.638 -0.3720 -0.0311 -0.0300
 4980SOL    HW126399   1.503   2.009  15.689  0.5890  0.6314  0.6827
 4980SOL    HW226400   1.585   2.027  15.567  0.6640 -1.3134 -0.9599
 4981SOL     OW26401   0.012   3.567  10.533 -0.1444 -0.4927 -0.6014
 4981SOL    HW126402   0.102   3.583  10.564  0.0880 -1.8546 -0.5861
 4981SOL    HW226403   4.718   3.648  10.485 -0.9760  0.4940  1.3839
 4982SOL     OW26404   2.479   1.818   3.668  0.4555 -0.3503 -0.3984
 4982SOL    HW126405   2.397   1.866   3.657 -0.8439 -1.9754  2.1349
 4982SOL    HW226406   2.454   1.736   3.626 -1.6019  0.2962 -0.4580
 4983SOL     OW26407   0.538   0.856   6.365 -0.3477  0.3170 -0.3934
 4983SOL    HW126408   0.468   0.812   6.317 -0.2992 -1.3747  1.1074
 4983SOL    HW226409   0.589   0.897   6.295 -0.2717  0.8518 -0.0202
 4984SOL     OW26410   4.617   4.541  16.554  0.5093  0.8339 -0.4876
 4984SOL    HW126411   4.536   4.582  16.584 -0.1675 -0.8305 -0.0214
 4984SOL    HW226412   4.590   4.455  16.523  3.1640 -0.9735  2.1377
 4985SOL     OW26413   3.570   0.641  15.741  0.2150 -0.6117  0.3410
 4985SOL    HW126414   3.663   0.623  15.736  0.0157 -2.0982  2.1359
 4985SOL    HW226415   3.546   0.558  15.700  0.8221 -0.5099 -0.2081
 4986SOL     OW26416   2.331   0.281   7.807  0.2095  0.4189  0.3584
 4986SOL    HW126417   2.379   0.280   7.725 -1.4331 -2.3324 -0.5769
 4986SOL    HW226418   2.298   0.191   7.808 -2.4707  1.4045 -0.7030
 4987SOL     OW26419   4.644   2.142  12.058  0.4071 -0.1318  0.3033
 4987SOL    HW126420   4.624   2.049  12.063 -0.4033  0.2885  4.6885
 4987SOL    HW226421   4.719   2.140  11.999  0.3302 -0.2165  0.2105
 4988SOL     OW26422   1.154   1.388   4.725 -0.1026  0.2813  0.3906
 4988SOL    HW126423   1.159   1.307   4.674 -1.3465 -0.5899  1.6414
 4988SOL    HW226424   1.102   1.358   4.800 -1.1483 -0.5295 -0.6527
 4989SOL     OW26425   3.848   0.301   2.930  0.1049  0.5109  0.2550
 4989SOL    HW126426   3.806   0.332   2.849  1.1298  1.2141  0.0010
 4989SOL    HW226427   3.913   0.366   2.954 -0.2542  0.6003  0.9951
 4990SOL     OW26428   1.013   4.359   6.619 -0.5668 -0.3254 -0.3325
 4990SOL    HW126429   0.933   4.409   6.635  0.2710  0.4935  1.3993
 4990SOL    HW226430   1.001   4.355   6.525  3.9051  0.4333 -0.9490
 4991SOL     OW26431   2.997   0.185   4.311  0.2813  0.1985 -0.4351
 4991SOL    HW126432   3.013   0.125   4.383 -0.0704 -2.1703 -2.3240
 4991SOL    HW226433   2.988   0.270   4.354 -2.3293 -0.2546 -0.0852
 4992SOL     OW26434   1.094   0.477   1.161  0.0012 -0.5909 -0.1536
 4992SOL    HW126435   1.004   0.475   1.129  0.3985 -4.5465 -0.9804
 4992SOL    HW226436   1.088   0.473   1.257 -3.1383 -1.4342 -0.3924
 4993SOL     OW26437   1.157   1.454   5.737 -0.0527  0.2944 -0.0199
 4993SOL    HW126438   1.173   1.365   5.769 -0.2714 -0.2584 -1.4317
 4993SOL    HW226439   1.064   1.462   5.757 -0.4012  1.0347 -2.0129
 4994SOL     OW26440   0.579   0.843   7.951  0.0303  0.3963 -0.0274
 4994SOL    HW126441   0.504   0.882   7.996  0.4082  0.5443  0.4853
 4994SOL    HW226442   0.581   0.890   7.868  0.0669  0.2638 -0.0997
 4995SOL     OW26443   3.705   0.828   5.181 -0.3612 -0.2413 -0.1724
 4995SOL    HW126444   3.783   0.877   5.207 -0.5947  1.4045 -2.5626
 4995SOL    HW226445   3.698   0.873   5.097 -0.8022  2.7122  1.4491
 4996SOL     OW26446   1.487   1.132   8.919 -0.4571 -0.8929 -0.2705
 4996SOL    HW126447   1.513   1.078   8.994  0.7682 -0.8582 -0.6668
 4996SOL    HW226448   1.552   1.104   8.855 -1.6276 -1.4862 -1.1787
 4997SOL     OW26449   0.825   0.715   5.287  0.2678 -0.2402 -0.3373
 4997SOL    HW126450   0.814   0.624   5.259  1.6208 -0.8847  1.2057
 4997SOL    HW226451   0.869   0.691   5.369  1.7775 -0.2982 -1.1664
 4998SOL     OW26452   2.531   0.912  16.383 -0.1378 -0.3465  0.5411
 4998SOL    HW126453   2.620   0.936  16.357 -0.6786 -0.1334 -1.1403
 4998SOL    HW226454   2.529   0.816  16.375  2.2527 -0.4627  1.3608
 4999SOL     OW26455   3.968   3.586  16.493  0.3468 -0.4234  0.1005
 4999SOL    HW126456   4.050   3.579  16.543  2.8581 -2.6086 -4.3065
 4999SOL    HW226457   3.957   3.495  16.464 -1.4747  0.0214 -0.5892
 5000SOL     OW26458   3.309   0.890   7.010 -0.0591  0.1558 -0.6408
 5000SOL    HW126459   3.382   0.879   7.071 -0.2353  0.1815 -0.4246
 5000SOL    HW226460   3.348   0.959   6.957  0.5198 -0.3778 -0.9126
 5001SOL     OW26461   2.870   3.180   8.062  0.2982 -0.2252 -0.3730
 5001SOL    HW126462   2.890   3.226   8.144  1.0222 -0.5286 -0.3799
 5001SOL    HW226463   2.954   3.190   8.018 -0.3302 -0.9953 -1.7541
 5002SOL     OW26464   3.338   2.250   6.879 -0.0763 -0.2644  0.0877
 5002SOL    HW126465   3.259   2.302   6.894  1.5762  2.1048  0.6069
 5002SOL    HW226466   3.353   2.264   6.785 -0.9191 -1.9863 -0.3013
 5003SOL     OW26467   3.995   2.696   4.047 -0.2759 -0.7994 -0.3079
 5003SOL    HW126468   4.017   2.659   4.133 -1.7399 -0.7621  0.0815
 5003SOL    HW226469   4.007   2.625   3.984 -1.0989 -1.3091  0.1228
 5004SOL     OW26470   1.295   1.549   1.278 -0.0071 -0.1080 -0.2671
 5004SOL    HW126471   1.345   1.539   1.359  0.9250 -0.8663 -0.9207
 5004SOL    HW226472   1.343   1.486   1.223 -0.0862 -1.2930  1.0340
 5005SOL     OW26473   0.467   1.395  14.113  0.1435 -1.0727  0.6247
 5005SOL    HW126474   0.373   1.408  14.100  0.4883  0.6245 -0.1198
 5005SOL    HW226475   0.484   1.306  14.081 -1.1786 -1.9539  2.3783
 5006SOL     OW26476   1.032   1.731   6.942 -0.6253  0.1496 -0.1215
 5006SOL    HW126477   0.976   1.654   6.954  0.9239 -0.5514  2.7925
 5006SOL    HW226478   0.990   1.787   6.877 -2.1069  1.4693  1.9530
 5007SOL     OW26479   0.418   2.693   2.048  0.7076 -0.8262  0.0374
 5007SOL    HW126480   0.329   2.699   2.084  0.9955 -0.5581  0.7043
 5007SOL    HW226481   0.446   2.784   2.053 -1.7946  0.0024 -0.8491
 5008SOL     OW26482   2.097   4.209   1.596  0.0616  0.2537 -0.2779
 5008SOL    HW126483   2.185   4.247   1.588  1.0917 -1.8654  1.0274
 5008SOL    HW226484   2.054   4.267   1.534  1.0014  0.3539 -0.8308
 5009SOL     OW26485   2.345   0.323   8.593 -0.0175  0.6138  0.3874
 5009SOL    HW126486   2.403   0.335   8.668 -0.7889  0.0456  1.0814
 5009SOL    HW226487   2.381   0.390   8.535 -1.3358  3.2009  2.5686
 5010SOL     OW26488   3.395   1.147   5.737  0.0856  0.3007 -0.7059
 5010SOL    HW126489   3.368   1.057   5.759 -3.0371  1.4491  0.1700
 5010SOL    HW226490   3.490   1.146   5.740  0.0311 -0.7113  0.4005
 5011SOL     OW26491   1.381   0.618  11.900  0.2658  0.1151 -0.1441
 5011SOL    HW126492   1.337   0.684  11.953  2.3270  1.6714 -0.3756
 5011SOL    HW226493   1.453   0.593  11.958  0.4598  0.2460 -0.3300
 5012SOL     OW26494   1.897   2.720  11.833 -0.4457 -0.5136 -0.3713
 5012SOL    HW126495   1.914   2.812  11.851 -0.8125 -0.5203  0.0089
 5012SOL    HW226496   1.822   2.702  11.889 -1.2613 -1.9119 -1.9255
 5013SOL     OW26497   3.254   1.066   1.670 -0.1337 -0.3432  0.6381
 5013SOL    HW126498   3.297   0.997   1.721  0.3499  0.1161  0.8460
 5013SOL    HW226499   3.274   1.032   1.583 -1.4258 -0.3925  0.3614
 5014SOL     OW26500   2.731   4.291   5.081  0.4717  0.0595 -0.0492
 5014SOL    HW126501   2.782   4.212   5.102 -0.5059 -0.0486  1.9351
 5014SOL    HW226502   2.752   4.301   4.988  0.4138 -0.4208 -0.1156
 5015SOL     OW26503   2.744   0.003   6.612  0.1672 -0.1397  0.0968
 5015SOL    HW126504   2.760   4.705   6.704  1.6832 -0.6899 -0.3020
 5015SOL    HW226505   2.828   0.016   6.568  0.5451  0.7100  1.0641
 5016SOL     OW26506   4.011   2.017   6.457 -0.6275  0.1570 -0.3989
 5016SOL    HW126507   3.920   2.044   6.470 -0.5669 -0.7026  1.7650
 5016SOL    HW226508   4.041   1.961   6.528  0.0150 -0.5719 -1.2534
 5017SOL     OW26509   4.707   1.849   4.743 -0.2149  0.3657 -0.2588
 5017SOL    HW126510   4.668   1.778   4.793 -1.9988  1.6191  0.1214
 5017SOL    HW226511   4.646   1.854   4.669  0.8356 -0.3279 -1.1860
 5018SOL     OW26512   1.851   1.752  14.780 -0.0050  0.0529  0.0938
 5018SOL    HW126513   1.844   1.840  14.744 -0.7584  0.4973  1.3247
 5018SOL    HW226514   1.761   1.724  14.795 -0.3678  0.1488 -1.9513
 5019SOL     OW26515   3.113   1.566   6.998  0.2221  0.1514 -0.0598
 5019SOL    HW126516   3.032   1.591   6.954 -0.2588 -1.1112  0.1047
 5019SOL    HW226517   3.111   1.620   7.077 -0.8650 -0.1458  0.1135
 5020SOL     OW26518   2.754   3.621   3.886 -0.5116 -0.1494 -0.0465
 5020SOL    HW126519   2.706   3.554   3.836  0.7278 -0.5109 -0.7489
 5020SOL    HW226520   2.847   3.601   3.878 -0.6450 -0.4118 -0.9608
 5021SOL     OW26521   1.423   2.217   1.474  0.3699  0.3874 -0.1054
 5021SOL    HW126522   1.352   2.279   1.456  1.3548  1.0678 -1.7045
 5021SOL    HW226523   1.413   2.159   1.398 -2.9796  0.7056  0.0903
 5022SOL     OW26524   0.668   2.545   5.222 -0.2741  0.1955  0.5688
 5022SOL    HW126525   0.661   2.470   5.162  2.7902  0.2163  0.2062
 5022SOL    HW226526   0.759   2.569   5.236 -0.1187 -0.1592  0.1363
 5023SOL     OW26527   0.738   4.453   6.756 -0.2818  0.4051 -0.3463
 5023SOL    HW126528   0.776   4.422   6.838 -0.5611  2.7469  0.6703
 5023SOL    HW226529   0.654   4.406   6.757  0.5687 -1.1034 -1.0115
 5024SOL     OW26530   2.829   3.701   1.640  0.1014  0.9475 -0.6864
 5024SOL    HW126531   2.825   3.648   1.560  1.3223 -1.3344  0.7389
 5024SOL    HW226532   2.890   3.772   1.621 -1.8005  1.9648 -3.0079
 5025SOL     OW26533   0.310   2.164   2.498  0.4890  0.5929  0.2322
 5025SOL    HW126534   0.228   2.186   2.454  0.3779 -0.8501 -0.2861
 5025SOL    HW226535   0.358   2.109   2.436 -0.1655 -2.3745  2.3644
 5026SOL     OW26536   1.768   2.795   5.940 -0.0112  0.3579  0.4360
 5026SOL    HW126537   1.802   2.774   6.027  0.0412  0.0524  0.3401
 5026SOL    HW226538   1.678   2.762   5.942 -0.2864  1.1313  0.7871
 5027SOL     OW26539   0.088   3.874   6.147  0.2736  0.7148 -0.0409
 5027SOL    HW126540   0.027   3.879   6.074 -0.4295  1.6317  0.6140
 5027SOL    HW226541   0.041   3.920   6.217 -1.7122 -0.2290 -0.7679
 5028SOL     OW26542   4.055   0.544  11.494  0.5425 -0.6714 -0.0967
 5028SOL    HW126543   4.082   0.600  11.421 -0.6803 -0.0691 -0.0793
 5028SOL    HW226544   3.962   0.562  11.500  1.2223  1.8371  2.9387
 5029SOL     OW26545   1.546   3.021   3.382  0.2779  0.0728  1.0101
 5029SOL    HW126546   1.522   3.038   3.473 -1.4186 -0.8627  0.7443
 5029SOL    HW226547   1.464   2.981   3.351  0.7070  0.5900 -0.7640
 5030SOL     OW26548   4.481   4.637   1.574  0.0650 -0.0948  0.3524
 5030SOL    HW126549   4.535   4.561   1.552  0.2181 -0.2247  1.1986
 5030SOL    HW226550   4.521   4.671   1.654 -1.8234 -1.4195  1.8484
 5031SOL     OW26551   2.025   0.810   5.427  0.4786 -0.1496 -0.4093
 5031SOL    HW126552   2.000   0.720   5.406  1.1150 -0.6916  1.1289
 5031SOL    HW226553   2.037   0.832   5.335 -0.3975 -0.2985 -0.5556
 5032SOL     OW26554   2.983   2.423   7.822  0.2701  0.2786  0.3647
 5032SOL    HW126555   3.042   2.477   7.874 -0.5760 -0.4917  2.1046
 5032SOL    HW226556   3.044   2.376   7.765  0.2701  3.0651 -1.9405
 5033SOL     OW26557   3.213   1.260   4.270 -0.1591 -0.2243  0.3825
 5033SOL    HW126558   3.133   1.294   4.310 -1.7109 -0.3984 -2.6077
 5033SOL    HW226559   3.184   1.209   4.195  1.5929 -1.4958  0.5825
 5034SOL     OW26560   3.299   0.549   4.853  0.2266 -0.0676  0.1832
 5034SOL    HW126561   3.282   0.635   4.814 -0.5128 -0.5307 -0.5248
 5034SOL    HW226562   3.381   0.571   4.896  0.7192 -0.8774 -0.3577
 5035SOL     OW26563   1.329   4.277   3.544 -0.1087  0.2176  0.5152
 5035SOL    HW126564   1.386   4.351   3.568 -0.6254  0.2712  1.5718
 5035SOL    HW226565   1.388   4.203   3.560 -1.8791 -1.8450 -2.5256
 5036SOL     OW26566   2.667   2.604   8.975  0.3946 -0.0823 -0.6415
 5036SOL    HW126567   2.598   2.669   8.959 -1.0088 -1.3889  0.0129
 5036SOL    HW226568   2.673   2.560   8.890 -0.9158 -3.2623  0.8933
 5037SOL     OW26569   3.353   1.572  14.650  0.2963  0.8123 -0.3944
 5037SOL    HW126570   3.298   1.495  14.636  1.3635 -0.2425  1.1440
 5037SOL    HW226571   3.434   1.541  14.609  0.6091  2.6517 -1.1506
 5038SOL     OW26572   0.360   1.723   5.082  0.0776 -0.1964  0.0270
 5038SOL    HW126573   0.352   1.674   5.000  1.5933 -0.6759  0.1722
 5038SOL    HW226574   0.454   1.736   5.088  0.0606 -0.4329  0.8041
 5039SOL     OW26575   3.941   1.539   7.938 -0.4365  0.0135 -0.0895
 5039SOL    HW126576   4.000   1.612   7.919  1.1316 -0.8096  1.5232
 5039SOL    HW226577   3.942   1.541   8.034 -1.9038  0.3662 -0.0783
 5040SOL     OW26578   1.821   3.909  14.613  0.7495 -0.2914  0.1440
 5040SOL    HW126579   1.895   3.873  14.564  1.2870  0.4381  0.4209
 5040SOL    HW226580   1.860   3.969  14.677 -0.2232  0.0813  0.3896
 5041SOL     OW26581   3.790   0.474   3.393  0.1013 -0.1812  0.3160
 5041SOL    HW126582   3.742   0.548   3.430 -0.4050 -0.4870  0.2650
 5041SOL    HW226583   3.759   0.491   3.305 -1.0812  2.9294  1.3260
 5042SOL     OW26584   0.765   3.149  11.724 -0.2076 -0.0330  0.7750
 5042SOL    HW126585   0.813   3.093  11.663 -0.5988 -0.9917  1.3548
 5042SOL    HW226586   0.744   3.226  11.670 -0.7578 -0.0846  0.9154
 5043SOL     OW26587   3.445   1.630   4.557  0.1721 -0.0923  0.7913
 5043SOL    HW126588   3.489   1.714   4.545 -0.9723  0.4785  0.6579
 5043SOL    HW226589   3.384   1.648   4.486  0.0035 -3.4540  0.0831
 5044SOL     OW26590   2.009   2.386  11.253  0.0374 -0.1316  0.2738
 5044SOL    HW126591   1.918   2.359  11.253  0.3272 -1.0937  0.8375
 5044SOL    HW226592   2.019   2.442  11.175 -0.1745  0.2355  0.5127
 5045SOL     OW26593   3.634   1.688   8.471 -0.8016  0.6080 -0.5064
 5045SOL    HW126594   3.649   1.772   8.513 -0.7081  0.1671  0.3413
 5045SOL    HW226595   3.560   1.648   8.516 -0.4537  1.0800  0.4616
 5046SOL     OW26596   1.992   3.624  12.731  0.3209  0.4657  0.0848
 5046SOL    HW126597   2.083   3.610  12.704 -0.3568 -0.8057 -1.5441
 5046SOL    HW226598   2.008   3.678  12.808  2.9717  2.7390 -2.0294
 5047SOL     OW26599   0.541   0.837   4.486  0.6255  0.1071  0.3138
 5047SOL    HW126600   0.496   0.771   4.434  2.4201  0.1070 -1.2363
 5047SOL    HW226601   0.589   0.785   4.550 -0.2245  2.2336  2.6926
 5048SOL     OW26602   0.799   2.776   4.792 -0.0480 -0.5622 -0.7003
 5048SOL    HW126603   0.824   2.861   4.758 -0.7358 -0.4432 -0.9194
 5048SOL    HW226604   0.767   2.798   4.880  0.9439  0.8557 -0.7054
 5049SOL     OW26605   2.791   0.171   5.069 -0.0443 -0.0580 -0.0651
 5049SOL    HW126606   2.875   0.205   5.039  0.2927  1.0967  2.1662
 5049SOL    HW226607   2.817   0.095   5.122  0.7943  0.6977  0.6061
 5050SOL     OW26608   0.892   2.194   3.814 -0.1338  0.0617 -0.0018
 5050SOL    HW126609   0.874   2.229   3.727  0.6591 -0.0820 -0.2225
 5050SOL    HW226610   0.960   2.256   3.840  0.9851  0.0648 -2.9343
 5051SOL     OW26611   4.615   2.370   9.472  0.0589 -0.5033 -0.4245
 5051SOL    HW126612   4.646   2.280   9.463 -1.7991 -0.9284 -2.4743
 5051SOL    HW226613   4.697   2.416   9.452 -0.1035 -0.4429 -0.9481
 5052SOL     OW26614   0.864   0.007   3.356  0.2543  0.1206 -0.5434
 5052SOL    HW126615   0.847   4.674   3.281 -0.0474  1.0778 -1.2009
 5052SOL    HW226616   0.959   0.019   3.356 -0.0552  2.6128  1.3311
 5053SOL     OW26617   4.054   4.532   1.922  0.1896  0.3116 -0.2454
 5053SOL    HW126618   3.991   4.559   1.854  0.0057 -2.1004 -1.0383
 5053SOL    HW226619   4.039   4.441   1.897 -1.7641  0.8901 -1.2409
 5054SOL     OW26620   0.890   2.831  10.583  0.0169 -0.0980 -0.3565
 5054SOL    HW126621   0.910   2.750  10.630 -0.0504  1.3959  2.2340
 5054SOL    HW226622   0.801   2.810  10.554 -0.1090 -0.4200  0.2789
 5055SOL     OW26623   4.324   4.474   9.846 -0.3558  0.2614 -0.1389
 5055SOL    HW126624   4.364   4.560   9.860  0.3637 -0.1081  0.0644
 5055SOL    HW226625   4.330   4.432   9.932 -3.1858 -3.0740 -1.6067
 5056SOL     OW26626   2.352   4.325   4.889 -0.4096  0.4434  0.0167
 5056SOL    HW126627   2.416   4.262   4.923 -0.8363  1.0479  1.9289
 5056SOL    HW226628   2.285   4.264   4.859 -1.8446  1.0759  1.9677
 5057SOL     OW26629   0.523   2.730   3.454 -0.2321  0.1992  0.2677
 5057SOL    HW126630   0.428   2.723   3.452 -0.3493  2.0942 -0.0229
 5057SOL    HW226631   0.533   2.780   3.374  0.2111 -0.7728 -0.2901
 5058SOL     OW26632   1.750   0.750  16.825 -0.0841 -0.0857  0.1202
 5058SOL    HW126633   1.775   0.814  16.892 -0.8203  1.6451 -1.2783
 5058SOL    HW226634   1.788   0.794  16.748  2.1228 -1.9578  0.1287
 5059SOL     OW26635   1.431   1.502   1.740  0.2067  0.4555  0.0520
 5059SOL    HW126636   1.457   1.506   1.648 -0.7370  0.3950 -0.2143
 5059SOL    HW226637   1.338   1.489   1.723 -0.0079  1.6579  0.3554
 5060SOL     OW26638   2.719   3.447   2.945  0.1866  0.1308  0.8137
 5060SOL    HW126639   2.645   3.386   2.944  0.1715  0.1323  2.6253
 5060SOL    HW226640   2.766   3.416   2.867 -0.1176  2.7596 -0.4252
 5061SOL     OW26641   3.390   2.303   7.872  0.2403 -0.2456 -0.0324
 5061SOL    HW126642   3.416   2.244   7.942  0.0663  2.1880  2.0517
 5061SOL    HW226643   3.323   2.258   7.821 -0.7527  0.3629  0.7469
 5062SOL     OW26644   0.067   3.092   0.034 -0.2157  0.2706 -0.6487
 5062SOL    HW126645   0.114   3.078  17.650  1.5563  0.3456  0.3695
 5062SOL    HW226646   0.074   3.186   0.046  0.3277  0.3661 -1.6750
 5063SOL     OW26647   3.117   1.151   6.846  0.1276  0.4776 -0.2434
 5063SOL    HW126648   3.065   1.086   6.799 -0.4853  0.7451  0.0713
 5063SOL    HW226649   3.201   1.144   6.800  0.4782  0.0805  0.4625
 5064SOL     OW26650   1.643   2.664  13.214  0.6101  0.0874  0.0235
 5064SOL    HW126651   1.708   2.687  13.281  0.0022 -2.1384  1.3508
 5064SOL    HW226652   1.668   2.738  13.158 -0.5112 -0.2735 -0.9401
 5065SOL     OW26653   4.135   2.276   7.700 -0.2185  0.0295  0.2001
 5065SOL    HW126654   4.150   2.368   7.676  2.0010 -0.4890 -0.4094
 5065SOL    HW226655   4.080   2.283   7.778 -0.6761  1.0839 -0.2180
 5066SOL     OW26656   3.816   2.221   9.373 -0.0227 -0.2594 -0.2530
 5066SOL    HW126657   3.823   2.240   9.467  1.1465  0.7553 -0.5420
 5066SOL    HW226658   3.731   2.257   9.350 -0.6939 -1.3204  0.5591
 5067SOL     OW26659   1.056   0.828   5.187 -0.3324 -0.1649 -0.1970
 5067SOL    HW126660   1.054   0.847   5.281  0.6967  3.0910 -0.8385
 5067SOL    HW226661   0.966   0.801   5.169 -0.4260  1.6831 -2.3805
 5068SOL     OW26662   0.625   3.585   6.354 -0.0641 -0.2934 -0.1473
 5068SOL    HW126663   0.624   3.607   6.260 -0.4156  2.3302  0.4818
 5068SOL    HW226664   0.657   3.670   6.384  1.7285 -1.2506  0.6443
 5069SOL     OW26665   1.400   1.904   8.688  0.5007  0.5148 -0.0322
 5069SOL    HW126666   1.315   1.887   8.648  0.1504  4.2757 -0.8977
 5069SOL    HW226667   1.369   1.922   8.777 -1.0415 -0.7995 -0.3062
 5070SOL     OW26668   1.767   2.082   2.486  0.2848  0.1176 -0.0951
 5070SOL    HW126669   1.773   2.112   2.577 -0.5318 -1.5680  0.5243
 5070SOL    HW226670   1.758   1.986   2.488 -0.8799  0.2130 -0.7497
 5071SOL     OW26671   1.405   0.835   3.674 -0.1005  0.2489  0.4726
 5071SOL    HW126672   1.415   0.847   3.768  1.5896  0.5460  0.2564
 5071SOL    HW226673   1.313   0.858   3.664  0.5947  2.6953 -0.3037
 5072SOL     OW26674   1.790   1.480   5.556 -0.1990 -0.6787  0.3492
 5072SOL    HW126675   1.882   1.490   5.581 -0.2111 -0.4647  0.3064
 5072SOL    HW226676   1.809   1.435   5.473 -0.1203  0.7750 -0.4122
 5073SOL     OW26677   0.892   4.147   0.955  0.5438 -0.2934 -0.3668
 5073SOL    HW126678   0.941   4.223   0.986 -0.5105  0.5887 -0.8627
 5073SOL    HW226679   0.955   4.116   0.889  0.9659  1.1678 -0.6362
 5074SOL     OW26680   2.297   3.624   4.388 -0.2217 -0.2133  0.0065
 5074SOL    HW126681   2.332   3.553   4.335  1.2429  0.6846 -0.2207
 5074SOL    HW226682   2.380   3.672   4.391 -1.1026  1.4068 -1.2927
 5075SOL     OW26683   0.573   1.864   4.793  0.4619  0.1340 -0.0372
 5075SOL    HW126684   0.572   1.960   4.791 -2.4355  0.0562 -2.1503
 5075SOL    HW226685   0.527   1.841   4.713  3.2314 -1.8870 -1.0420
 5076SOL     OW26686   1.204   3.381   3.230  0.2091  0.5097 -0.7478
 5076SOL    HW126687   1.211   3.475   3.215 -0.2437  0.8442  1.1825
 5076SOL    HW226688   1.122   3.368   3.183 -0.4486  1.0727  0.2469
 5077SOL     OW26689   4.501   0.534   3.556  0.2160  0.1748 -0.3875
 5077SOL    HW126690   4.561   0.554   3.485  0.3953  1.6669  0.1794
 5077SOL    HW226691   4.428   0.489   3.513  0.2906  0.6937 -1.0514
 5078SOL     OW26692   2.069   1.584   2.591  0.7757  0.4173 -0.1796
 5078SOL    HW126693   2.154   1.611   2.625 -0.8013  3.1435  1.6336
 5078SOL    HW226694   2.060   1.640   2.514  0.8684 -1.7457 -1.7608
 5079SOL     OW26695   4.572   2.716   2.569 -0.0771 -0.1652  0.5518
 5079SOL    HW126696   4.584   2.792   2.511 -1.2832 -0.6135 -0.3013
 5079SOL    HW226697   4.611   2.652   2.509 -0.6407 -3.6875  3.9429
 5080SOL     OW26698   0.517   3.729  14.127  0.3835  0.3735  0.1572
 5080SOL    HW126699   0.598   3.771  14.158  1.6734 -0.9795 -1.3826
 5080SOL    HW226700   0.451   3.796  14.143  1.2119  0.8396  1.5913
 5081SOL     OW26701   1.833   2.917   0.857  0.2107 -1.0300 -0.4415
 5081SOL    HW126702   1.794   2.886   0.939 -0.8900 -3.8072 -2.0279
 5081SOL    HW226703   1.927   2.912   0.874 -0.3774 -1.7944  2.5640
 5082SOL     OW26704   1.680   3.948   1.960 -0.1016 -0.0138  0.1532
 5082SOL    HW126705   1.731   4.025   1.938 -1.2243  0.5694 -0.4325
 5082SOL    HW226706   1.626   3.936   1.881 -1.8651  0.3251  1.3242
 5083SOL     OW26707   0.862   4.611  12.356  0.2147 -0.1786 -0.1899
 5083SOL    HW126708   0.934   4.550  12.340  0.0992 -1.0451  2.6818
 5083SOL    HW226709   0.912   4.663  12.420 -0.2796 -0.8219  0.7056
 5084SOL     OW26710   0.695   0.782   5.581 -0.5280  0.1514 -0.3536
 5084SOL    HW126711   0.762   0.714   5.587 -0.7469  0.0586  0.9998
 5084SOL    HW226712   0.746   0.856   5.550  0.0798  0.1871  0.7478
 5085SOL     OW26713   0.444   1.265   9.636 -0.5790  0.1276  0.0711
 5085SOL    HW126714   0.450   1.332   9.704 -0.2375 -0.4926  0.6524
 5085SOL    HW226715   0.469   1.182   9.677  1.5507  1.0820  0.7171
 5086SOL     OW26716   2.016   1.598  10.011 -0.1760  0.2636  0.2806
 5086SOL    HW126717   2.078   1.567  10.076  2.0202  1.3955 -1.2705
 5086SOL    HW226718   1.986   1.676  10.056 -1.6226 -0.3818  0.4410
 5087SOL     OW26719   1.274   2.772   5.936  0.7342  0.4510  0.3339
 5087SOL    HW126720   1.199   2.729   5.977  1.6825 -1.9343 -0.3891
 5087SOL    HW226721   1.258   2.752   5.844  2.0703 -1.8742  0.6057
 5088SOL     OW26722   2.766   0.780  14.162  1.1174  0.1664 -0.4743
 5088SOL    HW126723   2.814   0.708  14.203  0.0887  0.5261  1.3448
 5088SOL    HW226724   2.676   0.779  14.194  1.1096  2.1388 -0.4785
 5089SOL     OW26725   0.187   1.174   7.862 -0.2295  0.0448  0.1410
 5089SOL    HW126726   0.235   1.202   7.784  0.8727 -0.6308  0.5733
 5089SOL    HW226727   0.215   1.234   7.930  0.4849  0.1206 -0.2169
 5090SOL     OW26728   4.563   3.522   6.133 -0.2509  0.0922  0.3856
 5090SOL    HW126729   4.511   3.566   6.065  0.8044 -0.1256 -0.5564
 5090SOL    HW226730   4.568   3.437   6.089  2.6193 -0.0403  1.0087
 5091SOL     OW26731   2.142   4.416   6.110 -0.1305 -0.9316  0.5345
 5091SOL    HW126732   2.198   4.409   6.187  0.7678  2.0453  0.1615
 5091SOL    HW226733   2.086   4.339   6.116  1.2588 -2.0151 -0.5112
 5092SOL     OW26734   1.070   0.162   2.100  0.2981  0.1166  0.4158
 5092SOL    HW126735   1.019   0.176   2.180  0.4479  0.9173  0.3653
 5092SOL    HW226736   1.099   0.071   2.110 -1.7642 -0.4592  1.0525
 5093SOL     OW26737   3.491   3.847   6.916  0.6425  0.4980 -0.5194
 5093SOL    HW126738   3.459   3.826   7.004  0.1117 -2.1270 -1.3144
 5093SOL    HW226739   3.558   3.781   6.897 -1.0808 -1.1343 -0.9457
 5094SOL     OW26740   0.654   4.617   4.651  0.4281  0.1738  0.1284
 5094SOL    HW126741   0.595   4.684   4.618  0.7087 -0.3870 -1.5155
 5094SOL    HW226742   0.644   4.626   4.746  0.5403  0.8277  0.0726
 5095SOL     OW26743   3.783   2.702   4.354 -0.1539  0.3968  0.1218
 5095SOL    HW126744   3.743   2.616   4.358 -0.1295  0.3381 -1.1508
 5095SOL    HW226745   3.874   2.675   4.346 -0.7104 -1.8319  1.3880
 5096SOL     OW26746   2.306   0.143  17.298  0.2349 -0.1593 -0.2013
 5096SOL    HW126747   2.353   0.112  17.375  0.9875  2.1356  0.2864
 5096SOL    HW226748   2.375   0.190  17.251  1.1621  1.3810  2.6986
 5097SOL     OW26749   2.966   1.316   4.414  0.2978 -0.3354 -0.1869
 5097SOL    HW126750   2.917   1.346   4.489  0.8204 -0.4951  0.2231
 5097SOL    HW226751   2.900   1.276   4.357  1.6714  1.0332 -2.7242
 5098SOL     OW26752   2.651   1.269   7.488 -0.1079 -0.2191  0.4336
 5098SOL    HW126753   2.668   1.175   7.482 -2.8603 -0.7586  1.1900
 5098SOL    HW226754   2.696   1.289   7.570  1.1429  2.2152 -0.8391
 5099SOL     OW26755   2.760   3.876  17.559  0.0689 -0.2393  0.1402
 5099SOL    HW126756   2.785   3.799  17.610 -0.0351 -1.3640 -1.5218
 5099SOL    HW226757   2.812   3.878  17.479 -1.5385  1.9160 -0.8332
 5100SOL     OW26758   3.248   3.645   2.346  0.8161  0.0902 -0.3050
 5100SOL    HW126759   3.168   3.661   2.394  0.2251 -3.1635 -0.1973
 5100SOL    HW226760   3.313   3.697   2.393  1.0759 -1.0046  0.5400
 5101SOL     OW26761   2.509   1.915   8.923  0.4732 -0.0003  0.6102
 5101SOL    HW126762   2.516   1.931   9.017 -0.2699  2.3246  0.2713
 5101SOL    HW226763   2.467   1.829   8.919  0.2863  0.0721  0.9923
 5102SOL     OW26764   2.128   4.215   7.626 -0.2872 -0.4506  0.4063
 5102SOL    HW126765   2.187   4.197   7.699 -1.6255 -0.2412  1.5417
 5102SOL    HW226766   2.130   4.310   7.613  2.6896 -0.3575  1.5865
 5103SOL     OW26767   0.094   3.370   8.018 -0.0445 -0.6108 -1.1931
 5103SOL    HW126768   0.057   3.429   7.951 -1.5241 -0.6279 -0.3903
 5103SOL    HW226769   0.122   3.419   8.095 -1.3634 -1.2397 -0.3221
 5104SOL     OW26770   3.133   2.364   3.872  0.1858 -0.3392 -0.0648
 5104SOL    HW126771   3.115   2.456   3.849 -1.8645 -1.0334 -1.3038
 5104SOL    HW226772   3.187   2.334   3.799  0.4501  0.1690 -0.0782
 5105SOL     OW26773   2.036   3.254  17.139 -0.3502 -0.3953 -0.0517
 5105SOL    HW126774   2.018   3.343  17.108  0.6958 -0.2398 -0.2133
 5105SOL    HW226775   1.990   3.193  17.082 -1.0105 -0.1875  0.2518
 5106SOL     OW26776   2.333   3.958   4.610 -0.6173 -0.0342 -0.4847
 5106SOL    HW126777   2.394   3.891   4.578 -2.4131 -1.9626  0.0715
 5106SOL    HW226778   2.384   4.039   4.606 -0.7328 -0.0410 -1.8845
 5107SOL     OW26779   1.605   4.474   7.892  0.5009  0.0302 -0.3839
 5107SOL    HW126780   1.657   4.394   7.883  0.3869  0.2559 -2.9607
 5107SOL    HW226781   1.639   4.508   7.975 -1.4854 -0.1375  0.5122
 5108SOL     OW26782   2.599   3.840   4.634  0.0003 -0.4433 -0.4132
 5108SOL    HW126783   2.608   3.802   4.547  0.0446 -0.7287 -0.2843
 5108SOL    HW226784   2.673   3.901   4.625 -0.5328  0.2041 -0.4176
 5109SOL     OW26785   1.659   1.108   1.770  0.1605 -0.2889  0.0983
 5109SOL    HW126786   1.577   1.093   1.816 -0.0431  0.5720  0.0334
 5109SOL    HW226787   1.680   1.021   1.737  1.9581  0.2028 -0.0822
 5110SOL     OW26788   4.231   3.460   5.031  0.0895 -0.0667 -0.3870
 5110SOL    HW126789   4.305   3.409   5.064  0.0111 -0.7492 -1.2501
 5110SOL    HW226790   4.150   3.412   5.052 -0.0815  0.1592 -0.5318
 5111SOL     OW26791   4.381   4.058  12.466  0.4815 -0.3917  0.3697
 5111SOL    HW126792   4.447   4.103  12.520  0.9364 -2.1539  1.2594
 5111SOL    HW226793   4.418   3.974  12.441  1.1173  0.3114 -1.0646
 5112SOL     OW26794   2.308   2.109   3.330  0.5403  0.0948 -0.0201
 5112SOL    HW126795   2.368   2.152   3.270  0.8446 -1.8429 -1.1041
 5112SOL    HW226796   2.374   2.051   3.368 -0.2468 -1.1630 -0.5708
 5113SOL     OW26797   4.612   2.367   3.108  0.4460  0.4893  0.2026
 5113SOL    HW126798   4.567   2.284   3.123  0.8902  0.5044  1.6213
 5113SOL    HW226799   4.656   2.376   3.024 -1.8980  0.5943 -0.9969
 5114SOL     OW26800   3.280   2.321   5.932  0.2063 -0.7974  0.0689
 5114SOL    HW126801   3.202   2.277   5.898  0.8213 -0.2086 -2.1552
 5114SOL    HW226802   3.297   2.381   5.858  1.2753 -3.1232 -1.5740
 5115SOL     OW26803   2.550   0.776   5.423  0.3749  0.4981 -0.0063
 5115SOL    HW126804   2.569   0.825   5.343 -2.2960  2.3229  0.4667
 5115SOL    HW226805   2.460   0.806   5.439  1.4888  2.1031  3.3326
 5116SOL     OW26806   4.476   3.284   5.052  0.7091 -0.0229  0.4281
 5116SOL    HW126807   4.484   3.201   5.005 -1.8831 -0.2756  0.4329
 5116SOL    HW226808   4.567   3.314   5.059  0.8365 -0.1212 -0.7730
 5117SOL     OW26809   2.670   3.002   7.933  0.1229 -0.4563  0.1320
 5117SOL    HW126810   2.736   3.051   7.983  0.4868 -0.0716 -0.7340
 5117SOL    HW226811   2.588   3.043   7.960  0.7238  2.2211 -2.1392
 5118SOL     OW26812   4.336   1.894  11.953  0.2033  0.1434 -0.8019
 5118SOL    HW126813   4.275   1.910  12.024  0.5399  2.9832 -1.1527
 5118SOL    HW226814   4.420   1.885  11.999  0.1385  2.3347 -0.2455
 5119SOL     OW26815   0.041   1.851   4.379 -0.0848  0.2981 -0.3792
 5119SOL    HW126816   0.059   1.937   4.342  1.8329  0.9854  2.1339
 5119SOL    HW226817   0.126   1.824   4.413  1.4834  1.9756 -3.0293
 5120SOL     OW26818   1.134   3.326   8.508  0.1702 -0.2280  0.7692
 5120SOL    HW126819   1.188   3.247   8.513  0.1858 -0.4266 -2.6167
 5120SOL    HW226820   1.195   3.394   8.477  0.2270 -1.7775 -2.4486
 5121SOL     OW26821   1.265   2.433   6.671  0.5932 -0.0478  0.2813
 5121SOL    HW126822   1.347   2.385   6.668  0.5322  0.0622 -2.4939
 5121SOL    HW226823   1.252   2.458   6.580  0.3764 -1.4011 -0.0458
 5122SOL     OW26824   2.735   4.497   6.377 -0.0914 -0.3968 -0.1367
 5122SOL    HW126825   2.746   4.423   6.436  0.1078 -1.2860 -1.2826
 5122SOL    HW226826   2.816   4.495   6.326 -0.7651 -0.6051 -1.2162
 5123SOL     OW26827   0.924   3.532   0.770  0.4364  0.1974 -0.8217
 5123SOL    HW126828   0.908   3.548   0.863  1.3971 -0.8160 -0.4853
 5123SOL    HW226829   1.020   3.535   0.776  0.2056  1.9699  2.2592
 5124SOL     OW26830   1.857   0.509  13.676 -0.0263  0.0566  0.0098
 5124SOL    HW126831   1.837   0.469  13.591 -0.7386 -1.2892  0.8104
 5124SOL    HW226832   1.773   0.544  13.707  0.8860  0.5595  1.9117
 5125SOL     OW26833   1.616   0.518  13.039  0.4227 -0.4564 -0.0927
 5125SOL    HW126834   1.644   0.607  13.014  2.2309 -1.0232 -0.0965
 5125SOL    HW226835   1.699   0.471  13.035  0.1186 -0.9831 -0.2868
 5126SOL     OW26836   4.582   0.640   1.650 -0.3778 -0.2578 -0.1603
 5126SOL    HW126837   4.674   0.622   1.632 -0.3700  0.1377 -0.5161
 5126SOL    HW226838   4.568   0.593   1.733  2.0771 -0.2717  0.2373
 5127SOL     OW26839   3.036   0.192   4.985 -0.2807 -0.3796  0.1852
 5127SOL    HW126840   3.074   0.268   5.029  1.7557 -1.0219 -0.4572
 5127SOL    HW226841   3.101   0.122   4.998 -0.1483 -0.1591  0.6971
 5128SOL     OW26842   3.218   3.084   3.976 -0.1319  0.2801 -0.1512
 5128SOL    HW126843   3.233   3.036   4.057 -0.8529  1.1820  0.5178
 5128SOL    HW226844   3.141   3.137   3.999 -1.2057 -1.1670 -0.4817
 5129SOL     OW26845   1.595   2.048   2.937  0.1364 -0.3325 -0.2134
 5129SOL    HW126846   1.608   1.967   2.887 -0.3373 -1.5374  1.6400
 5129SOL    HW226847   1.598   2.007   3.023  2.6669 -0.8376 -0.5321
 5130SOL     OW26848   2.006   0.151  12.993  0.3358 -0.3782 -0.5426
 5130SOL    HW126849   2.002   0.132  12.899 -3.2155 -1.3321 -0.2028
 5130SOL    HW226850   2.062   0.076  13.014  1.3847  0.5109 -0.1524
 5131SOL     OW26851   4.579   0.901   7.709 -0.7630  0.0053  0.0409
 5131SOL    HW126852   4.636   0.878   7.783  0.2082  0.4666 -0.5712
 5131SOL    HW226853   4.585   0.816   7.664  1.5076  0.4670 -0.5313
 5132SOL     OW26854   0.907   3.640   7.838  0.3696  0.1079  0.0788
 5132SOL    HW126855   0.948   3.710   7.787  1.1356 -1.2136 -1.1152
 5132SOL    HW226856   0.960   3.567   7.807  1.7156  0.8691  0.6019
 5133SOL     OW26857   2.528   3.287   0.470 -0.4219 -0.4445 -0.0019
 5133SOL    HW126858   2.557   3.293   0.379 -0.1598 -1.1208  0.0350
 5133SOL    HW226859   2.439   3.258   0.449  0.1926 -0.8181 -2.1063
 5134SOL     OW26860   0.861   0.268  12.712 -0.3518  0.0679 -0.0926
 5134SOL    HW126861   0.778   0.264  12.758 -0.3523 -0.6880 -0.1544
 5134SOL    HW226862   0.916   0.313  12.776  0.4842 -0.7086 -0.2549
 5135SOL     OW26863   4.714   1.135   8.745 -0.1480 -0.4928  0.1152
 5135SOL    HW126864   0.062   1.158   8.803  0.8984 -0.0798 -1.3237
 5135SOL    HW226865   0.027   1.058   8.703 -0.0276  0.7074 -1.9990
 5136SOL     OW26866   2.277   4.324   2.611 -0.1746 -0.0903 -0.0955
 5136SOL    HW126867   2.260   4.362   2.524  2.0656  2.1397  0.4130
 5136SOL    HW226868   2.192   4.321   2.653 -0.1700 -1.0007 -0.1606
 5137SOL     OW26869   0.558   4.665   6.481  0.0715 -0.3614 -0.0460
 5137SOL    HW126870   0.490   4.605   6.451  0.5447 -1.2262  0.6022
 5137SOL    HW226871   0.626   4.653   6.415 -0.9293 -0.4671 -1.0399
 5138SOL     OW26872   2.296   2.952   4.118  0.0508 -0.1522  0.5751
 5138SOL    HW126873   2.256   3.015   4.177  2.3626  1.4215  0.4754
 5138SOL    HW226874   2.295   3.004   4.037  0.5439 -0.1475  0.5743
 5139SOL     OW26875   4.332   2.969   4.470 -0.5357  0.4776 -0.0997
 5139SOL    HW126876   4.399   2.933   4.413  0.1661 -0.1825  1.1363
 5139SOL    HW226877   4.314   2.895   4.529  1.9415 -1.7121 -2.1381
 5140SOL     OW26878   2.766   0.859   4.444 -0.0565  0.2787  0.4194
 5140SOL    HW126879   2.753   0.939   4.495  0.5667 -0.3896  1.6266
 5140SOL    HW226880   2.706   0.879   4.372  2.2970 -1.3898 -1.9937
 5141SOL     OW26881   2.509   1.941  11.976 -0.5854  0.3878 -0.5394
 5141SOL    HW126882   2.521   2.008  12.043 -0.8783  1.8796 -1.9807
 5141SOL    HW226883   2.493   2.002  11.905 -2.7974  1.3334  0.7701
 5142SOL     OW26884   0.058   3.305   4.353  0.3245  0.3853  0.2451
 5142SOL    HW126885   0.135   3.308   4.409 -0.3775  2.3500  1.1461
 5142SOL    HW226886   0.008   3.238   4.400 -2.9114  0.9352 -2.3932
 5143SOL     OW26887   4.402   4.220   7.048  0.0405  0.1682 -0.1347
 5143SOL    HW126888   4.315   4.201   7.011  0.6217 -1.2294 -0.7656
 5143SOL    HW226889   4.398   4.315   7.045 -2.3584  0.0409 -0.7667
 5144SOL     OW26890   2.725   2.075  14.781 -0.1204 -0.4534  0.0406
 5144SOL    HW126891   2.704   2.023  14.858 -2.3484 -1.4007 -1.2326
 5144SOL    HW226892   2.687   2.031  14.705 -0.4127 -1.1299  0.5845
 5145SOL     OW26893   1.383   2.993   5.995  0.4205  0.0999  0.4148
 5145SOL    HW126894   1.329   2.922   5.960  0.6374  0.2171 -0.1440
 5145SOL    HW226895   1.473   2.964   6.006  0.8306  1.5147  0.8072
 5146SOL     OW26896   2.096   1.678   4.543 -0.2348  0.2056 -0.1518
 5146SOL    HW126897   2.154   1.719   4.607 -1.3739 -1.8821  2.2499
 5146SOL    HW226898   2.130   1.588   4.550  1.3037  0.9228  1.5069
 5147SOL     OW26899   2.802   3.006  13.904  0.1741 -0.3266  0.1721
 5147SOL    HW126900   2.797   3.095  13.869 -0.6577 -1.2248 -1.9650
 5147SOL    HW226901   2.895   3.002  13.929  0.0760 -1.5360  0.3482
 5148SOL     OW26902   2.195   4.373   6.558 -0.3923 -0.1463  0.2039
 5148SOL    HW126903   2.236   4.399   6.476  0.3352  0.1304  0.6544
 5148SOL    HW226904   2.105   4.358   6.529 -0.4059  0.3645 -0.0207
 5149SOL     OW26905   0.404   0.422   8.773 -0.3230 -0.7873  0.0263
 5149SOL    HW126906   0.368   0.468   8.849 -0.8681 -1.3434  0.1085
 5149SOL    HW226907   0.418   0.339   8.818 -0.4221 -0.6372  0.3392
 5150SOL     OW26908   3.200   2.331   4.815  0.1459  0.5402  0.9811
 5150SOL    HW126909   3.157   2.361   4.735 -0.1628 -1.6314  0.3148
 5150SOL    HW226910   3.154   2.385   4.878  1.8664  2.4600  0.5902
 5151SOL     OW26911   3.343   3.549   5.344  0.0045 -0.6207 -0.4896
 5151SOL    HW126912   3.274   3.600   5.388  1.2363  1.1362 -0.6068
 5151SOL    HW226913   3.348   3.478   5.409  0.3452 -1.6781 -1.6906
 5152SOL     OW26914   0.687   1.516   3.019 -0.0137  0.4315  0.8108
 5152SOL    HW126915   0.659   1.513   2.927 -0.8818 -1.7992  1.1458
 5152SOL    HW226916   0.777   1.545   3.008 -0.3319  1.9458  2.1549
 5153SOL     OW26917   2.144   3.233   6.872 -0.2436  0.0804 -0.0180
 5153SOL    HW126918   2.179   3.316   6.905 -1.8527  0.4041  0.8498
 5153SOL    HW226919   2.126   3.190   6.956  0.2696  0.0516  0.0790
 5154SOL     OW26920   0.118   2.106   4.764 -0.3114 -0.0700 -0.1356
 5154SOL    HW126921   0.175   2.070   4.832  0.0007  2.9903  1.2274
 5154SOL    HW226922   0.065   2.030   4.742  1.2601 -1.4302  0.7806
 5155SOL     OW26923   3.092   4.318   3.211  0.6629  0.0578  0.2704
 5155SOL    HW126924   3.106   4.225   3.225 -0.2854 -0.2712 -0.9410
 5155SOL    HW226925   3.012   4.333   3.261 -0.7267 -0.4001 -1.8390
 5156SOL     OW26926   0.663   1.366   2.083 -0.4618 -0.0142 -0.0815
 5156SOL    HW126927   0.622   1.355   1.997  3.3350  0.2994 -1.9390
 5156SOL    HW226928   0.728   1.433   2.062 -0.6860  0.3262  0.3150
 5157SOL     OW26929   4.270   2.608   4.995  0.3622 -0.5083  0.1231
 5157SOL    HW126930   4.267   2.690   5.046  0.4439  1.0235 -2.3471
 5157SOL    HW226931   4.344   2.568   5.041  2.0810  1.2387 -1.1274
 5158SOL     OW26932   2.965   2.909   2.898 -1.0986 -0.1670  0.4134
 5158SOL    HW126933   2.913   2.905   2.978 -0.2377  0.3305  0.9985
 5158SOL    HW226934   3.044   2.944   2.938  0.1206 -4.0130  1.4096
 5159SOL     OW26935   1.555   0.652   7.313  0.2663 -0.2356  0.3893
 5159SOL    HW126936   1.608   0.588   7.264 -1.3387 -1.1299 -0.1673
 5159SOL    HW226937   1.627   0.683   7.368 -0.4677  1.5718  0.3197
 5160SOL     OW26938   2.775   0.948   8.721  0.0046 -0.0924 -0.0223
 5160SOL    HW126939   2.742   1.003   8.651 -2.0044 -2.3301 -0.8440
 5160SOL    HW226940   2.763   1.003   8.798  0.6031  1.5651 -1.1148
 5161SOL     OW26941   2.135   0.122   2.118 -0.0216  0.0470 -0.0653
 5161SOL    HW126942   2.076   0.058   2.158 -0.2927  0.6543  0.5103
 5161SOL    HW226943   2.100   0.209   2.140 -0.3889  0.2989 -1.6636
 5162SOL     OW26944   4.678   1.653   4.179  0.3488  0.0941  0.0957
 5162SOL    HW126945   0.005   1.678   4.102  1.2239  1.3904  1.0746
 5162SOL    HW226946   4.714   1.711   4.247  1.8352  1.0316 -1.5044
 5163SOL     OW26947   3.040   4.121  15.997  0.0780  0.0034  0.2157
 5163SOL    HW126948   3.085   4.038  15.981 -3.5551 -1.6522 -1.2985
 5163SOL    HW226949   2.979   4.127  15.924 -0.3837  0.1166  0.6137
 5164SOL     OW26950   0.860   0.057   9.373  0.5817 -0.0259  0.3811
 5164SOL    HW126951   0.835   0.134   9.322  1.6854 -0.0190 -0.1418
 5164SOL    HW226952   0.943   0.028   9.336 -0.4333 -1.7108 -0.6147
 5165SOL     OW26953   0.002   3.642   4.851 -0.1065  0.2850  0.7857
 5165SOL    HW126954   0.067   3.659   4.783 -2.3102  0.0187 -1.3605
 5165SOL    HW226955   4.654   3.620   4.792  0.7642  0.5224 -0.3748
 5166SOL     OW26956   4.492   4.064   2.700 -0.1241  0.0947  0.2803
 5166SOL    HW126957   4.422   4.015   2.657 -0.9865  0.6749  0.9913
 5166SOL    HW226958   4.550   3.992   2.725  0.9659  0.2794 -1.7949
 5167SOL     OW26959   2.572   1.541   5.183 -0.2741 -0.2490  0.3536
 5167SOL    HW126960   2.607   1.584   5.262  1.5967  0.4503 -0.8538
 5167SOL    HW226961   2.591   1.605   5.115  1.2363  0.0988  1.0995
 5168SOL     OW26962   2.361   2.565   0.480  0.2112  0.5809  0.3769
 5168SOL    HW126963   2.280   2.540   0.525 -0.3544  1.0785 -0.3497
 5168SOL    HW226964   2.333   2.623   0.409  1.4170 -0.1376 -0.6922
 5169SOL     OW26965   3.285   1.721   5.972  0.0448 -0.5181  0.0595
 5169SOL    HW126966   3.344   1.656   5.934 -0.2653 -0.7805  0.0272
 5169SOL    HW226967   3.339   1.800   5.968 -0.1045 -0.3816  0.7968
 5170SOL     OW26968   3.097   2.069   7.351 -0.0633 -0.2113  0.8555
 5170SOL    HW126969   3.173   2.030   7.394 -1.5334 -3.1157  0.8592
 5170SOL    HW226970   3.099   2.027   7.265  0.7283  0.2161  0.6750
 5171SOL     OW26971   3.845   3.702   5.477 -0.3890 -0.5121  0.1738
 5171SOL    HW126972   3.898   3.779   5.498  1.5277 -2.0191  0.8677
 5171SOL    HW226973   3.829   3.657   5.560 -1.3877  0.8217  0.7128
 5172SOL     OW26974   0.495   1.211  16.750  0.1800  0.6952 -0.0133
 5172SOL    HW126975   0.496   1.293  16.701  0.2586  0.6117 -0.1507
 5172SOL    HW226976   0.540   1.231  16.832 -0.8763 -3.3572  1.5790
 5173SOL     OW26977   2.518   0.183   8.423 -0.3284  0.1581  0.1759
 5173SOL    HW126978   2.533   0.094   8.454 -0.6841 -0.0321 -0.2005
 5173SOL    HW226979   2.450   0.214   8.484 -0.5146 -0.2109  0.1590
 5174SOL     OW26980   4.306   2.671  16.021 -0.3759  0.4893 -0.4433
 5174SOL    HW126981   4.212   2.680  16.035  0.0342  0.4506  2.2813
 5174SOL    HW226982   4.301   2.576  16.033  2.5181  0.7470  2.9583
 5175SOL     OW26983   3.025   0.295   6.252 -0.2720 -0.0062 -0.1825
 5175SOL    HW126984   3.097   0.255   6.301  1.0654  2.1484 -0.3700
 5175SOL    HW226985   2.967   0.319   6.324  0.7210 -0.6974  0.8255
 5176SOL     OW26986   2.907   0.264   9.059  0.4097  0.4431  0.0208
 5176SOL    HW126987   2.997   0.244   9.084  0.1091  0.3566  1.0336
 5176SOL    HW226988   2.890   0.329   9.127  1.0600 -0.6107  1.1691
 5177SOL     OW26989   0.497   3.118   4.931 -0.0716  0.0175  0.0378
 5177SOL    HW126990   0.542   3.192   4.890 -0.6339  0.5829  0.4475
 5177SOL    HW226991   0.568   3.060   4.961  0.5351  1.1533  0.8028
 5178SOL     OW26992   0.785   0.730  10.916  0.0282 -0.4257 -0.5121
 5178SOL    HW126993   0.848   0.671  10.956 -0.1035  0.3786  0.8823
 5178SOL    HW226994   0.752   0.784  10.988  3.0835  1.7043 -0.7304
 5179SOL     OW26995   3.130   0.820   3.899  0.3637  0.7880 -0.8531
 5179SOL    HW126996   3.116   0.898   3.845 -1.2468  0.6873 -0.5802
 5179SOL    HW226997   3.163   0.857   3.981  0.7142 -0.0180 -0.6323
 5180SOL     OW26998   2.647   0.322   1.612  0.2787  0.1300  1.0049
 5180SOL    HW126999   2.645   0.373   1.692  0.6726  2.0122 -0.1880
 5180SOL    HW227000   2.705   0.370   1.553 -0.3857 -0.1149  0.1324
 5181SOL     OW27001   1.134   4.229   2.677 -0.3674 -0.9306 -0.3697
 5181SOL    HW127002   1.162   4.318   2.698 -0.2204 -0.9772 -0.3695
 5181SOL    HW227003   1.089   4.233   2.592  1.1253 -3.3581 -1.2813
 5182SOL     OW27004   3.459   0.102   3.520 -0.3152 -0.0794  0.4015
 5182SOL    HW127005   3.516   0.035   3.482 -1.1860 -1.1965  1.0322
 5182SOL    HW227006   3.466   0.173   3.457  0.4511 -0.0787  0.4867
 5183SOL     OW27007   0.402   1.655  11.754  0.2544 -0.5644 -0.4792
 5183SOL    HW127008   0.345   1.595  11.705 -0.9016  1.4239 -1.5366
 5183SOL    HW227009   0.492   1.629  11.730 -0.1044 -1.8794 -0.4181
 5184SOL     OW27010   2.883   1.080  14.213 -0.7765  0.0978 -0.5883
 5184SOL    HW127011   2.814   1.014  14.202 -2.0445  1.3811 -0.3506
 5184SOL    HW227012   2.895   1.080  14.308  0.3741  0.6275 -0.7336
 5185SOL     OW27013   2.069   2.246   9.463 -0.1717  0.2217 -0.5952
 5185SOL    HW127014   2.088   2.247   9.557 -0.4039  1.2498 -0.5586
 5185SOL    HW227015   2.029   2.333   9.454  0.8664  0.5929 -1.6690
 5186SOL     OW27016   3.267   0.833   2.391  0.7719 -0.4915  0.1499
 5186SOL    HW127017   3.252   0.924   2.363 -0.9089 -0.3576  1.4721
 5186SOL    HW227018   3.179   0.796   2.399 -0.2401  1.2972 -2.5885
 5187SOL     OW27019   2.493   4.632   5.529 -0.3646  0.1861  0.3631
 5187SOL    HW127020   2.588   4.618   5.530 -0.3024  0.4305 -1.7590
 5187SOL    HW227021   2.476   4.682   5.450 -0.4252  1.7996  1.4000
 5188SOL     OW27022   1.459   0.952   6.055  0.2273  0.3453 -0.0271
 5188SOL    HW127023   1.378   0.917   6.091  0.7811  0.2038  1.0575
 5188SOL    HW227024   1.502   0.873   6.023 -0.0107 -0.0394  0.6120
 5189SOL     OW27025   4.509   2.448   4.754  0.4643 -0.0539 -0.0744
 5189SOL    HW127026   4.562   2.400   4.691  0.8075  0.5305 -0.2338
 5189SOL    HW227027   4.417   2.436   4.731  0.0087  0.4127  1.5402
 5190SOL     OW27028   4.551   4.478   2.479  0.3019  0.1929 -0.1514
 5190SOL    HW127029   4.550   4.427   2.560 -1.5533 -1.9779 -1.5619
 5190SOL    HW227030   4.467   4.453   2.441  0.6230 -0.6204 -0.3267
 5191SOL     OW27031   0.798   2.283   2.816 -0.0256 -0.1460  0.0531
 5191SOL    HW127032   0.856   2.334   2.871 -0.8499  1.0389 -0.1896
 5191SOL    HW227033   0.740   2.246   2.882 -0.5155 -1.2196 -0.9597
 5192SOL     OW27034   1.667   0.148  12.163  0.2466  0.1997  0.4476
 5192SOL    HW127035   1.605   0.138  12.235  0.9462  0.2630  1.0586
 5192SOL    HW227036   1.742   0.095  12.193  0.9495  0.3628 -0.9897
 5193SOL     OW27037   2.107   2.129   8.824  0.2960  0.2837 -0.3546
 5193SOL    HW127038   2.117   2.224   8.822 -2.1414  0.5994  3.6068
 5193SOL    HW227039   2.052   2.112   8.900  0.5579  3.2723  0.4845
 5194SOL     OW27040   0.770   2.675   2.868 -0.9145 -0.2091 -0.6278
 5194SOL    HW127041   0.727   2.683   2.783 -0.9209  0.3277 -0.5708
 5194SOL    HW227042   0.859   2.645   2.849 -0.5164  1.0139 -0.6814
 5195SOL     OW27043   0.736   3.656   4.613 -0.1246  0.0093 -0.2295
 5195SOL    HW127044   0.758   3.650   4.520  0.5847  3.3898 -0.2876
 5195SOL    HW227045   0.823   3.662   4.653  0.1084 -0.9744 -0.5990
 5196SOL     OW27046   0.767   1.698   1.153 -0.2248 -0.4217  0.5319
 5196SOL    HW127047   0.748   1.744   1.235 -0.8163  1.3284 -0.5882
 5196SOL    HW227048   0.716   1.617   1.151  1.2512 -1.3357  0.2064
 5197SOL     OW27049   0.611   4.447  10.158 -0.0242 -0.0889  0.2618
 5197SOL    HW127050   0.628   4.463  10.251 -0.2321 -0.0880  0.2993
 5197SOL    HW227051   0.599   4.538  10.130  2.5916  0.4123  0.7642
 5198SOL     OW27052   3.591   3.687   6.618  0.2401  0.6696  0.1853
 5198SOL    HW127053   3.662   3.634   6.652 -0.3032 -0.6628 -0.7618
 5198SOL    HW227054   3.639   3.735   6.551  0.3395  0.8539  0.3872
 5199SOL     OW27055   1.959   2.599   7.789 -0.2677 -0.3633  0.0831
 5199SOL    HW127056   1.871   2.597   7.826  0.2195  1.1770  1.3717
 5199SOL    HW227057   1.993   2.516   7.822 -2.1863 -0.6020  1.4364
 5200SOL     OW27058   0.098   2.973   4.707 -0.3674 -0.0407  0.0762
 5200SOL    HW127059   0.189   2.949   4.720  0.5169  4.3350  2.0318
 5200SOL    HW227060   0.057   2.927   4.781 -0.1138 -2.1370 -1.0874
 5201SOL     OW27061   3.490   3.509   4.261  0.0526 -0.2727 -0.0141
 5201SOL    HW127062   3.437   3.585   4.238 -0.9993 -1.4979 -1.5915
 5201SOL    HW227063   3.425   3.440   4.274 -1.6148  1.6367  1.9315
 5202SOL     OW27064   2.217   2.492   3.977  0.2875 -0.2302 -0.0681
 5202SOL    HW127065   2.186   2.458   3.893 -1.9161  0.1891  0.5623
 5202SOL    HW227066   2.309   2.471   3.960  0.7061  3.3793 -2.1563
 5203SOL     OW27067   4.600   1.845   8.029 -0.2894 -0.0646 -0.3111
 5203SOL    HW127068   4.510   1.820   8.006 -1.0165  0.4711  1.9121
 5203SOL    HW227069   4.594   1.840   8.125 -0.1569 -3.1473 -0.4836
 5204SOL     OW27070   1.832   1.172   7.637  0.4175 -0.4937  0.0343
 5204SOL    HW127071   1.758   1.145   7.583 -1.3202  0.5163  1.9660
 5204SOL    HW227072   1.858   1.259   7.608 -1.1010  0.3183  1.1232
 5205SOL     OW27073   4.602   3.828   2.589 -0.3353 -0.1520 -0.1882
 5205SOL    HW127074   4.681   3.845   2.538 -0.0793 -0.6791  0.0471
 5205SOL    HW227075   4.624   3.745   2.629 -0.8510  0.1563  0.7422
 5206SOL     OW27076   4.119   4.237   3.650 -0.3733 -0.2467  0.6384
 5206SOL    HW127077   4.076   4.323   3.645  0.7832  0.1930 -1.4969
 5206SOL    HW227078   4.087   4.197   3.569 -0.4267  0.5633  0.2533
 5207SOL     OW27079   1.423   0.379  10.379  0.1797  0.1162  0.2331
 5207SOL    HW127080   1.404   0.431  10.301 -1.7796 -1.4440 -0.3348
 5207SOL    HW227081   1.452   0.452  10.434 -0.9970  1.0971 -0.4412
 5208SOL     OW27082   1.656   3.242   6.366 -0.1836  0.3781 -0.4359
 5208SOL    HW127083   1.564   3.240   6.393 -0.2661  0.5881 -0.6950
 5208SOL    HW227084   1.701   3.196   6.436 -0.5716 -0.2956 -0.6340
 5209SOL     OW27085   3.661   0.233   3.261 -0.3472  0.0291 -0.3740
 5209SOL    HW127086   3.611   0.311   3.287 -0.8134  0.2616 -1.9463
 5209SOL    HW227087   3.710   0.218   3.342 -1.0330  1.0964  0.2469
 5210SOL     OW27088   3.606   3.195   4.571 -0.0620  0.1387  0.2202
 5210SOL    HW127089   3.646   3.278   4.547 -1.2409  0.0845 -1.9296
 5210SOL    HW227090   3.550   3.188   4.494 -0.7830  1.4218  0.6162
 5211SOL     OW27091   1.644   3.378   2.269  0.5379  0.0009 -0.5329
 5211SOL    HW127092   1.737   3.368   2.291  0.2807  0.9713  0.9938
 5211SOL    HW227093   1.635   3.470   2.247 -0.8356 -0.0699 -0.2736
 5212SOL     OW27094   3.784   0.927   4.578 -0.4457 -0.1896 -0.1957
 5212SOL    HW127095   3.797   0.863   4.507  0.3217 -0.7087  0.4125
 5212SOL    HW227096   3.689   0.941   4.582 -0.6988 -1.9367  0.2263
 5213SOL     OW27097   3.599   4.055   3.212 -0.2070  0.0306 -0.3994
 5213SOL    HW127098   3.684   4.045   3.169 -1.2601  1.4791 -2.8187
 5213SOL    HW227099   3.623   4.044   3.304 -0.5834  0.8391 -0.2049
 5214SOL     OW27100   1.370   3.814   5.321 -0.0825 -0.0088 -0.3088
 5214SOL    HW127101   1.367   3.815   5.416 -1.9989 -0.8402 -0.3702
 5214SOL    HW227102   1.423   3.735   5.308 -0.4716 -0.4866  1.0272
 5215SOL     OW27103   2.610   1.142   8.023  0.1717 -0.3366 -0.1860
 5215SOL    HW127104   2.700   1.110   8.023  0.1883 -0.2982 -0.9004
 5215SOL    HW227105   2.613   1.230   8.060  2.0556 -1.0653  1.3512
 5216SOL     OW27106   2.052   1.777   2.400 -0.2364  0.2511  0.2290
 5216SOL    HW127107   2.112   1.735   2.338 -1.4652 -2.4185  0.8196
 5216SOL    HW227108   2.086   1.866   2.408 -0.9238  0.3738  1.7633
 5217SOL     OW27109   4.437   0.115   1.418  0.0625 -0.0602 -0.2959
 5217SOL    HW127110   4.461   0.040   1.473  0.6908  1.4930  1.5478
 5217SOL    HW227111   4.372   0.157   1.475  0.3622 -0.1522  0.1098
 5218SOL     OW27112   2.402   0.325  11.508  0.1056 -0.5756 -0.1943
 5218SOL    HW127113   2.336   0.370  11.455  1.0684 -0.4534 -1.2767
 5218SOL    HW227114   2.382   0.372  11.589  0.4956 -3.5627  1.6466
 5219SOL     OW27115   0.634   0.623   9.495  0.9727  0.4415 -0.8188
 5219SOL    HW127116   0.621   0.628   9.400 -0.8048  1.2085 -0.5460
 5219SOL    HW227117   0.585   0.701   9.520 -0.8838 -1.2874  0.9966
 5220SOL     OW27118   0.859   1.648   5.165 -0.4253 -0.1996 -0.1157
 5220SOL    HW127119   0.770   1.643   5.198 -0.7004 -0.1825 -0.8510
 5220SOL    HW227120   0.867   1.738   5.135 -2.3667  0.3017  0.9079
 5221SOL     OW27121   0.354   4.465  14.329  0.0283  0.4794  0.1867
 5221SOL    HW127122   0.388   4.537  14.382  0.6957 -0.1770  0.6382
 5221SOL    HW227123   0.274   4.504  14.292 -0.5217 -1.3926 -0.5868
 5222SOL     OW27124   4.242   3.510   4.646  0.0385  0.0929 -0.0158
 5222SOL    HW127125   4.253   3.416   4.664 -2.9124  0.4360  3.3828
 5222SOL    HW227126   4.220   3.499   4.553 -3.3550  1.2948  0.6647
 5223SOL     OW27127   2.777   3.622   9.407 -0.5975  0.4964 -0.0958
 5223SOL    HW127128   2.752   3.543   9.359  0.0525 -0.3424  0.9488
 5223SOL    HW227129   2.695   3.669   9.398  1.0099  3.0011 -1.7931
 5224SOL     OW27130   4.473   3.821   5.640 -0.1974  0.2758 -0.2103
 5224SOL    HW127131   4.453   3.775   5.558  1.0017  0.7965 -0.7914
 5224SOL    HW227132   4.381   3.841   5.658  0.4120  1.7917  1.2087
 5225SOL     OW27133   1.347   4.345   7.611  0.0296  0.0066  0.3521
 5225SOL    HW127134   1.443   4.351   7.605  0.0250 -0.9883 -0.7589
 5225SOL    HW227135   1.330   4.256   7.580  2.1207 -0.6010  0.9627
 5226SOL     OW27136   1.309   4.258  14.538  0.0436  0.4190  0.0439
 5226SOL    HW127137   1.349   4.250  14.451 -2.5088  1.0648 -1.1898
 5226SOL    HW227138   1.358   4.184  14.574  0.3531  0.7611  0.3212
 5227SOL     OW27139   1.732   2.903  13.071 -0.4266 -0.4659 -1.0169
 5227SOL    HW127140   1.665   2.896  13.003  1.0764 -0.8840 -2.4885
 5227SOL    HW227141   1.687   2.959  13.134  1.4556  1.5591 -1.4666
 5228SOL     OW27142   2.209   0.279   6.917 -0.0998 -0.3345 -0.0499
 5228SOL    HW127143   2.260   0.360   6.924 -0.3177 -0.3428  1.7036
 5228SOL    HW227144   2.195   0.281   6.823  3.1304 -1.1164 -0.5277
 5229SOL     OW27145   3.711   2.888   1.132  0.7552  0.7610 -0.9871
 5229SOL    HW127146   3.636   2.888   1.073  0.0571 -0.1038 -0.1041
 5229SOL    HW227147   3.698   2.977   1.165  2.4271  0.9049 -0.6885
 5230SOL     OW27148   1.466   3.856  17.328  0.2536  0.0102 -0.1291
 5230SOL    HW127149   1.512   3.939  17.314  0.4989  0.1119  1.2974
 5230SOL    HW227150   1.512   3.808  17.259  0.3805  0.6988 -0.5276
 5231SOL     OW27151   0.619   1.311   8.401  0.3653  0.0649 -0.7050
 5231SOL    HW127152   0.630   1.255   8.324 -0.0468 -0.1418 -0.6114
 5231SOL    HW227153   0.659   1.393   8.370  2.0412 -0.3774  0.2669
 5232SOL     OW27154   0.437   3.807   5.524  0.0944  0.3054  0.2172
 5232SOL    HW127155   0.397   3.892   5.508 -1.4588 -0.4376  0.1290
 5232SOL    HW227156   0.358   3.756   5.542  1.1318 -1.1602  0.6591
 5233SOL     OW27157   2.847   0.831   5.577 -0.5705 -0.5379  0.3433
 5233SOL    HW127158   2.783   0.847   5.648 -0.5904 -2.6837  0.8046
 5233SOL    HW227159   2.879   0.742   5.586  0.4950 -0.2582 -0.7765
 5234SOL     OW27160   3.247   2.812   5.933 -0.2822 -0.1712  0.0754
 5234SOL    HW127161   3.224   2.797   6.024  0.3140 -0.1562  0.2296
 5234SOL    HW227162   3.341   2.792   5.931 -0.7846 -2.5420  1.1337
 5235SOL     OW27163   2.670   3.850  16.833  0.4508 -0.0401  0.0612
 5235SOL    HW127164   2.729   3.872  16.762  0.5647  0.1394  0.2124
 5235SOL    HW227165   2.711   3.777  16.880 -2.7077 -2.0407 -0.2330
 5236SOL     OW27166   2.392   3.474  13.481 -0.4347  0.3127  0.1838
 5236SOL    HW127167   2.327   3.536  13.517 -1.5346 -0.4839 -0.4397
 5236SOL    HW227168   2.332   3.412  13.440  0.0124 -0.3141  0.4792
 5237SOL     OW27169   0.514   1.970   3.855 -0.0490  0.3937 -0.4336
 5237SOL    HW127170   0.533   2.052   3.811  2.8171 -0.3371 -0.5792
 5237SOL    HW227171   0.569   1.913   3.801 -1.6729 -0.8441 -0.8011
 5238SOL     OW27172   3.851   3.914   3.714 -0.1343  0.4384  0.6175
 5238SOL    HW127173   3.777   3.959   3.755 -0.5214 -0.3491  0.7741
 5238SOL    HW227174   3.911   3.904   3.788  1.4813 -0.8302 -0.8725
 5239SOL     OW27175   0.773   2.085   4.042  0.4553 -0.6757  0.8939
 5239SOL    HW127176   0.787   2.110   3.951 -0.8202 -1.9421  0.3271
 5239SOL    HW227177   0.707   2.016   4.027 -0.1242  0.1081 -0.1617
 5240SOL     OW27178   0.650   0.055   3.694  0.1388 -0.3366 -0.0969
 5240SOL    HW127179   0.574   0.076   3.640 -0.1104 -1.0777 -0.0349
 5240SOL    HW227180   0.611   4.710   3.748 -0.3920 -0.1869 -0.2914
 5241SOL     OW27181   2.728   2.087  15.165 -0.4220 -0.3732  0.3509
 5241SOL    HW127182   2.722   2.159  15.102 -3.9761 -1.3950 -0.4383
 5241SOL    HW227183   2.802   2.122  15.215  1.0167 -0.6815 -1.5606
 5242SOL     OW27184   4.056   2.167   4.322  0.0331 -0.0087 -0.2378
 5242SOL    HW127185   4.044   2.088   4.375 -1.1878  0.8048  0.6976
 5242SOL    HW227186   4.135   2.200   4.366 -1.3538  0.9046  1.5704
 5243SOL     OW27187   1.133   1.794   9.090  0.5183  0.4608 -0.1285
 5243SOL    HW127188   1.054   1.753   9.123  0.7870 -0.1788 -0.2920
 5243SOL    HW227189   1.185   1.817   9.168  1.4161 -0.6249 -0.4099
 5244SOL     OW27190   1.669   4.422   1.884  0.3727  0.4291  0.6729
 5244SOL    HW127191   1.736   4.469   1.834  0.6710 -0.1988  0.4777
 5244SOL    HW227192   1.661   4.346   1.827  1.8320  1.0021 -0.3216
 5245SOL     OW27193   3.076   1.158   5.225 -0.6452  0.1584 -0.3022
 5245SOL    HW127194   2.990   1.135   5.189 -0.6840  0.7113 -0.5656
 5245SOL    HW227195   3.120   1.074   5.213 -1.0806  0.1885 -2.0397
 5246SOL     OW27196   3.977   0.077   6.817  0.6172  0.7008  0.1840
 5246SOL    HW127197   3.910   0.124   6.868  0.3855  1.9944 -1.3115
 5246SOL    HW227198   3.923   0.060   6.740 -0.2529 -1.2984  1.2538
 5247SOL     OW27199   0.091   4.292   8.617  0.0598 -0.6235  0.1546
 5247SOL    HW127200   0.156   4.308   8.685  0.5963 -0.3812 -0.4159
 5247SOL    HW227201   0.047   4.377   8.621 -1.7099 -1.5661  0.4856
 5248SOL     OW27202   0.227   2.162  13.472  0.3362 -0.2883  0.0846
 5248SOL    HW127203   0.142   2.124  13.496  0.2504  0.4534  0.9666
 5248SOL    HW227204   0.283   2.088  13.497  1.4254  0.2792 -0.6870
 5249SOL     OW27205   4.306   2.385   7.142 -0.3532 -0.1723  0.2010
 5249SOL    HW127206   4.322   2.292   7.126  0.4721 -0.1615  0.9671
 5249SOL    HW227207   4.298   2.382   7.237 -0.0051  0.6170  0.2549
 5250SOL     OW27208   3.525   2.689  14.350  0.0914 -0.0136  0.2983
 5250SOL    HW127209   3.548   2.685  14.258 -0.7645  0.1023  0.0780
 5250SOL    HW227210   3.556   2.605  14.384  0.9579 -0.3315 -1.2921
 5251SOL     OW27211   1.952   1.289  17.064  0.0699  0.0660  0.0039
 5251SOL    HW127212   1.972   1.226  16.995  1.4642 -0.3798  0.8158
 5251SOL    HW227213   1.862   1.311  17.039  0.4343  2.1923  0.6043
 5252SOL     OW27214   1.695   0.739   3.774 -0.2069 -0.1082  0.0193
 5252SOL    HW127215   1.631   0.773   3.837 -0.8202 -0.1431 -0.5736
 5252SOL    HW227216   1.710   0.822   3.729 -2.8379 -0.6725 -1.9204
 5253SOL     OW27217   4.494   3.630  16.723  0.8309 -0.3384 -0.0827
 5253SOL    HW127218   4.421   3.673  16.768  1.3690  1.6165 -1.0492
 5253SOL    HW227219   4.544   3.700  16.681  0.1877  0.7533  0.9773
 5254SOL     OW27220   3.663   3.663   0.713  0.3615 -0.3042 -0.2450
 5254SOL    HW127221   3.688   3.665   0.805 -1.6961  1.2814  0.2879
 5254SOL    HW227222   3.697   3.742   0.670  0.0982 -0.3737 -0.5783
 5255SOL     OW27223   3.078   2.482   8.251  0.3283  0.2432  0.7956
 5255SOL    HW127224   3.148   2.537   8.214 -2.0148  2.4620 -0.3547
 5255SOL    HW227225   3.110   2.473   8.341 -2.4213  0.3213  1.7890
 5256SOL     OW27226   0.265   2.930   3.309  0.3771 -0.1863 -0.1929
 5256SOL    HW127227   0.348   2.960   3.273  0.6229 -1.0053 -0.2953
 5256SOL    HW227228   0.208   2.981   3.251  0.6811  2.0288  1.4646
 5257SOL     OW27229   2.225   1.418   7.838 -0.0535 -0.3250  0.3033
 5257SOL    HW127230   2.312   1.393   7.807 -0.2792  1.2526 -1.5965
 5257SOL    HW227231   2.176   1.372   7.771 -1.8959  1.1996  0.6114
 5258SOL     OW27232   1.619   3.842   6.315 -0.9664 -0.3280 -0.9924
 5258SOL    HW127233   1.543   3.855   6.373 -0.2215  0.7701 -0.2721
 5258SOL    HW227234   1.650   3.760   6.355 -0.4922  0.2749 -0.1284
 5259SOL     OW27235   2.439   3.565  15.149  0.3287  0.2219 -0.2259
 5259SOL    HW127236   2.380   3.524  15.212  1.2034 -0.7037  0.0028
 5259SOL    HW227237   2.522   3.517  15.152  0.1018 -0.2526 -1.4442
 5260SOL     OW27238   4.238   2.859  15.297 -0.6172 -0.0194 -0.3800
 5260SOL    HW127239   4.332   2.867  15.280 -0.6622  0.5959 -0.3406
 5260SOL    HW227240   4.241   2.778  15.348 -1.9431 -0.3722 -0.8517
 5261SOL     OW27241   3.892   4.371  12.714  0.2691  0.4640 -0.3190
 5261SOL    HW127242   3.895   4.397  12.806 -2.1304 -0.0828 -0.0943
 5261SOL    HW227243   3.939   4.288  12.706 -0.8911 -0.4360  2.4160
 5262SOL     OW27244   0.436   1.203   5.369 -0.7050 -0.7034 -0.1687
 5262SOL    HW127245   0.363   1.230   5.424 -0.8603 -1.5378  0.0356
 5262SOL    HW227246   0.409   1.119   5.332 -1.0853 -0.5238 -0.2984
 5263SOL     OW27247   3.778   4.383   8.086  0.1096  0.0004  0.4354
 5263SOL    HW127248   3.792   4.474   8.060  0.7815 -0.1686  0.2213
 5263SOL    HW227249   3.789   4.335   8.004  0.4750 -1.9800  1.6237
 5264SOL     OW27250   0.120   1.263   2.504 -0.0847 -0.1546 -0.4871
 5264SOL    HW127251   0.119   1.359   2.501  4.4213 -0.0340  1.1454
 5264SOL    HW227252   0.191   1.238   2.444  0.0622 -1.8009  0.3866
 5265SOL     OW27253   3.888   1.359   7.281  0.7116  0.1646 -0.2375
 5265SOL    HW127254   3.900   1.389   7.191 -1.1187  1.1476 -0.1602
 5265SOL    HW227255   3.924   1.434   7.329  1.1335 -0.6998  0.7781
 5266SOL     OW27256   0.645   2.273   8.456 -0.4611  0.3622  0.4338
 5266SOL    HW127257   0.671   2.208   8.391 -0.0410 -2.3347  3.2536
 5266SOL    HW227258   0.730   2.288   8.500 -0.6902  0.8147  0.7237
 5267SOL     OW27259   2.392   4.010  17.239 -0.2918 -0.2221  0.0198
 5267SOL    HW127260   2.367   3.953  17.166 -0.6732  0.1497 -0.1347
 5267SOL    HW227261   2.432   3.944  17.296  1.2342 -0.8612 -1.7652
 5268SOL     OW27262   3.844   4.237   2.996  0.2100 -0.2233 -0.0861
 5268SOL    HW127263   3.779   4.303   3.021 -0.2639 -0.8407  0.3054
 5268SOL    HW227264   3.786   4.170   2.960  0.9156 -0.8983  0.0382
 5269SOL     OW27265   1.646   3.728   5.849  0.6954  0.0733 -0.2193
 5269SOL    HW127266   1.586   3.678   5.904 -0.3655  1.2884 -0.2730
 5269SOL    HW227267   1.671   3.793   5.915 -0.6850 -1.2175  1.5616
 5270SOL     OW27268   1.002   2.635  16.856 -0.0468  0.1680 -0.5698
 5270SOL    HW127269   0.907   2.632  16.847 -0.1202 -2.7661  0.9731
 5270SOL    HW227270   1.025   2.719  16.818 -2.2202  0.0091 -2.1968
 5271SOL     OW27271   3.945   2.279   7.903 -1.1122  0.0973 -0.5213
 5271SOL    HW127272   3.952   2.368   7.938  1.9724 -0.7357  1.0316
 5271SOL    HW227273   3.850   2.280   7.891 -1.1020 -1.3660 -0.6438
 5272SOL     OW27274   4.516   4.301  16.479  0.0893 -0.2179  0.5590
 5272SOL    HW127275   4.476   4.319  16.395  0.1722  0.0397  0.5734
 5272SOL    HW227276   4.532   4.208  16.464  0.2337  0.3718 -2.8859
 5273SOL     OW27277   0.391   0.854  10.155  0.1883 -0.6282  0.0517
 5273SOL    HW127278   0.342   0.802  10.219  1.6390 -1.9850  0.0553
 5273SOL    HW227279   0.435   0.923  10.204  1.4968 -2.1137  0.9690
 5274SOL     OW27280   0.099   2.203   1.998 -0.0244 -0.3203 -0.4226
 5274SOL    HW127281   0.006   2.224   1.987  0.4930  0.7663 -2.5912
 5274SOL    HW227282   0.113   2.156   1.915  0.4269 -1.8889  0.5425
 5275SOL     OW27283   4.537   4.706   0.959 -0.5680  0.0577 -0.3155
 5275SOL    HW127284   4.592   4.657   1.021 -0.2643 -0.1290 -0.7292
 5275SOL    HW227285   4.493   0.045   1.015 -0.4009 -0.0322 -0.0828
 5276SOL     OW27286   0.557   1.847   8.184 -0.5097 -0.1845  0.0876
 5276SOL    HW127287   0.519   1.889   8.261  0.6552 -0.6233  0.8972
 5276SOL    HW227288   0.626   1.908   8.158 -0.1377 -1.1289 -1.1254
 5277SOL     OW27289   0.670   3.464  15.800 -0.1499  0.3735  0.1445
 5277SOL    HW127290   0.616   3.505  15.733  1.7844  2.2077 -0.2490
 5277SOL    HW227291   0.603   3.464  15.869  0.8140  0.2421  1.0771
 5278SOL     OW27292   2.129   2.549   6.296  0.0613 -0.3913 -0.5019
 5278SOL    HW127293   2.190   2.517   6.229 -0.7964 -0.8467 -1.0695
 5278SOL    HW227294   2.201   2.569   6.357  1.4865 -0.9389 -1.9886
 5279SOL     OW27295   0.133   3.535   5.615 -0.1887  0.4507  0.4532
 5279SOL    HW127296   0.152   3.443   5.630 -2.5928 -0.4409 -1.8775
 5279SOL    HW227297   0.057   3.525   5.557  1.1696 -0.5961 -1.1518
 5280SOL     OW27298   4.133   3.913   3.615  0.3540 -0.1872 -0.6285
 5280SOL    HW127299   4.042   3.893   3.638  0.8025  0.1844  1.5347
 5280SOL    HW227300   4.118   3.960   3.533 -0.4486 -1.2351 -1.0805
 5281SOL     OW27301   0.991   4.426   3.183  0.7726 -0.0934  0.0640
 5281SOL    HW127302   1.016   4.509   3.144 -1.9603  0.6602 -0.0893
 5281SOL    HW227303   1.049   4.365   3.137  0.4646 -0.7086  0.4841
 5282SOL     OW27304   3.700   3.970  13.713  0.0381  0.2104  0.1614
 5282SOL    HW127305   3.611   3.938  13.698  0.1441 -0.9486  2.0739
 5282SOL    HW227306   3.709   4.059  13.680  2.4894  0.4903  1.5785
 5283SOL     OW27307   1.253   3.487   8.051  0.0612 -0.2107 -0.0417
 5283SOL    HW127308   1.295   3.454   7.972  1.7601  1.6670  0.0803
 5283SOL    HW227309   1.254   3.582   8.035  0.0293 -0.4008 -1.1520
 5284SOL     OW27310   2.347   0.429  16.858  0.3635 -0.4054  0.1588
 5284SOL    HW127311   2.299   0.465  16.784  0.8362 -1.4070 -0.6376
 5284SOL    HW227312   2.283   0.375  16.905 -1.0125  1.7401  0.7466
 5285SOL     OW27313   0.621   2.670  13.771 -0.3657  0.3068  0.2015
 5285SOL    HW127314   0.541   2.653  13.821 -0.5160  1.7497  0.4526
 5285SOL    HW227315   0.599   2.732  13.702  0.2133  0.4489  0.1449
 5286SOL     OW27316   2.862   2.219   4.931  0.1670 -0.2437 -0.1461
 5286SOL    HW127317   2.770   2.220   4.955  1.0781 -0.5245  3.3828
 5286SOL    HW227318   2.908   2.241   5.012 -0.4595 -0.2683  0.2163
 5287SOL     OW27319   2.635   4.284   9.457 -0.2597  0.1979  0.1973
 5287SOL    HW127320   2.581   4.356   9.490 -2.0789 -0.9315 -0.3184
 5287SOL    HW227321   2.590   4.264   9.375 -1.3364  0.2142  0.7864
 5288SOL     OW27322   4.470   2.337  16.386  0.1351 -0.1927 -0.2422
 5288SOL    HW127323   4.455   2.283  16.309 -0.2712 -0.0762 -0.2460
 5288SOL    HW227324   4.546   2.291  16.422  0.6304  1.4366  0.8084
 5289SOL     OW27325   3.939   0.384   6.556 -0.4588  0.1749 -0.2201
 5289SOL    HW127326   3.994   0.332   6.615 -0.6066  2.6835  2.1306
 5289SOL    HW227327   3.972   0.352   6.472 -1.6763  1.4030 -1.1521
 5290SOL     OW27328   3.882   0.488   9.820 -0.4005 -0.2183 -0.3842
 5290SOL    HW127329   3.887   0.395   9.840 -4.4061 -0.5316 -0.8771
 5290SOL    HW227330   3.788   0.499   9.804 -0.6632  0.4237  1.5808
 5291SOL     OW27331   1.327   3.203  17.569 -0.0158 -0.1550  0.2563
 5291SOL    HW127332   1.397   3.246  17.617  0.3161 -0.6398  0.2157
 5291SOL    HW227333   1.274   3.278  17.543  1.3199  0.3218 -1.0803
 5292SOL     OW27334   1.490   3.384   2.620 -0.2000  0.1987 -0.2492
 5292SOL    HW127335   1.444   3.468   2.610 -0.5529  0.2958  1.9648
 5292SOL    HW227336   1.505   3.379   2.715  0.3307 -2.3038 -0.4630
 5293SOL     OW27337   4.354   2.963  14.027 -0.3859  0.2050  0.0315
 5293SOL    HW127338   4.369   3.043  14.077  0.3961 -1.0525  1.8222
 5293SOL    HW227339   4.354   2.998  13.938  0.1393 -0.1691 -0.1191
 5294SOL     OW27340   4.343   1.819   9.274  0.4755 -0.1649 -0.4107
 5294SOL    HW127341   4.409   1.785   9.334 -0.5929 -0.0238  0.8316
 5294SOL    HW227342   4.390   1.866   9.205 -0.8045  2.1719  0.3241
 5295SOL     OW27343   0.758   2.178  16.069  0.2972 -0.0985  0.2809
 5295SOL    HW127344   0.770   2.126  15.990  1.4472  1.7727 -0.7629
 5295SOL    HW227345   0.780   2.266  16.040 -1.3570  0.3050  0.2354
 5296SOL     OW27346   2.672   3.313   5.608 -0.2187  0.4212 -0.8171
 5296SOL    HW127347   2.708   3.232   5.645 -1.4678 -0.4456 -1.5265
 5296SOL    HW227348   2.752   3.340   5.564  1.2799 -1.6754  0.5811
 5297SOL     OW27349   4.478   0.771  16.501 -0.0851  0.1774  0.1106
 5297SOL    HW127350   4.513   0.682  16.504 -2.5937 -0.8305  0.1641
 5297SOL    HW227351   4.384   0.755  16.489  0.2134 -1.2291 -0.4253
 5298SOL     OW27352   0.752   3.793   3.865  0.7914  0.7856 -0.5478
 5298SOL    HW127353   0.663   3.801   3.900  0.2032 -0.3057 -1.8152
 5298SOL    HW227354   0.733   3.761   3.777  0.4296 -0.9423  0.1642
 5299SOL     OW27355   4.168   1.699  11.850  0.0564 -0.1712  0.1684
 5299SOL    HW127356   4.079   1.707  11.886  0.4383  2.2602  0.5960
 5299SOL    HW227357   4.219   1.767  11.894  1.2680 -0.2565 -1.1197
 5300SOL     OW27358   3.638   0.847  17.364 -0.3648 -0.3541 -0.4000
 5300SOL    HW127359   3.564   0.834  17.423 -0.9994  2.1192 -0.6362
 5300SOL    HW227360   3.650   0.942  17.363  1.5426 -0.6241 -1.6045
 5301SOL     OW27361   1.834   4.303  11.003 -0.1599  0.4350 -0.1075
 5301SOL    HW127362   1.769   4.247  11.046 -1.2754  1.7106 -0.1224
 5301SOL    HW227363   1.873   4.242  10.941 -0.7444  2.3954 -2.4002
 5302SOL     OW27364   1.450   0.306   0.820 -0.2403  0.0393  0.4735
 5302SOL    HW127365   1.384   0.363   0.781 -1.5176 -0.2871  2.1546
 5302SOL    HW227366   1.398   0.264   0.888 -1.0172 -0.9716 -0.7464
 5303SOL     OW27367   4.194   4.195  14.698 -0.3500 -0.7777 -0.2928
 5303SOL    HW127368   4.284   4.228  14.688 -0.3732 -0.8181 -0.6351
 5303SOL    HW227369   4.208   4.153  14.783 -0.1939 -2.6709 -1.2577
 5304SOL     OW27370   3.211   4.581   3.007  0.0524  0.6052 -0.4311
 5304SOL    HW127371   3.213   4.674   3.031 -0.3568  0.5922 -0.3518
 5304SOL    HW227372   3.217   4.585   2.912  0.6538  2.1061 -0.3287
 5305SOL     OW27373   2.043   2.511   2.558  0.8497 -0.1503  0.6109
 5305SOL    HW127374   2.037   2.602   2.529  1.7603 -0.4241 -0.4147
 5305SOL    HW227375   1.953   2.477   2.556  1.7767 -2.6695  1.9781
 5306SOL     OW27376   4.030   0.815  17.649  0.1582  0.0742  0.3475
 5306SOL    HW127377   3.935   0.813  17.642 -0.0067  2.2005  1.9929
 5306SOL    HW227378   4.051   0.871  17.574  1.9373 -1.6095 -0.4308
 5307SOL     OW27379   1.238   1.217   3.450 -0.0367 -0.1870  0.5255
 5307SOL    HW127380   1.153   1.174   3.454 -0.8219  1.2888 -0.7370
 5307SOL    HW227381   1.275   1.172   3.374 -0.6940 -0.2809  0.2591
 5308SOL     OW27382   4.179   3.179  13.102 -0.2209 -0.1593  0.3441
 5308SOL    HW127383   4.103   3.172  13.045 -0.8436  0.6173  1.0732
 5308SOL    HW227384   4.218   3.094  13.085 -1.6693 -0.8440  0.4819
 5309SOL     OW27385   2.064   1.222   5.174 -0.3472  0.0192  0.4407
 5309SOL    HW127386   2.091   1.219   5.266 -0.9234  0.9561  0.6473
 5309SOL    HW227387   1.971   1.198   5.166 -0.0869 -0.8460  0.0106
 5310SOL     OW27388   4.656   3.104   4.507  0.2238 -0.8274 -0.1684
 5310SOL    HW127389   4.707   3.061   4.576  1.9657  0.1218 -0.8370
 5310SOL    HW227390   4.616   3.173   4.559 -1.2285 -0.8084 -1.3127
 5311SOL     OW27391   3.388   2.626  13.159 -0.0307  0.6682  0.9422
 5311SOL    HW127392   3.462   2.630  13.219  0.2898 -1.9699  0.7290
 5311SOL    HW227393   3.319   2.641  13.223  0.5413  0.2210  1.6672
 5312SOL     OW27394   2.204   3.174  14.092 -0.6077  0.5092 -0.8241
 5312SOL    HW127395   2.269   3.106  14.110 -1.3469  0.5995  2.2073
 5312SOL    HW227396   2.197   3.179  13.997 -1.6390 -2.5687 -0.9113
 5313SOL     OW27397   4.205   4.389  10.606 -0.6647  0.1736  0.4174
 5313SOL    HW127398   4.137   4.404  10.540 -1.0506  2.0284  1.2231
 5313SOL    HW227399   4.257   4.469  10.596  1.4852 -1.3415 -0.3912
 5314SOL     OW27400   4.186   3.833   0.596 -0.3547 -0.5182  0.2862
 5314SOL    HW127401   4.250   3.871   0.537  0.1769  0.8165  1.7072
 5314SOL    HW227402   4.151   3.766   0.537 -1.2786 -0.0269  0.2648
 5315SOL     OW27403   3.384   4.709  17.045  0.5373 -0.4338 -0.3024
 5315SOL    HW127404   3.384   0.070  17.090 -0.3217 -0.8494  0.4899
 5315SOL    HW227405   3.473   4.679  17.061  0.5320 -0.5668 -0.5266
 5316SOL     OW27406   1.288   1.487   3.407  0.0061  0.2735  0.1018
 5316SOL    HW127407   1.270   1.394   3.398  3.4590 -0.1013 -3.1094
 5316SOL    HW227408   1.204   1.525   3.383  0.1121  0.0008 -0.7221
 5317SOL     OW27409   0.510   0.058   9.792 -0.4766 -0.2456  0.4106
 5317SOL    HW127410   0.604   0.075   9.791 -0.7605  1.3763  0.9183
 5317SOL    HW227411   0.486   0.098   9.708  0.5370 -1.3959 -0.4317
 5318SOL     OW27412   2.175   3.232  11.061 -0.0477 -0.2714 -0.2304
 5318SOL    HW127413   2.246   3.295  11.068  0.3112 -0.7329  0.2421
 5318SOL    HW227414   2.142   3.254  10.974 -1.5744 -0.5966  0.2663
 5319SOL     OW27415   4.685   0.847   1.410 -0.0095  0.1119 -0.1429
 5319SOL    HW127416   0.049   0.808   1.406 -0.2964 -0.4527 -0.8789
 5319SOL    HW227417   4.675   0.875   1.319  1.2949 -0.3005 -0.4265
 5320SOL     OW27418   3.467   4.580   8.017 -0.0374 -0.2640  0.1371
 5320SOL    HW127419   3.462   4.595   7.922  1.2160 -0.0895  0.0952
 5320SOL    HW227420   3.560   4.595   8.035  0.5176 -2.9366 -0.4207
 5321SOL     OW27421   4.452   0.883  10.016  0.0793 -0.2375  0.3128
 5321SOL    HW127422   4.442   0.930   9.934  0.0723  1.3821  1.2372
 5321SOL    HW227423   4.375   0.825  10.012 -0.5046  0.8640 -4.0191
 5322SOL     OW27424   0.599   2.847   5.808  0.8496 -0.2138  0.5668
 5322SOL    HW127425   0.686   2.825   5.776  0.1210 -3.9758  1.1785
 5322SOL    HW227426   0.623   2.892   5.889 -0.9001  2.5771 -0.4303
 5323SOL     OW27427   1.381   1.667   2.389 -0.5731 -0.3510  0.9043
 5323SOL    HW127428   1.335   1.587   2.412 -2.7900  0.9927  1.1614
 5323SOL    HW227429   1.312   1.732   2.404 -0.1184  0.3575 -0.0430
 5324SOL     OW27430   1.806   2.733   4.038 -0.1573  0.1142  0.1784
 5324SOL    HW127431   1.784   2.785   3.960  0.7381 -0.4230 -0.4446
 5324SOL    HW227432   1.814   2.646   3.998  0.4896 -0.3599  1.3503
 5325SOL     OW27433   3.542   0.612   4.949  0.2604  0.1919 -0.6787
 5325SOL    HW127434   3.623   0.585   4.906  0.8487 -0.6986  1.0169
 5325SOL    HW227435   3.564   0.628   5.041 -2.4846 -1.3728  0.2452
 5326SOL     OW27436   0.124   0.177   1.151  0.3193 -0.6122  0.2888
 5326SOL    HW127437   0.096   0.176   1.060 -0.2535  1.3714  0.4419
 5326SOL    HW227438   0.041   0.198   1.193  0.2835 -0.1547 -0.0156
 5327SOL     OW27439   4.719   1.145   9.979  0.0110 -0.0173  0.0648
 5327SOL    HW127440   4.676   1.200   9.913 -0.6258  0.8394  1.1945
 5327SOL    HW227441   0.057   1.209  10.016 -2.4911  2.7346 -0.4949
 5328SOL     OW27442   0.860   1.759   8.400 -0.1530 -0.3325 -0.1691
 5328SOL    HW127443   0.922   1.780   8.330 -0.7110  0.7893 -0.3280
 5328SOL    HW227444   0.869   1.664   8.393  0.2241 -0.3903  1.0494
 5329SOL     OW27445   4.554   0.893   6.046 -0.0160 -0.5626  0.3650
 5329SOL    HW127446   4.583   0.945   5.971  1.8515  0.6701  1.9309
 5329SOL    HW227447   4.630   0.837   6.061 -0.1719 -0.5079  1.3887
 5330SOL     OW27448   4.374   1.814   2.811 -0.0929  0.5176 -0.0838
 5330SOL    HW127449   4.318   1.849   2.742 -1.3471  2.2673  1.8134
 5330SOL    HW227450   4.345   1.858   2.891 -1.0452 -0.1410 -0.0571
 5331SOL     OW27451   3.134   3.782   3.411  0.0050  0.4675 -0.0938
 5331SOL    HW127452   3.191   3.754   3.482 -0.7812  0.3093  0.4738
 5331SOL    HW227453   3.160   3.718   3.344  3.5529  1.2818  0.5099
 5332SOL     OW27454   2.405   3.926   5.392  0.2299  1.0988 -0.1057
 5332SOL    HW127455   2.472   3.858   5.400  0.5577  1.3042 -1.0986
 5332SOL    HW227456   2.396   3.950   5.484  1.2076 -2.3195  0.9149
 5333SOL     OW27457   3.504   0.658  12.964 -0.3513  0.1750 -0.0903
 5333SOL    HW127458   3.458   0.694  13.040 -2.1928 -0.3410 -0.9652
 5333SOL    HW227459   3.474   0.567  12.967 -0.9075  0.4232  2.5845
 5334SOL     OW27460   3.620   2.313   5.052 -0.0781  0.2644 -0.6018
 5334SOL    HW127461   3.605   2.324   4.958 -2.4528 -0.7297 -0.3476
 5334SOL    HW227462   3.577   2.392   5.086  1.1975  0.6199  0.1637
 5335SOL     OW27463   0.034   4.271   1.274  0.0574  0.0103  0.2787
 5335SOL    HW127464   0.083   4.192   1.300 -1.9011 -1.5305 -0.6771
 5335SOL    HW227465   0.105   4.306   1.220 -0.5604  0.1378 -0.4375
 5336SOL     OW27466   2.230   4.393   2.352  0.0442  0.7637 -0.1496
 5336SOL    HW127467   2.143   4.365   2.324  0.4914 -1.7075  0.9276
 5336SOL    HW227468   2.284   4.324   2.313 -0.9549 -0.4477  0.5971
 5337SOL     OW27469   1.180   1.183   5.797 -0.7992  0.2329 -0.2270
 5337SOL    HW127470   1.155   1.094   5.821 -1.0306  0.5228  0.5909
 5337SOL    HW227471   1.173   1.182   5.701 -0.4421  1.1492 -0.2556
 5338SOL     OW27472   0.769   1.076  10.703  0.5677  0.4713 -0.1789
 5338SOL    HW127473   0.757   1.005  10.766 -2.2802  1.6505  0.5981
 5338SOL    HW227474   0.820   1.136  10.756  0.7055 -0.0129  0.2364
 5339SOL     OW27475   4.624   0.301   3.705 -0.1063  0.2888  0.7295
 5339SOL    HW127476   4.596   0.380   3.659 -1.8596 -1.0503 -0.4931
 5339SOL    HW227477   4.711   0.324   3.737  0.2783 -0.1103 -0.0177
 5340SOL     OW27478   3.630   1.662   3.219 -0.3616 -0.3197 -0.4329
 5340SOL    HW127479   3.571   1.639   3.291 -1.0797  0.8694 -0.6433
 5340SOL    HW227480   3.624   1.592   3.153 -0.4641 -1.0898  0.3899
 5341SOL     OW27481   2.107   1.201   9.146  0.5102 -0.0769  0.6174
 5341SOL    HW127482   2.196   1.237   9.145  1.3417 -2.2347 -1.1313
 5341SOL    HW227483   2.061   1.271   9.099  1.2268  0.4197  0.6517
 5342SOL     OW27484   1.435   0.904  14.107  0.4527 -0.2861 -0.1008
 5342SOL    HW127485   1.467   0.923  14.018 -1.5990  0.5745 -0.6554
 5342SOL    HW227486   1.520   0.890  14.148  0.3484  0.7140  0.4487
 5343SOL     OW27487   2.841   4.167   2.189 -0.0414  0.0005  0.4380
 5343SOL    HW127488   2.910   4.187   2.252  1.4287 -0.4601 -1.0012
 5343SOL    HW227489   2.889   4.190   2.109 -2.5200  0.0424 -1.0199
 5344SOL     OW27490   4.111   2.049   7.948 -0.2756  0.3682 -0.3684
 5344SOL    HW127491   4.156   2.128   7.917 -0.3194  0.2467 -0.7421
 5344SOL    HW227492   4.020   2.071   7.927 -0.5323 -2.2284 -1.9120
 5345SOL     OW27493   1.232   0.967   6.966  0.1741 -0.3482 -0.7830
 5345SOL    HW127494   1.173   0.920   7.025  0.2330  0.2908 -0.2077
 5345SOL    HW227495   1.255   1.043   7.020 -1.2972 -2.5319  2.9273
 5346SOL     OW27496   0.385   4.569   5.149 -0.5731 -0.1987  0.0514
 5346SOL    HW127497   0.291   4.580   5.154 -0.6711 -1.0757  0.1834
 5346SOL    HW227498   0.415   4.641   5.204 -1.9228  0.0015  0.5181
 5347SOL     OW27499   2.342   3.582   1.627  0.4015  0.4273 -0.3011
 5347SOL    HW127500   2.412   3.645   1.644 -0.7391  1.8787 -1.0469
 5347SOL    HW227501   2.286   3.636   1.572  0.6978  1.1426  0.0955
 5348SOL     OW27502   3.201   1.578   2.505 -0.5234  0.2637  0.0808
 5348SOL    HW127503   3.288   1.618   2.498 -0.2266 -0.6762 -1.4161
 5348SOL    HW227504   3.218   1.491   2.470 -0.8764 -0.3113  1.3217
 5349SOL     OW27505   3.873   1.593   6.212  0.4946 -0.1810 -0.2606
 5349SOL    HW127506   3.967   1.577   6.202  0.3815 -0.9461 -0.1308
 5349SOL    HW227507   3.834   1.506   6.214  0.4287 -0.2254 -2.5288
 5350SOL     OW27508   2.532   0.906  15.608 -0.0385 -0.4191 -0.3905
 5350SOL    HW127509   2.597   0.864  15.551  1.2599  1.1590 -0.0678
 5350SOL    HW227510   2.564   0.993  15.631 -0.6618 -0.1988 -0.3439
 5351SOL     OW27511   2.407   1.732   5.964 -0.4029 -0.3607 -0.6480
 5351SOL    HW127512   2.327   1.699   6.004 -1.5126  0.7036 -1.9471
 5351SOL    HW227513   2.469   1.664   5.989  1.4621  1.6689  0.1853
 5352SOL     OW27514   3.737   3.765   1.623 -0.1107 -0.0381 -0.5791
 5352SOL    HW127515   3.764   3.804   1.541  0.9380  1.2596  0.3861
 5352SOL    HW227516   3.642   3.780   1.628  0.7003  4.4241  1.1218
 5353SOL     OW27517   0.040   0.892   9.883 -0.0972 -0.2205  0.2594
 5353SOL    HW127518   0.121   0.919   9.839 -2.0021  1.6018 -2.1166
 5353SOL    HW227519   0.016   0.975   9.925 -0.6877 -0.8340  1.1378
 5354SOL     OW27520   4.161   4.281   9.711  0.2400  0.1390 -0.0909
 5354SOL    HW127521   4.197   4.355   9.760 -1.2488  0.8576 -0.0924
 5354SOL    HW227522   4.230   4.268   9.646 -0.0892 -1.0534 -0.2033
 5355SOL     OW27523   0.960   2.767   2.353  0.4217 -0.0164 -0.4934
 5355SOL    HW127524   0.976   2.673   2.363  1.7653  0.1498 -1.0895
 5355SOL    HW227525   0.886   2.763   2.293  1.1113 -1.0228 -1.2551
 5356SOL     OW27526   1.537   3.240   4.574  0.5522  0.1294  0.4130
 5356SOL    HW127527   1.526   3.183   4.497  2.5593  1.5189 -0.9031
 5356SOL    HW227528   1.632   3.241   4.586  0.4549  0.0619  1.1437
 5357SOL     OW27529   2.598   3.316  15.410  0.2919 -0.5110  0.2756
 5357SOL    HW127530   2.584   3.347  15.321 -2.0244 -2.4824 -0.0351
 5357SOL    HW227531   2.693   3.304  15.408  0.6947  2.4380  1.6428
 5358SOL     OW27532   4.654   3.774  13.705  0.3308  0.1384  0.1543
 5358SOL    HW127533   4.656   3.767  13.610  2.5647  0.3927  0.1841
 5358SOL    HW227534   4.674   3.684  13.730 -0.6682  0.2230  1.2750
 5359SOL     OW27535   1.018   1.361   3.921 -0.1351 -0.0907  0.7058
 5359SOL    HW127536   0.942   1.414   3.899  0.9783  1.7990  1.4189
 5359SOL    HW227537   1.059   1.418   3.985  1.0340  2.1569 -2.0653
 5360SOL     OW27538   0.497   3.024   1.528 -0.6063  0.0473  0.2273
 5360SOL    HW127539   0.510   3.055   1.439 -0.9186  2.8707  1.1861
 5360SOL    HW227540   0.584   3.048   1.560 -0.9031  1.5482 -0.1087
 5361SOL     OW27541   3.931   0.153   6.082 -0.0793  0.0887  0.2548
 5361SOL    HW127542   3.911   0.229   6.138 -0.3566 -0.8277  1.3898
 5361SOL    HW227543   4.010   0.190   6.043 -0.5095  0.9386  0.1641
 5362SOL     OW27544   1.813   2.216  15.588  0.1901  0.4855 -0.2369
 5362SOL    HW127545   1.743   2.218  15.523  0.5338  2.1211 -0.5586
 5362SOL    HW227546   1.759   2.250  15.660 -0.5458 -1.1191 -0.0196
 5363SOL     OW27547   1.270   3.328  13.387 -0.0970  0.4529  0.3090
 5363SOL    HW127548   1.212   3.396  13.354 -1.8087 -1.2700 -0.1879
 5363SOL    HW227549   1.351   3.378  13.376 -1.2472  2.4218  0.7811
 5364SOL     OW27550   2.615   0.680  16.292 -0.1047  0.1828 -0.4396
 5364SOL    HW127551   2.531   0.636  16.274 -0.8176  1.1470  0.5622
 5364SOL    HW227552   2.659   0.681  16.207 -0.0807  1.7416 -0.4033
 5365SOL     OW27553   4.563   1.859   5.290  0.4342  0.5067  0.4071
 5365SOL    HW127554   4.649   1.883   5.255 -0.1700 -0.1489 -1.4805
 5365SOL    HW227555   4.556   1.927   5.357  1.3548  1.1228 -0.1210
 5366SOL     OW27556   4.320   0.930   2.683  0.1924 -0.2455 -0.4469
 5366SOL    HW127557   4.415   0.940   2.685  0.1040  0.9611 -1.7809
 5366SOL    HW227558   4.305   0.929   2.588 -1.3957  1.3594 -0.2095
 5367SOL     OW27559   1.962   1.340  16.197  0.1420  0.6433 -0.2918
 5367SOL    HW127560   1.866   1.343  16.194  0.1218  3.3206  2.6185
 5367SOL    HW227561   1.983   1.274  16.263 -0.4079  0.0678 -0.7059
 5368SOL     OW27562   2.291   2.628   6.555 -0.2317 -0.3458  0.3380
 5368SOL    HW127563   2.355   2.678   6.606 -0.3238  0.6594 -0.5253
 5368SOL    HW227564   2.340   2.635   6.473  0.8743  2.2294  1.1998
 5369SOL     OW27565   2.669   3.286   3.457 -0.0244 -0.0195 -0.3903
 5369SOL    HW127566   2.629   3.245   3.381 -0.5258 -1.5845  0.7310
 5369SOL    HW227567   2.756   3.309   3.425 -0.6162  0.1922 -1.8045
 5370SOL     OW27568   4.257   3.045   8.520  0.5325  0.9288  0.2035
 5370SOL    HW127569   4.189   3.062   8.455  0.6324 -0.5732 -0.2847
 5370SOL    HW227570   4.217   2.982   8.581  0.2680  1.4549  0.5723
 5371SOL     OW27571   0.936   1.334   1.780  1.1469 -0.2180  0.3114
 5371SOL    HW127572   0.926   1.267   1.848  0.3417 -1.9230 -1.5024
 5371SOL    HW227573   0.891   1.289   1.709 -0.9761  3.2083 -0.5229
 5372SOL     OW27574   2.677   3.829   2.676 -0.6722  0.1511  0.7238
 5372SOL    HW127575   2.746   3.831   2.743  2.3181 -1.7799 -2.2727
 5372SOL    HW227576   2.694   3.917   2.643 -0.1107  0.2143  1.1783
 5373SOL     OW27577   3.643   1.396   4.306  0.3014  0.3579 -0.4445
 5373SOL    HW127578   3.712   1.462   4.307 -0.8044  1.5664 -3.8332
 5373SOL    HW227579   3.637   1.377   4.400  0.1254 -0.2804 -0.5885
 5374SOL     OW27580   0.897   0.173   7.087 -0.1595 -0.4679 -0.1335
 5374SOL    HW127581   0.912   0.166   7.181 -3.1707 -0.4843  0.3503
 5374SOL    HW227582   0.805   0.169   7.060  0.4139 -1.3756 -2.0110
 5375SOL     OW27583   1.876   3.168  15.356  0.2003 -0.2017  0.0459
 5375SOL    HW127584   1.869   3.077  15.386 -1.8558 -0.5340 -1.4271
 5375SOL    HW227585   1.896   3.219  15.435  2.8564 -2.6862  0.9615
 5376SOL     OW27586   3.674   1.479   7.793  0.5323 -0.1094 -0.0360
 5376SOL    HW127587   3.759   1.488   7.836  0.0555  3.0640  0.2796
 5376SOL    HW227588   3.704   1.489   7.702 -0.1374 -0.3873 -0.2831
 5377SOL     OW27589   2.310   3.544   2.728  0.3000 -0.3357  0.3104
 5377SOL    HW127590   2.286   3.594   2.650 -0.5322 -2.0812 -0.5350
 5377SOL    HW227591   2.240   3.559   2.791  0.2624 -1.8395  0.6311
 5378SOL     OW27592   1.921   1.149   0.770 -0.1189  0.4861 -0.4145
 5378SOL    HW127593   1.995   1.200   0.803 -0.2260 -1.0597  2.2610
 5378SOL    HW227594   1.945   1.128   0.680 -2.3883  2.1329 -1.3890
 5379SOL     OW27595   1.953   4.427   7.784  0.5225 -0.1549  0.0353
 5379SOL    HW127596   2.041   4.440   7.819  1.0750  0.0435 -1.4150
 5379SOL    HW227597   1.956   4.474   7.700 -2.7642 -0.9042 -0.5076
 5380SOL     OW27598   0.554   1.524  17.164 -0.6386  0.1684 -0.2956
 5380SOL    HW127599   0.604   1.555  17.240  2.5991  0.6761 -2.6132
 5380SOL    HW227600   0.612   1.539  17.089 -3.1856  0.5699 -2.1789
 5381SOL     OW27601   0.224   3.942   9.142 -0.0302  0.2883  0.2271
 5381SOL    HW127602   0.156   4.009   9.137 -0.6223 -0.2755  0.7172
 5381SOL    HW227603   0.275   3.960   9.221  1.0618 -1.2630 -0.1118
 5382SOL     OW27604   1.827   1.926   5.034  0.6027  0.0429 -0.0065
 5382SOL    HW127605   1.890   1.950   5.101 -0.0621 -2.7841  1.6190
 5382SOL    HW227606   1.869   1.953   4.952  2.7300  1.2063  1.4737
 5383SOL     OW27607   4.203   1.895   1.637  0.0772  0.6748 -0.0646
 5383SOL    HW127608   4.296   1.877   1.626  0.3148  0.2398  2.7328
 5383SOL    HW227609   4.153   1.864   1.561 -1.2202 -2.4668  2.0964
 5384SOL     OW27610   4.723   1.383  11.410 -0.1357  0.1021  0.2231
 5384SOL    HW127611   4.684   1.313  11.463  1.2678 -0.5325  0.4188
 5384SOL    HW227612   0.014   1.331  11.331 -1.0670  0.1999 -0.0160
 5385SOL     OW27613   3.410   1.747   2.859  0.1889  0.6374  0.2735
 5385SOL    HW127614   3.413   1.841   2.879  0.3880  0.6835  0.0198
 5385SOL    HW227615   3.501   1.726   2.879  0.3712  2.1042  1.0102
 5386SOL     OW27616   3.447   1.508   5.565 -0.0736 -0.6575 -0.9081
 5386SOL    HW127617   3.433   1.505   5.659  2.7667  1.0794 -0.4274
 5386SOL    HW227618   3.477   1.418   5.552  1.3988 -0.3536  0.4183
 5387SOL     OW27619   1.966   2.131  12.277 -0.0388 -0.4822 -0.1288
 5387SOL    HW127620   1.877   2.099  12.265 -0.1574 -0.4290  0.5976
 5387SOL    HW227621   1.968   2.199  12.210 -0.4121  0.5586  0.9310
 5388SOL     OW27622   2.459   4.471  17.241 -0.1493 -0.1312 -0.0872
 5388SOL    HW127623   2.427   4.450  17.328 -2.3184  0.1300 -0.8200
 5388SOL    HW227624   2.398   4.541  17.217 -0.3020  0.0790  0.9351
 5389SOL     OW27625   4.624   0.924   0.305  0.0272 -0.2596  0.5196
 5389SOL    HW127626   4.672   0.947   0.385 -1.2749  1.9807  0.6528
 5389SOL    HW227627   4.553   0.868   0.336  0.4217  0.1195  2.1326
 5390SOL     OW27628   1.978   1.465   8.329  0.2526 -0.0395 -0.5548
 5390SOL    HW127629   2.004   1.458   8.237 -0.9508  2.5208 -1.1178
 5390SOL    HW227630   1.995   1.375   8.356  0.1111 -0.3564 -1.5201
 5391SOL     OW27631   4.683   0.978   6.397  0.5414 -0.5302  0.4904
 5391SOL    HW127632   0.035   1.005   6.345  1.1102 -1.6284  0.7559
 5391SOL    HW227633   4.722   0.964   6.484  3.3067 -1.8306 -0.9564
 5392SOL     OW27634   1.594   4.457   6.470  0.4696  0.2416 -0.2483
 5392SOL    HW127635   1.610   4.538   6.518 -1.0514  0.9784 -0.9697
 5392SOL    HW227636   1.654   4.487   6.402  1.5838 -2.4577 -0.4420
 5393SOL     OW27637   4.123   4.670   1.591  0.1484  0.2507  0.2543
 5393SOL    HW127638   4.038   4.647   1.556  0.3120  1.1044 -0.7011
 5393SOL    HW227639   4.128   0.040   1.570 -1.5033  0.3024  0.1378
 5394SOL     OW27640   1.005   1.179  16.141  1.0789 -0.2623  0.2546
 5394SOL    HW127641   1.050   1.096  16.152  1.9631  0.3969  1.6586
 5394SOL    HW227642   0.952   1.154  16.066  0.7107  0.2048  0.3548
 5395SOL     OW27643   2.544   2.964   4.589  1.0319 -0.4830 -0.2731
 5395SOL    HW127644   2.449   2.965   4.604  1.5779 -0.4720  3.0417
 5395SOL    HW227645   2.580   2.985   4.675 -0.1493  2.0448 -0.3923
 5396SOL     OW27646   0.145   0.363   6.539  0.0989 -0.0714 -0.0151
 5396SOL    HW127647   0.074   0.424   6.559  0.3949  0.9369 -2.1094
 5396SOL    HW227648   0.182   0.414   6.468 -0.6114 -0.1226 -0.4292
 5397SOL     OW27649   2.756   3.652   5.009  0.0788 -0.7007 -0.2851
 5397SOL    HW127650   2.713   3.566   5.013  1.0505 -1.3247 -3.3807
 5397SOL    HW227651   2.760   3.673   5.102 -0.6918  0.5873 -0.5493
 5398SOL     OW27652   3.706   1.528   2.848  0.1706 -0.4875  0.2550
 5398SOL    HW127653   3.686   1.546   2.756 -2.7260  0.0397  0.9900
 5398SOL    HW227654   3.705   1.618   2.878 -1.8240 -0.7586  0.9949
 5399SOL     OW27655   1.260   0.705  16.944  0.6118 -0.9532  0.6428
 5399SOL    HW127656   1.320   0.735  16.876  3.2932  1.6213  4.1300
 5399SOL    HW227657   1.186   0.671  16.894  0.4831  1.4923 -0.8271
 5400SOL     OW27658   2.221   0.122   1.535 -0.1458 -0.0490 -0.7850
 5400SOL    HW127659   2.131   0.150   1.516 -0.0908  1.1518  0.7239
 5400SOL    HW227660   2.267   0.200   1.564  1.7114 -1.4711  0.0569
 5401SOL     OW27661   3.360   2.588  15.187 -0.0707 -0.0620 -0.4574
 5401SOL    HW127662   3.339   2.497  15.205 -1.0989  0.5371  1.3001
 5401SOL    HW227663   3.293   2.603  15.120  0.0613  0.9169 -0.3667
 5402SOL     OW27664   1.072   3.631   6.864  0.3803 -0.2138 -0.3038
 5402SOL    HW127665   1.164   3.647   6.843  0.9774 -1.3962  1.4088
 5402SOL    HW227666   1.062   3.540   6.838  0.7325 -0.5250  0.6554
 5403SOL     OW27667   2.234   1.421   7.329 -0.3035  0.5114  0.5186
 5403SOL    HW127668   2.289   1.405   7.406 -1.3127 -1.2365  0.8578
 5403SOL    HW227669   2.172   1.349   7.334 -0.7034  0.8164 -0.0879
 5404SOL     OW27670   1.373   4.209  17.327 -0.5117  0.6435 -0.2951
 5404SOL    HW127671   1.456   4.170  17.298 -1.2181  0.1564 -1.6879
 5404SOL    HW227672   1.407   4.255  17.404 -1.6436  0.0461  0.5673
 5405SOL     OW27673   2.989   0.867   2.865 -0.6560  0.1166 -0.3992
 5405SOL    HW127674   2.941   0.814   2.801  1.2444  0.8734 -2.4235
 5405SOL    HW227675   2.916   0.917   2.902 -0.1192 -0.7191  1.8245
 5406SOL     OW27676   3.308   3.690  15.817 -0.2157  0.2452  0.3572
 5406SOL    HW127677   3.334   3.601  15.841 -0.8179 -0.1442 -0.4100
 5406SOL    HW227678   3.212   3.695  15.809  0.0598  2.2860 -1.6943
 5407SOL     OW27679   4.622   4.469  11.363 -0.3205  0.5348 -0.3073
 5407SOL    HW127680   4.672   4.450  11.284 -2.1280 -2.3636 -0.7699
 5407SOL    HW227681   4.691   4.478  11.428 -0.2927  0.3541 -0.3123
 5408SOL     OW27682   3.905   4.157  12.462  0.3822  0.9534  0.2316
 5408SOL    HW127683   3.919   4.075  12.416  0.7180  0.9417  0.3549
 5408SOL    HW227684   3.939   4.136  12.549  0.1455  0.1374  0.1227
 5409SOL     OW27685   1.600   0.515   2.641  0.1788  0.2445  0.1439
 5409SOL    HW127686   1.676   0.462   2.665 -0.8195 -0.6070  1.3437
 5409SOL    HW227687   1.654   0.590   2.614 -0.7670  1.3690  1.3754
 5410SOL     OW27688   3.762   1.893   8.621 -0.4591 -0.1369 -0.3767
 5410SOL    HW127689   3.852   1.880   8.649  0.4928  0.8234 -3.0505
 5410SOL    HW227690   3.760   1.985   8.648 -0.6884  0.0945 -1.1920
 5411SOL     OW27691   1.937   1.168   2.697 -0.0493  0.5619 -0.0818
 5411SOL    HW127692   1.919   1.205   2.783  1.7806  1.2568  0.0070
 5411SOL    HW227693   2.023   1.134   2.725 -0.1312  0.5026  0.0969
 5412SOL     OW27694   3.996   0.334   4.182  0.3646 -0.1466  0.1337
 5412SOL    HW127695   3.934   0.266   4.153  0.0883  0.0331  0.3037
 5412SOL    HW227696   4.032   0.292   4.260  1.7273  0.4318 -0.1836
 5413SOL     OW27697   0.399   2.281   4.485  0.2634 -0.4941 -0.8987
 5413SOL    HW127698   0.469   2.235   4.439  0.4576 -0.4720 -0.6235
 5413SOL    HW227699   0.410   2.243   4.572 -0.3275  1.8463  0.1920
 5414SOL     OW27700   0.333   2.605   9.114 -1.0885  0.5028 -0.5086
 5414SOL    HW127701   0.301   2.601   9.204 -1.2102  2.4611 -0.4548
 5414SOL    HW227702   0.357   2.698   9.110  0.5262  0.1027 -0.0209
 5415SOL     OW27703   4.467   3.150  11.220  0.3242 -0.4877  0.1938
 5415SOL    HW127704   4.405   3.149  11.292 -0.7584 -1.0442 -0.7513
 5415SOL    HW227705   4.474   3.056  11.203  0.1796 -0.3727 -0.5236
 5416SOL     OW27706   3.936   2.715  10.611 -0.7392 -0.2843  0.5432
 5416SOL    HW127707   3.968   2.702  10.700 -0.5966 -0.6796  0.4331
 5416SOL    HW227708   4.014   2.745  10.566 -1.5622  2.4304  0.9095
 5417SOL     OW27709   2.428   2.284  13.937  0.0776  0.4473 -0.7869
 5417SOL    HW127710   2.466   2.371  13.953 -1.2939  0.7432  0.8325
 5417SOL    HW227711   2.341   2.315  13.911  0.2118  1.8192  0.3435
 5418SOL     OW27712   4.111   2.212   0.503  0.2046 -0.5008  0.1440
 5418SOL    HW127713   4.156   2.288   0.538 -0.8233 -0.7196  1.9054
 5418SOL    HW227714   4.170   2.178   0.435 -0.6340  1.9506 -1.8046
 5419SOL     OW27715   1.371   0.389   7.685  0.5473  0.2334  0.0018
 5419SOL    HW127716   1.349   0.397   7.778 -0.6579 -0.5003 -0.2037
 5419SOL    HW227717   1.430   0.462   7.671  1.1470 -0.4234 -0.8972
 5420SOL     OW27718   2.917   0.685   3.991  0.0368  0.0847 -0.1615
 5420SOL    HW127719   2.994   0.726   3.952  1.2029  1.4216  3.4774
 5420SOL    HW227720   2.880   0.764   4.031 -1.5711 -0.1708 -1.1858
 5421SOL     OW27721   3.107   0.855  14.316  0.4240  0.7004 -0.4176
 5421SOL    HW127722   3.087   0.929  14.373  2.1601 -0.6293  1.8942
 5421SOL    HW227723   3.024   0.840  14.271  0.0831 -0.1493  0.5052
 5422SOL     OW27724   0.063   3.819   8.480 -0.4999 -0.7271 -0.2373
 5422SOL    HW127725   0.079   3.888   8.545  1.7435 -2.0182  0.5455
 5422SOL    HW227726   0.156   3.797   8.475 -0.0700  1.3142 -1.1681
 5423SOL     OW27727   4.290   3.490   0.810  0.2270 -0.4800  0.2474
 5423SOL    HW127728   4.269   3.404   0.846  0.0869  0.6471  2.8976
 5423SOL    HW227729   4.379   3.504   0.844  0.0787 -0.9155  0.8138
 5424SOL     OW27730   2.968   3.388   9.152 -0.5081 -0.1622 -0.0663
 5424SOL    HW127731   2.956   3.331   9.077  2.3536 -0.7772 -0.0516
 5424SOL    HW227732   2.885   3.370   9.197  1.0151 -0.4173  2.6635
 5425SOL     OW27733   3.664   4.052  16.164  0.5079  0.0082 -0.2252
 5425SOL    HW127734   3.704   4.018  16.084  2.1863  1.4098  0.0167
 5425SOL    HW227735   3.587   3.998  16.182 -0.5206  1.6190  0.1294
 5426SOL     OW27736   0.953   3.420  13.029 -0.5097 -0.1393  0.8683
 5426SOL    HW127737   0.895   3.444  12.956  0.2640 -0.4364  0.1601
 5426SOL    HW227738   0.987   3.336  13.001  0.8711  1.0147 -0.9056
 5427SOL     OW27739   0.133   0.599   1.574  0.0257 -0.7141 -0.5581
 5427SOL    HW127740   0.218   0.633   1.599  0.0528 -1.2446  0.0588
 5427SOL    HW227741   0.157   0.585   1.482 -0.5581  2.1409 -1.1302
 5428SOL     OW27742   1.133   3.616  10.686 -0.3620  0.4417  0.2988
 5428SOL    HW127743   1.106   3.604  10.777 -2.4687  1.3194 -0.2215
 5428SOL    HW227744   1.137   3.523  10.665  0.5428  0.9442 -1.8195
 5429SOL     OW27745   1.673   0.329   1.739  0.1133  0.0622  0.4710
 5429SOL    HW127746   1.611   0.397   1.764 -0.0207  0.5476 -1.2398
 5429SOL    HW227747   1.699   0.299   1.827  2.7069  1.7895  0.2879
 5430SOL     OW27748   4.578   2.481   1.968 -0.4590  0.3229  0.0701
 5430SOL    HW127749   4.574   2.390   1.939 -1.0962  0.6834 -0.9768
 5430SOL    HW227750   4.548   2.475   2.058 -0.6953  0.2205 -0.0150
 5431SOL     OW27751   3.887   0.331  13.241 -0.4726  0.3468  0.4760
 5431SOL    HW127752   3.879   0.243  13.204  1.0357  0.4627 -0.1039
 5431SOL    HW227753   3.981   0.334  13.226 -0.8385 -0.7132 -2.0909
 5432SOL     OW27754   0.377   1.431   3.068 -0.5100  0.0772 -0.0175
 5432SOL    HW127755   0.443   1.417   3.001  1.2842  1.5375  1.4241
 5432SOL    HW227756   0.355   1.523   3.054 -0.7086  0.1065  0.4713
 5433SOL     OW27757   2.911   2.776   6.015  0.1907 -0.2101 -0.2326
 5433SOL    HW127758   2.968   2.780   6.092  0.2681  0.0302 -0.3033
 5433SOL    HW227759   2.912   2.864   5.978 -1.9344  0.9180  2.4715
 5434SOL     OW27760   1.475   4.212  11.378  0.3921  0.3254 -0.1469
 5434SOL    HW127761   1.447   4.213  11.287 -1.8605 -1.1577  0.5281
 5434SOL    HW227762   1.525   4.293  11.389  0.8672  0.0416 -0.2532
 5435SOL     OW27763   3.709   2.252  10.865 -0.1134  0.0250  0.1192
 5435SOL    HW127764   3.752   2.206  10.793  0.5526 -1.1371  1.2794
 5435SOL    HW227765   3.765   2.224  10.937  0.9385  1.1018 -0.2866
 5436SOL     OW27766   1.972   3.772  14.839  0.7052 -0.3014  0.1987
 5436SOL    HW127767   1.907   3.717  14.796  0.2409  0.2526  0.1927
 5436SOL    HW227768   1.951   3.864  14.820 -0.7068 -0.1344  2.6307
 5437SOL     OW27769   4.329   0.982  13.550  0.2287 -0.2643  0.4373
 5437SOL    HW127770   4.276   1.048  13.595  0.8485  1.2746 -1.0787
 5437SOL    HW227771   4.404   1.032  13.518  0.4182 -0.1080  1.1163
 5438SOL     OW27772   0.068   2.063   2.225 -0.4366  0.0648 -0.3207
 5438SOL    HW127773   0.101   2.107   2.146  5.3235 -1.3301  1.3128
 5438SOL    HW227774   0.067   1.969   2.207 -2.1743 -0.0610  0.5189
 5439SOL     OW27775   2.639   1.813  16.769 -0.6854  0.0308 -0.2093
 5439SOL    HW127776   2.640   1.800  16.864  0.2612  1.9817  0.0303
 5439SOL    HW227777   2.686   1.739  16.731  1.0784  0.4106  1.2617
 5440SOL     OW27778   3.638   4.315   3.931 -0.8711 -0.6441  0.1396
 5440SOL    HW127779   3.586   4.291   4.008 -0.1890  0.0939  0.8337
 5440SOL    HW227780   3.724   4.333   3.970 -0.5075  0.1953 -1.0688
 5441SOL     OW27781   1.861   4.069   6.942 -0.1037  0.2780  0.1117
 5441SOL    HW127782   1.941   4.120   6.952  0.4777 -0.2319 -1.9374
 5441SOL    HW227783   1.865   4.039   7.033  0.8980 -1.3520 -0.4582
 5442SOL     OW27784   2.809   3.580   2.233  0.2720  0.0062  0.4272
 5442SOL    HW127785   2.829   3.487   2.237  0.5500  0.1582  2.5447
 5442SOL    HW227786   2.831   3.597   2.324 -0.4483  2.3602  0.1534
 5443SOL     OW27787   0.523   1.890   9.637  0.0103  0.3810 -0.0590
 5443SOL    HW127788   0.606   1.846   9.619 -2.0643 -4.2594  1.6667
 5443SOL    HW227789   0.550   1.972   9.679  0.0103 -0.3703  1.3807
 5444SOL     OW27790   0.860   2.724   8.186 -0.1781  0.2377  0.3777
 5444SOL    HW127791   0.811   2.774   8.251 -0.6194 -0.0047  0.2302
 5444SOL    HW227792   0.865   2.638   8.228  2.0776 -0.1273 -0.6355
 5445SOL     OW27793   1.368   4.172   0.882 -0.2225  0.5600 -0.7495
 5445SOL    HW127794   1.289   4.130   0.917  0.9881  0.5384  1.9579
 5445SOL    HW227795   1.370   4.252   0.935 -0.8161 -0.3446  0.6615
 5446SOL     OW27796   2.149   1.653  15.254 -0.6023  0.4046  0.3445
 5446SOL    HW127797   2.222   1.715  15.252 -0.3780  0.0575 -3.0714
 5446SOL    HW227798   2.121   1.634  15.164  2.7908 -3.7789  0.1831
 5447SOL     OW27799   2.449   2.904   3.075 -0.0514  0.4931 -0.1488
 5447SOL    HW127800   2.538   2.867   3.072 -0.4249 -0.3984 -0.0061
 5447SOL    HW227801   2.422   2.884   2.986  0.0459 -4.9505  1.0447
 5448SOL     OW27802   2.632   4.296   2.111 -0.5028 -0.0974  0.3422
 5448SOL    HW127803   2.713   4.257   2.143  0.6010  0.8877 -1.3046
 5448SOL    HW227804   2.592   4.221   2.067  0.6851 -1.2010  1.1273
 5449SOL     OW27805   3.988   3.733   7.649 -0.1273 -0.3249 -0.4315
 5449SOL    HW127806   3.990   3.677   7.571  2.3082 -0.0501 -0.5729
 5449SOL    HW227807   3.900   3.712   7.681 -0.1758 -0.3567 -0.5857
 5450SOL     OW27808   1.325   1.057  16.291 -0.0729  0.7376  0.6948
 5450SOL    HW127809   1.376   1.112  16.231  0.4111 -0.7933 -0.3070
 5450SOL    HW227810   1.238   1.063  16.253  0.2539  1.2584  0.0264
 5451SOL     OW27811   0.431   2.574   6.651 -0.4446 -0.6203  0.1346
 5451SOL    HW127812   0.413   2.523   6.572  1.2656 -2.9234  1.2341
 5451SOL    HW227813   0.387   2.657   6.633  1.5459  0.8430  1.9428
 5452SOL     OW27814   1.455   2.564   7.934 -0.1374 -0.6208 -0.4023
 5452SOL    HW127815   1.450   2.499   8.004 -0.1654 -0.8615 -0.6271
 5452SOL    HW227816   1.389   2.534   7.872  0.5705  0.7027 -1.7914
 5453SOL     OW27817   0.798   1.321   6.454 -0.3338 -0.2765 -0.2923
 5453SOL    HW127818   0.784   1.332   6.548  0.5284 -1.3594 -0.0362
 5453SOL    HW227819   0.888   1.352   6.445  0.4794 -2.1497  1.1690
 5454SOL     OW27820   1.288   1.187   7.092 -0.0366 -0.1098  0.4374
 5454SOL    HW127821   1.332   1.144   7.165  0.2986 -3.2099 -1.6285
 5454SOL    HW227822   1.352   1.258   7.084 -0.9589  0.6170 -0.4465
 5455SOL     OW27823   3.612   2.618  14.080  0.2611  0.1967  0.2621
 5455SOL    HW127824   3.653   2.532  14.076 -2.3238 -1.0359  0.5463
 5455SOL    HW227825   3.617   2.648  13.990  1.2966  1.3418  0.7005
 5456SOL     OW27826   0.401   2.391   4.846  0.3968 -0.5530  0.1568
 5456SOL    HW127827   0.317   2.391   4.800  1.2312  1.0838 -1.3700
 5456SOL    HW227828   0.374   2.344   4.925 -1.9352 -1.0750 -0.9524
 5457SOL     OW27829   0.049   2.496   7.661 -0.0883  0.5563  0.0469
 5457SOL    HW127830   0.044   2.401   7.664 -1.9936  0.7560  3.3173
 5457SOL    HW227831   0.114   2.510   7.592  0.4792 -0.9791  0.2726
 5458SOL     OW27832   2.844   4.695   7.337 -0.1324  0.1712 -0.3393
 5458SOL    HW127833   2.930   4.654   7.347  1.1643  2.3825 -2.2008
 5458SOL    HW227834   2.850   0.036   7.407  0.5359  0.3816 -0.5871
 5459SOL     OW27835   1.116   1.496   5.063  0.1346  0.0742  0.0237
 5459SOL    HW127836   1.032   1.536   5.042 -0.4685  0.3326  2.9824
 5459SOL    HW227837   1.161   1.568   5.108 -1.7169  1.8477 -0.9443
 5460SOL     OW27838   4.155   1.024  11.230  0.3760  0.5394  0.5922
 5460SOL    HW127839   4.090   1.094  11.237  1.2214  1.3547  0.4102
 5460SOL    HW227840   4.241   1.067  11.227  0.1715  0.7959 -1.6601
 5461SOL     OW27841   4.095   4.365   7.722 -0.1386 -0.0801 -0.2843
 5461SOL    HW127842   4.157   4.398   7.788  0.9326 -1.5341 -0.5753
 5461SOL    HW227843   4.146   4.328   7.650 -0.1889 -0.5462 -0.0798
 5462SOL     OW27844   2.237   3.772  15.113 -0.3152  0.1084  0.1418
 5462SOL    HW127845   2.324   3.732  15.106  0.3619  1.3791  1.1056
 5462SOL    HW227846   2.224   3.792  15.206  2.2090  1.4795  0.2046
 5463SOL     OW27847   2.789   2.363   8.514 -0.2080  0.1345  0.1465
 5463SOL    HW127848   2.853   2.330   8.577 -0.6039 -2.6473 -0.8901
 5463SOL    HW227849   2.845   2.337   8.441  0.3817  0.1765  0.5817
 5464SOL     OW27850   3.317   1.761   5.305  0.5101  0.4746 -0.8442
 5464SOL    HW127851   3.244   1.822   5.295 -0.0657  0.0941  0.9459
 5464SOL    HW227852   3.330   1.715   5.223  1.3166  1.6782 -1.3956
 5465SOL     OW27853   3.842   3.856  17.683 -0.1908 -0.3725 -0.5282
 5465SOL    HW127854   3.804   3.848  17.595 -0.7188  0.5063 -0.3734
 5465SOL    HW227855   3.909   3.919  17.656  0.6882 -0.4697  1.4694
 5466SOL     OW27856   3.778   2.652  11.395 -0.4811 -0.2913 -0.5095
 5466SOL    HW127857   3.798   2.653  11.488 -1.0573  0.2447 -0.3930
 5466SOL    HW227858   3.768   2.746  11.380 -0.9209 -0.0582  1.3185
 5467SOL     OW27859   1.953   2.633  16.385 -0.3467 -0.1523  0.2699
 5467SOL    HW127860   1.896   2.571  16.340  0.6004 -0.2506 -0.8054
 5467SOL    HW227861   1.990   2.574  16.451 -0.7168 -0.4253  0.2283
 5468SOL     OW27862   1.665   3.708   1.609 -0.6744 -0.5293 -0.5705
 5468SOL    HW127863   1.658   3.654   1.688 -0.9140 -0.7215 -0.7238
 5468SOL    HW227864   1.755   3.692   1.582  0.0922 -0.9774  2.2492
 5469SOL     OW27865   2.987   1.130  11.208  0.3647  0.3730  0.1993
 5469SOL    HW127866   2.920   1.126  11.276 -1.6948  0.5681 -1.8238
 5469SOL    HW227867   3.029   1.210  11.239  1.6409 -0.0691 -0.3650
 5470SOL     OW27868   4.173   0.372   0.460 -0.2465 -0.2744 -0.1187
 5470SOL    HW127869   4.127   0.321   0.392  1.1787 -1.3117 -0.3130
 5470SOL    HW227870   4.201   0.303   0.521  0.7465  1.4560  1.3534
 5471SOL     OW27871   2.517   0.626   8.843  0.2210  0.6399  0.3387
 5471SOL    HW127872   2.475   0.711   8.858 -0.8186  0.5064 -1.8990
 5471SOL    HW227873   2.558   0.647   8.759 -1.6224  0.1496 -0.6748
 5472SOL     OW27874   4.608   0.637   3.340 -0.0636  0.0546 -0.6421
 5472SOL    HW127875   4.688   0.623   3.289 -0.0705 -2.4430  0.0642
 5472SOL    HW227876   4.553   0.671   3.270 -1.7786 -1.6171 -0.0796
 5473SOL     OW27877   4.236   2.180   8.725  0.5870 -0.0650 -0.3399
 5473SOL    HW127878   4.257   2.255   8.782 -2.3962  0.5382 -0.0406
 5473SOL    HW227879   4.322   2.138   8.728  0.0850 -1.2157 -1.8975
 5474SOL     OW27880   4.539   3.056   3.874  0.2652  0.1299  0.7490
 5474SOL    HW127881   4.493   2.993   3.930 -0.1527 -0.2046  0.0347
 5474SOL    HW227882   4.574   2.988   3.816 -2.6308  0.0155 -0.9050
 5475SOL     OW27883   0.144   1.570   9.043 -0.3521 -0.3855 -0.6935
 5475SOL    HW127884   0.200   1.583   8.966 -0.2929 -0.6871 -0.6999
 5475SOL    HW227885   0.086   1.643   9.022 -0.2833 -0.4922 -1.2609
 5476SOL     OW27886   1.228   1.946   2.723  0.2012  0.3038  0.3692
 5476SOL    HW127887   1.203   2.037   2.703 -0.9361 -0.2487 -0.7080
 5476SOL    HW227888   1.257   1.963   2.813 -3.3468  0.6962  1.4462
 5477SOL     OW27889   2.869   1.034   5.065 -0.1622 -0.0158  0.4743
 5477SOL    HW127890   2.815   1.020   5.142  0.7913 -0.5951  1.0337
 5477SOL    HW227891   2.834   1.110   5.018  2.3312  0.5088 -0.5538
 5478SOL     OW27892   0.168   0.135  14.915 -0.4298  0.6585 -0.9570
 5478SOL    HW127893   0.140   0.049  14.948  0.9836 -0.0110 -1.4736
 5478SOL    HW227894   0.087   0.158  14.871 -0.5270  0.2504 -0.9926
 5479SOL     OW27895   4.364   3.826   6.813  0.2040  0.1377  0.0934
 5479SOL    HW127896   4.423   3.895   6.843  0.0570  1.2032 -2.0575
 5479SOL    HW227897   4.275   3.845   6.845 -1.1236 -0.6173 -3.1101
 5480SOL     OW27898   0.683   0.791  15.665 -0.4932 -0.3814 -0.0995
 5480SOL    HW127899   0.753   0.767  15.726  2.1325  3.1715 -1.7224
 5480SOL    HW227900   0.705   0.742  15.586  3.1393  0.0600  0.6480
 5481SOL     OW27901   1.110   1.511   2.968  0.0309 -0.0683 -0.1723
 5481SOL    HW127902   1.070   1.596   2.988 -0.9839 -0.7658  0.7497
 5481SOL    HW227903   1.169   1.510   3.043 -1.4143  0.7249  0.9820
 5482SOL     OW27904   2.064   3.689   8.653  0.0319  0.3494 -0.2506
 5482SOL    HW127905   2.092   3.598   8.640  3.0844  1.6120 -2.2932
 5482SOL    HW227906   2.153   3.723   8.651  1.7453 -4.4056 -2.5206
 5483SOL     OW27907   1.661   0.955   2.899 -0.5245 -0.2411  0.1844
 5483SOL    HW127908   1.660   1.014   2.824 -1.2288 -2.5035 -1.5868
 5483SOL    HW227909   1.755   0.938   2.897  0.3869  4.3138  3.2753
 5484SOL     OW27910   3.818   2.079   9.909  0.0803  0.7102 -0.4056
 5484SOL    HW127911   3.819   1.998   9.858 -0.2319  0.1560  0.4763
 5484SOL    HW227912   3.732   2.120   9.894 -0.4752 -0.3825 -0.1876
 5485SOL     OW27913   4.087   4.586   3.998  0.2873 -0.3097 -0.3732
 5485SOL    HW127914   4.105   4.668   4.043  0.9739 -1.1153  0.7975
 5485SOL    HW227915   4.126   4.605   3.913  1.1135  0.1192  0.1069
 5486SOL     OW27916   4.452   2.678   8.698  0.3085  0.4137 -0.0682
 5486SOL    HW127917   4.524   2.618   8.716 -1.4958 -1.4968  0.8071
 5486SOL    HW227918   4.472   2.760   8.744  2.5138 -1.2603  1.9499
 5487SOL     OW27919   4.087   1.923   8.995 -0.5583 -0.5395 -0.6699
 5487SOL    HW127920   4.057   1.900   9.083  2.8466 -2.0566  0.0997
 5487SOL    HW227921   4.171   1.877   8.994  0.3055  1.0606 -0.2248
 5488SOL     OW27922   4.295   2.664   4.312 -0.0791  0.4099  0.1474
 5488SOL    HW127923   4.386   2.663   4.341  0.2421 -0.3471 -0.9146
 5488SOL    HW227924   4.319   2.649   4.221  0.0123  0.2153  0.2035
 5489SOL     OW27925   3.166   2.381   5.343 -0.4262 -0.6131 -0.1582
 5489SOL    HW127926   3.231   2.312   5.330  0.5201  0.7370 -2.6761
 5489SOL    HW227927   3.141   2.378   5.435 -1.8559 -0.1349 -0.5188
 5490SOL     OW27928   4.047   0.082   9.036 -0.3221 -0.1215 -0.0728
 5490SOL    HW127929   3.989   0.058   9.109 -1.4169  2.6593 -0.0507
 5490SOL    HW227930   4.012   0.040   8.958  1.0181 -0.2315 -0.6175
 5491SOL     OW27931   3.853   1.923   9.286 -0.4822 -0.4086 -0.7942
 5491SOL    HW127932   3.821   2.011   9.305  1.8543  0.3269 -0.3221
 5491SOL    HW227933   3.946   1.941   9.272 -0.2535 -0.3018  0.8064
 5492SOL     OW27934   3.790   2.675  17.661 -0.4887  0.3583 -0.4053
 5492SOL    HW127935   3.740   2.612  17.608 -0.5446 -0.0449  0.1233
 5492SOL    HW227936   3.731   2.700   0.033 -0.5179 -0.7126 -0.0366
 5493SOL     OW27937   3.580   3.293   3.635  0.3572  0.2162  0.5688
 5493SOL    HW127938   3.622   3.243   3.705 -1.6788  1.4225  2.6696
 5493SOL    HW227939   3.573   3.223   3.570 -0.2236  0.4039  0.4284
 5494SOL     OW27940   4.269   1.929   9.632 -0.1817  0.2884  0.5141
 5494SOL    HW127941   4.239   1.891   9.715 -1.1187 -0.0131  0.0398
 5494SOL    HW227942   4.193   1.963   9.585  0.1351 -1.4358 -1.1958
 5495SOL     OW27943   2.819   3.985   4.575 -0.0218  0.0074 -0.4877
 5495SOL    HW127944   2.792   4.076   4.561 -2.2327 -0.8620 -1.7376
 5495SOL    HW227945   2.913   3.992   4.559 -0.5707  0.8427 -3.3007
 5496SOL     OW27946   2.221   0.903   7.694 -0.3502 -0.5471 -0.1304
 5496SOL    HW127947   2.276   0.941   7.626  2.1548  0.8428  2.6153
 5496SOL    HW227948   2.255   0.950   7.771 -0.1913 -0.0977 -0.4760
 5497SOL     OW27949   1.273   3.269   5.876  0.1052  0.1187  0.2804
 5497SOL    HW127950   1.317   3.257   5.792  1.2767 -1.1755  1.0841
 5497SOL    HW227951   1.225   3.187   5.873  2.9389 -1.4846 -2.3342
 5498SOL     OW27952   0.152   3.678   3.114  0.2287 -0.7110 -0.5474
 5498SOL    HW127953   0.214   3.716   3.176  1.7475 -1.4545 -1.6173
 5498SOL    HW227954   0.077   3.680   3.174  0.1432  1.0197 -0.6946
 5499SOL     OW27955   0.463   2.473   7.308 -0.6703  0.0822  0.6374
 5499SOL    HW127956   0.534   2.517   7.260  0.3594 -2.5714 -0.2638
 5499SOL    HW227957   0.420   2.418   7.242  0.4534 -1.2157  0.9869
 5500SOL     OW27958   0.276   0.961   8.365 -0.1689  0.1352  0.1057
 5500SOL    HW127959   0.278   0.865   8.371 -0.0593  0.1536  0.3476
 5500SOL    HW227960   0.347   0.990   8.421 -1.5078  1.6563  0.9949
 5501SOL     OW27961   1.545   1.373   3.067 -0.3040  0.3714 -0.6487
 5501SOL    HW127962   1.526   1.280   3.061 -2.1243  0.7137 -0.3471
 5501SOL    HW227963   1.567   1.388   2.976 -0.6069  0.6379 -0.6811
 5502SOL     OW27964   0.200   3.726   7.986  0.4878  0.8657 -0.6631
 5502SOL    HW127965   0.200   3.742   7.892 -1.1544 -2.2392 -1.2012
 5502SOL    HW227966   0.227   3.811   8.020  1.8852  0.7273 -1.4281
 5503SOL     OW27967   1.611   0.727   9.978  0.6097 -0.3795 -0.3366
 5503SOL    HW127968   1.673   0.705   9.908 -1.0223  0.5155 -2.0735
 5503SOL    HW227969   1.653   0.805  10.014  0.0320 -0.5126  0.6114
 5504SOL     OW27970   2.069   0.720   9.651  0.3263 -0.5316  0.0732
 5504SOL    HW127971   2.142   0.771   9.685 -1.2976  1.4233  0.6822
 5504SOL    HW227972   2.068   0.640   9.702 -0.8114 -1.4344 -1.3516
 5505SOL     OW27973   1.203   2.351   6.014 -0.0988  0.3096 -0.4491
 5505SOL    HW127974   1.276   2.358   6.076 -0.1740  1.7591 -0.5154
 5505SOL    HW227975   1.242   2.358   5.927  1.5220 -1.2009  0.1565
 5506SOL     OW27976   0.450   2.182   7.564  0.1917 -0.3583 -0.2052
 5506SOL    HW127977   0.429   2.152   7.652  2.7044 -0.7488  0.2724
 5506SOL    HW227978   0.359   2.202   7.544  0.2551 -0.0690 -0.2148
 5507SOL     OW27979   1.757   0.071   8.204 -1.1463  0.4258 -0.3052
 5507SOL    HW127980   1.809   0.027   8.271 -1.1045  0.0855 -0.5644
 5507SOL    HW227981   1.817   0.062   8.131 -0.1718 -2.9161  0.8955
 5508SOL     OW27982   1.244   1.825   8.267  0.5124  0.2269  0.2430
 5508SOL    HW127983   1.151   1.808   8.254  1.0355 -1.2298 -1.4704
 5508SOL    HW227984   1.276   1.735   8.261  1.1213  0.4750 -0.2722
 5509SOL     OW27985   1.989   0.254  12.158 -0.8419 -0.0969 -0.8706
 5509SOL    HW127986   1.992   0.310  12.081  1.1362 -0.9992 -1.4459
 5509SOL    HW227987   2.048   0.183  12.132  0.0159 -0.5661  2.3626
 5510SOL     OW27988   3.737   2.084   3.341  0.3040 -0.7145  0.0080
 5510SOL    HW127989   3.698   2.142   3.276  2.5263 -1.4844 -2.0216
 5510SOL    HW227990   3.659   2.030   3.354  1.1277 -1.9391 -0.1406
 5511SOL     OW27991   1.303   1.601   1.978  0.0000  0.0042 -0.2606
 5511SOL    HW127992   1.330   1.515   2.010 -1.3188  0.2995  1.6578
 5511SOL    HW227993   1.369   1.610   1.909 -0.6869 -0.5116 -0.9928
 5512SOL     OW27994   1.567   1.066   4.749 -0.2270  0.0064  0.0331
 5512SOL    HW127995   1.482   1.068   4.793 -0.4344  2.2479 -0.4843
 5512SOL    HW227996   1.571   0.972   4.730 -3.7219 -0.2737  0.6660
 5513SOL     OW27997   2.172   0.644   4.820  0.3629  0.5636 -0.3616
 5513SOL    HW127998   2.209   0.636   4.907  1.4605  1.7472 -0.7313
 5513SOL    HW227999   2.185   0.557   4.780  1.5123 -0.5140  2.3909
 5514SOL     OW28000   4.577   0.989   5.793 -0.3353  0.2397 -0.5270
 5514SOL    HW128001   4.487   0.979   5.764 -0.1918 -0.6562 -0.6519
 5514SOL    HW228002   4.577   1.084   5.785 -1.4015  0.5357  3.1807
 5515SOL     OW28003   2.615   1.506   2.812 -0.6506  0.1080  0.3017
 5515SOL    HW128004   2.524   1.486   2.834 -1.3243  1.8696 -0.9001
 5515SOL    HW228005   2.634   1.444   2.742 -0.3265  0.4893  0.0490
 5516SOL     OW28006   3.315   3.701   2.080 -0.6020 -0.1096 -0.6653
 5516SOL    HW128007   3.285   3.666   2.163 -0.2343  0.8804 -0.1121
 5516SOL    HW228008   3.244   3.693   2.016 -0.3298 -2.8270 -0.6044
 5517SOL     OW28009   4.618   4.556  16.287 -0.2374  0.1458 -0.2023
 5517SOL    HW128010   4.630   4.559  16.382  3.1678 -1.5711 -0.5646
 5517SOL    HW228011   4.710   4.566  16.262 -0.0648 -1.2575 -0.1264
 5518SOL     OW28012   3.758   1.359   6.336  0.7153 -0.0182  0.0292
 5518SOL    HW128013   3.785   1.382   6.425  0.2727 -1.8597  0.6380
 5518SOL    HW228014   3.774   1.264   6.334 -2.1116 -0.5052  1.2472
 5519SOL     OW28015   4.067   4.021   1.099 -0.2330  0.2831  0.0014
 5519SOL    HW128016   4.149   4.071   1.100 -0.0630  0.0148 -0.3068
 5519SOL    HW228017   4.104   3.945   1.053 -1.0754 -0.5087  0.6361
 5520SOL     OW28018   4.064   1.077   8.238  0.4336  0.0123  0.1736
 5520SOL    HW128019   4.093   1.164   8.212  1.5570 -0.3662  0.1236
 5520SOL    HW228020   4.148   1.035   8.259  0.9063  1.6286  1.5175
 5521SOL     OW28021   3.863   3.813   3.168 -0.3248 -0.2792  0.2449
 5521SOL    HW128022   3.795   3.805   3.102  0.5634 -0.3011 -0.6733
 5521SOL    HW228023   3.829   3.754   3.235 -1.0342  1.8822  1.7812
 5522SOL     OW28024   3.764   3.722  16.327 -0.4127  0.1470  0.1484
 5522SOL    HW128025   3.680   3.677  16.330  0.5126 -1.5510  0.9439
 5522SOL    HW228026   3.811   3.678  16.398  0.3099 -0.3157 -0.6128
 5523SOL     OW28027   3.797   1.256  11.103 -0.2150  0.0358 -0.0153
 5523SOL    HW128028   3.865   1.258  11.036  1.5419  1.2884  1.8172
 5523SOL    HW228029   3.856   1.218  11.168 -3.4453  0.2471  3.0343
 5524SOL     OW28030   1.940   1.630   4.863  0.0282 -0.6418  0.2378
 5524SOL    HW128031   1.937   1.592   4.951 -0.5099  1.5950  1.1867
 5524SOL    HW228032   1.992   1.710   4.872 -0.9956  0.2880 -2.1616
 5525SOL     OW28033   4.372   3.833   0.798 -0.1412  0.6937  0.2378
 5525SOL    HW128034   4.398   3.923   0.776  0.7496  0.4431  0.2480
 5525SOL    HW228035   4.302   3.825   0.733  1.0835 -0.1513 -0.9730
 5526SOL     OW28036   3.718   1.301   1.569  0.0965  0.0614  0.0927
 5526SOL    HW128037   3.706   1.239   1.641 -0.9101 -0.2396 -0.3254
 5526SOL    HW228038   3.634   1.306   1.524  0.1438 -3.6022 -0.4108
 5527SOL     OW28039   3.766   1.651  16.796 -0.3633  0.4505 -0.1570
 5527SOL    HW128040   3.689   1.695  16.833 -0.8702 -1.8232  1.4526
 5527SOL    HW228041   3.733   1.610  16.716  0.9778 -1.9955  0.5481
 5528SOL     OW28042   2.067   3.524  11.544  0.2254  0.6189 -0.0511
 5528SOL    HW128043   1.987   3.575  11.531 -2.2084 -2.8289  1.4032
 5528SOL    HW228044   2.060   3.456  11.478 -0.0466 -1.3894  2.0582
 5529SOL     OW28045   3.442   2.393  14.158  0.6303 -0.1282  0.8518
 5529SOL    HW128046   3.516   2.431  14.109  1.1272  0.0965  1.7762
 5529SOL    HW228047   3.394   2.476  14.164 -2.9629 -2.3212  2.2127
 5530SOL     OW28048   3.554   1.783   5.549 -0.2422 -0.8055  0.7902
 5530SOL    HW128049   3.625   1.766   5.611 -0.4280 -2.3618  0.5840
 5530SOL    HW228050   3.513   1.696   5.554  0.5756 -1.3288 -1.5264
 5531SOL     OW28051   0.206   3.002   5.494  0.1742  0.8231  0.1046
 5531SOL    HW128052   0.169   3.083   5.531  1.4485  0.5099  2.0868
 5531SOL    HW228053   0.242   2.973   5.579 -0.9036  0.0404  0.2907
 5532SOL     OW28054   2.042   1.615   6.520 -0.7843  0.2167 -0.3236
 5532SOL    HW128055   1.969   1.664   6.558 -0.6285 -0.4155  0.7743
 5532SOL    HW228056   2.079   1.574   6.598 -1.7388  1.0254  0.5628
 5533SOL     OW28057   2.672   0.486   6.255 -0.1186  0.2840  0.1619
 5533SOL    HW128058   2.646   0.513   6.343 -2.4389  1.6088 -0.9204
 5533SOL    HW228059   2.675   0.393   6.278 -0.0225 -0.2305 -1.9758
 5534SOL     OW28060   3.659   1.578  11.959  0.1500  0.2836 -0.4184
 5534SOL    HW128061   3.648   1.671  11.979  0.8336  0.8407 -2.5030
 5534SOL    HW228062   3.754   1.567  11.968  0.0255  1.2384  2.1023
 5535SOL     OW28063   1.939   3.272   7.579  0.4132 -0.0918  0.2747
 5535SOL    HW128064   1.861   3.307   7.622  0.4325  0.7478 -0.3734
 5535SOL    HW228065   1.961   3.197   7.634 -0.3617 -0.9393 -0.5619
 5536SOL     OW28066   0.008   2.577   7.267 -0.0541  0.0826 -0.1613
 5536SOL    HW128067   0.050   2.581   7.353  0.5143 -0.5629 -0.4060
 5536SOL    HW228068   0.049   2.654   7.228  1.8226 -1.3102 -0.9547
 5537SOL     OW28069   4.542   2.795   4.391 -0.0283  0.0916  0.4170
 5537SOL    HW128070   4.603   2.725   4.366  1.4908  1.6984 -0.3235
 5537SOL    HW228071   4.604   2.846   4.443 -0.7442  0.8157  0.5482
 5538SOL     OW28072   2.824   3.109   6.814 -0.0925  0.1354 -0.3414
 5538SOL    HW128073   2.742   3.065   6.835 -1.0024  1.7958 -0.3933
 5538SOL    HW228074   2.878   3.057   6.874 -0.6834 -1.8721 -1.5912
 5539SOL     OW28075   3.615   2.528  15.236  0.1084 -0.0430  0.4640
 5539SOL    HW128076   3.657   2.518  15.151  0.1164  0.2616  0.4319
 5539SOL    HW228077   3.530   2.564  15.210  0.1625 -0.4198 -0.2423
 5540SOL     OW28078   0.375   0.485  11.380  0.4131  0.6630  0.4782
 5540SOL    HW128079   0.426   0.552  11.426  0.9096  1.8616 -1.8321
 5540SOL    HW228080   0.448   0.427  11.360  1.2136  1.9860 -0.4765
 5541SOL     OW28081   1.819   1.696   9.003 -0.7153  0.4201  0.1504
 5541SOL    HW128082   1.777   1.619   9.041  0.7356 -0.6131 -0.3579
 5541SOL    HW228083   1.803   1.695   8.908  1.8868 -0.1836 -0.2692
 5542SOL     OW28084   2.599   0.932   4.238 -0.6012  0.4123  0.3323
 5542SOL    HW128085   2.544   0.972   4.305  1.9162  1.1496  1.9425
 5542SOL    HW228086   2.562   0.845   4.223  0.3409  0.0186  0.2857
 5543SOL     OW28087   2.190   3.737   9.374 -0.0599  0.0460  0.1433
 5543SOL    HW128088   2.161   3.728   9.283  1.0158  0.0200 -0.1974
 5543SOL    HW228089   2.158   3.650   9.397  0.2283  0.4075  1.8844
 5544SOL     OW28090   2.833   2.016   6.560  0.3863 -0.0211 -0.3866
 5544SOL    HW128091   2.914   2.005   6.609  0.2734  2.3682  0.3432
 5544SOL    HW228092   2.867   1.982   6.477 -0.6099 -1.6398 -0.1277
 5545SOL     OW28093   4.248   4.205   3.234 -0.4699 -0.0533  0.3304
 5545SOL    HW128094   4.338   4.231   3.253 -0.9488  0.9073  1.3500
 5545SOL    HW228095   4.212   4.282   3.188  1.1221  0.7178  0.3702
 5546SOL     OW28096   1.404   1.957  17.251 -0.1640  0.3319 -0.0607
 5546SOL    HW128097   1.347   1.884  17.226 -0.5519  0.6817 -0.2084
 5546SOL    HW228098   1.449   1.919  17.326 -0.5693  1.9971  1.0266
 5547SOL     OW28099   4.266   3.562  13.161  0.6070 -0.6369  0.0568
 5547SOL    HW128100   4.290   3.581  13.252 -1.4751  2.1144  0.0287
 5547SOL    HW228101   4.347   3.523  13.127 -0.0538 -0.9406 -1.1398
 5548SOL     OW28102   1.102   0.051   7.698  0.1601 -0.3234  0.7496
 5548SOL    HW128103   1.028   4.717   7.685 -0.4851  0.5606  0.5157
 5548SOL    HW228104   1.149   4.713   7.754  1.1633 -0.6129 -0.4098
 5549SOL     OW28105   0.272   0.698   0.466  0.2202  0.0464  0.6386
 5549SOL    HW128106   0.344   0.746   0.425 -2.9609  2.1382 -2.5325
 5549SOL    HW228107   0.238   0.640   0.398  1.6029 -0.0954  0.0671
 5550SOL     OW28108   2.064   2.783   0.568 -0.1544 -0.6965 -0.3395
 5550SOL    HW128109   2.135   2.792   0.504 -0.5352 -0.5022 -0.7317
 5550SOL    HW228110   2.091   2.718   0.633  0.4415 -1.0430 -0.9337
 5551SOL     OW28111   0.913   2.801   1.711  0.0549 -0.0020  0.5024
 5551SOL    HW128112   0.952   2.765   1.790 -0.2092 -0.0750  0.6024
 5551SOL    HW228113   0.966   2.754   1.647 -1.0507  0.0718 -0.4805
 5552SOL     OW28114   1.771   3.226   8.285  1.0588  0.3848  0.2359
 5552SOL    HW128115   1.790   3.275   8.364 -2.2835 -0.7762  1.7749
 5552SOL    HW228116   1.744   3.140   8.316 -0.5454  0.6039 -0.5334
 5553SOL     OW28117   4.442   3.106  15.661 -0.3291  0.0161  0.2034
 5553SOL    HW128118   4.456   3.196  15.691 -0.5252  0.3442 -0.6987
 5553SOL    HW228119   4.530   3.082  15.632 -0.8973 -0.6149 -0.9923
 5554SOL     OW28120   3.982   1.848   6.775  0.0352 -0.6256 -0.1601
 5554SOL    HW128121   4.061   1.880   6.731 -1.4754 -0.5177 -2.7850
 5554SOL    HW228122   4.004   1.836   6.868  2.6101  2.0317 -0.4257
 5555SOL     OW28123   1.459   2.602   7.209 -0.3086  0.1905  0.3235
 5555SOL    HW128124   1.511   2.523   7.225 -2.2696 -1.8026 -3.1540
 5555SOL    HW228125   1.371   2.565   7.205 -0.8630  1.2963  2.1396
 5556SOL     OW28126   2.811   1.148   2.974 -0.0372  0.4832  0.2660
 5556SOL    HW128127   2.833   1.181   2.887  0.9352  0.1746  0.4018
 5556SOL    HW228128   2.765   1.068   2.950  0.4556 -0.1086  1.3394
 5557SOL     OW28129   4.397   1.951   9.034  0.0512  0.4165 -0.2835
 5557SOL    HW128130   4.454   1.983   8.965 -0.6731  0.1467 -1.0069
 5557SOL    HW228131   4.368   2.023   9.091 -2.8226 -0.3280 -0.7995
 5558SOL     OW28132   1.029   0.864   2.726  0.1309 -0.2411 -0.3456
 5558SOL    HW128133   1.008   0.809   2.651  3.5844 -0.9040 -0.7974
 5558SOL    HW228134   1.122   0.882   2.718 -0.0259  0.4553 -0.6243
 5559SOL     OW28135   3.484   3.185   9.832 -0.1900 -0.0921  0.3892
 5559SOL    HW128136   3.448   3.116   9.886  0.8942 -1.2318 -0.3441
 5559SOL    HW228137   3.577   3.165   9.819  0.0683  1.6397 -0.4766
 5560SOL     OW28138   3.123   4.712   8.449 -0.1974  0.0130  0.6745
 5560SOL    HW128139   3.072   4.714   8.368 -0.9077  2.0018  1.1718
 5560SOL    HW228140   3.118   0.081   8.472  1.0272  0.7360 -1.9376
 5561SOL     OW28141   1.495   3.635   3.948 -0.2326  0.2772  0.0384
 5561SOL    HW128142   1.404   3.605   3.937 -0.8706  1.7204  1.3647
 5561SOL    HW228143   1.507   3.608   4.039 -1.3431  0.6048  0.2870
 5562SOL     OW28144   3.629   3.086   3.127 -0.2028 -0.2661  0.1192
 5562SOL    HW128145   3.716   3.050   3.113 -0.8232 -2.2218  1.3067
 5562SOL    HW228146   3.577   3.066   3.050 -1.9550 -0.8693  1.4535
 5563SOL     OW28147   2.309   1.082  16.689 -0.1682  0.1248 -0.1227
 5563SOL    HW128148   2.312   1.178  16.687  0.9796  0.0586 -1.3718
 5563SOL    HW228149   2.362   1.052  16.615 -0.0306  0.3382 -0.1132
 5564SOL     OW28150   0.538   3.042   9.001 -0.0011 -0.3654  0.2192
 5564SOL    HW128151   0.498   3.050   8.914  0.2732  2.4598  0.3352
 5564SOL    HW228152   0.492   3.115   9.045  1.1992 -0.0136  0.8774
 5565SOL     OW28153   3.056   0.149   6.798  0.1517  0.0423 -0.2489
 5565SOL    HW128154   3.024   0.203   6.870 -1.1858  0.2447 -0.9942
 5565SOL    HW228155   3.086   0.072   6.847  2.2615  1.1840  0.2691
 5566SOL     OW28156   1.839   0.345   5.615  0.0994 -0.3653 -0.3048
 5566SOL    HW128157   1.850   0.310   5.527  0.0915  1.3896 -1.0163
 5566SOL    HW228158   1.877   0.431   5.597  0.0300 -0.4987 -1.0654
 5567SOL     OW28159   1.412   1.488  11.120 -0.2572 -0.6590  0.3787
 5567SOL    HW128160   1.382   1.528  11.202  0.3784 -0.9637  0.7622
 5567SOL    HW228161   1.375   1.402  11.141  1.2887 -1.7269 -1.2312
 5568SOL     OW28162   0.741   4.104  13.110 -0.3883 -0.0321  0.2744
 5568SOL    HW128163   0.696   4.182  13.076  0.4933  1.3695  2.3643
 5568SOL    HW228164   0.819   4.097  13.055  0.4022 -0.9109  1.5142
 5569SOL     OW28165   1.487   2.818   7.430  0.0071  0.0761  0.4939
 5569SOL    HW128166   1.512   2.741   7.483  1.4044  0.1629 -0.0452
 5569SOL    HW228167   1.466   2.773   7.348  1.0075 -0.9335  0.7858
 5570SOL     OW28168   4.327   3.404  10.975 -0.3471 -0.3354  0.3422
 5570SOL    HW128169   4.300   3.468  11.041 -2.2846  0.8216 -1.5402
 5570SOL    HW228170   4.328   3.449  10.891  1.0019 -1.1547 -0.0756
 5571SOL     OW28171   3.720   4.209  12.262 -0.2507  0.3716 -0.3549
 5571SOL    HW128172   3.701   4.302  12.270 -1.8800  0.1803 -1.9002
 5571SOL    HW228173   3.777   4.183  12.334 -1.1404  0.4905  0.3826
 5572SOL     OW28174   3.054   2.697   9.019 -0.2534  0.0165  0.8402
 5572SOL    HW128175   2.987   2.715   9.086 -1.9847 -2.4670 -0.2388
 5572SOL    HW228176   3.077   2.784   8.984 -0.9781  0.6143  1.8332
 5573SOL     OW28177   0.741   0.237   8.142 -0.0200  0.1741 -0.1342
 5573SOL    HW128178   0.655   0.237   8.184  1.0559 -1.9173  2.0215
 5573SOL    HW228179   0.785   0.167   8.190 -0.0263  0.8456  0.8394
 5574SOL     OW28180   0.350   0.147   2.694 -0.8415 -0.2622  0.3305
 5574SOL    HW128181   0.315   0.134   2.606  1.1834 -1.0849 -0.3594
 5574SOL    HW228182   0.334   0.057   2.723 -1.3192 -0.5040 -0.6748
 5575SOL     OW28183   1.517   3.003   4.396 -0.1432 -0.2391  0.3146
 5575SOL    HW128184   1.454   2.995   4.323 -0.6833 -1.8189  0.9482
 5575SOL    HW228185   1.595   3.031   4.349 -1.0148 -0.1682 -1.0920
 5576SOL     OW28186   1.149   4.210  12.765 -0.3176  0.2604 -0.2390
 5576SOL    HW128187   1.198   4.275  12.814  2.1992 -1.2292 -0.7563
 5576SOL    HW228188   1.217   4.179  12.705 -1.6891 -1.8328 -0.7398
 5577SOL     OW28189   0.566   4.020   6.171  0.4506 -0.0844  0.2179
 5577SOL    HW128190   0.484   4.010   6.122  1.2294  2.8655 -1.6385
 5577SOL    HW228191   0.630   3.983   6.110 -0.1245 -1.0664  0.2114
 5578SOL     OW28192   3.495   0.384   4.693  0.3817 -0.1766  0.6823
 5578SOL    HW128193   3.553   0.321   4.737  1.5092 -1.6011 -2.8600
 5578SOL    HW228194   3.434   0.408   4.763  0.9829  0.3114  1.0418
 5579SOL     OW28195   4.708   3.298   1.153  0.1667 -0.4031 -0.4693
 5579SOL    HW128196   0.045   3.249   1.208 -1.3615  0.1668  1.7652
 5579SOL    HW228197   0.043   3.356   1.106  0.2764  0.0800  0.2675
 5580SOL     OW28198   3.905   2.200  11.071 -0.4669  0.3288 -0.0393
 5580SOL    HW128199   3.943   2.200  11.160 -0.8165 -1.0068  0.1117
 5580SOL    HW228200   3.959   2.135  11.026 -1.0510 -0.1257 -0.0806
 5581SOL     OW28201   0.919   2.398   4.409 -0.4009 -0.0007 -0.4649
 5581SOL    HW128202   1.007   2.395   4.447 -1.3338  1.4389  1.8534
 5581SOL    HW228203   0.866   2.456   4.464  0.9105  0.1438  0.6538
 5582SOL     OW28204   0.733   1.128   1.566  0.4705 -0.6823 -0.4510
 5582SOL    HW128205   0.740   1.213   1.522  2.8318 -0.6420  0.0022
 5582SOL    HW228206   0.740   1.077   1.485  2.5670  0.2909 -0.8983
 5583SOL     OW28207   2.851   0.437  11.657  0.8993  0.3615  0.0620
 5583SOL    HW128208   2.876   0.390  11.577  1.1073 -2.9312  2.0678
 5583SOL    HW228209   2.782   0.382  11.695  0.4227  0.9555  0.0515
 5584SOL     OW28210   2.119   2.656   8.007 -0.0662  0.2310 -0.1019
 5584SOL    HW128211   2.151   2.567   7.991 -0.1718  0.3017 -0.7072
 5584SOL    HW228212   2.071   2.688   7.931  0.9751  1.1802 -0.3722
 5585SOL     OW28213   3.870   3.390   9.460 -0.1976  0.1501  0.0118
 5585SOL    HW128214   3.831   3.308   9.429 -0.1719 -0.9740  2.9011
 5585SOL    HW228215   3.803   3.430   9.516  0.9347  0.1453  1.3587
 5586SOL     OW28216   1.563   3.862   8.291 -0.0959  0.1195  0.1105
 5586SOL    HW128217   1.491   3.912   8.329  0.0285 -0.1876  0.7509
 5586SOL    HW228218   1.555   3.779   8.338  0.1531 -0.0359 -0.1181
 5587SOL     OW28219   3.490   0.907   7.877  0.1993 -0.5300  0.7608
 5587SOL    HW128220   3.551   0.893   7.950  1.1010  0.9191  0.3021
 5587SOL    HW228221   3.416   0.929   7.933 -1.6020 -2.1043 -0.9979
 5588SOL     OW28222   2.179   0.609   5.675  0.3817  0.1524  0.3719
 5588SOL    HW128223   2.260   0.559   5.669  0.2182 -0.2240  1.3608
 5588SOL    HW228224   2.205   0.674   5.740  3.3690  0.2258 -0.8839
 5589SOL     OW28225   1.789   3.607   8.054 -0.2357 -0.3896 -0.4270
 5589SOL    HW128226   1.714   3.548   8.049 -0.5403 -0.1256  1.0367
 5589SOL    HW228227   1.778   3.616   8.148  3.1996  0.2718 -0.0888
 5590SOL     OW28228   0.121   2.053   1.449 -0.0910  0.5728  0.0265
 5590SOL    HW128229   0.026   2.063   1.453 -0.1866 -0.6929  0.8261
 5590SOL    HW228230   0.127   1.977   1.506 -2.9487  0.2898 -0.0243
 5591SOL     OW28231   3.965   3.959   9.075 -0.1159  0.3251  0.2019
 5591SOL    HW128232   3.918   3.917   9.147 -1.3345 -2.6443 -2.3282
 5591SOL    HW228233   3.896   4.015   9.040 -1.4202 -3.3300 -3.0127
 5592SOL     OW28234   4.262   2.626   9.403 -0.2866  0.0917  0.1938
 5592SOL    HW128235   4.347   2.661   9.429  0.3248 -0.4373 -1.1727
 5592SOL    HW228236   4.263   2.537   9.437 -1.1061 -0.0136 -0.0379
 5593SOL     OW28237   1.211   2.480   0.529  0.1730  0.7433  0.8582
 5593SOL    HW128238   1.226   2.522   0.445 -0.3032 -0.5456  0.1376
 5593SOL    HW228239   1.216   2.385   0.526 -0.2291  0.7472  0.2167
 5594SOL     OW28240   0.798   2.068   3.359 -0.4668 -0.4336  0.2790
 5594SOL    HW128241   0.775   2.138   3.299 -3.8349 -2.3315 -0.6251
 5594SOL    HW228242   0.883   2.050   3.318 -0.2382  1.7386 -0.2238
 5595SOL     OW28243   0.319   2.898  16.037 -0.4584 -0.2760 -0.2889
 5595SOL    HW128244   0.393   2.939  16.082 -0.6793  0.6665 -0.7720
 5595SOL    HW228245   0.274   2.841  16.099 -0.2978  1.0240  1.0274
 5596SOL     OW28246   4.265   0.180   7.781 -0.4318 -0.1263  0.5186
 5596SOL    HW128247   4.286   0.119   7.852 -1.6792 -0.1733  0.8591
 5596SOL    HW228248   4.313   0.255   7.816 -0.8853  0.3780  0.0626
 5597SOL     OW28249   2.840   4.136   3.911  0.5605 -0.1002  0.0264
 5597SOL    HW128250   2.892   4.134   3.992 -2.1404  2.4205  1.7819
 5597SOL    HW228251   2.825   4.229   3.897 -3.5254 -0.7283  0.2869
 5598SOL     OW28252   1.630   4.127  11.057 -0.0041  0.5233  1.1517
 5598SOL    HW128253   1.642   4.096  10.968 -1.9825 -0.1615  1.1392
 5598SOL    HW228254   1.537   4.124  11.080 -0.0056 -2.8349  0.6047
 5599SOL     OW28255   2.798   3.972  11.692 -0.1430 -0.4591 -0.4386
 5599SOL    HW128256   2.766   3.953  11.780  0.3289 -1.0643 -0.4003
 5599SOL    HW228257   2.886   4.009  11.700  0.3823 -1.3580 -2.0091
 5600SOL     OW28258   0.103   4.211   9.346 -0.2313  0.1613 -0.0609
 5600SOL    HW128259   0.045   4.270   9.298 -1.9045 -2.5959 -1.4514
 5600SOL    HW228260   0.187   4.217   9.301 -1.1271 -1.3276 -1.9649
 5601SOL     OW28261   1.989   2.440   5.404  0.2761 -0.3454 -0.1551
 5601SOL    HW128262   1.932   2.375   5.364  1.7584  0.2437 -3.2000
 5601SOL    HW228263   2.042   2.381   5.459  0.3764 -0.9193 -0.8680
 5602SOL     OW28264   2.021   0.387   5.106 -0.2357  0.6135  0.4073
 5602SOL    HW128265   1.959   0.449   5.068  1.2547  0.2263 -2.5884
 5602SOL    HW228266   2.042   0.431   5.189 -0.1974 -1.3852  1.4487
 5603SOL     OW28267   2.025   4.275   5.596  0.4012  0.5128 -0.2202
 5603SOL    HW128268   2.026   4.181   5.577 -0.7891  0.2186  1.1578
 5603SOL    HW228269   2.031   4.319   5.511  0.6676  2.9436  1.0622
 5604SOL     OW28270   1.557   3.268   3.675  0.0892  0.3489  0.5031
 5604SOL    HW128271   1.615   3.307   3.740 -2.4082  1.3419  2.1256
 5604SOL    HW228272   1.630   3.247   3.617  1.1805 -0.5916  2.2468
 5605SOL     OW28273   3.297   2.364  13.813 -0.5644  0.2323  0.3546
 5605SOL    HW128274   3.261   2.452  13.814  2.6208  1.4895  1.5854
 5605SOL    HW228275   3.260   2.322  13.735 -0.1465  0.9686 -0.2291
 5606SOL     OW28276   2.034   2.919   5.348  0.2414  0.4180  0.1788
 5606SOL    HW128277   2.083   2.839   5.364 -0.7140 -0.4931 -1.4840
 5606SOL    HW228278   2.093   2.978   5.396 -1.2525 -0.2243  2.8118
 5607SOL     OW28279   2.478   0.013  17.495 -0.1186 -0.2861  0.3760
 5607SOL    HW128280   2.523   0.067  17.560  0.2414  0.5138 -0.5310
 5607SOL    HW228281   2.531   4.657  17.503 -0.3842 -0.6072 -1.0183
 5608SOL     OW28282   0.718   2.316  15.139  0.7450  0.0963 -0.5323
 5608SOL    HW128283   0.660   2.288  15.067  2.9932 -1.2372 -1.8373
 5608SOL    HW228284   0.649   2.351  15.195  1.1261  1.8812 -1.1820
 5609SOL     OW28285   2.917   3.976  14.488 -0.0061 -0.7103 -0.3683
 5609SOL    HW128286   2.866   3.895  14.490 -2.7175  1.0157  0.8779
 5609SOL    HW228287   2.966   3.961  14.568 -0.6715  0.4395  0.2589
 5610SOL     OW28288   4.458   1.380   2.366  0.2678  0.4340 -0.1480
 5610SOL    HW128289   4.514   1.303   2.365  0.7378  0.7646  0.9928
 5610SOL    HW228290   4.470   1.409   2.456 -1.0453  0.6434 -0.0290
 5611SOL     OW28291   0.258   3.165  15.969 -0.0497  0.0192 -0.9783
 5611SOL    HW128292   0.247   3.073  15.995  0.5566  0.7208  1.8053
 5611SOL    HW228293   0.352   3.169  15.984 -0.2307 -1.6337  0.7420
 5612SOL     OW28294   1.750   4.302  14.578  0.7135 -0.2145 -0.4453
 5612SOL    HW128295   1.758   4.227  14.519  0.3329 -1.2885  0.8650
 5612SOL    HW228296   1.837   4.295  14.617  0.0304  1.9737  1.4495
 5613SOL     OW28297   4.318   2.687   7.312  0.3863 -0.1416  0.0051
 5613SOL    HW128298   4.283   2.718   7.228 -0.0871 -3.0802 -0.8822
 5613SOL    HW228299   4.289   2.761   7.366 -1.3562  1.2527 -2.8620
 5614SOL     OW28300   4.035   1.234  14.937 -0.3191  0.4576  0.1828
 5614SOL    HW128301   3.961   1.293  14.949 -1.2664 -1.0215  1.6211
 5614SOL    HW228302   4.052   1.251  14.845  0.7386 -2.0933 -0.1098
 5615SOL     OW28303   2.325   0.003   3.510 -0.4840 -0.0598 -0.3617
 5615SOL    HW128304   2.401   0.055   3.482  0.4346 -0.9954  0.3806
 5615SOL    HW228305   2.285   0.050   3.583  0.1187 -3.9095  2.4353
 5616SOL     OW28306   1.447   2.511   0.713  0.0896 -0.3175  0.0084
 5616SOL    HW128307   1.404   2.587   0.752 -3.7787 -2.6602  0.2726
 5616SOL    HW228308   1.393   2.486   0.638  0.7349  0.7952 -0.8246
 5617SOL     OW28309   1.216   0.843   6.712  0.0826 -0.2956  0.0693
 5617SOL    HW128310   1.121   0.834   6.722 -0.1588  0.3578 -1.5662
 5617SOL    HW228311   1.240   0.878   6.797 -2.5042 -2.1968  1.5985
 5618SOL     OW28312   0.364   2.632   6.083 -0.2748  0.5800 -0.0476
 5618SOL    HW128313   0.431   2.685   6.126 -0.9346  0.2460  1.4150
 5618SOL    HW228314   0.419   2.554   6.087 -0.9948 -0.0111 -1.6336
 5619SOL     OW28315   1.802   0.343  12.762  0.2107  0.0206 -0.0178
 5619SOL    HW128316   1.800   0.354  12.857 -0.7320  1.7749 -0.2341
 5619SOL    HW228317   1.770   0.430  12.737  0.8707  0.1929 -0.2580
 5620SOL     OW28318   4.542   3.461  13.057 -0.1632 -0.3039  0.1491
 5620SOL    HW128319   4.637   3.471  13.057 -0.2371  0.4201 -1.5455
 5620SOL    HW228320   4.531   3.465  12.962 -1.9278  0.9278  0.3884
 5621SOL     OW28321   3.577   3.016   7.259 -0.4180  0.3882 -0.2235
 5621SOL    HW128322   3.535   2.930   7.251 -1.0620  0.4994  1.8754
 5621SOL    HW228323   3.637   3.013   7.185  0.0946 -1.5419  0.2692
 5622SOL     OW28324   4.605   2.648   5.777 -0.3375 -0.1539  0.3558
 5622SOL    HW128325   4.586   2.641   5.683  3.8758  3.0657 -0.7392
 5622SOL    HW228326   4.522   2.682   5.810 -0.3892  0.1133 -0.0460
 5623SOL     OW28327   4.165   0.848   4.612  0.3364 -0.4495  0.3325
 5623SOL    HW128328   4.224   0.922   4.600 -1.3182  0.6218 -1.1173
 5623SOL    HW228329   4.155   0.852   4.707 -0.3412  0.2870  0.2290
 5624SOL     OW28330   3.893   3.106   7.335  0.2659  0.0403 -0.1773
 5624SOL    HW128331   3.846   3.121   7.417  0.1481  0.2291 -0.2793
 5624SOL    HW228332   3.867   3.017   7.313 -0.5871  0.3618 -0.4484
 5625SOL     OW28333   1.935   3.258   2.355  0.6276 -0.5285  0.0943
 5625SOL    HW128334   1.977   3.233   2.273  0.0256 -1.5967  0.1095
 5625SOL    HW228335   1.905   3.172   2.385  1.4993  0.2138  3.0452
 5626SOL     OW28336   1.359   1.621  15.525 -0.7502  0.2223  0.4452
 5626SOL    HW128337   1.450   1.634  15.551 -0.9951 -0.6227  1.7212
 5626SOL    HW228338   1.317   1.707  15.524  1.6472  1.4080  1.3531
 5627SOL     OW28339   3.806   0.386   9.079 -0.0205  0.6463  0.1794
 5627SOL    HW128340   3.728   0.361   9.029 -0.2376  1.9099 -0.1139
 5627SOL    HW228341   3.784   0.354   9.167  0.0117 -0.1461 -0.1032
 5628SOL     OW28342   3.352   1.462   7.812  0.0292 -0.2013 -0.3685
 5628SOL    HW128343   3.298   1.450   7.734  0.2772 -0.0879 -0.5563
 5628SOL    HW228344   3.413   1.529   7.783  0.4704 -0.0353  0.9169
 5629SOL     OW28345   2.137   0.220   4.899 -0.3140 -0.7071  0.4618
 5629SOL    HW128346   2.058   0.229   4.847  0.5886 -2.3870 -1.1806
 5629SOL    HW228347   2.115   0.268   4.980  0.4563  0.0515  0.2280
 5630SOL     OW28348   3.374   2.989   2.643 -0.2404 -0.1926 -0.2493
 5630SOL    HW128349   3.314   3.055   2.609 -0.4719  0.1288  0.7883
 5630SOL    HW228350   3.319   2.910   2.644  0.0840 -0.3946  1.9507
 5631SOL     OW28351   0.592   3.558   6.832 -0.2743  0.2081  0.2591
 5631SOL    HW128352   0.669   3.595   6.874  0.2050 -0.7138  0.1785
 5631SOL    HW228353   0.624   3.566   6.742 -0.1225 -3.1715  0.0109
 5632SOL     OW28354   3.911   1.666   5.204 -0.2558 -0.3249 -0.1597
 5632SOL    HW128355   3.990   1.698   5.162  1.0588 -3.8273 -0.3137
 5632SOL    HW228356   3.951   1.621   5.279  1.1028 -1.6856 -1.7179
 5633SOL     OW28357   3.124   2.569  13.574 -0.0361 -0.0735 -0.1888
 5633SOL    HW128358   3.115   2.594  13.666  1.7272 -0.5670  0.1081
 5633SOL    HW228359   3.063   2.495  13.569 -0.6507  0.4125  0.1056
 5634SOL     OW28360   4.291   2.196   4.418  0.0552 -0.2721  0.1752
 5634SOL    HW128361   4.327   2.191   4.506 -2.1867 -1.2020  1.0207
 5634SOL    HW228362   4.373   2.180   4.371 -1.1041 -1.7023 -1.3567
 5635SOL     OW28363   3.257   0.461   0.665 -0.0817 -0.5132  0.2822
 5635SOL    HW128364   3.316   0.448   0.591  2.5942  1.2037  2.1267
 5635SOL    HW228365   3.177   0.481   0.617  0.5765  0.1957 -0.5173
 5636SOL     OW28366   0.696   1.688  16.925 -0.1761 -0.1430 -0.1488
 5636SOL    HW128367   0.744   1.725  16.999 -1.2560 -0.8207  0.8929
 5636SOL    HW228368   0.706   1.762  16.866 -1.0526 -1.0635 -1.4501
 5637SOL     OW28369   0.490   2.392  15.412  0.0771  0.2535 -0.4264
 5637SOL    HW128370   0.412   2.432  15.451  0.7483  0.4555  0.6958
 5637SOL    HW228371   0.441   2.337  15.350  0.3926  1.0447 -1.3752
 5638SOL     OW28372   1.301   1.905   4.918  0.0121 -0.9770  0.0847
 5638SOL    HW128373   1.258   1.990   4.924 -0.4283 -1.2264  0.5621
 5638SOL    HW228374   1.328   1.902   4.826  2.1734 -1.0029  0.7307
 5639SOL     OW28375   4.356   3.192   5.273 -0.4076 -1.0342  0.0673
 5639SOL    HW128376   4.397   3.235   5.198 -0.3313 -1.3324 -0.0595
 5639SOL    HW228377   4.302   3.265   5.305  1.4624 -0.1786  1.2774
 5640SOL     OW28378   0.325   0.763   7.248 -0.4810  0.4205 -0.2926
 5640SOL    HW128379   0.245   0.777   7.299 -0.9610  0.7304 -1.1360
 5640SOL    HW228380   0.287   0.735   7.165  1.2572 -0.6719 -0.7122
 5641SOL     OW28381   2.454   1.995  15.942  0.8043  0.2397  0.8466
 5641SOL    HW128382   2.462   2.007  16.036 -1.7549 -0.0574  1.1169
 5641SOL    HW228383   2.372   2.041  15.923 -0.3240 -1.8710  0.5205
 5642SOL     OW28384   2.738   3.067  14.766  0.1962  0.2755  0.2677
 5642SOL    HW128385   2.807   3.124  14.800  0.4852  1.1053 -1.6546
 5642SOL    HW228386   2.672   3.087  14.833 -0.4918 -0.2691 -0.2452
 5643SOL     OW28387   0.401   0.993   8.105 -0.2940 -0.4781  0.3772
 5643SOL    HW128388   0.331   1.033   8.052 -1.1554 -0.5058  1.4918
 5643SOL    HW228389   0.368   0.988   8.195  0.3606  0.2523  0.6597
 5644SOL     OW28390   0.484   0.230   9.165 -0.0834 -0.0666  0.2262
 5644SOL    HW128391   0.559   0.214   9.222  0.1399 -1.3091 -0.4198
 5644SOL    HW228392   0.457   0.140   9.145 -1.5733  0.6566 -1.0423
 5645SOL     OW28393   4.167   4.531  12.395  0.0727  0.4671 -0.1174
 5645SOL    HW128394   4.079   4.493  12.404 -0.1598  1.5202  2.2178
 5645SOL    HW228395   4.217   4.463  12.442  0.1875 -0.6709 -1.8734
 5646SOL     OW28396   3.764   0.122   1.390 -0.0356 -0.0272  0.1858
 5646SOL    HW128397   3.777   0.030   1.414  2.0431  0.1724 -0.2228
 5646SOL    HW228398   3.826   0.140   1.319  0.7528 -3.5068  0.0075
 5647SOL     OW28399   4.045   0.026   0.925 -0.0051  0.2607 -0.3382
 5647SOL    HW128400   4.130   4.717   0.896  0.2104  1.2581 -0.8275
 5647SOL    HW228401   4.013   0.081   0.854  0.2792  2.3911  1.1778
 5648SOL     OW28402   2.638   4.564  17.059  0.2954 -0.0455  0.4758
 5648SOL    HW128403   2.714   4.529  17.104  0.3849  0.6062  0.8315
 5648SOL    HW228404   2.578   4.521  17.121  2.4375  0.3106  2.7693
 5649SOL     OW28405   2.561   2.677   7.007 -0.1842  0.6631 -0.1537
 5649SOL    HW128406   2.617   2.666   7.084  1.1609  2.4132 -0.8950
 5649SOL    HW228407   2.478   2.685   7.054 -0.2787 -2.5460  0.2665
 5650SOL     OW28408   1.231   0.540   6.702  0.2720  0.0256 -0.2674
 5650SOL    HW128409   1.142   0.563   6.676 -0.5717 -2.9880 -0.1445
 5650SOL    HW228410   1.255   0.604   6.769  0.8848 -1.4577  0.9530
 5651SOL     OW28411   2.190   0.529   6.095 -0.0111  0.6486  0.0865
 5651SOL    HW128412   2.124   0.532   6.026  0.8968  2.5966 -0.6730
 5651SOL    HW228413   2.145   0.484   6.166  0.8680 -1.9648 -1.0004
 5652SOL     OW28414   4.349   2.144   9.237  0.4289  1.3686  0.1929
 5652SOL    HW128415   4.336   2.239   9.245 -2.1744  0.8273  2.3866
 5652SOL    HW228416   4.432   2.134   9.284  1.0866 -0.5072 -1.3994
 5653SOL     OW28417   3.486   4.391   4.287 -0.0995  0.0036  0.2109
 5653SOL    HW128418   3.577   4.423   4.288  0.5375 -1.9090  2.3419
 5653SOL    HW228419   3.439   4.474   4.296 -0.1455  0.1827 -1.5842
 5654SOL     OW28420   4.059   0.213  13.475 -0.2179 -0.3659 -0.3409
 5654SOL    HW128421   3.968   0.209  13.505 -0.0465 -0.8548  0.0976
 5654SOL    HW228422   4.096   0.210  13.563 -2.3837 -1.2353  0.5272
 5655SOL     OW28423   1.192   4.409   5.857 -0.3584 -0.1517  0.7237
 5655SOL    HW128424   1.285   4.394   5.875 -0.3983  0.5940  1.5749
 5655SOL    HW228425   1.176   4.326   5.812  0.6977  0.2944 -0.4765
 5656SOL     OW28426   2.328   2.368  10.351  0.5699  0.0087 -0.2433
 5656SOL    HW128427   2.354   2.305  10.284 -1.2528 -2.7949  1.7391
 5656SOL    HW228428   2.393   2.353  10.420  1.3009 -1.2099 -1.2085
 5657SOL     OW28429   0.047   2.499   3.425 -0.1240  0.2409  0.3720
 5657SOL    HW128430   0.054   2.407   3.449  1.0681  0.3551  0.4347
 5657SOL    HW228431   4.681   2.512   3.395 -1.5811  0.1606  4.7084
 5658SOL     OW28432   3.458   3.899   5.942  0.4839  0.7268  0.0874
 5658SOL    HW128433   3.389   3.833   5.939  2.0121 -0.8305 -0.8736
 5658SOL    HW228434   3.491   3.890   6.032  0.5465  0.5673  0.0488
 5659SOL     OW28435   0.596   0.721   0.831  0.1986  0.1844  0.2587
 5659SOL    HW128436   0.655   0.783   0.874  0.9633 -0.4477  0.1296
 5659SOL    HW228437   0.563   0.777   0.761  1.1731 -0.2538 -0.5625
 5660SOL     OW28438   4.103   2.455  15.528 -0.3500  0.4305  0.0618
 5660SOL    HW128439   4.174   2.493  15.477  1.2432 -4.0299 -1.0086
 5660SOL    HW228440   4.055   2.538  15.537  1.8604  1.8647 -1.3818
 5661SOL     OW28441   0.564   2.601  10.085  0.1429 -0.0923  0.5329
 5661SOL    HW128442   0.607   2.541  10.145  1.5844 -1.1037 -1.4884
 5661SOL    HW228443   0.597   2.566  10.002  0.7753 -1.3594  1.3218
 5662SOL     OW28444   0.463   0.334   7.951 -0.1159 -0.2156  0.6495
 5662SOL    HW128445   0.469   0.253   8.002  0.5400 -1.2366 -1.0775
 5662SOL    HW228446   0.490   0.397   8.019  1.9521 -0.4428  0.0459
 5663SOL     OW28447   2.051   3.806   2.082  0.1218 -0.0388 -0.1670
 5663SOL    HW128448   2.099   3.797   2.001  0.7112  0.1944  0.1563
 5663SOL    HW228449   1.966   3.770   2.057 -0.7913  1.5456  0.6139
 5664SOL     OW28450   1.166   4.233   1.487 -0.4414 -0.0726  0.3252
 5664SOL    HW128451   1.256   4.259   1.470 -0.3621  0.4158  1.4861
 5664SOL    HW228452   1.128   4.319   1.505 -2.0727 -0.2890 -2.0575
 5665SOL     OW28453   0.406   2.232   1.685  0.5772  0.1405 -0.0599
 5665SOL    HW128454   0.384   2.217   1.593  0.4407 -0.4355  0.0634
 5665SOL    HW228455   0.500   2.216   1.674  0.9404 -1.2431  4.8262
 5666SOL     OW28456   3.185   1.516  11.496  0.4949  0.0783  0.2423
 5666SOL    HW128457   3.255   1.463  11.533 -1.1805 -0.3453  2.7615
 5666SOL    HW228458   3.162   1.568  11.573 -0.4934  1.2467 -0.8346
 5667SOL     OW28459   3.347   2.567   2.630  0.1364 -0.5144 -0.1796
 5667SOL    HW128460   3.300   2.487   2.608 -0.5927  0.6378 -2.8814
 5667SOL    HW228461   3.273   2.628   2.627  1.1642  0.7181 -0.7058
 5668SOL     OW28462   2.668   3.343   4.465 -0.3496  0.5641  0.7224
 5668SOL    HW128463   2.660   3.391   4.548 -1.1925  0.4732  0.6908
 5668SOL    HW228464   2.757   3.307   4.474 -1.3229 -1.7358  1.2135
 5669SOL     OW28465   3.699   2.926  11.461  0.3016 -0.3624  0.1629
 5669SOL    HW128466   3.644   2.902  11.536  1.0497 -0.4662  0.6794
 5669SOL    HW228467   3.747   2.995  11.507 -0.4377  0.2763 -0.0305
 5670SOL     OW28468   4.345   2.701   2.050 -0.0767  0.6413 -0.5115
 5670SOL    HW128469   4.298   2.632   2.098  0.4205 -0.0781 -1.0542
 5670SOL    HW228470   4.393   2.746   2.119 -1.4030  1.1834  0.0343
 5671SOL     OW28471   2.628   2.572   3.157 -0.0829 -0.1302  0.3322
 5671SOL    HW128472   2.597   2.632   3.224  0.0504 -2.0162  2.0982
 5671SOL    HW228473   2.636   2.488   3.202  2.6922  0.4030  0.8255
 5672SOL     OW28474   0.640   1.085   4.866 -0.3459 -0.0803  0.3168
 5672SOL    HW128475   0.627   0.997   4.832  2.0820  0.2143 -1.3964
 5672SOL    HW228476   0.629   1.135   4.785 -0.6993  0.3509  0.6312
 5673SOL     OW28477   0.206   4.643   8.706 -0.0808  0.3548 -0.0067
 5673SOL    HW128478   0.231   4.592   8.784 -2.0201  1.1734  1.1579
 5673SOL    HW228479   0.119   4.604   8.694 -1.0252  2.1328  1.1941
 5674SOL     OW28480   4.069   0.443   3.331  0.0212 -0.3647  0.0333
 5674SOL    HW128481   3.981   0.445   3.370 -1.1494  1.0873 -2.6529
 5674SOL    HW228482   4.085   0.348   3.331 -4.9383 -1.1941  0.1717
 5675SOL     OW28483   1.003   4.689   9.046 -0.3507  0.5887  0.2615
 5675SOL    HW128484   1.048   0.035   8.999 -1.2156 -0.1866 -1.7165
 5675SOL    HW228485   1.040   4.606   9.016 -0.3434 -0.0537  2.0172
 5676SOL     OW28486   1.624   4.152   6.536 -0.1610  0.1842 -0.2834
 5676SOL    HW128487   1.648   4.229   6.486  1.2664 -0.1919 -0.1683
 5676SOL    HW228488   1.711   4.116   6.553  0.8486  1.6857 -2.2829
 5677SOL     OW28489   0.629   1.127   2.953  0.4057  0.0986 -0.4131
 5677SOL    HW128490   0.662   1.050   2.907  0.8519  0.6159 -0.9593
 5677SOL    HW228491   0.680   1.198   2.914  0.5185  1.3499  1.9976
 5678SOL     OW28492   4.360   0.394   8.526  0.4376  0.5028 -0.3436
 5678SOL    HW128493   4.421   0.416   8.596 -1.5215 -3.3839  2.5637
 5678SOL    HW228494   4.376   0.301   8.509  0.7821  0.9813 -2.7467
 5679SOL     OW28495   0.915   1.540   7.932  0.5860 -0.2348  0.2364
 5679SOL    HW128496   0.824   1.540   7.903  0.5314 -2.2274  0.4443
 5679SOL    HW228497   0.961   1.591   7.865  0.7363  1.0553  1.3047
 5680SOL     OW28498   4.327   2.879   6.564  0.1526 -0.4909  0.6366
 5680SOL    HW128499   4.363   2.897   6.651  1.1784  2.4619 -0.3959
 5680SOL    HW228500   4.234   2.861   6.578 -0.0725  1.2991  1.4008
 5681SOL     OW28501   1.293   2.919  13.279 -0.3441  0.1133  0.1872
 5681SOL    HW128502   1.238   2.993  13.305 -0.5158 -0.0696  0.3434
 5681SOL    HW228503   1.253   2.888  13.198  0.5254 -2.2213  0.6448
 5682SOL     OW28504   0.317   1.716   3.994 -0.0523  0.4096 -0.1292
 5682SOL    HW128505   0.316   1.811   3.986  0.2069  0.5368  1.4609
 5682SOL    HW228506   0.264   1.689   4.069  0.0144  0.2860 -0.1253
 5683SOL     OW28507   2.775   3.253  13.788  0.1139  0.2740 -0.1751
 5683SOL    HW128508   2.715   3.306  13.736  0.5240 -0.9511 -1.8921
 5683SOL    HW228509   2.820   3.323  13.835  0.6536  1.1762 -2.0404
 5684SOL     OW28510   0.233   2.860  15.758 -0.0420 -0.1473  0.8053
 5684SOL    HW128511   0.195   2.780  15.796 -1.2325 -0.6167 -1.4165
 5684SOL    HW228512   0.277   2.896  15.835  0.8067  1.0897 -0.2543
 5685SOL     OW28513   1.298   2.057  10.593  0.0557 -0.2377  0.2290
 5685SOL    HW128514   1.337   1.995  10.656 -2.0652 -0.1967  1.5719
 5685SOL    HW228515   1.356   2.132  10.609 -1.2952  0.8745 -0.1418
 5686SOL     OW28516   1.463   1.884  11.830  0.2315 -0.3112  0.0108
 5686SOL    HW128517   1.559   1.893  11.827  0.4391 -2.2144  1.6666
 5686SOL    HW228518   1.441   1.901  11.921 -1.8713 -0.7185 -0.4249
 5687SOL     OW28519   0.296   3.367   4.513 -0.0602 -0.0866  0.2716
 5687SOL    HW128520   0.274   3.321   4.594  1.9853 -3.4013 -1.0135
 5687SOL    HW228521   0.357   3.413   4.570 -2.5653  2.5920  0.7611
 5688SOL     OW28522   1.753   3.799   5.049  0.1852 -0.3389 -0.5735
 5688SOL    HW128523   1.729   3.774   5.138 -0.8281  1.8547 -0.2424
 5688SOL    HW228524   1.681   3.857   5.026 -1.5833 -2.2887  0.0363
 5689SOL     OW28525   4.194   0.195   5.973 -0.0869  0.0584 -0.0299
 5689SOL    HW128526   4.236   0.154   6.048  0.5754  1.5502  0.4194
 5689SOL    HW228527   4.229   0.153   5.895  0.3977 -0.9710  0.7532
 5690SOL     OW28528   3.313   0.701  10.707 -0.0116 -0.2425  0.7439
 5690SOL    HW128529   3.367   0.650  10.647 -0.9393  0.3695 -0.5988
 5690SOL    HW228530   3.371   0.773  10.731  0.9931 -0.8228  0.0596
 5691SOL     OW28531   3.222   3.106  14.820  0.1196 -0.1363 -0.1255
 5691SOL    HW128532   3.301   3.058  14.846  0.7218 -0.4952 -2.5918
 5691SOL    HW228533   3.232   3.180  14.880  1.3787  1.3804 -2.1658
 5692SOL     OW28534   0.955   1.499   4.222 -0.0426 -0.4953  0.0044
 5692SOL    HW128535   1.006   1.513   4.302 -0.3500 -0.1373  0.1404
 5692SOL    HW228536   0.953   1.591   4.198  1.3436 -0.4830 -0.0690
 5693SOL     OW28537   2.262   0.862   3.873 -0.1081 -0.0813  0.1814
 5693SOL    HW128538   2.289   0.952   3.850 -0.1872 -0.2607 -0.6198
 5693SOL    HW228539   2.304   0.820   3.798 -1.0771  0.1643 -0.4972
 5694SOL     OW28540   3.879   0.600   5.447 -0.2643  0.1052 -0.1449
 5694SOL    HW128541   3.936   0.550   5.389  1.0288  0.3914  0.8839
 5694SOL    HW228542   3.806   0.613   5.387  1.0477  2.3493 -1.2579
 5695SOL     OW28543   4.100   3.318   5.762 -0.0199 -0.4170  0.2941
 5695SOL    HW128544   4.185   3.275   5.750  0.4637 -0.1706  2.8345
 5695SOL    HW228545   4.076   3.298   5.852  1.1089  0.4685  0.7999
 5696SOL     OW28546   1.932   0.879   0.849 -0.9252  0.5880 -0.8755
 5696SOL    HW128547   2.025   0.855   0.845 -1.1338 -0.4468  0.5183
 5696SOL    HW228548   1.950   0.970   0.873  2.6344 -0.2778 -0.1790
 5697SOL     OW28549   2.395   2.096   4.102  0.3212  0.5508  1.1304
 5697SOL    HW128550   2.489   2.081   4.108 -0.0395 -0.7925  3.7182
 5697SOL    HW228551   2.392   2.174   4.048  1.6875 -0.9590 -1.1197
 5698SOL     OW28552   2.414   1.507  11.974 -0.3166 -0.2715 -0.5324
 5698SOL    HW128553   2.479   1.563  11.932 -0.6634  0.5638  0.0378
 5698SOL    HW228554   2.397   1.438  11.910 -0.3329 -1.5900  0.8938
 5699SOL     OW28555   2.582   0.346   7.251 -0.6782  1.0254 -0.0751
 5699SOL    HW128556   2.573   0.376   7.342  1.6693  1.9401 -0.1481
 5699SOL    HW228557   2.635   0.412   7.206 -1.3563  1.4125 -0.2943
 5700SOL     OW28558   0.089   3.574  13.826 -0.3262  0.3079  0.3621
 5700SOL    HW128559   0.151   3.642  13.801  0.9589 -0.7927  0.5500
 5700SOL    HW228560   0.087   3.525  13.744 -0.0432  1.6814 -0.4621
 5701SOL     OW28561   1.184   0.570   2.976 -0.0429 -0.4309 -0.4479
 5701SOL    HW128562   1.266   0.557   2.929  0.0978 -2.0139  0.2549
 5701SOL    HW228563   1.187   0.508   3.048  2.3506  0.2656  0.0670
 5702SOL     OW28564   0.742   1.765  15.435 -0.1707 -0.0221 -0.3749
 5702SOL    HW128565   0.678   1.757  15.505 -0.5299  0.8345 -0.5962
 5702SOL    HW228566   0.752   1.860  15.430 -0.0883 -0.0012  0.2384
 5703SOL     OW28567   2.499   1.411   8.605 -0.2297 -0.1504 -0.1657
 5703SOL    HW128568   2.541   1.472   8.665 -0.6298 -1.1009  1.0778
 5703SOL    HW228569   2.535   1.445   8.523 -0.5494  1.9726  0.5665
 5704SOL     OW28570   1.999   2.151   4.892 -0.6698  0.5587 -0.3565
 5704SOL    HW128571   1.944   2.163   4.970  0.6664  3.4685  0.1215
 5704SOL    HW228572   2.025   2.239   4.864  0.9331 -0.0502 -0.7449
 5705SOL     OW28573   2.906   4.450   6.696 -1.2480  0.1523  0.2744
 5705SOL    HW128574   3.000   4.461   6.714 -1.0678 -3.0054  1.3798
 5705SOL    HW228575   2.859   4.513   6.750 -2.3132 -1.0083  0.6975
 5706SOL     OW28576   4.177   0.407   3.656 -0.2249 -0.4168 -0.1846
 5706SOL    HW128577   4.111   0.476   3.664 -0.0943 -0.5245  1.9873
 5706SOL    HW228578   4.223   0.407   3.740  2.6292  1.6593 -1.7651
 5707SOL     OW28579   3.727   2.120   7.578  0.2227 -0.4940 -0.0099
 5707SOL    HW128580   3.764   2.035   7.555 -0.6895 -1.3425  1.6502
 5707SOL    HW228581   3.665   2.132   7.507 -0.0312 -3.9404 -0.3910
 5708SOL     OW28582   1.664   0.931   1.406  0.0069  1.0685  0.2592
 5708SOL    HW128583   1.706   0.928   1.492  0.3295  0.5437  0.0840
 5708SOL    HW228584   1.611   0.851   1.406  1.1882  0.2652 -0.5188
 5709SOL     OW28585   1.247   3.581   3.942  0.0448 -0.2279  0.4714
 5709SOL    HW128586   1.252   3.528   4.022  1.9760 -0.6459  0.0807
 5709SOL    HW228587   1.158   3.615   3.936 -0.0953 -0.4709  1.2445
 5710SOL     OW28588   1.364   2.832   8.604  0.1680 -0.5707  0.1034
 5710SOL    HW128589   1.292   2.773   8.583  1.2307 -1.4654 -1.0311
 5710SOL    HW228590   1.426   2.826   8.531 -2.1992 -1.1955 -1.8647
 5711SOL     OW28591   3.551   3.469   3.383 -0.5462 -0.1206 -0.0167
 5711SOL    HW128592   3.582   3.384   3.352  2.8174  1.8703 -2.1042
 5711SOL    HW228593   3.531   3.442   3.472  1.5406  0.9453  0.7723
 5712SOL     OW28594   4.069   3.164  15.989  0.1272  0.5880 -0.2463
 5712SOL    HW128595   4.030   3.117  16.063  2.0561 -2.6156 -1.2631
 5712SOL    HW228596   3.987   3.171  15.941 -0.8143  3.5336  1.7895
 5713SOL     OW28597   3.462   0.489   7.114 -0.7688  0.1702  1.0645
 5713SOL    HW128598   3.505   0.434   7.048 -2.2420 -0.9322  1.0391
 5713SOL    HW228599   3.467   0.574   7.070  0.0463  0.6967  2.1715
 5714SOL     OW28600   3.597   3.660   2.388 -0.3751  0.1237 -0.0874
 5714SOL    HW128601   3.611   3.622   2.301 -0.3280  0.1204 -0.0782
 5714SOL    HW228602   3.566   3.585   2.439  2.2635 -0.2265  0.9972
 5715SOL     OW28603   0.111   0.060   5.419  0.0619  0.6879 -0.4887
 5715SOL    HW128604   0.020   0.070   5.392 -0.5662 -0.5305  1.1715
 5715SOL    HW228605   0.142   4.720   5.354  2.1797 -0.0159  1.1843
 5716SOL     OW28606   2.886   3.489   7.125  0.0601 -0.2469 -0.1103
 5716SOL    HW128607   2.815   3.435   7.160  1.5408 -1.3432  1.2266
 5716SOL    HW228608   2.830   3.556   7.086  0.4895 -1.1313 -2.2010
 5717SOL     OW28609   1.520   3.009   4.115  0.5346  0.1151 -0.3545
 5717SOL    HW128610   1.462   3.080   4.086 -1.4603 -1.7339 -0.9035
 5717SOL    HW228611   1.604   3.040   4.082  0.8148 -0.0131  0.2391
 5718SOL     OW28612   3.056   1.743   4.921  0.5612 -0.3205 -0.2475
 5718SOL    HW128613   3.128   1.715   4.978  1.9763  1.8025 -0.9953
 5718SOL    HW228614   3.099   1.814   4.873  1.4737 -2.1035 -2.0232
 5719SOL     OW28615   3.178   2.100   3.005 -0.4961  0.0142 -0.5877
 5719SOL    HW128616   3.164   2.071   3.095 -0.9353 -0.5419 -0.8368
 5719SOL    HW228617   3.107   2.049   2.967 -0.4952  0.8416 -1.6947
 5720SOL     OW28618   2.953   1.833   4.567  0.7147 -0.0983 -0.7013
 5720SOL    HW128619   3.009   1.902   4.532 -0.4367  0.5729 -1.2372
 5720SOL    HW228620   3.005   1.756   4.545  1.2271  0.3665 -1.1278
 5721SOL     OW28621   4.330   1.479  13.995  0.5895  0.4596 -0.5209
 5721SOL    HW128622   4.338   1.385  14.010  0.6521  0.6135  0.3946
 5721SOL    HW228623   4.248   1.471  13.947  1.3517 -0.4986 -1.6475
 5722SOL     OW28624   2.591   3.307  17.461  0.5982 -0.5173 -0.0822
 5722SOL    HW128625   2.662   3.284  17.521  0.4758  2.2802  1.1728
 5722SOL    HW228626   2.572   3.230  17.409 -0.6569 -0.8812  0.9098
 5723SOL     OW28627   3.801   4.647   0.725  0.1046  0.2094 -0.3147
 5723SOL    HW128628   3.827   0.013   0.743 -0.8857  0.3362  0.5209
 5723SOL    HW228629   3.882   4.600   0.743  0.8385  1.4449 -0.3728
 5724SOL     OW28630   2.448   3.577   9.459  0.0002  0.0527  0.5069
 5724SOL    HW128631   2.505   3.501   9.472 -1.5210 -1.0829  0.5110
 5724SOL    HW228632   2.360   3.541   9.473  1.2604 -3.0943  0.4646
 5725SOL     OW28633   2.841   3.061  15.166  0.5015 -0.0816  0.1109
 5725SOL    HW128634   2.822   3.120  15.093 -2.3844 -1.8767 -0.5965
 5725SOL    HW228635   2.893   3.120  15.221  0.2061  0.3545 -0.0772
 5726SOL     OW28636   0.081   0.373   8.299 -0.2678 -0.1232 -0.0140
 5726SOL    HW128637   0.155   0.344   8.352  1.4391 -0.2913 -2.4917
 5726SOL    HW228638   0.110   0.346   8.211  0.9780  0.8870  0.0921
 5727SOL     OW28639   3.272   2.241  14.365 -0.0643  0.1530 -0.5635
 5727SOL    HW128640   3.215   2.310  14.400  0.0237  0.1530 -0.4218
 5727SOL    HW228641   3.238   2.168  14.417 -0.3661 -0.0622 -1.0569
 5728SOL     OW28642   1.815   3.948   0.148 -0.0737 -0.1193 -0.3007
 5728SOL    HW128643   1.752   4.015   0.177  0.3440  0.7285 -1.3555
 5728SOL    HW228644   1.832   3.902   0.230 -0.3462  0.9099  0.3343
 5729SOL     OW28645   1.557   3.018  13.248 -0.0195  0.0415  0.6734
 5729SOL    HW128646   1.579   3.049  13.335 -1.1896 -2.4801  1.8803
 5729SOL    HW228647   1.462   3.024  13.237  0.1990  0.1637 -1.1373
 5730SOL     OW28648   2.625   1.617   8.453  0.2872 -0.5911  0.6795
 5730SOL    HW128649   2.713   1.653   8.469  0.4860 -0.3331 -1.0450
 5730SOL    HW228650   2.575   1.686   8.411  1.1963 -0.1742  0.2842
 5731SOL     OW28651   1.674   0.176   0.711 -0.1825 -0.6421  0.1664
 5731SOL    HW128652   1.619   0.245   0.748 -1.6966 -1.8963  0.1966
 5731SOL    HW228653   1.621   0.099   0.730 -1.0271 -0.1071 -0.0497
 5732SOL     OW28654   0.493   0.185   8.886  0.3953 -0.1523 -0.1541
 5732SOL    HW128655   0.473   0.100   8.925  0.5561 -0.7322 -1.3297
 5732SOL    HW228656   0.491   0.240   8.965 -0.7880  0.8178 -0.8421
 5733SOL     OW28657   4.514   0.489  16.509 -0.3872  0.0469 -0.2948
 5733SOL    HW128658   4.593   0.484  16.564  0.0522 -1.1533 -1.0386
 5733SOL    HW228659   4.493   0.395  16.506  1.1848 -0.3907  2.2983
 5734SOL     OW28660   3.038   1.072  14.460  0.4905 -0.1142  0.4464
 5734SOL    HW128661   3.065   1.154  14.417 -0.9490  0.3403  0.4047
 5734SOL    HW228662   3.006   1.106  14.543 -1.4409 -1.6653  0.3342
 5735SOL     OW28663   1.287   3.566   7.433  0.0466 -0.3890  0.0950
 5735SOL    HW128664   1.200   3.560   7.394 -0.2695 -1.8263  0.9878
 5735SOL    HW228665   1.283   3.567   7.529 -1.9043 -2.3067  0.0439
 5736SOL     OW28666   4.356   0.207   5.093 -0.6102  0.0068  0.3138
 5736SOL    HW128667   4.319   0.121   5.077 -1.1761  0.4268 -0.6161
 5736SOL    HW228668   4.440   0.185   5.134  0.6525  0.1959 -2.2088
 5737SOL     OW28669   0.495   0.966  15.623 -0.2897 -0.3618 -0.2826
 5737SOL    HW128670   0.426   0.972  15.690  0.1956  0.2293  0.1652
 5737SOL    HW228671   0.563   0.906  15.654  1.4019  2.5326  1.6337
 5738SOL     OW28672   2.259   4.118   3.798  0.3986 -0.2126  0.9542
 5738SOL    HW128673   2.251   4.023   3.783 -0.6051 -0.1355  0.9793
 5738SOL    HW228674   2.173   4.143   3.831 -0.3049 -0.4376 -0.6867
 5739SOL     OW28675   4.541   1.151   0.169 -0.0453  0.2990  0.0269
 5739SOL    HW128676   4.572   1.087   0.232 -0.8036  0.3052  0.4111
 5739SOL    HW228677   4.603   1.144   0.097  0.0035 -0.3685  0.1427
 5740SOL     OW28678   0.835   2.470   9.119  0.2493  0.0495 -0.0591
 5740SOL    HW128679   0.753   2.514   9.142  0.6955  0.0850  1.4224
 5740SOL    HW228680   0.813   2.380   9.094 -2.1909  1.1444 -1.9515
 5741SOL     OW28681   0.790   2.654   0.301 -0.3827 -0.2720 -0.2838
 5741SOL    HW128682   0.715   2.604   0.270 -0.9210  0.6591 -0.4732
 5741SOL    HW228683   0.871   2.605   0.286 -1.7172 -2.3149 -0.7025
 5742SOL     OW28684   0.311   4.300   8.170  0.0608 -0.4358 -0.0478
 5742SOL    HW128685   0.395   4.270   8.203  0.4095  0.5483 -0.0281
 5742SOL    HW228686   0.310   4.278   8.077 -0.6819  1.2608 -0.4582
 5743SOL     OW28687   4.194   2.880   3.811 -0.5481  0.3477 -0.0946
 5743SOL    HW128688   4.163   2.915   3.728 -2.6426 -1.1809  0.0566
 5743SOL    HW228689   4.254   2.808   3.790  0.0795  0.5478  0.9973
 5744SOL     OW28690   2.816   4.415  17.189  0.3659  0.1787 -0.1099
 5744SOL    HW128691   2.849   4.325  17.182 -4.0639 -1.5334  0.6097
 5744SOL    HW228692   2.896   4.463  17.209  0.9553 -0.5282 -0.7748
 5745SOL     OW28693   4.186   2.955   3.047 -0.5067  0.2810 -0.2599
 5745SOL    HW128694   4.203   2.935   2.955  0.5221  0.0566 -0.0170
 5745SOL    HW228695   4.171   3.049   3.050 -0.4352  0.2866 -0.1201
 5746SOL     OW28696   3.874   0.918  16.908  0.4272 -0.2299  0.2312
 5746SOL    HW128697   3.794   0.909  16.960  0.8172 -2.6836  0.3819
 5746SOL    HW228698   3.945   0.889  16.965  0.5593 -2.1152 -0.9047
 5747SOL     OW28699   4.254   2.661   9.002 -0.0020 -0.0277 -0.3880
 5747SOL    HW128700   4.334   2.709   8.982 -0.8806  1.5808 -0.0720
 5747SOL    HW228701   4.208   2.736   9.040  0.5651 -0.5997  1.4306
 5748SOL     OW28702   1.851   4.245  16.581 -0.1397 -0.0090  0.2871
 5748SOL    HW128703   1.758   4.240  16.559  0.3632 -0.5604 -1.7347
 5748SOL    HW228704   1.870   4.338  16.566  0.0830 -0.0837  0.1114
 5749SOL     OW28705   2.911   3.444  10.244  0.2570 -0.1289  0.7834
 5749SOL    HW128706   2.932   3.434  10.151  1.2091  0.7622  0.9048
 5749SOL    HW228707   2.817   3.463  10.239  0.1134 -0.4113  2.2400
 5750SOL     OW28708   4.534   3.907   7.976 -0.6420  0.1482  0.5123
 5750SOL    HW128709   4.623   3.942   7.976 -0.7540  0.4633 -0.9579
 5750SOL    HW228710   4.501   3.973   7.915  1.6930  0.2826 -0.6049
 5751SOL     OW28711   4.458   0.402   8.849 -0.2004 -0.4471  0.3985
 5751SOL    HW128712   4.379   0.376   8.897 -0.4743 -3.1124 -1.4878
 5751SOL    HW228713   4.527   0.427   8.911  0.6085  1.5362 -1.3067
 5752SOL     OW28714   2.646   2.397   9.353  0.2963 -0.1006 -0.8770
 5752SOL    HW128715   2.551   2.384   9.360 -0.0720  2.6817 -0.9020
 5752SOL    HW228716   2.665   2.477   9.305  1.9205 -0.0903 -0.2141
 5753SOL     OW28717   4.175   0.281   1.168 -0.2382  0.0225 -0.1719
 5753SOL    HW128718   4.103   0.229   1.203 -1.3421  0.5513 -1.6321
 5753SOL    HW228719   4.127   0.344   1.115  1.0036 -0.7224 -2.2010
 5754SOL     OW28720   2.256   1.695   9.194  0.3781  1.1072 -0.9007
 5754SOL    HW128721   2.221   1.720   9.108 -1.0627  1.0093 -0.3372
 5754SOL    HW228722   2.265   1.777   9.243 -1.3938  0.2656  0.8212
 5755SOL     OW28723   0.071   1.209   5.974  0.6834 -0.0537 -0.1150
 5755SOL    HW128724   0.124   1.148   6.026  0.8775 -1.1758 -1.6225
 5755SOL    HW228725   0.147   1.253   5.936  0.2220  1.0425  0.2614
 5756SOL     OW28726   3.371   2.805   6.976  0.0643  0.1914  0.3981
 5756SOL    HW128727   3.396   2.741   6.911 -2.5364 -1.5881  1.1301
 5756SOL    HW228728   3.320   2.750   7.036 -0.6113  1.8376  1.3429
 5757SOL     OW28729   2.385   2.267   0.080 -0.4894 -0.5387 -0.0499
 5757SOL    HW128730   2.419   2.178   0.086  0.3291 -0.1039  1.5020
 5757SOL    HW228731   2.386   2.299   0.170 -0.3114 -0.5864 -0.0346
 5758SOL     OW28732   0.638   2.304   2.376  0.5808  0.3876  0.5202
 5758SOL    HW128733   0.573   2.364   2.338 -0.0482  1.8203  3.8159
 5758SOL    HW228734   0.661   2.247   2.304  0.1414 -1.6276  1.9904
 5759SOL     OW28735   1.369   3.079   9.422 -0.5978  0.1761  0.2945
 5759SOL    HW128736   1.382   3.120   9.337 -1.2638 -1.5014 -0.6311
 5759SOL    HW228737   1.432   3.128   9.475  1.5425  0.3553 -2.4103
 5760SOL     OW28738   2.595   3.946   6.241  0.2624 -0.0655  0.2804
 5760SOL    HW128739   2.606   3.861   6.282 -2.5259 -0.6794 -0.2230
 5760SOL    HW228740   2.614   3.918   6.151  1.4819  1.1214  0.1719
 5761SOL     OW28741   4.288   2.102   3.767 -0.5366  0.0299 -0.1855
 5761SOL    HW128742   4.326   2.149   3.693  0.9827 -0.4142  0.2911
 5761SOL    HW228743   4.317   2.160   3.838 -0.6805  0.1598 -0.2347
 5762SOL     OW28744   3.931   1.988  13.855 -0.1633 -0.2083 -0.6043
 5762SOL    HW128745   3.895   2.020  13.773 -1.2616  1.4224  0.4902
 5762SOL    HW228746   3.957   1.898  13.839 -1.8617 -0.7085 -0.5115
 5763SOL     OW28747   0.009   2.736   6.430 -0.0068  0.7014  0.0854
 5763SOL    HW128748   4.679   2.796   6.378  2.3147  0.1098 -3.0019
 5763SOL    HW228749   0.026   2.788   6.509  2.3113 -1.0243  0.7053
 5764SOL     OW28750   2.765   3.576   0.565  0.2827 -0.2272  0.3318
 5764SOL    HW128751   2.849   3.612   0.592 -0.4676  0.4531  1.7445
 5764SOL    HW228752   2.728   3.634   0.498  0.0011 -0.8410 -0.0491
 5765SOL     OW28753   2.952   1.498  12.808  0.1283 -0.9871  0.5475
 5765SOL    HW128754   2.882   1.438  12.835  0.5328 -1.7880 -0.1727
 5765SOL    HW228755   2.941   1.575  12.863 -1.2113 -0.6625 -0.1495
 5766SOL     OW28756   0.050   3.881  11.997  0.6460 -0.1509  0.7245
 5766SOL    HW128757   0.016   3.805  12.044  2.9199 -0.3547  2.0269
 5766SOL    HW228758   4.690   3.912  11.962 -0.1747 -3.3314 -0.1245
 5767SOL     OW28759   0.390   0.862   3.114  0.2982  0.2338  0.2055
 5767SOL    HW128760   0.458   0.807   3.076  1.2678  0.3896  1.6985
 5767SOL    HW228761   0.342   0.875   3.033 -0.0666  1.2923  0.5862
 5768SOL     OW28762   1.622   0.861  12.749  0.0511  0.0425 -0.2230
 5768SOL    HW128763   1.574   0.942  12.766 -1.4551 -1.2823  1.7922
 5768SOL    HW228764   1.683   0.906  12.690  0.4676 -0.7296 -0.3750
 5769SOL     OW28765   2.309   3.395   7.925  0.6146 -0.3293 -0.4817
 5769SOL    HW128766   2.306   3.439   8.009 -0.5212 -0.8850 -0.2273
 5769SOL    HW228767   2.357   3.467   7.885  1.3992 -0.4015  0.3393
 5770SOL     OW28768   1.279   1.889   6.410 -0.4845  0.4141 -0.0949
 5770SOL    HW128769   1.255   1.968   6.458 -0.6183 -0.1324  0.7376
 5770SOL    HW228770   1.234   1.894   6.326  0.6668 -2.6374 -0.9015
 5771SOL     OW28771   4.553   1.639   8.600 -0.3960 -0.3333 -0.0050
 5771SOL    HW128772   4.484   1.701   8.577  0.1054  1.1552  2.5488
 5771SOL    HW228773   4.510   1.589   8.670 -0.9024 -0.3323 -0.3154
 5772SOL     OW28774   0.260   3.534  11.563 -0.1320  0.0353 -0.0620
 5772SOL    HW128775   0.249   3.629  11.565 -3.3033 -0.3247 -0.4138
 5772SOL    HW228776   0.325   3.523  11.493 -0.1120 -0.7632  0.0732
 5773SOL     OW28777   3.015   3.870  10.731  0.4504  0.0608  0.3578
 5773SOL    HW128778   3.008   3.963  10.752 -0.1920 -0.1520  1.1009
 5773SOL    HW228779   3.110   3.858  10.738  0.6906  1.4815 -0.4308
 5774SOL     OW28780   1.078   0.029  10.046  0.1199 -0.3532  0.3817
 5774SOL    HW128781   1.105   0.012   9.956 -1.8561 -2.4120  0.1769
 5774SOL    HW228782   1.020   0.104  10.036 -0.8139 -1.2530 -0.9937
 5775SOL     OW28783   2.935   4.228   7.651  0.5057  0.1201 -0.5227
 5775SOL    HW128784   2.851   4.251   7.691 -0.3334 -2.6564 -0.6852
 5775SOL    HW228785   2.943   4.138   7.684 -0.1916  0.8060  1.4711
 5776SOL     OW28786   4.217   2.190   0.263  0.2148  0.3416 -0.5404
 5776SOL    HW128787   4.306   2.157   0.272 -0.4356 -0.9877  1.1187
 5776SOL    HW228788   4.222   2.255   0.193  3.2309  2.5069  1.6753
 5777SOL     OW28789   4.671   0.027   3.129  0.0196 -0.2949 -0.1650
 5777SOL    HW128790   4.629   4.666   3.138  0.9498 -0.6744  0.5863
 5777SOL    HW228791   4.610   0.081   3.179  0.5053  0.1686 -0.0713
 5778SOL     OW28792   0.621   4.675   9.147 -0.1509  0.1001 -0.0048
 5778SOL    HW128793   0.534   4.698   9.112 -1.2430 -1.3315  1.7900
 5778SOL    HW228794   0.670   4.635   9.076  2.0471  0.9622  1.0383
 5779SOL     OW28795   3.993   1.533   0.198  0.1875 -0.1198  0.1711
 5779SOL    HW128796   3.969   1.445   0.167  1.3180 -0.3367 -0.0567
 5779SOL    HW228797   4.085   1.526   0.221  0.9827  4.5383 -1.7969
 5780SOL     OW28798   2.871   0.400  14.909 -0.4628 -0.4797 -0.6105
 5780SOL    HW128799   2.799   0.422  14.967  0.5313 -0.3672  0.5752
 5780SOL    HW228800   2.825   0.344  14.847  0.4031 -0.8891 -0.8972
 5781SOL     OW28801   3.464   1.300   4.151  0.0726 -0.2892 -0.0134
 5781SOL    HW128802   3.522   1.334   4.219  2.2069 -0.7294 -1.6538
 5781SOL    HW228803   3.391   1.286   4.211  0.0590 -1.7817 -0.3733
 5782SOL     OW28804   2.531   1.810   5.506  0.3461  0.2962  0.1514
 5782SOL    HW128805   2.603   1.756   5.472 -0.3492  0.0412 -0.9252
 5782SOL    HW228806   2.569   1.895   5.528 -0.3374  0.8270 -0.6837
 5783SOL     OW28807   3.308   1.466   1.715 -0.4913  0.0009  0.4755
 5783SOL    HW128808   3.218   1.454   1.747 -0.9538  1.5269 -0.2663
 5783SOL    HW228809   3.306   1.558   1.689 -1.0239  0.3238  1.6355
 5784SOL     OW28810   2.948   2.739   4.860  0.3170 -0.6723 -0.7426
 5784SOL    HW128811   2.866   2.752   4.812 -0.9239 -0.0255  1.5492
 5784SOL    HW228812   2.962   2.829   4.890 -2.2923 -1.1530  1.8926
 5785SOL     OW28813   3.468   1.000   8.845  0.2327  0.3799 -0.5703
 5785SOL    HW128814   3.404   1.027   8.911 -1.1765  0.5144 -2.0006
 5785SOL    HW228815   3.517   1.082   8.836  1.7468 -0.4409  0.0876
 5786SOL     OW28816   2.903   2.028  16.345  0.3439  0.1813  0.3221
 5786SOL    HW128817   2.870   2.117  16.358  0.2337  0.1714  0.1093
 5786SOL    HW228818   2.859   2.020  16.260 -0.3030  0.7187  0.6032
 5787SOL     OW28819   1.710   3.430   6.172 -0.2044  0.3291 -0.5735
 5787SOL    HW128820   1.718   3.472   6.258 -2.3908 -0.5654  0.0572
 5787SOL    HW228821   1.717   3.343   6.210  2.2020  0.3754 -0.8921
 5788SOL     OW28822   3.275   4.659   6.227  0.0174 -0.2743 -0.5188
 5788SOL    HW128823   3.331   4.667   6.150  0.1680  1.0764 -0.2677
 5788SOL    HW228824   3.294   4.567   6.247 -0.3964  0.0488  1.4449
 5789SOL     OW28825   4.656   1.096   6.939  0.9404  0.4415 -0.3445
 5789SOL    HW128826   0.005   1.036   6.925 -0.0542 -0.6668 -0.7699
 5789SOL    HW228827   4.665   1.134   7.027  1.5576  0.2875 -0.3399
 5790SOL     OW28828   2.630   3.504   4.234 -0.6207  0.2339  0.7334
 5790SOL    HW128829   2.610   3.425   4.184  2.3486  0.5040 -0.8852
 5790SOL    HW228830   2.646   3.459   4.317 -0.7965  1.3318  1.3586
 5791SOL     OW28831   1.863   0.475   9.349  0.3829 -0.5419 -0.6796
 5791SOL    HW128832   1.809   0.527   9.407 -0.2015 -1.3768 -0.4724
 5791SOL    HW228833   1.915   0.543   9.306  0.9155 -1.2848 -1.2077
 5792SOL     OW28834   3.103   1.055   3.775  0.3093 -0.0975 -0.2099
 5792SOL    HW128835   3.123   1.063   3.681  0.3210 -0.2558 -0.2210
 5792SOL    HW228836   3.156   1.130   3.801 -0.3857  0.3190  0.0261
 5793SOL     OW28837   3.583   0.043   8.585 -0.1319 -0.3184  0.1460
 5793SOL    HW128838   3.539   0.052   8.669  0.5104  3.2175  0.0893
 5793SOL    HW228839   3.667   0.006   8.614  0.8129  1.5743 -0.1917
 5794SOL     OW28840   0.578   0.894   2.755  0.2589  0.6858  0.7757
 5794SOL    HW128841   0.556   0.981   2.722 -0.8898  0.3121  0.5680
 5794SOL    HW228842   0.511   0.848   2.705  0.0953  1.6234  0.1374
 5795SOL     OW28843   3.196   4.437   7.055 -0.0924 -0.4119 -0.7203
 5795SOL    HW128844   3.287   4.407   7.059 -0.6984 -2.4696 -2.6154
 5795SOL    HW228845   3.150   4.353   7.045  2.0210 -1.7050  0.1855
 5796SOL     OW28846   4.435   4.359  16.211 -0.0761 -0.1930  0.3082
 5796SOL    HW128847   4.380   4.381  16.135 -1.3727  0.0335  1.3000
 5796SOL    HW228848   4.503   4.426  16.209  0.8683 -1.2076 -1.4737
 5797SOL     OW28849   3.791   4.085   6.900 -0.5619  0.4582 -0.0724
 5797SOL    HW128850   3.778   3.990   6.897  0.6091  0.3326 -1.1039
 5797SOL    HW228851   3.857   4.096   6.831  1.3276  1.6484  1.9137
 5798SOL     OW28852   3.664   2.950  17.223 -0.4710  0.0201  0.0122
 5798SOL    HW128853   3.703   3.037  17.223 -0.4815  0.0107  2.7600
 5798SOL    HW228854   3.664   2.918  17.313  0.0205 -0.5442 -0.1893
 5799SOL     OW28855   3.514   2.467   5.565  0.5736  0.0301 -0.2206
 5799SOL    HW128856   3.525   2.397   5.630  1.3892  0.6241  0.2769
 5799SOL    HW228857   3.593   2.467   5.512  0.5554  0.7079 -0.2509
 5800SOL     OW28858   1.230   2.072   6.619 -0.3746  0.2054  0.0429
 5800SOL    HW128859   1.310   2.124   6.616  1.6018 -2.8046  0.4123
 5800SOL    HW228860   1.244   2.033   6.705 -0.1918 -0.8561 -0.4691
 5801SOL     OW28861   3.735   0.986   8.412 -0.4190 -0.1508 -0.2400
 5801SOL    HW128862   3.797   0.956   8.478 -0.2454 -0.2161 -0.4310
 5801SOL    HW228863   3.786   0.987   8.331 -1.2124  2.1849 -0.7333
 5802SOL     OW28864   1.922   1.664   5.946  0.0035  0.1246  1.0121
 5802SOL    HW128865   2.000   1.650   6.000 -0.3126  0.2567  1.5048
 5802SOL    HW228866   1.958   1.723   5.880 -1.9282 -0.1040 -0.2476
 5803SOL     OW28867   0.796   3.153   2.139  0.2612 -0.0314 -0.1973
 5803SOL    HW128868   0.769   3.226   2.083  0.3504  0.1017 -0.0618
 5803SOL    HW228869   0.774   3.079   2.081 -0.7618  0.7089 -0.7667
 5804SOL     OW28870   0.814   4.325   7.823  0.3771  0.2041 -0.5017
 5804SOL    HW128871   0.829   4.357   7.735  0.5493  0.4855 -0.3690
 5804SOL    HW228872   0.723   4.298   7.811  1.0378 -1.5983 -1.4814
 5805SOL     OW28873   0.370   4.567   0.813  0.1728  0.9195 -0.0310
 5805SOL    HW128874   0.399   4.567   0.905 -1.0587  0.7696  0.3577
 5805SOL    HW228875   0.345   4.657   0.797 -0.9400  0.5142 -0.5495
 5806SOL     OW28876   3.464   3.266   8.929  0.1840  0.2136 -0.4442
 5806SOL    HW128877   3.502   3.241   8.845  2.2594  0.7106  0.3360
 5806SOL    HW228878   3.538   3.316   8.965  2.4729 -4.1519  1.0260
 5807SOL     OW28879   2.436   4.555   2.666 -0.6060 -0.7008  0.1256
 5807SOL    HW128880   2.404   4.467   2.645  0.6495 -1.7416  2.6650
 5807SOL    HW228881   2.477   4.585   2.584  1.8440  2.9917  2.6806
 5808SOL     OW28882   0.788   3.812   8.469 -0.0171  0.2941  0.0172
 5808SOL    HW128883   0.740   3.733   8.446 -1.4722  2.3429 -4.0301
 5808SOL    HW228884   0.717   3.871   8.493 -0.9448 -0.8872  0.1335
 5809SOL     OW28885   0.461   0.947   6.952  0.2348 -0.8281 -0.7071
 5809SOL    HW128886   0.515   0.869   6.965  0.9015  0.3099  3.2674
 5809SOL    HW228887   0.502   0.988   6.876  0.2897 -2.1446 -1.3968
 5810SOL     OW28888   3.516   3.791   4.068  0.2698 -0.1433  0.3425
 5810SOL    HW128889   3.520   3.717   4.008  1.3578  0.6389 -0.5436
 5810SOL    HW228890   3.609   3.814   4.069  0.6854 -1.8086 -0.6617
 5811SOL     OW28891   3.854   1.538   5.649 -0.2100 -0.0249  0.2199
 5811SOL    HW128892   3.843   1.526   5.744  1.0766 -0.2146  0.3485
 5811SOL    HW228893   3.881   1.450   5.624 -0.0055  0.2023 -0.3491
 5812SOL     OW28894   4.199   1.790  14.009  0.1571 -0.2776 -0.0892
 5812SOL    HW128895   4.132   1.722  14.001  0.6558 -0.4927 -2.4468
 5812SOL    HW228896   4.247   1.764  14.088 -1.3905 -1.2314  0.5375
 5813SOL     OW28897   0.647   4.061   3.153  0.2296 -0.2110 -0.3221
 5813SOL    HW128898   0.580   4.108   3.202 -0.5423 -0.9705 -0.6425
 5813SOL    HW228899   0.652   3.969   3.180 -1.9704 -0.3164 -0.2938
 5814SOL     OW28900   1.590   0.254   5.983 -0.4413 -0.6381 -0.9003
 5814SOL    HW128901   1.615   0.326   5.925 -1.1475 -0.5196 -1.0647
 5814SOL    HW228902   1.540   0.303   6.049  0.9739 -0.2662 -0.1180
 5815SOL     OW28903   3.487   2.546   9.993  0.3863 -0.8073  0.6613
 5815SOL    HW128904   3.409   2.563  10.046  0.8679 -1.3458  1.5284
 5815SOL    HW228905   3.547   2.539  10.066  0.4213  1.9936  0.8755
 5816SOL     OW28906   3.314   1.533   4.108 -0.0896  0.5023  0.9173
 5816SOL    HW128907   3.222   1.516   4.127 -0.2206  0.3074  0.1088
 5816SOL    HW228908   3.368   1.464   4.145 -0.6371 -1.8796 -2.7233
 5817SOL     OW28909   3.919   0.909   7.967 -0.4111 -0.2143 -0.2946
 5817SOL    HW128910   3.881   0.826   7.996 -0.0779 -0.5021 -0.6847
 5817SOL    HW228911   3.932   0.953   8.051  1.0434  1.1691 -1.2449
 5818SOL     OW28912   3.084   3.730   7.781 -0.5410 -0.3566 -0.2076
 5818SOL    HW128913   3.057   3.657   7.725 -1.7052  1.2249 -1.7020
 5818SOL    HW228914   3.160   3.689   7.823 -0.7932 -0.3241  0.2907
 5819SOL     OW28915   0.633   1.771  13.310  0.0509 -0.5344 -0.1164
 5819SOL    HW128916   0.692   1.835  13.349  0.2857 -1.9889  1.9099
 5819SOL    HW228917   0.672   1.761  13.223  0.0545  1.7216 -0.3679
 5820SOL     OW28918   2.653   4.625  13.250 -0.8633 -0.5407  0.1900
 5820SOL    HW128919   2.655   4.566  13.325 -1.7109  0.9842  1.4256
 5820SOL    HW228920   2.745   4.630  13.223 -0.8623  2.8518  0.7954
 5821SOL     OW28921   3.762   2.710   7.903 -0.5201  0.5842  0.2188
 5821SOL    HW128922   3.697   2.755   7.850  0.2002  1.0761 -0.2407
 5821SOL    HW228923   3.800   2.778   7.958  0.2566 -0.4241  0.9345
 5822SOL     OW28924   0.321   3.169   8.259 -0.6150  0.0620 -0.5882
 5822SOL    HW128925   0.343   3.122   8.340  3.5821  2.6740 -0.2101
 5822SOL    HW228926   0.377   3.247   8.258 -0.7854  0.1816 -0.6469
 5823SOL     OW28927   1.317   1.354   8.964 -0.3764  0.1078 -0.3122
 5823SOL    HW128928   1.286   1.397   9.044  1.5493  0.8292  0.0467
 5823SOL    HW228929   1.356   1.272   8.995 -0.4880 -0.0801 -0.6750
 5824SOL     OW28930   2.555   3.172   0.840  0.0665 -0.1330  0.1249
 5824SOL    HW128931   2.626   3.151   0.901  0.8386  1.1302 -0.3471
 5824SOL    HW228932   2.589   3.244   0.787  0.2322  1.4139  2.3168
 5825SOL     OW28933   3.100   0.709   7.388  0.0991  0.0252 -0.1391
 5825SOL    HW128934   3.178   0.755   7.420 -0.3563  0.3694  0.4711
 5825SOL    HW228935   3.050   0.708   7.469 -0.8248 -0.3821 -0.7177
 5826SOL     OW28936   1.243   2.071  11.956 -0.2277 -0.2138 -0.1453
 5826SOL    HW128937   1.269   2.009  12.025 -0.5933 -2.4633 -2.0416
 5826SOL    HW228938   1.311   2.138  11.958  0.6599 -1.0885 -1.9526
 5827SOL     OW28939   1.230   0.755  13.993 -0.5478 -0.4871  0.5887
 5827SOL    HW128940   1.195   0.715  13.914  1.2100 -2.2931  0.7208
 5827SOL    HW228941   1.308   0.699  13.994  0.6017  1.1288  2.0319
 5828SOL     OW28942   3.909   3.389   6.265 -0.1633 -0.0464 -0.2006
 5828SOL    HW128943   3.817   3.372   6.282 -0.1909 -1.4733 -1.6988
 5828SOL    HW228944   3.925   3.477   6.297  0.1199 -0.9909  2.2183
 5829SOL     OW28945   4.541   1.542   1.140 -0.0669 -0.4303  0.1582
 5829SOL    HW128946   4.511   1.632   1.147  0.8078 -0.2143  1.1541
 5829SOL    HW228947   4.630   1.552   1.176  0.6424  0.2910 -1.8150
 5830SOL     OW28948   1.218   1.054   9.903 -0.7785 -0.3609  0.0574
 5830SOL    HW128949   1.261   0.968   9.907 -0.0293  0.0033 -0.0796
 5830SOL    HW228950   1.136   1.041   9.950  0.0926 -3.6412  0.7168
 5831SOL     OW28951   1.298   2.835  12.083  0.4144 -0.0515 -0.4644
 5831SOL    HW128952   1.356   2.772  12.125 -0.9003 -0.2129  1.0974
 5831SOL    HW228953   1.252   2.884  12.152  1.8538  1.0872 -0.3131
 5832SOL     OW28954   0.981   3.710   1.905  0.2404  0.4635 -0.0796
 5832SOL    HW128955   1.055   3.766   1.928 -0.5680  1.6586 -0.3788
 5832SOL    HW228956   0.914   3.776   1.923 -0.1596 -0.0346  0.2400
 5833SOL     OW28957   3.392   1.227  14.692 -0.4826 -0.4226 -0.0820
 5833SOL    HW128958   3.382   1.257  14.602 -0.4460  0.6616  0.2779
 5833SOL    HW228959   3.310   1.178  14.702  0.3529 -1.8180 -0.0179
 5834SOL     OW28960   2.711   4.201   6.253  0.2659  0.0314 -0.1522
 5834SOL    HW128961   2.687   4.192   6.345  1.3034  0.3862  0.1604
 5834SOL    HW228962   2.722   4.107   6.236  0.5412 -0.5681  3.3537
 5835SOL     OW28963   2.593   0.961   5.909  0.0173 -0.2163 -0.2837
 5835SOL    HW128964   2.611   0.887   5.965 -1.3103  1.1003  1.8845
 5835SOL    HW228965   2.684   0.988   5.893 -0.0615 -0.5613 -1.3309
 5836SOL     OW28966   1.562   1.925   6.630 -0.2916  0.3278  0.0218
 5836SOL    HW128967   1.496   1.973   6.681  3.6513  2.7396  2.8701
 5836SOL    HW228968   1.641   1.973   6.653  0.0647 -0.3327  0.1691
 5837SOL     OW28969   0.764   4.261  11.870 -0.3998 -0.0524 -0.8766
 5837SOL    HW128970   0.715   4.300  11.943 -1.5660  0.0961 -1.7326
 5837SOL    HW228971   0.853   4.289  11.891 -0.5954  0.8804 -1.3262
 5838SOL     OW28972   4.214   4.472  15.386  0.2602  0.3876  0.5389
 5838SOL    HW128973   4.230   4.385  15.422  1.6848  0.8227  0.9503
 5838SOL    HW228974   4.302   4.508  15.397 -0.8061  3.0094  0.3712
 5839SOL     OW28975   2.436   3.796   2.819 -0.0703 -0.4241  0.5669
 5839SOL    HW128976   2.460   3.736   2.889  1.8505 -0.5184 -0.1740
 5839SOL    HW228977   2.515   3.795   2.765  0.0151  1.5706  0.6636
 5840SOL     OW28978   1.831   4.370   3.281  0.1049 -0.1116  0.5473
 5840SOL    HW128979   1.855   4.317   3.205 -0.9804 -1.1701  0.9400
 5840SOL    HW228980   1.847   4.459   3.251 -0.1079 -0.2167  0.1218
 5841SOL     OW28981   4.408   3.944   8.730 -0.2049 -0.0781  0.1010
 5841SOL    HW128982   4.321   3.940   8.768 -0.8218  2.6425 -1.0199
 5841SOL    HW228983   4.440   3.854   8.737 -2.6828 -0.7897  2.3366
 5842SOL     OW28984   2.242   4.686   2.800 -0.2654  0.0601 -0.2452
 5842SOL    HW128985   2.317   4.653   2.752 -0.2836  0.2748 -0.4221
 5842SOL    HW228986   2.170   4.649   2.749 -0.9732 -0.9168  1.4490
 5843SOL     OW28987   1.620   2.764  16.184  0.4503 -0.1246 -0.1934
 5843SOL    HW128988   1.567   2.731  16.256  1.1848 -1.0239 -0.0827
 5843SOL    HW228989   1.556   2.820  16.138  1.8606  0.0704 -1.9456
 5844SOL     OW28990   0.040   3.984  16.197  0.4612  0.3613 -0.4981
 5844SOL    HW128991   0.115   4.043  16.191 -0.2076  1.0495 -1.9190
 5844SOL    HW228992   4.699   4.031  16.145  0.5973 -0.9329 -1.8592
 5845SOL     OW28993   0.377   1.866  12.342  0.1517 -0.4976  0.3084
 5845SOL    HW128994   0.297   1.860  12.288  1.1571 -1.4118 -1.0841
 5845SOL    HW228995   0.444   1.804  12.312 -0.8809 -0.0492 -2.9829
 5846SOL     OW28996   4.185   0.890  12.841 -0.1573 -0.1809  0.3270
 5846SOL    HW128997   4.093   0.902  12.816 -0.3526 -0.1081  1.0606
 5846SOL    HW228998   4.175   0.875  12.935 -0.7495  2.7334  0.7436
 5847SOL     OW28999   0.916   2.973   3.825 -0.3978  0.0692  0.3392
 5847SOL    HW129000   0.927   2.934   3.739 -0.7112 -0.3239  0.4818
 5847SOL    HW229001   0.864   2.912   3.877 -0.6888 -1.6049 -1.9368
 5848SOL     OW29002   0.366   2.193   1.410 -0.1152 -0.1276 -0.4235
 5848SOL    HW129003   0.288   2.138   1.406 -0.8338  0.7219  2.0701
 5848SOL    HW229004   0.356   2.251   1.334  0.0266  0.5722  0.0869
 5849SOL     OW29005   0.230   2.194   8.450 -0.4147  0.1909  0.2122
 5849SOL    HW129006   0.180   2.240   8.382 -1.2913 -2.0700 -0.6592
 5849SOL    HW229007   0.169   2.128   8.482  0.6421 -1.7073 -1.7262
 5850SOL     OW29008   0.152   3.999  14.907 -0.3907 -0.1578  0.6104
 5850SOL    HW129009   0.161   3.904  14.917  0.2506  0.0084  1.6078
 5850SOL    HW229010   0.246   4.015  14.904 -0.7655  1.9250  0.1664
 5851SOL     OW29011   1.363   3.109   7.990 -0.3750  0.0906  0.0530
 5851SOL    HW129012   1.438   3.142   7.940 -0.5821 -0.4423 -0.6024
 5851SOL    HW229013   1.374   3.015   7.977 -0.4652 -0.0912  1.3254
 5852SOL     OW29014   2.052   2.711  15.446  0.0300  0.3430 -0.3411
 5852SOL    HW129015   2.125   2.694  15.506 -1.3187  1.2659  1.5568
 5852SOL    HW229016   2.032   2.619  15.430  0.3879  0.0713  0.7334
 5853SOL     OW29017   0.407   4.639   6.135  0.2557  0.1626 -0.3091
 5853SOL    HW129018   0.416   4.649   6.040 -0.6223 -1.8219 -0.5977
 5853SOL    HW229019   0.446   4.719   6.170 -0.4516  0.6866 -0.7128
 5854SOL     OW29020   1.140   0.368   9.904  0.0857 -0.2685  0.4896
 5854SOL    HW129021   1.172   0.296   9.850 -0.3400  1.0763 -1.5465
 5854SOL    HW229022   1.052   0.382   9.869  0.7035  0.2661 -0.8625
 5855SOL     OW29023   2.158   0.969  12.275  0.0763  0.3160 -0.0329
 5855SOL    HW129024   2.197   1.034  12.217  0.3864  1.0000  0.9413
 5855SOL    HW229025   2.208   0.992  12.354 -0.2426  1.0280 -0.0370
 5856SOL     OW29026   1.175   2.051  13.981 -0.3493 -0.0976  0.6361
 5856SOL    HW129027   1.213   2.056  13.893 -0.2633 -0.8868  0.6250
 5856SOL    HW229028   1.090   2.089  13.962 -0.0398  0.9203  1.3057
 5857SOL     OW29029   2.744   1.948   4.700  0.2327  0.3249  0.0634
 5857SOL    HW129030   2.776   1.929   4.788  0.1046  0.6259  0.1757
 5857SOL    HW229031   2.823   1.927   4.650 -0.2612  0.8521 -0.9549
 5858SOL     OW29032   4.446   2.866   4.069  0.4774  0.3900 -0.1179
 5858SOL    HW129033   4.541   2.861   4.057  0.9237  1.7040  2.8612
 5858SOL    HW229034   4.442   2.911   4.153  2.5628  1.0428 -0.3804
 5859SOL     OW29035   4.277   3.127   6.430 -0.0627  0.5268  0.7992
 5859SOL    HW129036   4.308   3.187   6.498 -2.4823 -0.0367  2.3828
 5859SOL    HW229037   4.310   3.046   6.467 -1.7564 -0.6262 -0.1985
 5860SOL     OW29038   0.276   2.652  11.310  0.1153  0.1168  0.5984
 5860SOL    HW129039   0.314   2.705  11.380  2.2376 -0.6729  0.0514
 5860SOL    HW229040   0.223   2.588  11.358  1.6110 -1.2065  0.4672
 5861SOL     OW29041   4.288   2.427   6.163  0.2629  0.3638 -0.1415
 5861SOL    HW129042   4.201   2.389   6.174  0.8769 -1.1176 -0.4201
 5861SOL    HW229043   4.286   2.451   6.070  1.4082 -1.6319 -0.6798
 5862SOL     OW29044   4.188   3.237   9.182  0.4992  0.5693 -0.1622
 5862SOL    HW129045   4.259   3.224   9.119  0.7055 -0.0109  0.1927
 5862SOL    HW229046   4.231   3.202   9.260  1.8213 -1.1648 -1.6656
 5863SOL     OW29047   2.393   1.554  14.230 -0.1028  0.8780 -0.2243
 5863SOL    HW129048   2.468   1.565  14.288  0.2032 -0.1979 -0.4149
 5863SOL    HW229049   2.383   1.643  14.196 -2.1249  0.3912 -0.8886
 5864SOL     OW29050   1.230   4.311   9.354 -0.1911  0.1292  0.2962
 5864SOL    HW129051   1.216   4.242   9.288 -0.0073  0.6396 -0.2726
 5864SOL    HW229052   1.325   4.322   9.350 -0.2315 -0.1024 -1.3421
 5865SOL     OW29053   2.258   0.841   5.785 -0.3730 -0.3950 -0.0584
 5865SOL    HW129054   2.349   0.840   5.816 -0.1500 -0.8352 -0.7310
 5865SOL    HW229055   2.257   0.903   5.712  0.9962  0.3773  0.5753
 5866SOL     OW29056   2.096   1.869   4.891 -0.2658 -0.1343  0.0629
 5866SOL    HW129057   2.074   1.962   4.888 -0.5493 -0.1416  2.0945
 5866SOL    HW229058   2.135   1.859   4.978 -0.6971 -1.0930  0.1367
 5867SOL     OW29059   4.257   3.676   8.983 -0.1309  0.0103 -0.5084
 5867SOL    HW129060   4.341   3.632   8.993 -1.0368 -1.6042 -0.0518
 5867SOL    HW229061   4.216   3.630   9.056 -1.0857 -0.9286 -1.6225
 5868SOL     OW29062   0.095   0.382   1.777 -0.1795  0.0937 -0.1158
 5868SOL    HW129063   0.089   0.329   1.698 -0.8791 -0.7478  0.5060
 5868SOL    HW229064   0.113   0.471   1.748 -1.1770 -0.0180 -1.0446
 5869SOL     OW29065   0.225   0.867   3.600 -0.0722  0.6157  0.0230
 5869SOL    HW129066   0.280   0.944   3.610 -0.1641  1.0220 -2.7167
 5869SOL    HW229067   0.290   0.807   3.563  0.2313  1.3538 -0.6266
 5870SOL     OW29068   4.682   0.684   7.198 -0.6593  0.0008 -0.3260
 5870SOL    HW129069   4.681   0.777   7.221 -0.3182 -0.0266 -0.2039
 5870SOL    HW229070   0.006   0.649   7.273 -1.7815  0.3991  0.5718
 5871SOL     OW29071   0.240   2.778  12.869 -0.2916 -0.0986  0.4983
 5871SOL    HW129072   0.171   2.821  12.819  0.8532 -0.3104 -1.2980
 5871SOL    HW229073   0.223   2.686  12.852  0.7552  0.2477 -2.5042
 5872SOL     OW29074   2.122   2.721   1.696 -0.0367  0.3642  0.2035
 5872SOL    HW129075   2.052   2.773   1.734  1.6231  0.7637  2.7226
 5872SOL    HW229076   2.171   2.688   1.772  1.3435  0.3505 -0.6949
 5873SOL     OW29077   4.512   2.530   6.956  0.1742  0.1447 -0.4695
 5873SOL    HW129078   4.479   2.453   7.002  1.0835 -0.7102 -1.2299
 5873SOL    HW229079   4.465   2.602   6.998  2.6138  1.1577  0.5126
 5874SOL     OW29080   3.134   0.832  11.223  0.0138  0.2833  0.2132
 5874SOL    HW129081   3.093   0.903  11.174 -2.6929 -1.0433  0.5603
 5874SOL    HW229082   3.052   0.794  11.253  0.6427  1.2680  3.1610
 5875SOL     OW29083   4.253   2.330  14.504  0.7557 -0.2811 -0.0403
 5875SOL    HW129084   4.279   2.284  14.424 -2.0560 -0.6384 -0.7408
 5875SOL    HW229085   4.217   2.405  14.458  1.3391  0.1482  0.2118
 5876SOL     OW29086   1.522   2.486  13.024 -0.4468 -0.1338 -0.0617
 5876SOL    HW129087   1.584   2.414  13.013  1.6021  1.5019  0.7961
 5876SOL    HW229088   1.566   2.544  13.086  0.6919  0.1803 -1.1569
 5877SOL     OW29089   2.584   4.639   9.208  0.6212  0.0225  0.1776
 5877SOL    HW129090   2.674   4.666   9.189  0.5271 -0.0148 -0.3214
 5877SOL    HW229091   2.538   4.710   9.163 -3.2171 -1.0899  2.4027
 5878SOL     OW29092   2.072   4.115   8.660 -1.0489 -0.2773 -0.0430
 5878SOL    HW129093   2.091   4.146   8.748 -1.6688 -0.5171  0.1807
 5878SOL    HW229094   2.157   4.088   8.625  0.2093  0.2850  2.6212
 5879SOL     OW29095   2.189   0.599  12.419 -0.3302 -0.6102  0.1108
 5879SOL    HW129096   2.227   0.683  12.444 -1.3559 -0.2858  0.5445
 5879SOL    HW229097   2.257   0.538  12.448  0.4236 -0.1045 -0.5807
 5880SOL     OW29098   3.320   2.146   7.145 -0.1466 -0.1202 -0.7788
 5880SOL    HW129099   3.314   2.174   7.054 -2.3688  1.1677 -0.2282
 5880SOL    HW229100   3.327   2.052   7.126 -0.5403 -0.2626 -0.2258
 5881SOL     OW29101   4.188   1.778   4.121 -0.7460 -0.1884  0.3982
 5881SOL    HW129102   4.178   1.700   4.067  3.0233 -0.2631 -0.2018
 5881SOL    HW229103   4.110   1.830   4.102 -1.4745 -1.6475 -0.6042
 5882SOL     OW29104   3.258   3.154   4.572 -0.1215 -0.0583 -0.2364
 5882SOL    HW129105   3.276   3.062   4.590 -1.6157 -0.3685 -0.3188
 5882SOL    HW229106   3.221   3.194   4.651 -0.2121 -1.4565  0.4238
 5883SOL     OW29107   1.290   3.562  10.072 -0.2552 -0.0533  0.1711
 5883SOL    HW129108   1.330   3.623  10.133  1.0136 -1.4604  0.7554
 5883SOL    HW229109   1.223   3.528  10.131  0.2990 -1.6171 -0.0948
 5884SOL     OW29110   1.798   4.093  14.365  0.1002 -0.5093 -0.2583
 5884SOL    HW129111   1.872   4.087  14.425 -0.3800  1.2432  0.5334
 5884SOL    HW229112   1.770   4.003  14.353  0.1101 -0.8521  2.1313
 5885SOL     OW29113   0.656   0.520   8.374  0.5374 -0.1963 -0.0369
 5885SOL    HW129114   0.638   0.612   8.391 -3.9556 -0.7015 -2.0668
 5885SOL    HW229115   0.653   0.477   8.460  0.0424  0.6295  0.3588
 5886SOL     OW29116   1.204   2.908   6.925 -0.4668 -0.2431 -0.0052
 5886SOL    HW129117   1.162   2.841   6.871  0.0239  0.9845 -1.9228
 5886SOL    HW229118   1.142   2.982   6.926  0.4637  0.5094  3.0569
 5887SOL     OW29119   1.461   3.070   2.862  0.3447 -0.3869 -0.9835
 5887SOL    HW129120   1.538   3.038   2.909 -0.2977  0.0112  0.3520
 5887SOL    HW229121   1.411   3.117   2.929  2.1848 -0.1892  0.2481
 5888SOL     OW29122   4.576   1.203   0.750  0.1184 -0.2955  0.0753
 5888SOL    HW129123   4.528   1.230   0.671 -0.7481  1.0224  1.0623
 5888SOL    HW229124   4.575   1.285   0.799  1.7883 -0.7192  0.8168
 5889SOL     OW29125   0.371   2.382   3.389 -0.0431 -0.0125 -0.1221
 5889SOL    HW129126   0.327   2.380   3.474  0.9544 -0.4414  0.3732
 5889SOL    HW229127   0.419   2.464   3.400 -1.4804  0.7626  0.3704
 5890SOL     OW29128   2.990   3.741   0.393  0.6124  0.7080  0.4466
 5890SOL    HW129129   3.065   3.791   0.362 -0.2726  0.5912 -1.8578
 5890SOL    HW229130   3.022   3.725   0.482  0.0630  0.2386  0.5593
 5891SOL     OW29131   0.544   3.081   1.274 -0.0469 -0.2163  0.1394
 5891SOL    HW129132   0.502   3.026   1.208 -0.3591 -0.8717  0.8818
 5891SOL    HW229133   0.616   3.125   1.227 -0.1281 -0.1229  0.1025
 5892SOL     OW29134   0.046   1.668  15.000  0.2646 -0.4676  0.5342
 5892SOL    HW129135   4.689   1.675  15.051 -0.8278 -0.0238 -1.2795
 5892SOL    HW229136   0.010   1.686  14.914 -2.1569 -0.0895  1.6249
 5893SOL     OW29137   0.946   1.476  11.657  0.0141 -0.9765  1.0974
 5893SOL    HW129138   1.003   1.548  11.632 -0.6927 -0.8198 -0.1039
 5893SOL    HW229139   0.998   1.399  11.682 -1.3733 -2.4717 -0.6037
 5894SOL     OW29140   3.628   2.587   2.485 -0.2078  0.6138  0.0326
 5894SOL    HW129141   3.599   2.559   2.398 -2.1450  1.4019  0.4032
 5894SOL    HW229142   3.572   2.530   2.538  0.3810 -0.3048 -0.3542
 5895SOL     OW29143   2.725   3.632   9.061  0.0915 -0.0322 -0.4955
 5895SOL    HW129144   2.743   3.545   9.098 -0.2968 -0.1133 -0.4997
 5895SOL    HW229145   2.754   3.619   8.971  2.4385 -0.6369  0.3363
 5896SOL     OW29146   3.281   3.233   5.713  0.0655  0.3650 -0.3939
 5896SOL    HW129147   3.310   3.231   5.621  0.2242  2.8737 -0.4074
 5896SOL    HW229148   3.361   3.273   5.745 -0.6183  0.2796  1.3871
 5897SOL     OW29149   1.189   0.811   8.858  0.2067 -0.0965 -0.2610
 5897SOL    HW129150   1.223   0.878   8.800 -2.2182  0.7834 -0.6493
 5897SOL    HW229151   1.173   0.857   8.941  0.5072 -0.8518  0.2195
 5898SOL     OW29152   3.343   1.371   6.778  0.6194 -0.7777  0.9185
 5898SOL    HW129153   3.284   1.299   6.757 -1.4324  1.4892 -1.1182
 5898SOL    HW229154   3.398   1.381   6.700 -0.9981 -1.7364 -0.3464
 5899SOL     OW29155   1.324   3.464  12.972 -0.2909  0.4232 -0.0936
 5899SOL    HW129156   1.263   3.493  13.040  0.7185  0.5363  0.7554
 5899SOL    HW229157   1.269   3.486  12.896  1.6891  0.7645 -1.4323
 5900SOL     OW29158   1.660   0.830  10.947 -0.1120  0.2690 -0.2462
 5900SOL    HW129159   1.733   0.867  10.996  0.3124 -0.5306 -0.2642
 5900SOL    HW229160   1.682   0.737  10.943 -1.2714 -0.0554  0.7729
 5901SOL     OW29161   0.830   2.364   8.808  0.2065  0.1635  0.5353
 5901SOL    HW129162   0.792   2.445   8.842 -0.0298 -0.1469  1.0173
 5901SOL    HW229163   0.769   2.302   8.849 -0.7569  0.1837 -0.8663
 5902SOL     OW29164   0.429   3.891   7.340 -0.0655  0.5636  0.2759
 5902SOL    HW129165   0.392   3.844   7.265 -1.6202  2.4559 -0.1530
 5902SOL    HW229166   0.418   3.824   7.407  2.7695 -0.6575 -0.4963
 5903SOL     OW29167   3.923   0.906   3.900  0.0814  0.6873  0.4229
 5903SOL    HW129168   3.972   0.986   3.878 -0.4656  0.8816 -0.0986
 5903SOL    HW229169   3.834   0.922   3.870 -0.0568  0.9716  0.9844
 5904SOL     OW29170   3.584   3.694   7.435 -0.2997 -0.0513  0.1546
 5904SOL    HW129171   3.654   3.661   7.380  0.2818  0.9111  0.3235
 5904SOL    HW229172   3.537   3.611   7.433 -0.4095 -0.0093  0.8281
 5905SOL     OW29173   1.510   2.219   8.916  0.1020 -0.0702 -0.2128
 5905SOL    HW129174   1.543   2.218   8.826 -0.5842  0.6189 -0.4730
 5905SOL    HW229175   1.445   2.149   8.908  0.2371 -0.2546  0.2714
 5906SOL     OW29176   0.599   3.539   1.785 -0.0030 -0.6875  0.7336
 5906SOL    HW129177   0.652   3.524   1.706  1.3792 -1.2100  1.7534
 5906SOL    HW229178   0.523   3.491   1.753  1.7874 -0.9963 -3.1358
 5907SOL     OW29179   4.412   2.271  11.572  0.1159  0.2087 -0.1186
 5907SOL    HW129180   4.423   2.227  11.656  0.1021  0.4236 -0.0040
 5907SOL    HW229181   4.468   2.227  11.508 -0.9063  1.7073 -2.0803
 5908SOL     OW29182   2.833   0.523   8.613  0.1883  0.2825 -0.0099
 5908SOL    HW129183   2.748   0.565   8.604 -1.2518 -3.1456 -2.7319
 5908SOL    HW229184   2.819   0.469   8.691  1.1315  0.6100  0.3840
 5909SOL     OW29185   0.147   1.916   2.647  0.0240 -0.3371  0.3224
 5909SOL    HW129186   0.062   1.873   2.647  0.2914 -0.8585  2.1108
 5909SOL    HW229187   0.125   2.009   2.652  0.6100 -0.0833 -1.6192
 5910SOL     OW29188   3.872   4.179   4.034  0.1677  0.0785  0.1408
 5910SOL    HW129189   3.906   4.258   4.078  0.4647  0.4664 -0.7967
 5910SOL    HW229190   3.943   4.157   3.975 -0.4854 -0.9888 -0.2425
 5911SOL     OW29191   3.587   1.483   7.155  0.5106  0.8484 -0.1354
 5911SOL    HW129192   3.507   1.467   7.106  1.4559 -2.1382 -0.6892
 5911SOL    HW229193   3.571   1.419   7.225 -0.1135  0.1741 -0.9028
 5912SOL     OW29194   1.373   4.586  11.510 -0.3363  0.2139 -0.4649
 5912SOL    HW129195   1.290   4.631  11.522 -0.3711  0.8524 -3.1215
 5912SOL    HW229196   1.406   4.626  11.429  1.7052  1.9677  1.1880
 5913SOL     OW29197   0.116   3.187   0.316 -0.4944  0.2598  0.1185
 5913SOL    HW129198   0.082   3.157   0.231 -1.9826  0.8529  0.4997
 5913SOL    HW229199   0.037   3.224   0.355  0.0648  4.0992 -2.3238
 5914SOL     OW29200   1.854   3.655   5.420  0.0319  0.1475 -0.1885
 5914SOL    HW129201   1.823   3.745   5.408  0.0040  0.3823  1.6328
 5914SOL    HW229202   1.804   3.620   5.494  1.9233 -0.0902  0.9821
 5915SOL     OW29203   3.284   2.168  16.465  0.5981 -0.0503 -0.1546
 5915SOL    HW129204   3.344   2.180  16.539  4.0829  0.8494 -3.1011
 5915SOL    HW229205   3.245   2.101  16.521 -1.3830  1.7514  0.6069
 5916SOL     OW29206   0.866   0.155  11.967 -0.4192  0.0814  0.4181
 5916SOL    HW129207   0.954   0.151  12.005 -0.0076  0.8708 -0.4527
 5916SOL    HW229208   0.816   0.143  12.048  0.5668  2.1335  1.3187
 5917SOL     OW29209   0.699   2.571   6.723 -0.3707 -0.4619 -0.1132
 5917SOL    HW129210   0.700   2.476   6.716 -0.5464 -0.4297 -0.6098
 5917SOL    HW229211   0.604   2.575   6.720 -0.4355 -2.4475 -0.2934
 5918SOL     OW29212   3.989   1.555  11.109 -0.1705  0.3328  0.2252
 5918SOL    HW129213   3.993   1.645  11.142 -1.2251  0.7212 -0.7095
 5918SOL    HW229214   4.004   1.499  11.185 -0.4253 -0.9423 -0.6680
 5919SOL     OW29215   1.956   4.362   6.422  0.2513 -0.3263  0.2396
 5919SOL    HW129216   1.955   4.329   6.332 -0.7713 -3.2976  1.3398
 5919SOL    HW229217   1.884   4.425   6.429 -0.0851 -0.6588 -0.2928
 5920SOL     OW29218   2.862   0.961   3.767 -0.1944  0.1834  0.4995
 5920SOL    HW129219   2.845   0.932   3.857 -1.3745 -2.6834 -0.6457
 5920SOL    HW229220   2.945   1.009   3.775 -0.4644  0.9581 -1.3836
 5921SOL     OW29221   3.682   1.041   6.737 -0.3776 -0.1648 -0.1960
 5921SOL    HW129222   3.775   1.062   6.724 -1.6037  5.3072  0.1092
 5921SOL    HW229223   3.665   0.956   6.696  0.7367  0.0195 -1.0450
 5922SOL     OW29224   0.748   1.540   6.008  0.1509  0.0962  0.2479
 5922SOL    HW129225   0.711   1.504   6.088  1.6716  1.0102  1.3723
 5922SOL    HW229226   0.666   1.579   5.979  1.0640  2.4107  0.7284
 5923SOL     OW29227   4.115   2.676   0.155 -0.3769 -0.8998  0.2238
 5923SOL    HW129228   4.082   2.633   0.077 -1.6571  2.6588 -1.1783
 5923SOL    HW229229   4.048   2.743   0.163 -0.1351 -0.8530  1.8352
 5924SOL     OW29230   1.987   4.239   4.586  0.4352  0.6514 -0.0488
 5924SOL    HW129231   1.978   4.158   4.536 -0.0954 -0.0870  1.2373
 5924SOL    HW229232   2.071   4.218   4.628 -1.6757 -3.4498  2.1150
 5925SOL     OW29233   0.290   3.085   4.356 -0.2053 -0.0802 -0.2828
 5925SOL    HW129234   0.321   3.166   4.397 -0.6925 -0.0910  0.1104
 5925SOL    HW229235   0.342   3.023   4.407  0.7372 -0.0505 -1.2087
 5926SOL     OW29236   4.091   4.492   5.172 -0.5851 -0.6397  0.3837
 5926SOL    HW129237   3.997   4.492   5.184 -0.5540  0.8581  0.5970
 5926SOL    HW229238   4.126   4.404   5.185  1.3156  0.3795  2.3159
 5927SOL     OW29239   3.869   1.293   2.903  0.0521  0.5730  0.3948
 5927SOL    HW129240   3.812   1.370   2.897  0.6186  1.1047  1.8151
 5927SOL    HW229241   3.891   1.281   2.810  1.0153  1.8891  0.4443
 5928SOL     OW29242   2.375   1.616   7.175  0.1929 -0.5211  0.0179
 5928SOL    HW129243   2.330   1.665   7.106  0.4208  0.4688  0.5690
 5928SOL    HW229244   2.312   1.549   7.203 -1.6538  0.1166 -2.6454
 5929SOL     OW29245   2.230   2.767   5.015  0.0184 -0.1635  0.1823
 5929SOL    HW129246   2.270   2.747   5.100  0.7478  1.8421  0.2903
 5929SOL    HW229247   2.210   2.859   5.027  2.0389  0.2394  0.4975
 5930SOL     OW29248   0.764   2.468   1.993 -0.3599 -0.5081 -0.2457
 5930SOL    HW129249   0.729   2.490   1.907 -0.8833 -0.2927  0.0222
 5930SOL    HW229250   0.835   2.413   1.958 -0.0794 -0.4423  0.2147
 5931SOL     OW29251   4.662   3.237   5.356 -0.2584 -0.0847 -0.2049
 5931SOL    HW129252   4.572   3.269   5.367 -0.7626 -0.8766 -1.9913
 5931SOL    HW229253   4.692   3.240   5.446 -1.5637 -0.1436  0.2245
 5932SOL     OW29254   2.422   0.552   4.536  0.5822 -0.2610  0.3056
 5932SOL    HW129255   2.496   0.589   4.583  0.0303 -1.2156  1.9242
 5932SOL    HW229256   2.379   0.492   4.597  0.0698  0.8131  1.0033
 5933SOL     OW29257   4.567   3.476   0.879  0.1020 -0.8700  0.1214
 5933SOL    HW129258   4.566   3.555   0.824  0.9848  1.1226  3.0143
 5933SOL    HW229259   4.654   3.444   0.855  0.3318  0.4431 -0.7784
 5934SOL     OW29260   2.765   0.930   4.011 -0.1215  0.0328  0.2882
 5934SOL    HW129261   2.692   0.883   3.970 -1.2384  1.2135  0.9362
 5934SOL    HW229262   2.715   0.940   4.092  0.1418 -0.0517  0.4624
 5935SOL     OW29263   0.587   1.007   9.700  0.6020 -0.7877 -0.0263
 5935SOL    HW129264   0.530   0.966   9.765 -1.8233  1.2379 -0.8774
 5935SOL    HW229265   0.664   1.027   9.752  0.6237 -0.3160 -0.2446
 5936SOL     OW29266   3.908   1.309   7.813 -0.3692  0.1628 -0.2664
 5936SOL    HW129267   3.896   1.366   7.888  0.8494  0.4029 -0.2511
 5936SOL    HW229268   4.003   1.309   7.799 -0.2653 -2.4711  0.5281
 5937SOL     OW29269   1.950   2.944   4.798  0.0800 -0.0102  0.5217
 5937SOL    HW129270   1.866   2.987   4.815  0.3380  0.8885 -0.4529
 5937SOL    HW229271   1.980   2.931   4.888 -0.6866 -0.4363  0.7150
 5938SOL     OW29272   2.507   1.936   6.116 -1.0478 -0.0820 -0.1807
 5938SOL    HW129273   2.491   1.894   6.201 -0.0086  0.2162  0.1658
 5938SOL    HW229274   2.480   1.868   6.055  1.8841 -0.1522 -1.3569
 5939SOL     OW29275   4.140   4.272   4.658  0.3525  0.0440  0.0873
 5939SOL    HW129276   4.233   4.258   4.672  0.5907  1.0379 -0.4888
 5939SOL    HW229277   4.109   4.184   4.634  1.0165 -0.2198  0.2060
 5940SOL     OW29278   0.097   0.030  16.044  0.1238  0.4761 -0.3440
 5940SOL    HW129279   0.157   0.103  16.028  0.5988  0.1396 -0.0937
 5940SOL    HW229280   0.052   0.057  16.124  1.5872  1.5757  0.0973
 5941SOL     OW29281   2.200   2.640   5.673 -0.3783  0.1507 -0.2993
 5941SOL    HW129282   2.156   2.620   5.756 -1.8325  3.1890 -0.3506
 5941SOL    HW229283   2.183   2.731   5.652  0.7456  0.9949  2.4833
 5942SOL     OW29284   3.682   3.949   8.983 -0.0467  0.3285 -0.3458
 5942SOL    HW129285   3.600   3.974   9.026  0.3620 -0.6327  0.9684
 5942SOL    HW229286   3.646   3.871   8.940  1.3961  0.6811 -2.1797
 5943SOL     OW29287   1.830   3.139   6.049  0.4816  0.5706 -0.3508
 5943SOL    HW129288   1.828   3.068   6.114  1.0849  0.4318 -0.4823
 5943SOL    HW229289   1.735   3.149   6.036  0.2072 -0.2024  0.9735
 5944SOL     OW29290   0.983   0.555  10.456  0.1436  0.4069 -0.4898
 5944SOL    HW129291   0.965   0.649  10.455  0.7830  0.5484  2.9036
 5944SOL    HW229292   1.022   0.549  10.543 -1.9033  0.5083  0.4298
 5945SOL     OW29293   4.361   1.046  12.707  0.2833  0.4943 -0.1826
 5945SOL    HW129294   4.324   1.056  12.619  1.1469  1.8105 -0.3968
 5945SOL    HW229295   4.302   0.984  12.751  0.8380 -0.6766 -1.0663
 5946SOL     OW29296   1.527   1.277   8.382  0.6504  0.3418 -0.6137
 5946SOL    HW129297   1.595   1.296   8.447  0.7303 -0.0988 -0.5736
 5946SOL    HW229298   1.565   1.197   8.346  2.1077  0.4023  0.7607
 5947SOL     OW29299   1.721   2.251   6.007  0.5141  0.5961 -0.1800
 5947SOL    HW129300   1.664   2.177   5.987 -0.2085  1.2089 -0.3717
 5947SOL    HW229301   1.732   2.255   6.103  1.5149  1.2815 -0.3157
 5948SOL     OW29302   1.167   4.343   4.866  0.1973  0.8524 -0.0456
 5948SOL    HW129303   1.179   4.249   4.877  0.0767  0.9853  1.2827
 5948SOL    HW229304   1.161   4.362   4.960  1.5527  0.3332  0.1413
 5949SOL     OW29305   2.955   3.592   4.812 -0.1654 -0.5793 -0.5355
 5949SOL    HW129306   2.881   3.597   4.873  2.9767 -1.7168  3.3706
 5949SOL    HW229307   3.025   3.568   4.873  0.2762  0.4906 -0.6283
 5950SOL     OW29308   1.216   3.743   1.302  0.1641 -0.8150  0.2327
 5950SOL    HW129309   1.263   3.786   1.374 -1.7999 -2.0166  2.2492
 5950SOL    HW229310   1.125   3.757   1.328  0.1239  1.3463 -1.0952
 5951SOL     OW29311   4.068   2.999   3.313  0.4728  0.6273  1.0738
 5951SOL    HW129312   4.051   2.967   3.224 -1.3388  2.0580  0.9171
 5951SOL    HW229313   4.021   3.082   3.320 -1.1456 -0.1015 -1.2940
 5952SOL     OW29314   0.821   1.060  13.139  0.9297  0.2030 -0.4329
 5952SOL    HW129315   0.755   1.028  13.077 -0.4092  0.6058  0.8007
 5952SOL    HW229316   0.895   1.096  13.090 -0.0164 -0.0617 -2.0695
 5953SOL     OW29317   3.358   3.946  16.195 -0.1774  0.4740 -0.1223
 5953SOL    HW129318   3.350   4.038  16.220 -2.4621 -0.3364  2.1683
 5953SOL    HW229319   3.268   3.917  16.206  0.4797 -1.2843  0.7572
 5954SOL     OW29320   1.096   1.730   1.688  0.2126  0.1796 -0.8111
 5954SOL    HW129321   1.044   1.695   1.616 -0.7691 -0.7709  0.3564
 5954SOL    HW229322   1.140   1.802   1.643 -0.0710  1.1827  0.5219
 5955SOL     OW29323   2.470   1.871  11.430  0.1052  0.2433 -0.1545
 5955SOL    HW129324   2.509   1.902  11.512 -1.4597  4.7550 -1.1344
 5955SOL    HW229325   2.386   1.839  11.462  0.0712  1.2968  0.8288
 5956SOL     OW29326   2.896   1.233   5.429  0.5625 -0.4668 -0.1874
 5956SOL    HW129327   2.940   1.312   5.459 -1.9384 -0.3094  2.9925
 5956SOL    HW229328   2.952   1.224   5.351 -0.7401 -2.2788 -0.9137
 5957SOL     OW29329   1.026   1.517   3.272  0.2259 -0.4203  0.0706
 5957SOL    HW129330   0.953   1.457   3.287  1.0902 -1.6010 -0.3740
 5957SOL    HW229331   0.984   1.586   3.221 -0.8199 -0.2966  1.0887
 5958SOL     OW29332   1.067   2.651   9.122  0.2189 -0.0568  0.7263
 5958SOL    HW129333   0.985   2.604   9.108  1.5022 -1.5429 -1.8233
 5958SOL    HW229334   1.061   2.677   9.214  0.1664 -0.4802  0.8421
 5959SOL     OW29335   2.464   1.333   7.719 -0.1743  0.7994  0.4832
 5959SOL    HW129336   2.488   1.349   7.627 -0.0976 -0.0995  0.3455
 5959SOL    HW229337   2.545   1.361   7.761  1.4287 -0.6987 -1.5962
 5960SOL     OW29338   4.715   1.559   7.816 -0.6009 -0.3565  0.0022
 5960SOL    HW129339   4.656   1.540   7.889 -0.6856 -0.5512 -0.1172
 5960SOL    HW229340   0.020   1.648   7.837 -2.3484  0.2073  0.0701
 5961SOL     OW29341   1.231   2.420   7.220 -0.3587  0.5877 -0.2912
 5961SOL    HW129342   1.272   2.402   7.304  2.1074  0.9307 -1.4169
 5961SOL    HW229343   1.166   2.351   7.207  2.5989 -2.5641  1.6818
 5962SOL     OW29344   1.726   3.270   1.818 -0.0247 -0.0014  0.2593
 5962SOL    HW129345   1.755   3.361   1.832  1.9252 -0.4908 -0.6738
 5962SOL    HW229346   1.667   3.247   1.891 -0.6566  1.7008  0.2840
 5963SOL     OW29347   2.318   1.872  15.183 -0.4936 -0.1375  0.2315
 5963SOL    HW129348   2.413   1.875  15.169 -0.3156 -3.0804  0.7438
 5963SOL    HW229349   2.286   1.914  15.104  0.1197  1.5887  0.9069
 5964SOL     OW29350   4.575   1.399   4.254 -0.2623 -0.3215  0.2508
 5964SOL    HW129351   4.486   1.396   4.219 -0.4357 -1.8013  0.8146
 5964SOL    HW229352   4.617   1.478   4.220  1.9384 -1.3732  0.5125
 5965SOL     OW29353   1.858   0.174   4.466 -0.4570 -0.4484  0.0813
 5965SOL    HW129354   1.795   0.245   4.455  0.2331  0.3988  1.5612
 5965SOL    HW229355   1.878   0.152   4.375 -0.8706 -0.5166  0.0046
 5966SOL     OW29356   4.501   4.337   2.737 -0.3779  0.3260  0.1878
 5966SOL    HW129357   4.522   4.244   2.724 -2.1422  0.0286 -0.4893
 5966SOL    HW229358   4.431   4.327   2.802 -1.5789 -0.0985 -1.1904
 5967SOL     OW29359   0.668   4.181   9.151  0.1744 -0.1275  0.2069
 5967SOL    HW129360   0.674   4.219   9.239  1.6512  1.5720 -0.6359
 5967SOL    HW229361   0.630   4.252   9.099 -1.7968  0.7887  2.8712
 5968SOL     OW29362   2.035   4.500   5.405  0.2708 -0.2179  0.5286
 5968SOL    HW129363   2.081   4.561   5.347  0.6309 -0.5210  0.4917
 5968SOL    HW229364   2.095   4.510   5.480 -0.2683  2.9514  0.5178
 5969SOL     OW29365   1.012   3.164   0.693 -0.5901 -0.5073 -0.3006
 5969SOL    HW129366   1.094   3.138   0.735  0.1501  1.2494 -0.6363
 5969SOL    HW229367   1.043   3.173   0.603 -0.9922 -3.0452 -0.7027
 5970SOL     OW29368   1.922   3.202   5.497  0.7689  0.1957 -0.0950
 5970SOL    HW129369   1.891   3.205   5.587 -1.2371 -1.2836 -0.7310
 5970SOL    HW229370   2.012   3.228   5.517 -0.1891  2.6876  0.9096
 5971SOL     OW29371   1.294   1.656  14.306  0.5306 -0.1869 -0.5013
 5971SOL    HW129372   1.363   1.597  14.336  1.0784  0.5401 -0.3338
 5971SOL    HW229373   1.261   1.612  14.228 -1.1383 -0.4394  0.3432
 5972SOL     OW29374   2.533   1.141  10.690  0.1378  0.0737  0.1710
 5972SOL    HW129375   2.453   1.119  10.737 -0.0157  0.2926  0.0163
 5972SOL    HW229376   2.546   1.229  10.725  2.9049 -0.3335  0.1981
 5973SOL     OW29377   2.222   3.683  10.859  0.0171  0.2038  0.0886
 5973SOL    HW129378   2.169   3.759  10.834 -0.6074 -0.1741  0.2572
 5973SOL    HW229379   2.164   3.639  10.921  0.9015  1.0183  1.5028
 5974SOL     OW29380   0.020   0.691   8.436  0.5209  0.8241  0.1801
 5974SOL    HW129381   4.702   0.649   8.511  1.9043 -2.1550 -0.6708
 5974SOL    HW229382   0.048   0.765   8.490 -0.6896  0.9026  0.6887
 5975SOL     OW29383   4.586   3.648  15.771 -0.1757  0.3200 -0.1658
 5975SOL    HW129384   4.562   3.689  15.688 -1.3214 -0.0460 -0.0198
 5975SOL    HW229385   4.596   3.727  15.824 -1.4483 -1.4223  2.6207
 5976SOL     OW29386   4.334   2.502  13.150 -0.5459 -0.1844  0.4148
 5976SOL    HW129387   4.379   2.500  13.234  2.1432  0.5983 -1.0238
 5976SOL    HW229388   4.243   2.523  13.175  0.2761  1.9437  1.6359
 5977SOL     OW29389   2.336   2.229   9.010  0.2277 -0.2044  1.1951
 5977SOL    HW129390   2.389   2.151   9.029  1.1418  0.4219  1.2429
 5977SOL    HW229391   2.260   2.199   9.060 -0.4298  1.5895  1.2770
 5978SOL     OW29392   0.154   3.803  11.518  0.1839  0.1682 -1.0340
 5978SOL    HW129393   0.200   3.886  11.505  2.9105 -0.4809  4.2486
 5978SOL    HW229394   0.147   3.795  11.614 -2.0176  1.2019 -1.1163
 5979SOL     OW29395   1.003   0.477  17.687  0.6092 -0.1015 -0.0485
 5979SOL    HW129396   1.004   0.414  17.615 -2.5140 -1.1230  0.8325
 5979SOL    HW229397   1.042   0.548  17.636  1.0935  0.5484  1.2051
 5980SOL     OW29398   2.056   4.102  14.464  0.6017 -0.1059 -0.3773
 5980SOL    HW129399   2.141   4.057  14.457  1.1400  0.8787 -0.2141
 5980SOL    HW229400   2.075   4.176  14.523 -3.4169 -0.0300  0.8006
 5981SOL     OW29401   2.310   2.487   2.643 -0.3988 -0.4088 -0.2190
 5981SOL    HW129402   2.292   2.510   2.552  0.2256 -0.7912 -0.4377
 5981SOL    HW229403   2.223   2.491   2.683  0.4840 -1.4213  1.8309
 5982SOL     OW29404   3.070   4.000   5.476 -0.3260  0.2763 -0.1807
 5982SOL    HW129405   3.095   4.075   5.529 -0.9085 -0.1792  0.7403
 5982SOL    HW229406   3.114   4.014   5.392  0.5042  0.6399  0.3153
 5983SOL     OW29407   3.712   1.572   2.532 -0.2221 -0.0358 -0.5628
 5983SOL    HW129408   3.713   1.489   2.485 -0.4576  0.6869 -1.8283
 5983SOL    HW229409   3.749   1.626   2.462 -1.5628  0.5687 -0.8114
 5984SOL     OW29410   2.136   0.470   3.982 -0.1543  0.1440  0.6065
 5984SOL    HW129411   2.061   0.454   3.925  2.3306 -2.3448 -1.9524
 5984SOL    HW229412   2.210   0.431   3.936 -0.3441  1.1399 -0.5612
 5985SOL     OW29413   3.686   2.982  15.960  0.7217  0.3637  0.3501
 5985SOL    HW129414   3.698   3.044  16.031  2.1635 -0.8981  1.2047
 5985SOL    HW229415   3.762   2.990  15.903  1.7361 -1.1384  1.4757
 5986SOL     OW29416   1.770   0.551   6.324 -0.2641  0.7249  0.1130
 5986SOL    HW129417   1.829   0.626   6.331 -0.1095  0.4859  1.3460
 5986SOL    HW229418   1.720   0.561   6.405  0.7770 -0.2072  0.8669
 5987SOL     OW29419   4.530   1.350   6.783  0.0430  0.7225  0.3905
 5987SOL    HW129420   4.531   1.423   6.845 -0.5449  1.7890 -0.8643
 5987SOL    HW229421   4.578   1.281   6.830 -0.7863  0.8544  1.4392
 5988SOL     OW29422   3.277   4.556   8.627  0.1822 -0.3449  0.3954
 5988SOL    HW129423   3.231   4.624   8.578  0.8951 -0.4955 -0.4669
 5988SOL    HW229424   3.213   4.484   8.629  1.3959 -1.4249  0.8145
 5989SOL     OW29425   1.580   3.786   3.077 -0.5291 -0.2079 -0.1292
 5989SOL    HW129426   1.633   3.865   3.074  0.3989 -0.7576  2.0493
 5989SOL    HW229427   1.528   3.799   3.156  1.0581  2.0311  0.5319
 5990SOL     OW29428   0.266   0.345  13.791  0.9461  0.4608  0.3503
 5990SOL    HW129429   0.242   0.318  13.702  0.1736 -3.3767  1.7259
 5990SOL    HW229430   0.339   0.402  13.767  0.0637  1.9119  1.1121
 5991SOL     OW29431   0.575   2.397  13.413  0.1190 -0.7351  0.0324
 5991SOL    HW129432   0.648   2.436  13.461 -0.4331  1.1603 -0.6550
 5991SOL    HW229433   0.500   2.399  13.473 -0.7191 -0.7360 -1.0147
 5992SOL     OW29434   2.200   3.058  17.268  0.7896  0.1546  0.5764
 5992SOL    HW129435   2.165   2.999  17.201  1.3196  1.0087 -0.4555
 5992SOL    HW229436   2.134   3.126  17.260  0.9479  0.0998 -1.2924
 5993SOL     OW29437   4.356   3.824  16.857  0.3201  0.4880 -0.0505
 5993SOL    HW129438   4.384   3.914  16.869  0.5929  0.4583 -0.4739
 5993SOL    HW229439   4.353   3.797  16.949 -1.1053  0.5706 -0.0819
 5994SOL     OW29440   4.235   2.517  10.056 -0.6637  0.0435 -0.2461
 5994SOL    HW129441   4.325   2.486  10.049 -0.4616  0.1793  1.8458
 5994SOL    HW229442   4.232   2.560  10.141 -0.9372 -0.2371 -0.1166
 5995SOL     OW29443   2.063   2.196   3.052 -0.1820  0.2735 -0.4822
 5995SOL    HW129444   2.016   2.199   3.136 -0.6226 -0.7922 -0.6870
 5995SOL    HW229445   2.093   2.105   3.061  0.4648  0.7799  2.7606
 5996SOL     OW29446   2.715   2.680   6.183 -0.1625  0.3501  0.3233
 5996SOL    HW129447   2.770   2.602   6.188 -0.0943  0.4567  1.2398
 5996SOL    HW229448   2.762   2.721   6.109 -0.9347 -0.2303 -0.4874
 5997SOL     OW29449   1.088   3.477   1.857  0.1260  0.0017  0.0998
 5997SOL    HW129450   1.114   3.451   1.946  1.8737 -2.4898 -1.1505
 5997SOL    HW229451   1.045   3.558   1.884  1.0584  0.4951  0.0837
 5998SOL     OW29452   4.299   4.139  12.765  0.6923  0.4882 -0.1119
 5998SOL    HW129453   4.381   4.136  12.716 -0.0162  0.1903 -1.2762
 5998SOL    HW229454   4.302   4.052  12.806  0.6114 -0.2591 -1.6884
 5999SOL     OW29455   0.907   3.359   2.635  0.0642 -0.1701 -0.0362
 5999SOL    HW129456   0.996   3.357   2.601  1.6393  0.5798  3.9632
 5999SOL    HW229457   0.860   3.307   2.570  1.6164 -0.4858 -0.9011
 6000SOL     OW29458   1.868   0.140  11.913  0.5624  0.2936  0.4028
 6000SOL    HW129459   1.916   0.222  11.903  0.9668 -0.1698 -1.5030
 6000SOL    HW229460   1.815   0.168  11.988 -1.8855  1.2367 -1.6952
 6001SOL     OW29461   0.565   0.128   8.477  0.3649  0.1803  0.1712
 6001SOL    HW129462   0.651   0.150   8.440  0.2042  1.2534  0.4329
 6001SOL    HW229463   0.541   0.059   8.414  1.2095  0.8511 -0.8992
 6002SOL     OW29464   2.034   2.223   5.568  0.3755  0.3602  0.1449
 6002SOL    HW129465   2.106   2.182   5.521 -2.1143 -1.5470 -2.0468
 6002SOL    HW229466   2.059   2.218   5.660 -3.9374  1.0491  1.3620
 6003SOL     OW29467   1.390   2.417   7.460 -0.6111 -0.3549 -0.8421
 6003SOL    HW129468   1.323   2.392   7.524  0.7124 -1.1270  0.2501
 6003SOL    HW229469   1.459   2.444   7.522 -0.1793  1.9824 -2.3652
 6004SOL     OW29470   1.966   0.102   4.210  0.5717 -0.1742  0.1218
 6004SOL    HW129471   1.913   0.043   4.155 -0.1202  0.8057 -0.2694
 6004SOL    HW229472   2.045   0.052   4.230 -0.0889 -0.5121  1.8279
 6005SOL     OW29473   0.136   3.536  15.004 -0.0552  0.1261 -0.0055
 6005SOL    HW129474   0.214   3.518  15.057 -0.9019  0.1274  1.2633
 6005SOL    HW229475   0.112   3.627  15.022 -0.2538  0.0051  0.3590
 6006SOL     OW29476   4.479   3.207  17.499  0.1708 -0.1103 -0.2419
 6006SOL    HW129477   4.541   3.160  17.555 -0.8869 -0.0927  0.9671
 6006SOL    HW229478   4.531   3.270  17.450 -0.4901  0.1027 -0.6651
 6007SOL     OW29479   3.319   1.463   0.317 -0.6646 -0.1847  0.5490
 6007SOL    HW129480   3.332   1.498   0.405 -0.8211  0.2179  0.4113
 6007SOL    HW229481   3.281   1.380   0.345 -1.8994  0.5789  1.1602
 6008SOL     OW29482   3.108   0.228   2.778  0.0218  0.4922  0.1398
 6008SOL    HW129483   3.016   0.238   2.800  0.1789  0.1127  1.0005
 6008SOL    HW229484   3.135   0.314   2.747  0.9572 -0.5376 -1.8728
 6009SOL     OW29485   3.424   4.553   5.638 -0.1751  0.6714  0.0404
 6009SOL    HW129486   3.478   4.620   5.680  1.5279  0.2148 -1.4130
 6009SOL    HW229487   3.429   4.569   5.544 -0.3491  0.1622 -0.0560
 6010SOL     OW29488   1.043   1.177  13.046 -0.1314 -0.6143  0.1635
 6010SOL    HW129489   1.137   1.194  13.045 -0.3071  0.4518  1.7749
 6010SOL    HW229490   1.012   1.238  12.979 -0.1555 -1.8077 -0.9316
 6011SOL     OW29491   2.248   3.361  10.459  0.0834  0.6375  0.4995
 6011SOL    HW129492   2.189   3.303  10.411 -0.8146  1.0348  1.1125
 6011SOL    HW229493   2.193   3.388  10.532  0.9710  2.7705  0.3635
 6012SOL     OW29494   1.334   2.160   5.572  0.0363  0.0912 -0.0998
 6012SOL    HW129495   1.302   2.074   5.600 -1.2986  0.4850 -0.4196
 6012SOL    HW229496   1.398   2.133   5.506 -0.5923 -0.1581 -0.6044
 6013SOL     OW29497   0.569   2.170   7.205  0.3221 -0.1721  0.5981
 6013SOL    HW129498   0.641   2.233   7.197 -1.0510  1.2175 -0.7271
 6013SOL    HW229499   0.500   2.212   7.154  1.5131 -1.6733 -2.2530
 6014SOL     OW29500   2.733   0.212   4.206 -0.3812 -0.2450  0.8466
 6014SOL    HW129501   2.733   0.307   4.217 -1.0002 -0.1839  0.3214
 6014SOL    HW229502   2.825   0.197   4.227 -0.0290  1.7919  0.7755
 6015SOL     OW29503   2.483   2.968   8.373  0.9170  0.0259 -0.2648
 6015SOL    HW129504   2.479   2.875   8.348 -2.0889 -0.0878  0.6404
 6015SOL    HW229505   2.424   2.967   8.448  2.4497 -2.4263  0.9273
 6016SOL     OW29506   2.690   1.398  11.799  0.0767 -0.3167  0.1423
 6016SOL    HW129507   2.629   1.440  11.738  0.2314  1.3618  1.1601
 6016SOL    HW229508   2.771   1.394  11.748 -1.1871 -0.5152 -1.8897
 6017SOL     OW29509   0.300   3.386  17.574 -0.0546 -0.5580  0.2086
 6017SOL    HW129510   0.391   3.356  17.571 -0.3535 -1.4158 -0.2563
 6017SOL    HW229511   0.325   3.478  17.582 -0.0356 -0.3535 -2.2354
 6018SOL     OW29512   2.054   3.812   2.709 -0.5851 -0.0522  0.1899
 6018SOL    HW129513   2.045   3.826   2.615 -2.3758  2.9576  0.8084
 6018SOL    HW229514   2.003   3.732   2.718 -1.4890  0.4133 -0.7953
 6019SOL     OW29515   1.406   1.322   1.114 -0.1003  0.1624 -0.1047
 6019SOL    HW129516   1.425   1.230   1.131 -0.0348 -0.0588 -1.4015
 6019SOL    HW229517   1.465   1.349   1.044 -2.0091  0.9304 -1.4184
 6020SOL     OW29518   1.635   1.701   5.650  0.3857  0.4387 -0.1366
 6020SOL    HW129519   1.659   1.678   5.739  1.3187 -0.7869 -0.7006
 6020SOL    HW229520   1.673   1.621   5.613  2.7617  0.9107  1.3264
 6021SOL     OW29521   2.629   2.391  12.724 -0.2415  0.2717  0.1386
 6021SOL    HW129522   2.642   2.301  12.693 -2.4019 -0.1922  0.5960
 6021SOL    HW229523   2.712   2.405  12.771  0.0742  1.9781 -0.9025
 6022SOL     OW29524   0.713   2.151   6.388 -0.2303  0.1973 -0.6314
 6022SOL    HW129525   0.800   2.174   6.420 -0.0713 -2.4828  0.8637
 6022SOL    HW229526   0.735   2.099   6.310 -0.1708  0.0072 -0.4872
 6023SOL     OW29527   1.027   3.132   2.308  0.0307  0.3168 -0.3283
 6023SOL    HW129528   0.975   3.179   2.242 -0.0078  1.3584  0.4410
 6023SOL    HW229529   1.051   3.053   2.260 -1.3816 -0.0636 -0.3921
 6024SOL     OW29530   4.098   1.598   8.234  0.9601 -0.2456 -0.8158
 6024SOL    HW129531   4.115   1.556   8.318  0.0422  1.8305  0.4362
 6024SOL    HW229532   4.068   1.689   8.248  0.4454 -0.8015  1.7115
 6025SOL     OW29533   2.883   2.906   1.981  0.1873 -0.0219 -0.5749
 6025SOL    HW129534   2.822   2.837   1.954 -1.6230 -0.8126  5.5797
 6025SOL    HW229535   2.929   2.923   1.899 -0.7494  0.6265 -0.9775
 6026SOL     OW29536   3.254   1.750   4.418 -0.1341 -0.2546 -0.6721
 6026SOL    HW129537   3.183   1.686   4.426 -0.9341  0.9181  1.5129
 6026SOL    HW229538   3.253   1.750   4.322  1.6596  2.3827 -0.6887
 6027SOL     OW29539   3.512   0.867   8.452  0.6354  0.7107  0.7032
 6027SOL    HW129540   3.591   0.917   8.434  1.3410 -1.1386 -1.3047
 6027SOL    HW229541   3.521   0.858   8.546  1.0952 -1.5813  0.4460
 6028SOL     OW29542   3.009   4.144   7.231  0.4464 -0.0160 -0.2112
 6028SOL    HW129543   2.919   4.110   7.236  0.5787 -0.4727 -0.8810
 6028SOL    HW229544   3.014   4.212   7.298 -1.2527  0.5893 -0.7065
 6029SOL     OW29545   2.375   2.160   1.509 -0.0940 -0.5881 -1.0880
 6029SOL    HW129546   2.325   2.218   1.451 -2.0577 -1.7283 -0.4953
 6029SOL    HW229547   2.463   2.198   1.500 -0.7010  1.8774  3.4353
 6030SOL     OW29548   2.409   0.971   9.340 -0.1853  0.6950 -0.1283
 6030SOL    HW129549   2.364   0.987   9.423  1.8028  3.3109  0.4458
 6030SOL    HW229550   2.491   0.933   9.372 -0.3701  0.8836  0.5814
 6031SOL     OW29551   3.336   4.432  12.475 -0.3116 -0.2577  0.5881
 6031SOL    HW129552   3.396   4.380  12.529 -0.3194  0.0755  0.9175
 6031SOL    HW229553   3.248   4.402  12.498 -0.9489  2.6847  1.9923
 6032SOL     OW29554   1.079   1.530   4.497 -0.1022  0.7070  0.1387
 6032SOL    HW129555   1.103   1.487   4.579  3.8294  1.2880 -0.7013
 6032SOL    HW229556   1.150   1.511   4.436  0.1744  1.0665  0.3565
 6033SOL     OW29557   0.331   4.101   5.543 -0.1357 -0.5057 -0.3442
 6033SOL    HW129558   0.356   4.152   5.466  0.7274 -0.9741 -0.3779
 6033SOL    HW229559   0.235   4.099   5.538 -0.0831 -1.5887 -1.0084
 6034SOL     OW29560   3.276   3.025   7.124  0.3672  0.2608  0.3758
 6034SOL    HW129561   3.215   3.071   7.066 -2.6011 -2.9824  0.8716
 6034SOL    HW229562   3.322   2.955   7.077 -0.0276 -0.0119  0.3944
 6035SOL     OW29563   0.985   2.830   6.005 -0.8057  0.2244  0.1160
 6035SOL    HW129564   0.908   2.887   6.011 -0.6821  0.3911  0.1230
 6035SOL    HW229565   0.930   2.756   5.980 -0.7532  0.7398 -1.5457
 6036SOL     OW29566   1.623   1.240   2.155 -0.2621  0.1110 -0.6561
 6036SOL    HW129567   1.688   1.298   2.193 -0.4002  0.7437 -1.3759
 6036SOL    HW229568   1.679   1.210   2.083  0.0390  0.4915 -0.5800
 6037SOL     OW29569   0.717   0.640   8.627 -0.5004 -0.2055 -0.0967
 6037SOL    HW129570   0.680   0.727   8.617  0.8115  0.1921 -1.3691
 6037SOL    HW229571   0.641   0.586   8.653 -1.0827  0.8331  0.3367
 6038SOL     OW29572   1.255   3.724   4.261  0.3644 -0.4676 -0.1157
 6038SOL    HW129573   1.267   3.638   4.221  0.3523 -2.0073  3.1452
 6038SOL    HW229574   1.345   3.749   4.279 -0.2084  2.5711 -1.5529
 6039SOL     OW29575   3.485   2.519   7.410  0.2450  0.0000  0.3535
 6039SOL    HW129576   3.403   2.474   7.394  0.8958 -1.4201  1.0408
 6039SOL    HW229577   3.470   2.600   7.361  1.0199 -1.3130 -2.0110
 6040SOL     OW29578   4.649   4.254   2.222 -0.0227  0.6528  0.4810
 6040SOL    HW129579   4.657   4.346   2.197 -0.4513  0.0521 -1.8381
 6040SOL    HW229580   4.595   4.216   2.154  0.8072  2.6568 -1.2902
 6041SOL     OW29581   1.699   3.838   0.867  0.5609  0.0713 -0.1036
 6041SOL    HW129582   1.663   3.920   0.833 -0.1384 -0.2867 -0.2258
 6041SOL    HW229583   1.773   3.824   0.808  0.9823  0.6794  0.2773
 6042SOL     OW29584   0.377   1.131   2.092 -0.0988  0.1477  0.0519
 6042SOL    HW129585   0.305   1.194   2.087 -1.5765 -1.7528 -2.8666
 6042SOL    HW229586   0.433   1.159   2.020  1.0052  0.0240  0.8588
 6043SOL     OW29587   0.497   3.270   5.994  0.0877 -0.4164 -0.1191
 6043SOL    HW129588   0.560   3.262   6.066 -0.5251  0.6694  0.5326
 6043SOL    HW229589   0.453   3.352   6.018  0.1691  0.0032 -1.4233
 6044SOL     OW29590   2.836   3.000   8.690 -0.1673  0.0330 -0.3213
 6044SOL    HW129591   2.750   3.039   8.700 -0.6070 -1.1102  0.3190
 6044SOL    HW229592   2.802   2.911   8.681 -0.1432 -0.0690  0.6852
 6045SOL     OW29593   0.205   4.352   7.663  0.3998 -0.4079  0.1056
 6045SOL    HW129594   0.209   4.312   7.750  1.8212  1.6976  1.0058
 6045SOL    HW229595   0.116   4.321   7.648 -0.0755  0.8412  0.3341
 6046SOL     OW29596   0.048   0.424  14.443 -0.1196  0.2364  0.4644
 6046SOL    HW129597   0.011   0.339  14.467  1.4975 -0.9718 -1.3076
 6046SOL    HW229598   0.137   0.416  14.477  0.8767  2.2545 -1.6371
 6047SOL     OW29599   1.191   2.112   4.156  0.4075 -0.5483 -0.6591
 6047SOL    HW129600   1.128   2.182   4.141  2.8388  1.6324 -0.7352
 6047SOL    HW229601   1.152   2.075   4.236 -2.9366  0.5059 -1.8309
 6048SOL     OW29602   3.050   4.464  16.483  0.1114 -0.0059  0.1274
 6048SOL    HW129603   3.012   4.485  16.568  1.0579  0.1565  0.5168
 6048SOL    HW229604   3.040   4.548  16.439 -0.9459  0.0512  0.4826
 6049SOL     OW29605   0.189   0.796   2.861  0.2403 -0.2400  0.0146
 6049SOL    HW129606   0.219   0.833   2.778 -2.1052  0.8873 -0.3535
 6049SOL    HW229607   0.190   0.704   2.835  2.1104  0.0108 -0.7970
 6050SOL     OW29608   0.878   4.489  10.985 -0.1584 -0.3306 -0.4632
 6050SOL    HW129609   0.947   4.474  11.050  1.4532  2.9444 -1.4359
 6050SOL    HW229610   0.917   4.456  10.904  1.3889 -0.8421  0.4930
 6051SOL     OW29611   3.869   0.795   9.713  0.3135  0.3059 -0.3024
 6051SOL    HW129612   3.957   0.784   9.678  1.8763  3.6427  2.4773
 6051SOL    HW229613   3.858   0.732   9.784  1.7854  2.2636  1.6634
 6052SOL     OW29614   0.843   2.041   9.103  0.0216  0.4104  0.1543
 6052SOL    HW129615   0.808   2.114   9.051  0.3090  1.1971  1.0633
 6052SOL    HW229616   0.858   2.092   9.183  0.4265 -0.3586  0.5589
 6053SOL     OW29617   2.468   0.260   9.990  0.0341 -0.0465  0.2223
 6053SOL    HW129618   2.416   0.303  10.058  2.4155  1.9993  0.7786
 6053SOL    HW229619   2.552   0.292  10.024 -0.0110  0.4388 -0.1236
 6054SOL     OW29620   3.813   4.355   1.278 -0.0054  0.0816  0.0123
 6054SOL    HW129621   3.883   4.353   1.213 -0.7600 -0.6026 -0.7889
 6054SOL    HW229622   3.735   4.341   1.225 -0.3298  2.1225 -0.0464
 6055SOL     OW29623   3.690   2.991   6.528  0.0559 -0.2051  0.2562
 6055SOL    HW129624   3.775   3.033   6.541  0.7096 -1.1031 -1.0964
 6055SOL    HW229625   3.707   2.906   6.569  1.2493 -0.4816 -0.8248
 6056SOL     OW29626   4.362   3.403   2.685 -0.2551  0.1245 -0.0381
 6056SOL    HW129627   4.353   3.482   2.739 -0.2779 -0.5557  0.9665
 6056SOL    HW229628   4.413   3.441   2.614  1.9049 -3.2252 -0.2691
 6057SOL     OW29629   4.267   0.279   2.821 -0.7728 -0.2094  0.8650
 6057SOL    HW129630   4.332   0.212   2.843 -1.9029 -0.9123  2.0762
 6057SOL    HW229631   4.306   0.363   2.845  1.5987 -0.5321 -1.8821
 6058SOL     OW29632   0.790   3.289   3.162  0.2196  0.3767 -0.0306
 6058SOL    HW129633   0.742   3.248   3.234 -0.0903  1.2411  0.2555
 6058SOL    HW229634   0.844   3.337   3.225  3.0595 -1.8256 -0.7926
 6059SOL     OW29635   3.029   2.828   7.931  0.1516  0.5434 -0.1432
 6059SOL    HW129636   3.054   2.736   7.923 -0.4672  0.2877  0.7905
 6059SOL    HW229637   3.047   2.851   8.022 -1.6377  1.2801  0.0382
 6060SOL     OW29638   4.582   3.133   6.267 -0.0518 -0.1611  0.0675
 6060SOL    HW129639   4.560   3.043   6.293 -1.5262  0.2088  0.1049
 6060SOL    HW229640   4.502   3.175   6.300 -0.9566 -1.9565  0.1631
 6061SOL     OW29641   3.388   2.175  17.102 -0.0519  0.0112 -0.3007
 6061SOL    HW129642   3.446   2.133  17.039  1.0160 -1.4115  1.5988
 6061SOL    HW229643   3.316   2.201  17.045  0.2230  0.6236 -0.3644
 6062SOL     OW29644   2.582   2.647   2.052  0.1280 -0.2810  0.6034
 6062SOL    HW129645   2.568   2.734   2.015  0.9606  0.7908  2.8033
 6062SOL    HW229646   2.614   2.607   1.971  1.3427 -1.0564  1.4774
 6063SOL     OW29647   1.935   4.490   7.316 -0.4660 -0.0433  0.2244
 6063SOL    HW129648   2.004   4.452   7.261 -0.8778 -0.6685  0.1426
 6063SOL    HW229649   1.918   4.417   7.376  0.1579 -1.3916 -1.2212
 6064SOL     OW29650   1.701   4.099   7.253  0.0938  0.3557  0.1835
 6064SOL    HW129651   1.644   4.176   7.246 -1.2091 -0.5411  0.9626
 6064SOL    HW229652   1.654   4.054   7.323  1.8059 -1.2562  0.3040
 6065SOL     OW29653   4.277   3.888   8.293  0.0940  0.8297  0.2462
 6065SOL    HW129654   4.324   3.969   8.312  0.8252  0.2494  0.9397
 6065SOL    HW229655   4.239   3.918   8.210  0.2827 -2.1216 -0.8843
 6066SOL     OW29656   4.231   4.705  12.785  0.4865  0.1048 -0.1524
 6066SOL    HW129657   4.282   4.639  12.831  1.5581  1.1775  0.1827
 6066SOL    HW229658   4.186   0.020  12.860 -0.4333  0.7003 -1.0087
 6067SOL     OW29659   0.197   3.261   2.935 -0.0788 -0.4701 -0.1441
 6067SOL    HW129660   0.191   3.357   2.932 -0.9578 -0.4300  3.1577
 6067SOL    HW229661   0.174   3.240   2.844  0.0451 -0.0833 -0.2684
 6068SOL     OW29662   1.775   4.158   5.192  0.1585 -0.4188  0.4757
 6068SOL    HW129663   1.837   4.157   5.119  0.0123 -1.5702  0.3586
 6068SOL    HW229664   1.780   4.250   5.219 -2.2984 -0.3619  0.7503
 6069SOL     OW29665   0.387   2.346   3.125 -0.4498 -0.0627 -0.3443
 6069SOL    HW129666   0.367   2.436   3.099 -0.4717 -0.4863 -1.7973
 6069SOL    HW229667   0.405   2.354   3.218  0.6462 -0.4408 -0.5186
 6070SOL     OW29668   3.477   1.714  16.661 -0.2148  0.2116  0.4379
 6070SOL    HW129669   3.520   1.780  16.606 -0.7546 -0.3300 -0.6261
 6070SOL    HW229670   3.513   1.750  16.742  2.2637  1.1644 -1.0660
 6071SOL     OW29671   1.184   2.144   8.782 -0.4573 -0.2613  0.0748
 6071SOL    HW129672   1.182   2.093   8.701  1.2655 -0.7453  0.3485
 6071SOL    HW229673   1.211   2.078   8.846  1.9007 -0.6373 -1.3305
 6072SOL     OW29674   2.519   1.515   4.233  0.0991  0.0326 -0.0916
 6072SOL    HW129675   2.558   1.579   4.174  1.7157 -0.3071  0.6007
 6072SOL    HW229676   2.553   1.430   4.205 -1.6214 -0.5229 -0.4681
 6073SOL     OW29677   2.449   1.685   1.583 -0.3305  0.2196 -0.0430
 6073SOL    HW129678   2.433   1.591   1.584 -0.4432  0.2731  2.1077
 6073SOL    HW229679   2.421   1.723   1.499 -1.3209 -0.7976 -0.1730
 6074SOL     OW29680   2.887   2.914  17.057 -0.3104 -0.1047  0.2089
 6074SOL    HW129681   2.935   2.851  17.003 -0.6636  1.5284 -2.0185
 6074SOL    HW229682   2.957   2.975  17.081  0.9283 -0.8337 -1.4858
 6075SOL     OW29683   2.796   0.407   0.125  0.0217  0.3066 -0.0917
 6075SOL    HW129684   2.712   0.450   0.105 -0.8514 -1.6546 -0.6433
 6075SOL    HW229685   2.766   0.319   0.146  0.3727 -0.7647 -4.1932
 6076SOL     OW29686   2.521   2.550   6.009 -0.6107  0.3995  0.2193
 6076SOL    HW129687   2.601   2.540   6.060 -0.4980  0.1045 -0.0126
 6076SOL    HW229688   2.555   2.599   5.934  0.4149 -0.0377  0.4077
 6077SOL     OW29689   3.170   2.450   2.088  0.4480 -0.2358 -0.0638
 6077SOL    HW129690   3.188   2.526   2.144  2.5912 -0.2170 -0.7654
 6077SOL    HW229691   3.171   2.486   1.999  1.6094  1.7036  0.7173
 6078SOL     OW29692   4.374   4.116  17.169 -0.4823 -0.6466  0.6930
 6078SOL    HW129693   4.376   4.109  17.074  1.7105 -1.6821  0.8243
 6078SOL    HW229694   4.295   4.171  17.177 -0.2814 -0.0901 -1.0778
 6079SOL     OW29695   4.569   4.320  12.913  0.1843  0.7203  0.3671
 6079SOL    HW129696   4.600   4.252  12.973  2.3920  0.6521 -0.8788
 6079SOL    HW229697   4.550   4.265  12.837 -3.1304 -0.0896  1.7865
 6080SOL     OW29698   1.248   2.550  10.777  0.3012 -0.1143  0.3202
 6080SOL    HW129699   1.313   2.618  10.797 -0.8885  1.4385 -1.0986
 6080SOL    HW229700   1.201   2.572  10.697  0.7295 -1.9778 -0.4482
 6081SOL     OW29701   1.552   2.198   4.914 -0.1974 -0.5614 -0.2936
 6081SOL    HW129702   1.611   2.143   4.864  1.4001  0.1657  0.7965
 6081SOL    HW229703   1.574   2.288   4.889  0.4923 -1.0092 -1.2641
 6082SOL     OW29704   0.360   1.812  10.681  0.2963 -0.1850  0.7655
 6082SOL    HW129705   0.355   1.847  10.592  0.1383 -1.4086  0.2909
 6082SOL    HW229706   0.318   1.881  10.732  1.8452  1.9176 -0.7562
 6083SOL     OW29707   3.782   0.062   8.881  0.2539 -0.3406  0.2612
 6083SOL    HW129708   3.741   4.704   8.852 -2.1767 -0.5924  4.2882
 6083SOL    HW229709   3.718   0.083   8.950 -0.0143 -1.7554  0.4530
 6084SOL     OW29710   4.059   1.973  10.995  0.0858  0.1725  0.1688
 6084SOL    HW129711   4.028   1.909  11.059 -0.0230 -1.1962 -1.2352
 6084SOL    HW229712   4.146   1.993  11.029  1.0546  0.2024 -2.3227
 6085SOL     OW29713   1.941   1.927   4.043  0.1732  0.5941 -0.0204
 6085SOL    HW129714   2.014   1.865   4.050 -0.5267 -0.1907  0.2719
 6085SOL    HW229715   1.965   2.002   4.098 -1.2490  1.1217 -0.1175
 6086SOL     OW29716   3.984   4.409   4.876  0.8176 -0.5671  0.5495
 6086SOL    HW129717   3.958   4.436   4.788  0.7504  1.8484  1.3208
 6086SOL    HW229718   3.956   4.482   4.931 -1.3622 -1.8578  1.1704
 6087SOL     OW29719   1.139   0.343   3.763 -0.0985  0.3711  1.0641
 6087SOL    HW129720   1.170   0.321   3.851 -0.7771 -0.9615  0.9625
 6087SOL    HW229721   1.080   0.416   3.781  0.0770  1.0621 -1.2438
 6088SOL     OW29722   0.346   0.338   4.754 -0.3889  0.0673  0.5297
 6088SOL    HW129723   0.275   0.318   4.814 -2.2728  1.0285 -1.4011
 6088SOL    HW229724   0.419   0.315   4.811  0.5108 -0.6043 -0.8795
 6089SOL     OW29725   1.566   1.986   5.096  0.1660 -0.5500 -0.2424
 6089SOL    HW129726   1.656   1.971   5.069 -0.2112 -0.1877 -1.6896
 6089SOL    HW229727   1.529   2.036   5.023 -1.6832  0.9347  1.7159
 6090SOL     OW29728   0.114   0.737   0.672  0.5329  0.0908  0.0085
 6090SOL    HW129729   0.156   0.728   0.586  2.0892  3.5569  0.3960
 6090SOL    HW229730   0.021   0.749   0.651  1.0856  1.3976 -1.7045
 6091SOL     OW29731   1.663   3.698   7.346  0.6286 -0.2609  0.1013
 6091SOL    HW129732   1.676   3.745   7.428 -1.4522 -0.4431  0.5405
 6091SOL    HW229733   1.641   3.767   7.284  1.9762  1.7343  1.8478
 6092SOL     OW29734   0.632   3.283   4.432  0.1349 -0.0135 -0.0596
 6092SOL    HW129735   0.673   3.231   4.363  0.0991  0.8316 -0.7228
 6092SOL    HW229736   0.692   3.357   4.446  0.6406 -0.5081  0.3738
 6093SOL     OW29737   0.202   1.060   4.043  0.2089 -0.3629  0.0434
 6093SOL    HW129738   0.167   1.039   3.956  0.1940 -2.2406  0.5245
 6093SOL    HW229739   0.131   1.118   4.071 -0.0411 -0.0792 -1.1484
 6094SOL     OW29740   0.127   3.068   3.130  0.0765 -0.2342  0.2126
 6094SOL    HW129741   0.054   3.053   3.069  0.1749 -0.2058  0.0869
 6094SOL    HW229742   0.171   3.137   3.080 -1.5170 -0.0079 -0.9094
 6095SOL     OW29743   1.512   4.487  14.583  0.6814  0.1492 -1.1075
 6095SOL    HW129744   1.481   4.486  14.674  0.6024  2.3073 -1.0973
 6095SOL    HW229745   1.516   4.394  14.562  1.0148  0.2267 -1.3881
 6096SOL     OW29746   2.515   0.670  12.421 -0.1321 -0.0585  0.0330
 6096SOL    HW129747   2.484   0.707  12.338 -2.8961 -1.4195  0.4801
 6096SOL    HW229748   2.555   0.586  12.397  0.8010 -0.0608  1.6312
 6097SOL     OW29749   0.248   0.381   7.782 -0.3944  0.1852 -0.2587
 6097SOL    HW129750   0.248   0.440   7.707  0.8226 -0.2540 -0.5996
 6097SOL    HW229751   0.336   0.383   7.820 -0.6428  1.6828  0.2327
 6098SOL     OW29752   1.402   2.669  17.504  0.5489 -0.7069  0.8065
 6098SOL    HW129753   1.478   2.719  17.533  1.2765 -0.2409 -1.8979
 6098SOL    HW229754   1.415   2.652  17.411  0.9373  1.5804  0.4406
 6099SOL     OW29755   4.286   4.398   2.379  0.2744  0.7538 -0.2892
 6099SOL    HW129756   4.210   4.455   2.376  0.1371  0.6644  1.7083
 6099SOL    HW229757   4.280   4.371   2.287  0.5845 -0.1238 -0.0563
 6100SOL     OW29758   1.852   0.936   2.600 -0.4822 -0.1019 -0.6178
 6100SOL    HW129759   1.889   0.906   2.682 -0.1594 -1.6157 -1.3229
 6100SOL    HW229760   1.879   1.028   2.609  1.3736 -0.3815 -3.0961
 6101SOL     OW29761   0.924   4.575  11.964  0.7000  0.3391 -0.4763
 6101SOL    HW129762   0.887   4.527  11.890  0.3251 -0.4123  0.2002
 6101SOL    HW229763   0.851   4.636  11.981  0.0643 -0.6182  0.2023
 6102SOL     OW29764   2.634   1.549  14.345 -0.3481 -0.2862 -0.2382
 6102SOL    HW129765   2.677   1.494  14.280 -1.7794 -0.9024 -0.6601
 6102SOL    HW229766   2.713   1.593  14.378 -0.0565 -2.5640  2.1590
 6103SOL     OW29767   0.921   0.625   3.030  0.5098  0.0454  1.4632
 6103SOL    HW129768   0.884   0.694   2.974  0.6186  0.2487  1.6399
 6103SOL    HW229769   1.011   0.617   2.999 -0.4730 -0.9386 -1.1500
 6104SOL     OW29770   2.509   0.726   4.918  0.0137  0.2958 -0.2268
 6104SOL    HW129771   2.511   0.769   4.833  1.6581 -0.9327 -0.8196
 6104SOL    HW229772   2.512   0.634   4.893  2.3292  0.3288 -0.0728
 6105SOL     OW29773   2.028   3.760  14.511 -0.2321  0.0724  0.1825
 6105SOL    HW129774   2.086   3.818  14.561  0.2296 -0.1706 -0.0745
 6105SOL    HW229775   2.075   3.677  14.511 -0.1581  0.1190  2.9808
 6106SOL     OW29776   3.197   3.705  10.249 -0.5973 -0.2848 -0.2237
 6106SOL    HW129777   3.208   3.795  10.278  0.4569  0.3282 -2.5272
 6106SOL    HW229778   3.105   3.694  10.275  0.0336 -1.1263  1.6583
 6107SOL     OW29779   3.113   0.374  13.640  0.4433  0.3215  0.1957
 6107SOL    HW129780   3.174   0.331  13.580 -1.3831 -2.0560  0.0334
 6107SOL    HW229781   3.032   0.323  13.632  1.0611 -0.4182 -1.4542
 6108SOL     OW29782   1.591   4.081   0.761  0.4225  0.7246 -0.3017
 6108SOL    HW129783   1.532   4.064   0.833  2.2117  0.4446  1.1046
 6108SOL    HW229784   1.552   4.162   0.728 -2.1443 -0.1911  0.5331
 6109SOL     OW29785   3.101   1.427   1.233  0.1008  0.4668 -0.4007
 6109SOL    HW129786   3.083   1.339   1.266 -1.0514  0.9972  0.4007
 6109SOL    HW229787   3.092   1.475   1.316 -0.3000  0.7102 -0.5866
 6110SOL     OW29788   4.325   1.767   3.673  0.2041  0.2497  0.1594
 6110SOL    HW129789   4.351   1.859   3.680  1.5890 -0.0405 -1.0558
 6110SOL    HW229790   4.292   1.759   3.583  1.5119  0.4993 -0.3456
 6111SOL     OW29791   1.076   2.846   3.553 -0.2452 -0.6516  0.3676
 6111SOL    HW129792   1.056   2.775   3.492 -0.0116  0.6192 -1.1804
 6111SOL    HW229793   1.103   2.791   3.627  0.9318 -2.7732 -1.6161
 6112SOL     OW29794   1.037   1.801   5.814 -0.0856  0.4061 -0.6822
 6112SOL    HW129795   1.067   1.739   5.881  0.4750 -0.2041 -1.5083
 6112SOL    HW229796   1.115   1.845   5.780  1.4326  0.0756  2.2891
 6113SOL     OW29797   4.200   3.242   6.822  0.3721 -0.1599  0.1143
 6113SOL    HW129798   4.256   3.274   6.751 -1.2430 -1.3349 -1.6801
 6113SOL    HW229799   4.198   3.324   6.872 -0.7114  1.0508 -1.8854
 6114SOL     OW29800   1.069   4.010   3.256  0.2182  0.7473 -0.3429
 6114SOL    HW129801   1.000   4.026   3.192 -1.9647  0.4772  1.9443
 6114SOL    HW229802   1.057   4.085   3.315  0.1662  0.7052 -0.2994
 6115SOL     OW29803   1.326   4.665   7.808  0.4784  0.6823  0.1656
 6115SOL    HW129804   1.386   0.016   7.811 -1.1287  1.9848 -0.1239
 6115SOL    HW229805   1.384   4.591   7.824 -0.5196  0.3738  2.3063
 6116SOL     OW29806   1.818   3.130   6.557 -0.2869 -0.2427 -0.0780
 6116SOL    HW129807   1.855   3.180   6.630  1.9416  1.0750 -2.1042
 6116SOL    HW229808   1.820   3.041   6.592 -2.4486  0.1032  0.9248
 6117SOL     OW29809   2.463   3.470   6.653  0.1550  0.2838  0.2167
 6117SOL    HW129810   2.439   3.532   6.721 -0.5086 -1.1208  1.2811
 6117SOL    HW229811   2.453   3.385   6.696  2.6310 -0.3800 -0.5110
 6118SOL     OW29812   2.288   1.696   6.935 -0.4784 -0.2142  0.5197
 6118SOL    HW129813   2.310   1.664   6.847  1.7968  2.2666  0.1798
 6118SOL    HW229814   2.234   1.772   6.915  2.6421  1.4843 -1.4865
 6119SOL     OW29815   1.663   4.028   3.183  0.1446  0.5139 -0.1853
 6119SOL    HW129816   1.733   4.081   3.146  0.7331 -1.0190 -1.2707
 6119SOL    HW229817   1.587   4.080   3.157 -0.0147  0.4777  0.2123
 6120SOL     OW29818   0.002   0.558   6.635 -0.4226  0.5072 -0.0324
 6120SOL    HW129819   4.684   0.642   6.652  0.3850  0.7595  0.7210
 6120SOL    HW229820   4.681   0.511   6.705 -0.1285  0.8687  0.4011
 6121SOL     OW29821   1.056   3.827   5.780  0.0305 -0.6011  0.3422
 6121SOL    HW129822   1.022   3.761   5.841 -0.8077 -0.8649 -0.4034
 6121SOL    HW229823   0.992   3.897   5.791  1.0989  0.5281 -0.5848
 6122SOL     OW29824   0.323   0.164   4.317 -0.6982 -0.3857  0.3168
 6122SOL    HW129825   0.316   0.191   4.225  1.0382  0.9337  0.5566
 6122SOL    HW229826   0.329   0.248   4.362  1.6436 -0.5247  0.2827
 6123SOL     OW29827   3.018   1.453   2.743 -0.2006  0.6166  0.2593
 6123SOL    HW129828   2.982   1.503   2.816  1.5461  0.2664  1.3597
 6123SOL    HW229829   3.111   1.433   2.757 -0.6301 -2.1359 -0.8614
 6124SOL     OW29830   2.008   0.677   2.291  0.2840 -0.2907 -0.0189
 6124SOL    HW129831   2.047   0.673   2.204  3.6725 -1.2439  1.5427
 6124SOL    HW229832   2.038   0.598   2.336 -0.1893 -2.0066 -2.7117
 6125SOL     OW29833   4.564   3.274   7.728 -0.1353 -0.3464 -0.2668
 6125SOL    HW129834   4.494   3.236   7.782 -0.4161  1.2662  0.5105
 6125SOL    HW229835   4.639   3.228   7.767  0.0166  1.9814  2.1812
 6126SOL     OW29836   4.636   1.018  11.839 -0.9599  0.3957 -0.6778
 6126SOL    HW129837   4.621   1.025  11.933 -3.9125  2.6747 -1.3077
 6126SOL    HW229838   4.678   0.932  11.843 -0.3360  0.7342  0.0749
 6127SOL     OW29839   0.755   3.578  12.543 -0.1293  0.4753 -0.4557
 6127SOL    HW129840   0.662   3.592  12.560 -0.0151  1.5656 -0.7018
 6127SOL    HW229841   0.786   3.669  12.537 -2.5587  1.3881  0.8193
 6128SOL     OW29842   0.936   2.393   1.780  0.4043 -0.0815  0.5571
 6128SOL    HW129843   0.939   2.435   1.694  0.8084 -0.3626  0.4320
 6128SOL    HW229844   0.986   2.315   1.756  1.2639  0.7065 -0.2152
 6129SOL     OW29845   1.259   3.187   5.015  0.3440 -0.8309 -0.6514
 6129SOL    HW129846   1.288   3.106   5.057 -1.1155 -0.5446  0.9475
 6129SOL    HW229847   1.314   3.168   4.939 -0.7971 -1.5301 -1.3068
 6130SOL     OW29848   4.596   0.698  15.623  0.7717 -0.5379  0.1436
 6130SOL    HW129849   4.541   0.655  15.688  0.4014 -0.8584 -0.3772
 6130SOL    HW229850   4.593   0.788  15.658  0.8056 -0.6020  0.3118
 6131SOL     OW29851   1.093   4.465   7.662 -0.3416 -0.4804 -0.2437
 6131SOL    HW129852   1.169   4.415   7.634  1.8939  2.9550 -0.2879
 6131SOL    HW229853   1.115   4.482   7.753 -1.5919 -1.2417  0.2022
 6132SOL     OW29854   3.504   2.559  15.591  0.1756  0.0519  0.4002
 6132SOL    HW129855   3.440   2.535  15.524  0.5691 -0.2069  0.1125
 6132SOL    HW229856   3.586   2.529  15.552  1.0264  2.2021  0.5003
 6133SOL     OW29857   0.467   0.718   1.289  0.4178 -0.0961 -0.5976
 6133SOL    HW129858   0.471   0.704   1.194  1.5626  0.1314 -0.5803
 6133SOL    HW229859   0.374   0.741   1.280  0.6464  1.0946  0.0858
 6134SOL     OW29860   2.050   2.113   4.311 -0.6191 -0.4628  0.2661
 6134SOL    HW129861   2.042   2.202   4.277 -0.0734 -1.0022 -1.2542
 6134SOL    HW229862   2.122   2.095   4.251 -0.5302  1.9385 -0.3444
 6135SOL     OW29863   1.657   2.343   5.590 -0.0056  0.0461  0.7255
 6135SOL    HW129864   1.647   2.432   5.553  1.5719  0.0868  0.4036
 6135SOL    HW229865   1.596   2.352   5.663 -0.3855  1.6903  0.2232
 6136SOL     OW29866   2.312   4.219   7.388 -0.0182  0.2982 -0.0602
 6136SOL    HW129867   2.276   4.162   7.457 -1.9876  1.6543  0.0314
 6136SOL    HW229868   2.361   4.154   7.338 -2.9846 -0.3254 -2.1618
 6137SOL     OW29869   3.594   3.741   1.067 -0.1537 -0.2093 -0.4588
 6137SOL    HW129870   3.623   3.687   1.141  0.1648  1.0119  0.3119
 6137SOL    HW229871   3.668   3.802   1.066 -0.8426  0.6427 -0.0432
 6138SOL     OW29872   1.066   1.766  11.654  0.3172  0.0364  0.1442
 6138SOL    HW129873   1.107   1.775  11.568  1.1335  0.0303  0.5356
 6138SOL    HW229874   0.982   1.811  11.645 -0.4923 -1.5467 -0.2741
 6139SOL     OW29875   1.141   0.310   8.500 -0.1561  0.0012 -0.0956
 6139SOL    HW129876   1.047   0.311   8.518 -0.6139 -0.4068 -2.4569
 6139SOL    HW229877   1.141   0.260   8.418  0.7243 -0.7152  0.3427
 6140SOL     OW29878   2.293   2.209  11.096 -0.3960  0.0575 -0.2055
 6140SOL    HW129879   2.359   2.158  11.145  1.4777  1.2620 -1.4590
 6140SOL    HW229880   2.215   2.174  11.138  1.2218 -1.3810  1.6469
 6141SOL     OW29881   0.390   2.279  15.201 -0.2169 -0.4119  0.4096
 6141SOL    HW129882   0.336   2.323  15.136 -0.9218 -1.5646  0.2151
 6141SOL    HW229883   0.338   2.204  15.229 -1.7846  0.2795 -0.6796
 6142SOL     OW29884   3.177   0.393   7.823 -0.1432 -0.4153 -0.1784
 6142SOL    HW129885   3.192   0.472   7.876  1.6705 -1.0604  0.2562
 6142SOL    HW229886   3.082   0.394   7.819 -0.1339  0.9256 -0.3201
 6143SOL     OW29887   1.458   2.217   6.644 -0.0258  0.3129 -0.3170
 6143SOL    HW129888   1.520   2.278   6.603 -0.3327 -0.3859 -1.8285
 6143SOL    HW229889   1.497   2.198   6.729 -1.6280  0.8037  0.5147
 6144SOL     OW29890   3.961   2.547   8.006 -0.0060 -0.0215 -0.3375
 6144SOL    HW129891   3.956   2.549   8.101  0.6511  0.3569 -0.3057
 6144SOL    HW229892   3.892   2.608   7.981 -2.2309 -2.1702  0.5875
 6145SOL     OW29893   0.289   2.020   5.320 -0.0758 -0.5833  0.4448
 6145SOL    HW129894   0.234   1.994   5.246 -2.3936 -0.3519  2.1039
 6145SOL    HW229895   0.247   1.989   5.400 -2.2018  1.8853  0.2603
 6146SOL     OW29896   2.585   3.144  15.641  0.3883  0.2413 -0.2772
 6146SOL    HW129897   2.619   3.174  15.556  2.1376 -0.6961  0.0962
 6146SOL    HW229898   2.619   3.055  15.651  0.8590  0.4439 -0.0468
 6147SOL     OW29899   1.250   2.207   4.891 -0.1493 -0.3512  0.3226
 6147SOL    HW129900   1.233   2.301   4.894 -3.2303 -0.8113 -3.0362
 6147SOL    HW229901   1.346   2.210   4.898 -0.1866  0.5879  0.5491
 6148SOL     OW29902   0.251   1.696   6.382 -0.0523 -0.6997 -0.1145
 6148SOL    HW129903   0.191   1.622   6.383 -1.0358  0.1117  1.7492
 6148SOL    HW229904   0.337   1.654   6.390  0.3006 -0.0057 -0.2328
 6149SOL     OW29905   0.458   0.779   8.504  0.2897  0.1527 -0.8889
 6149SOL    HW129906   0.433   0.832   8.579 -0.8248  0.4465 -1.4716
 6149SOL    HW229907   0.390   0.713   8.516  0.3559  0.4784  1.2700
 6150SOL     OW29908   1.841   4.216  14.132 -0.4184  0.0423  0.3585
 6150SOL    HW129909   1.756   4.254  14.111  0.5422  1.2554 -1.2720
 6150SOL    HW229910   1.826   4.184  14.221  0.4690  0.2016  0.5707
 6151SOL     OW29911   3.635   1.561  14.595  0.0032 -0.1885 -0.2963
 6151SOL    HW129912   3.727   1.546  14.619  0.1051 -0.2682 -0.7294
 6151SOL    HW229913   3.615   1.633  14.654 -1.8247 -1.8401  1.0743
 6152SOL     OW29914   2.681   3.892   4.879  0.3309 -0.6954  0.0905
 6152SOL    HW129915   2.661   3.841   4.801 -0.2295  0.7670 -0.7305
 6152SOL    HW229916   2.692   3.825   4.946 -0.0545  0.4136  1.2702
 6153SOL     OW29917   1.397   2.003   4.047 -0.0929  0.1473  0.1203
 6153SOL    HW129918   1.324   2.023   4.105 -1.2912 -1.0178 -0.9931
 6153SOL    HW229919   1.344   1.976   3.972 -2.1996  2.1552  0.8730
 6154SOL     OW29920   3.337   1.211  11.385  0.1604  0.4197  0.2929
 6154SOL    HW129921   3.266   1.262  11.349  0.8357  1.1516  0.0011
 6154SOL    HW229922   3.337   1.246  11.474  1.8189 -0.0529  0.4832
 6155SOL     OW29923   3.741   4.519  15.284 -0.3962  0.6513  0.3017
 6155SOL    HW129924   3.676   4.450  15.270 -0.1841  0.3812  0.6711
 6155SOL    HW229925   3.817   4.466  15.308 -0.9474 -0.5674 -0.6240
 6156SOL     OW29926   0.813   1.364   1.444 -0.7171  0.0336 -0.5441
 6156SOL    HW129927   0.762   1.393   1.368 -2.1986  0.3140  0.5632
 6156SOL    HW229928   0.870   1.437   1.465  0.4311 -1.2689  0.9323
 6157SOL     OW29929   1.369   2.668   3.598  0.1461 -0.1529 -0.4722
 6157SOL    HW129930   1.324   2.618   3.530 -0.3084  0.8958 -0.9483
 6157SOL    HW229931   1.308   2.671   3.672 -0.9080  0.0554 -1.3574
 6158SOL     OW29932   0.934   0.195   8.774 -0.0722  0.0629  0.7075
 6158SOL    HW129933   0.910   0.195   8.867 -1.2781  0.7381  0.3950
 6158SOL    HW229934   0.945   0.103   8.750  0.6268  0.4253 -0.3498
 6159SOL     OW29935   1.692   0.983   9.701  0.2441 -0.3695 -0.0533
 6159SOL    HW129936   1.701   0.907   9.758  0.1302 -1.3548 -1.3646
 6159SOL    HW229937   1.636   0.944   9.635  0.5492  0.1189 -0.6066
 6160SOL     OW29938   2.266   2.215  12.326  0.3330 -0.2378 -0.1664
 6160SOL    HW129939   2.184   2.221  12.277 -0.0765  0.8069  0.6359
 6160SOL    HW229940   2.232   2.233  12.414 -1.2261  0.5123 -0.9289
 6161SOL     OW29941   1.006   4.664  17.090 -0.4500  0.2358  0.5549
 6161SOL    HW129942   0.991   4.687  16.998 -1.7974  0.8505  0.9244
 6161SOL    HW229943   1.101   4.666  17.091 -0.4125 -0.6276 -1.1152
 6162SOL     OW29944   2.853   1.923   0.149  0.3774  0.1800 -0.4520
 6162SOL    HW129945   2.945   1.921   0.173  0.4439  1.4163 -0.5775
 6162SOL    HW229946   2.808   1.913   0.233  0.8972 -0.9387 -0.3152
 6163SOL     OW29947   1.442   0.532   8.089  0.1553 -0.1996  0.2639
 6163SOL    HW129948   1.460   0.610   8.038 -2.1551  0.7532  0.8839
 6163SOL    HW229949   1.497   0.468   8.044  1.3595  0.8187  0.2992
 6164SOL     OW29950   2.000   4.134  17.694 -0.2198  0.3794  0.3745
 6164SOL    HW129951   2.000   4.160  17.602 -0.8317  1.0396  0.5558
 6164SOL    HW229952   2.060   4.197   0.036 -1.8308  0.2849  2.9580
 6165SOL     OW29953   1.505   4.293   0.599  0.0581  0.0822  0.7491
 6165SOL    HW129954   1.583   4.305   0.546  1.3580  1.2981  2.8971
 6165SOL    HW229955   1.438   4.305   0.532  0.4834 -2.4360 -0.1186
 6166SOL     OW29956   1.037   3.933   3.517  0.3126  0.4249 -0.3335
 6166SOL    HW129957   1.053   3.957   3.426  1.8971 -1.2736 -0.5140
 6166SOL    HW229958   1.059   4.019   3.554 -1.8415  0.5733  0.6039
 6167SOL     OW29959   0.834   4.697   2.065  0.3341 -0.1741 -0.0115
 6167SOL    HW129960   0.789   4.706   2.149 -1.3679 -0.3197 -0.9087
 6167SOL    HW229961   0.923   4.698   2.099 -0.2757  0.0588  1.6298
 6168SOL     OW29962   3.195   3.619   3.194  0.1950  0.2470  0.2073
 6168SOL    HW129963   3.186   3.525   3.209  2.2193 -0.0584 -0.4688
 6168SOL    HW229964   3.177   3.631   3.101 -1.5764  0.7418  0.6220
 6169SOL     OW29965   0.725   4.131   6.505  0.0355 -0.6070  0.1186
 6169SOL    HW129966   0.736   4.208   6.561  1.5157 -0.4721 -0.3534
 6169SOL    HW229967   0.777   4.067   6.554  0.2494 -0.0206  0.6596
 6170SOL     OW29968   3.291   1.137   2.993 -0.1396  0.2561  0.7303
 6170SOL    HW129969   3.382   1.108   2.986 -0.4203 -0.6966  0.9620
 6170SOL    HW229970   3.251   1.050   2.985 -2.9749  1.4551  1.6412
 6171SOL     OW29971   0.188   4.624  17.008  0.7582  0.2689 -0.3616
 6171SOL    HW129972   0.231   4.654  17.088 -0.9417 -0.1453  0.7049
 6171SOL    HW229973   0.209   4.530  17.009  0.9253  0.2987 -0.8107
 6172SOL     OW29974   0.210   3.084  17.506  0.7452 -0.3277  0.3241
 6172SOL    HW129975   0.273   3.156  17.515  0.7877 -0.1722 -1.1296
 6172SOL    HW229976   0.175   3.118  17.424  0.7703 -1.1447 -0.0205
 6173SOL     OW29977   1.245   3.835  10.554  0.6458 -0.7174  0.2235
 6173SOL    HW129978   1.296   3.876  10.624  0.7401 -1.7163  0.7315
 6173SOL    HW229979   1.226   3.749  10.591  2.3304 -0.6507  1.2336
 6174SOL     OW29980   2.862   3.524   2.533  0.4206  0.5573  0.3448
 6174SOL    HW129981   2.869   3.447   2.589  0.8702  0.0257 -0.4472
 6174SOL    HW229982   2.767   3.528   2.526  0.5399  0.7612 -1.1046
 6175SOL     OW29983   3.845   1.136  14.692 -0.3911  0.0466  0.0131
 6175SOL    HW129984   3.920   1.183  14.656  0.9202 -3.0101 -1.2455
 6175SOL    HW229985   3.781   1.206  14.698 -0.7251 -0.4285  2.1062
 6176SOL     OW29986   3.950   4.688   1.176 -0.3795 -0.0230  0.0352
 6176SOL    HW129987   3.969   0.004   1.091 -0.7320  1.6687  0.7714
 6176SOL    HW229988   4.014   4.617   1.166 -0.2204  0.1138  0.0929
 6177SOL     OW29989   1.924   1.839   1.901 -0.0139 -0.3858  0.2320
 6177SOL    HW129990   1.870   1.761   1.910  1.7930 -1.4800  1.5937
 6177SOL    HW229991   1.996   1.815   1.959 -0.7199  0.0640  1.2947
 6178SOL     OW29992   1.686   2.049   4.716 -0.5074 -0.1547  0.4048
 6178SOL    HW129993   1.672   1.965   4.671 -0.2124  1.3218 -2.4677
 6178SOL    HW229994   1.766   2.078   4.671 -0.4571  0.7329  1.0666
 6179SOL     OW29995   0.342   4.339   9.577  0.6897  0.3364  1.0040
 6179SOL    HW129996   0.413   4.402   9.565  1.0911 -0.1558  0.8037
 6179SOL    HW229997   0.389   4.256   9.570 -3.0490 -1.5754 -1.2724
 6180SOL     OW29998   4.080   3.535   4.061  0.1220  0.1887  0.7185
 6180SOL    HW129999   3.989   3.558   4.041 -0.0288 -1.0104  0.0342
 6180SOL    HW230000   4.076   3.557   4.155  1.4178  1.8569  0.3927
 6181SOL     OW30001   1.752   3.806  15.039  0.7377  0.5744  0.1088
 6181SOL    HW130002   1.803   3.839  15.113  2.4863 -0.9391 -0.4332
 6181SOL    HW230003   1.818   3.774  14.978 -0.0726  0.4394 -0.7102
 6182SOL     OW30004   1.802   3.945   3.728  0.1114 -0.7437 -0.3340
 6182SOL    HW130005   1.764   3.905   3.806 -1.9247  0.0963 -0.8690
 6182SOL    HW230006   1.741   4.019   3.716  1.2920  0.3709  0.6567
 6183SOL     OW30007   3.842   1.096   3.107 -0.2783 -0.4789  0.0242
 6183SOL    HW130008   3.833   1.175   3.055 -0.0642  0.3208  1.1954
 6183SOL    HW230009   3.804   1.031   3.048  0.0364  1.6178 -2.4932
 6184SOL     OW30010   1.606   3.176  14.652  0.2472  0.8320  0.3117
 6184SOL    HW130011   1.625   3.114  14.723 -0.2452 -0.6417 -0.8302
 6184SOL    HW230012   1.544   3.122  14.602  3.5570 -1.5984 -1.1419
 6185SOL     OW30013   4.465   1.888   5.005 -0.0194 -0.2656 -0.4790
 6185SOL    HW130014   4.485   1.862   5.095 -0.2567 -0.7164 -0.5549
 6185SOL    HW230015   4.541   1.941   4.981  0.6514 -1.3285 -0.6989
 6186SOL     OW30016   2.171   2.721   7.476  0.6482 -0.3646 -0.4493
 6186SOL    HW130017   2.168   2.626   7.485  0.6811 -0.3672 -0.4659
 6186SOL    HW230018   2.076   2.732   7.483  0.7496 -1.1138  1.9056
 6187SOL     OW30019   4.525   1.445   0.891  0.1640  0.2575 -0.0655
 6187SOL    HW130020   4.445   1.395   0.904 -0.3164  0.5078 -1.9766
 6187SOL    HW230021   4.537   1.486   0.977  0.5110  0.1462 -0.0607
 6188SOL     OW30022   0.623   2.593   7.083  0.0489  0.3670 -0.3643
 6188SOL    HW130023   0.675   2.527   7.036 -0.5588  0.5688 -1.3053
 6188SOL    HW230024   0.690   2.661   7.086 -0.9344  1.2889  0.6758
 6189SOL     OW30025   2.724   4.431   7.324  0.6356  0.1359 -0.3967
 6189SOL    HW130026   2.629   4.435   7.335  0.7788  1.3645  0.3721
 6189SOL    HW230027   2.738   4.525   7.336 -2.2079  0.7023 -1.5803
 6190SOL     OW30028   2.366   1.841  14.138 -0.1809 -0.2417  0.4593
 6190SOL    HW130029   2.341   1.933  14.147 -0.1711 -0.1478 -0.5010
 6190SOL    HW230030   2.443   1.852  14.082  0.8818  1.4578  2.2212
 6191SOL     OW30031   3.877   1.257   6.025 -0.4037 -0.6305 -0.5817
 6191SOL    HW130032   3.847   1.207   6.101 -0.4826  0.0597 -0.1655
 6191SOL    HW230033   3.964   1.228   5.998  0.9079  2.2516  0.5543
 6192SOL     OW30034   3.755   3.869   4.096 -0.6755 -0.1841  0.0487
 6192SOL    HW130035   3.834   3.833   4.137 -0.1212 -1.6038 -2.2665
 6192SOL    HW230036   3.779   3.954   4.060 -0.4868 -0.4096 -0.3645
 6193SOL     OW30037   3.360   1.527   2.033  0.6452  0.1339 -0.2934
 6193SOL    HW130038   3.364   1.588   2.107 -0.4171  0.7555 -0.7280
 6193SOL    HW230039   3.270   1.494   2.032  0.6848  0.0388 -0.7383
 6194SOL     OW30040   0.472   3.529   7.792 -0.2694  0.3497 -0.5265
 6194SOL    HW130041   0.423   3.455   7.755 -0.6528 -0.1714  1.0190
 6194SOL    HW230042   0.503   3.581   7.718  2.0126  0.5516  0.5917
 6195SOL     OW30043   1.541   0.150  12.467  0.2518 -0.0847 -0.2467
 6195SOL    HW130044   1.501   0.122  12.550 -1.8059 -1.3162 -1.6402
 6195SOL    HW230045   1.634   0.162  12.486 -0.0021 -1.3882  1.8107
 6196SOL     OW30046   2.940   1.281   3.489  0.1683  0.4806  0.3148
 6196SOL    HW130047   3.013   1.228   3.522  0.4525  1.2565  0.9546
 6196SOL    HW230048   2.924   1.241   3.404 -4.1778 -1.0645  1.8611
 6197SOL     OW30049   3.476   0.214   6.887 -0.5153  0.5706  0.5405
 6197SOL    HW130050   3.493   0.151   6.817  1.1796  1.1901  0.3809
 6197SOL    HW230051   3.554   0.269   6.873 -0.5981  1.1338  2.3249
 6198SOL     OW30052   1.777   0.412  13.442 -0.2060 -0.0912 -0.2418
 6198SOL    HW130053   1.846   0.420  13.377  0.9090  1.0176  1.0780
 6198SOL    HW230054   1.716   0.368  13.383 -0.5555 -0.3078  0.2845
 6199SOL     OW30055   0.444   4.350  12.356 -0.2546  0.2252  0.1033
 6199SOL    HW130056   0.353   4.356  12.329  0.1825  0.0461 -1.4329
 6199SOL    HW230057   0.476   4.434  12.321 -3.7240  1.2705 -0.5889
 6200SOL     OW30058   2.032   3.845  12.904  0.1164  0.0806  0.1917
 6200SOL    HW130059   2.096   3.916  12.899 -0.0902  0.1112 -1.9248
 6200SOL    HW230060   2.063   3.806  12.985  1.2620 -0.1272 -0.3537
 6201SOL     OW30061   4.478   2.089   3.096 -0.7611  0.5865 -0.1712
 6201SOL    HW130062   4.537   2.047   3.033 -1.8716  0.9051 -1.4213
 6201SOL    HW230063   4.519   2.053   3.175  0.4431  1.8086 -0.2346
 6202SOL     OW30064   1.974   2.365   9.028  0.2744  0.0012 -0.4793
 6202SOL    HW130065   1.921   2.398   8.955 -1.6495  1.0411  1.3993
 6202SOL    HW230066   1.896   2.339   9.075  0.3861  1.5414  0.5725
 6203SOL     OW30067   0.584   3.227   7.912 -0.2248  0.1498  0.2196
 6203SOL    HW130068   0.591   3.211   8.007  0.5999  1.1029  0.3135
 6203SOL    HW230069   0.491   3.227   7.887 -0.1372  3.7873 -0.1068
 6204SOL     OW30070   4.130   2.726   6.048 -0.0932 -0.7536  0.0599
 6204SOL    HW130071   4.159   2.805   6.095  4.3791 -3.0385  1.0988
 6204SOL    HW230072   4.081   2.689   6.121 -0.5523 -2.1437 -0.9491
 6205SOL     OW30073   0.585   1.314   2.443  0.3327 -0.5112 -0.4070
 6205SOL    HW130074   0.531   1.374   2.391 -1.1297 -0.4752  1.1741
 6205SOL    HW230075   0.639   1.276   2.374  0.4684  0.4194 -0.8258
 6206SOL     OW30076   3.750   3.325   6.774 -0.0173  0.0449  0.5473
 6206SOL    HW130077   3.806   3.248   6.765 -0.8683 -0.4290 -0.7781
 6206SOL    HW230078   3.689   3.298   6.842 -0.1780  2.0114  1.1889
 6207SOL     OW30079   0.163   4.460   5.575 -0.1702 -0.0626 -0.1295
 6207SOL    HW130080   0.084   4.415   5.548 -0.3035  0.3153 -0.3696
 6207SOL    HW230081   0.182   4.412   5.656 -0.8482  1.5239  0.9762
 6208SOL     OW30082   1.477   0.193   9.429 -0.3482 -0.3544 -0.1818
 6208SOL    HW130083   1.403   0.196   9.489  1.5692 -0.4074  2.2049
 6208SOL    HW230084   1.480   0.103   9.398 -0.8084 -0.1842 -0.7290
 6209SOL     OW30085   3.718   4.641   6.239 -0.8533 -0.2958 -0.1323
 6209SOL    HW130086   3.688   0.008   6.236  1.8496  0.6678  1.8273
 6209SOL    HW230087   3.798   4.642   6.292 -1.6331  0.2688  1.0410
 6210SOL     OW30088   3.232   2.045  12.937 -0.4090  0.2695 -0.6951
 6210SOL    HW130089   3.175   2.069  13.011  0.9677  0.0793  0.4208
 6210SOL    HW230090   3.238   2.132  12.899 -2.0464  0.3584 -0.7581
 6211SOL     OW30091   1.114   1.098   2.983  0.2380  0.0907  0.0728
 6211SOL    HW130092   1.171   1.038   2.934  0.4188  0.7598 -0.5387
 6211SOL    HW230093   1.054   1.036   3.025  0.2756  0.0303  0.0383
 6212SOL     OW30094   0.786   0.091   9.744  0.4940  0.2547  0.4623
 6212SOL    HW130095   0.846   0.017   9.751  0.1809 -0.2684 -2.2692
 6212SOL    HW230096   0.849   0.158   9.715 -2.2264  1.1735 -3.3452
 6213SOL     OW30097   2.403   1.094   8.852  0.4052  0.1954 -0.3763
 6213SOL    HW130098   2.496   1.098   8.875  0.3309  0.3278 -0.1069
 6213SOL    HW230099   2.400   1.120   8.760  1.5992  1.1053 -0.1501
 6214SOL     OW30100   4.419   1.372   8.212  0.7045 -0.0460  0.6333
 6214SOL    HW130101   4.330   1.349   8.186  2.3986 -0.9144 -4.4343
 6214SOL    HW230102   4.411   1.413   8.298  0.2758  2.0543 -0.3953
 6215SOL     OW30103   1.174   3.351  10.620 -0.2598  0.1371 -0.2138
 6215SOL    HW130104   1.162   3.269  10.572  3.0073  0.7159 -2.0120
 6215SOL    HW230105   1.184   3.324  10.711 -0.9753  2.7963  0.6590
 6216SOL     OW30106   4.154   2.531  14.368 -0.3244 -0.0208 -0.4326
 6216SOL    HW130107   4.193   2.603  14.317 -1.6885 -1.3353 -3.3647
 6216SOL    HW230108   4.066   2.537  14.331 -0.0821 -0.8751 -1.1464
 6217SOL     OW30109   1.629   3.956   7.695 -0.2116 -0.3617  0.4845
 6217SOL    HW130110   1.721   3.982   7.695  0.5888 -3.2057  1.0777
 6217SOL    HW230111   1.595   3.974   7.607 -2.0329  0.2523  1.3251
 6218SOL     OW30112   2.686   3.160   3.121  0.0475 -0.5919  0.3002
 6218SOL    HW130113   2.684   3.121   3.034  0.3679 -0.7808  0.3793
 6218SOL    HW230114   2.620   3.229   3.114 -1.5733 -2.0089  1.9345
 6219SOL     OW30115   1.183   1.271   8.703 -0.3080  0.4844 -0.3195
 6219SOL    HW130116   1.239   1.215   8.759 -2.6232 -0.5129  1.0072
 6219SOL    HW230117   1.104   1.222   8.682  0.5391 -1.0251 -0.0788
 6220SOL     OW30118   2.325   4.519   7.075 -0.2930 -0.2125  0.4794
 6220SOL    HW130119   2.261   4.586   7.053  0.4134  1.5901  3.9824
 6220SOL    HW230120   2.266   4.461   7.122 -0.4748 -0.0609  0.4345
 6221SOL     OW30121   1.937   1.209  13.941  0.0049  0.0719  0.0009
 6221SOL    HW130122   1.843   1.194  13.939  0.4857 -2.9587 -1.5584
 6221SOL    HW230123   1.962   1.176  13.854  1.7286  1.3767 -0.0140
 6222SOL     OW30124   0.284   0.069   2.431  0.3827 -0.7691  0.9531
 6222SOL    HW130125   0.356   0.041   2.375 -1.3008 -1.7195 -0.6968
 6222SOL    HW230126   0.211   0.031   2.383  0.9116  1.4779 -1.6230
 6223SOL     OW30127   3.051   0.984   5.534 -0.5031 -0.5211 -0.7433
 6223SOL    HW130128   2.983   0.924   5.565  0.8589 -2.1688 -0.9340
 6223SOL    HW230129   3.002   1.062   5.510  0.1560  0.6752  1.8102
 6224SOL     OW30130   1.586   4.573   4.146  0.7858 -0.1137 -0.5606
 6224SOL    HW130131   1.598   4.505   4.080 -1.1897 -1.0370  0.0413
 6224SOL    HW230132   1.599   4.519   4.225  2.4698  0.2506 -0.5814
 6225SOL     OW30133   4.065   1.584  13.457 -0.3917  0.6914 -0.0289
 6225SOL    HW130134   4.155   1.561  13.435 -0.6294 -1.5868  1.3552
 6225SOL    HW230135   4.022   1.509  13.418  2.6507 -0.9684 -0.1794
 6226SOL     OW30136   3.569   1.155   4.784 -0.4498  0.0657  0.2825
 6226SOL    HW130137   3.608   1.203   4.857 -1.7254  1.8982 -0.2470
 6226SOL    HW230138   3.577   1.216   4.711  2.3894  0.8361  1.2404
 6227SOL     OW30139   1.911   3.601   3.938 -0.4271 -0.1714 -0.4719
 6227SOL    HW130140   1.864   3.679   3.908 -0.0001  0.3407  0.2057
 6227SOL    HW230141   1.899   3.605   4.033  2.3151 -1.9260 -0.0733
 6228SOL     OW30142   0.956   2.110   5.750 -0.4522  0.1419 -0.4176
 6228SOL    HW130143   0.865   2.126   5.778 -0.9094 -2.2571 -0.4532
 6228SOL    HW230144   0.962   2.075   5.661 -0.7045  0.1225 -0.4272
 6229SOL     OW30145   3.440   0.568   4.056  0.2200 -0.5159 -0.5138
 6229SOL    HW130146   3.454   0.477   4.032  2.7448 -0.4760  0.7402
 6229SOL    HW230147   3.350   0.566   4.087  1.1547 -0.8284  2.1966
 6230SOL     OW30148   1.572   3.223   0.237 -0.7943 -0.2191 -0.0366
 6230SOL    HW130149   1.655   3.269   0.223  0.9064 -3.6125 -1.2874
 6230SOL    HW230150   1.581   3.187   0.325 -1.5947 -0.0956  0.0977
 6231SOL     OW30151   3.054   3.142   9.031  0.7524  0.0070 -0.1885
 6231SOL    HW130152   3.106   3.065   9.008  2.3046  0.2778  2.4619
 6231SOL    HW230153   3.114   3.179   9.095  0.4032  2.4166 -1.2323
 6232SOL     OW30154   0.041   3.225  15.722  0.4247 -0.5256 -0.5694
 6232SOL    HW130155   4.683   3.272  15.730  0.5595 -0.8131  2.5275
 6232SOL    HW230156   0.075   3.249  15.809 -1.4787  1.2846 -0.3393
 6233SOL     OW30157   2.510   2.764   6.663  0.3135 -0.5854  0.2362
 6233SOL    HW130158   2.557   2.816   6.598  1.4259  0.2068  1.6861
 6233SOL    HW230159   2.556   2.681   6.664  0.0410 -0.7412 -0.0027
 6234SOL     OW30160   3.772   3.666   5.839  0.1395  0.3080 -0.2458
 6234SOL    HW130161   3.758   3.624   5.924  1.7333  0.4243  0.0818
 6234SOL    HW230162   3.774   3.586   5.786 -0.5642  0.7889 -0.9858
 6235SOL     OW30163   4.144   2.997  15.090 -0.2926 -0.0466  0.6916
 6235SOL    HW130164   4.100   2.918  15.059  2.0601 -1.9418  2.2340
 6235SOL    HW230165   4.213   2.957  15.143 -0.5079  0.2963  1.2250
 6236SOL     OW30166   3.236   2.561  10.119 -0.4162  0.4659 -0.3366
 6236SOL    HW130167   3.197   2.483  10.160 -2.0570  0.8469 -1.1569
 6236SOL    HW230168   3.190   2.579  10.037 -2.1368 -0.0281  0.5101
 6237SOL     OW30169   1.128   0.553   5.267 -0.7508  0.0436  0.2162
 6237SOL    HW130170   1.143   0.646   5.250 -1.4810  0.6445  2.7959
 6237SOL    HW230171   1.063   0.530   5.202  1.9257 -0.3939 -2.3136
 6238SOL     OW30172   0.548   2.854  14.550  0.7428  0.7274  0.1963
 6238SOL    HW130173   0.470   2.879  14.501  1.6992  0.8738 -1.2807
 6238SOL    HW230174   0.522   2.877  14.639 -0.6452 -2.3557  0.5869
 6239SOL     OW30175   1.836   4.171   1.953 -0.0896 -0.5308 -1.0478
 6239SOL    HW130176   1.834   4.265   1.969  3.7634 -0.6652  0.4407
 6239SOL    HW230177   1.880   4.178   1.869 -1.9508 -0.7277 -2.0228
 6240SOL     OW30178   0.277   2.032  10.804 -0.6995  0.3148  0.2332
 6240SOL    HW130179   0.295   2.119  10.769  0.2180 -0.1407 -0.4020
 6240SOL    HW230180   0.279   2.054  10.897  1.2660  2.9206 -0.4354
 6241SOL     OW30181   2.251   0.382   3.746 -0.9814  0.4597  0.0876
 6241SOL    HW130182   2.211   0.401   3.662 -1.0152  1.7497  0.4005
 6241SOL    HW230183   2.255   0.286   3.747  3.4575  0.6178  0.0459
 6242SOL     OW30184   1.828   3.527   1.368 -0.2118 -0.0673  0.3239
 6242SOL    HW130185   1.906   3.545   1.315 -1.2352  0.6368 -0.9268
 6242SOL    HW230186   1.791   3.451   1.322  0.5411  0.0375 -0.4531
 6243SOL     OW30187   4.406   0.367   0.095 -0.3813  0.3207 -0.5348
 6243SOL    HW130188   4.389   0.378   0.001 -1.3920  2.0068 -0.1551
 6243SOL    HW230189   4.342   0.297   0.108 -0.0995  0.6847  2.7251
 6244SOL     OW30190   2.848   1.516   3.614 -0.1931  0.1459 -0.6041
 6244SOL    HW130191   2.891   1.571   3.548 -0.0411 -0.5708 -1.0983
 6244SOL    HW230192   2.855   1.430   3.573 -0.0526  0.4643 -1.2505
 6245SOL     OW30193   2.424   4.273   6.977  0.2160 -0.1905  0.9405
 6245SOL    HW130194   2.417   4.266   6.882  0.1583 -2.1409  1.0900
 6245SOL    HW230195   2.386   4.360   6.988  1.1960  0.6196 -2.1191
 6246SOL     OW30196   0.515   0.982   8.957 -0.3429  0.4999 -0.5593
 6246SOL    HW130197   0.586   0.918   8.962  0.1999  1.3278  2.1088
 6246SOL    HW230198   0.557   1.058   8.918  1.3939  0.1386  0.6148
 6247SOL     OW30199   2.039   1.136   6.133 -0.4234 -0.2323  0.4234
 6247SOL    HW130200   2.046   1.173   6.045  2.3853  1.2948  1.2863
 6247SOL    HW230201   1.950   1.100   6.131  0.7114 -2.9831  0.0816
 6248SOL     OW30202   2.884   0.293   0.804  0.0543 -0.6022 -0.1119
 6248SOL    HW130203   2.971   0.274   0.838  0.2438  2.3422  1.0523
 6248SOL    HW230204   2.895   0.364   0.740 -1.1729 -1.7687 -1.6197
 6249SOL     OW30205   0.916   0.881  11.179 -0.1036 -0.0902  0.7943
 6249SOL    HW130206   0.951   0.820  11.114 -0.7241 -1.1091  1.4248
 6249SOL    HW230207   0.899   0.959  11.125  1.0211 -0.5475 -0.2181
 6250SOL     OW30208   1.536   0.507  12.495 -0.0981 -0.3387 -0.6523
 6250SOL    HW130209   1.534   0.421  12.536 -0.9628  0.2298  0.4791
 6250SOL    HW230210   1.454   0.521  12.448 -0.4079 -2.4117 -0.7392
 6251SOL     OW30211   3.493   4.138   5.223  0.0964  0.0454 -0.6946
 6251SOL    HW130212   3.529   4.101   5.303  0.2961  1.3311 -0.1910
 6251SOL    HW230213   3.569   4.164   5.172  0.0637  1.3642 -0.0667
 6252SOL     OW30214   1.353   3.372   9.912 -0.5467 -0.3381 -0.0010
 6252SOL    HW130215   1.340   3.440   9.977 -1.7662 -1.6062  1.0896
 6252SOL    HW230216   1.402   3.412   9.840 -1.4698  1.6991  0.5160
 6253SOL     OW30217   1.310   1.699   9.290  0.0470  0.1742  0.0858
 6253SOL    HW130218   1.375   1.691   9.220  0.0799 -0.1665  0.1539
 6253SOL    HW230219   1.359   1.743   9.360 -0.4727 -0.9243  1.1533
 6254SOL     OW30220   3.440   0.286   3.941 -0.1968 -0.5324 -0.1635
 6254SOL    HW130221   3.425   0.213   3.881  1.1685  1.0035 -2.3784
 6254SOL    HW230222   3.354   0.326   3.934  0.1741  0.1689 -0.7346
 6255SOL     OW30223   2.347   1.374   6.412  0.2281 -0.0610 -0.0890
 6255SOL    HW130224   2.275   1.390   6.350 -0.1906 -1.5632 -0.0108
 6255SOL    HW230225   2.325   1.424   6.491 -0.7673 -2.2033  1.0036
 6256SOL     OW30226   4.329   4.185  10.522 -0.4099  0.1594  0.0198
 6256SOL    HW130227   4.294   4.267  10.556 -3.7493 -0.8923 -0.9402
 6256SOL    HW230228   4.248   4.153  10.484 -0.2884  0.4281 -0.4632
 6257SOL     OW30229   1.725   0.124   4.960  0.6294 -0.1698 -0.3831
 6257SOL    HW130230   1.735   0.149   4.869  0.4644 -0.2885 -0.4350
 6257SOL    HW230231   1.680   0.199   5.000 -0.1741 -0.7477 -0.2016
 6258SOL     OW30232   2.902   3.463   6.276  0.1652  0.0243 -0.0715
 6258SOL    HW130233   2.912   3.488   6.368 -2.7239  0.0155  0.2187
 6258SOL    HW230234   2.957   3.385   6.282  0.2897  0.1892  0.9683
 6259SOL     OW30235   1.704   0.617  16.503 -0.6023  0.0179  0.2373
 6259SOL    HW130236   1.642   0.671  16.551  0.3779  1.2916  0.0787
 6259SOL    HW230237   1.783   0.633  16.555 -0.1215  0.8520 -0.7631
 6260SOL     OW30238   4.057   4.698   0.544  0.2746 -0.2424 -0.3595
 6260SOL    HW130239   4.025   0.032   0.613  0.5797  0.3827 -0.7441
 6260SOL    HW230240   4.052   4.623   0.603 -0.0496  0.3208  0.3310
 6261SOL     OW30241   3.359   1.438   7.040 -0.4226  0.6439 -0.3531
 6261SOL    HW130242   3.272   1.478   7.041 -1.5925 -1.9198  0.1292
 6261SOL    HW230243   3.359   1.398   6.953 -1.3468  1.2394 -0.6231
 6262SOL     OW30244   2.156   2.645   5.367  0.7637  0.0551 -0.1190
 6262SOL    HW130245   2.100   2.576   5.332 -0.2387  0.9853 -0.3556
 6262SOL    HW230246   2.143   2.617   5.458 -0.3267 -1.7043 -0.8237
 6263SOL     OW30247   3.536   3.728  17.646 -0.5986 -0.3717  0.1419
 6263SOL    HW130248   3.452   3.772  17.658 -0.3041  0.0428  0.6747
 6263SOL    HW230249   3.572   3.782  17.575  2.4076 -1.8869  0.4900
 6264SOL     OW30250   3.730   1.428   6.869  0.3513 -0.3084 -0.1916
 6264SOL    HW130251   3.803   1.398   6.923  2.4243  0.7590 -2.4117
 6264SOL    HW230252   3.674   1.351   6.878  0.4372 -0.1959  1.3618
 6265SOL     OW30253   1.147   1.940  14.620  0.1066  0.2338  0.0546
 6265SOL    HW130254   1.070   1.883  14.619  0.8967 -0.8414 -0.0080
 6265SOL    HW230255   1.095   2.020  14.628 -0.2912  0.2939 -2.8472
 6266SOL     OW30256   3.345   2.371  17.589  0.3069 -0.4612 -0.2556
 6266SOL    HW130257   3.350   2.282  17.553 -0.8910 -0.3523 -0.6760
 6266SOL    HW230258   3.399   2.412  17.521 -2.3904  2.6286 -0.5173
 6267SOL     OW30259   4.585   4.209   0.850  0.2355  0.2857 -0.5195
 6267SOL    HW130260   4.653   4.258   0.895 -1.0510 -0.2049  1.9382
 6267SOL    HW230261   4.624   4.121   0.850 -1.0915 -0.3069 -2.8376
 6268SOL     OW30262   1.276   4.030   1.635  0.4762  0.1956  0.5454
 6268SOL    HW130263   1.239   3.952   1.594 -1.3024 -0.1203  2.7718
 6268SOL    HW230264   1.232   4.105   1.594 -2.1872 -1.7094 -0.0547
 6269SOL     OW30265   1.625   3.332   0.609 -0.0357  0.7973 -0.4595
 6269SOL    HW130266   1.691   3.367   0.550  1.8744 -1.6984  0.1851
 6269SOL    HW230267   1.663   3.247   0.632  1.7100  1.9291  0.8491
 6270SOL     OW30268   2.215   0.984   8.467  0.8230 -0.3088 -0.0278
 6270SOL    HW130269   2.252   1.060   8.512 -0.9045  0.4518  0.1164
 6270SOL    HW230270   2.248   0.989   8.377 -0.1008  0.7635 -0.3150
 6271SOL     OW30271   1.657   1.362  11.026 -0.6705 -0.0628 -0.4407
 6271SOL    HW130272   1.577   1.405  11.056  0.1090  1.4390 -0.4734
 6271SOL    HW230273   1.611   1.295  10.976 -1.7973  0.4394 -0.0752
 6272SOL     OW30274   3.307   4.701   7.393  0.0020  0.0988  0.7077
 6272SOL    HW130275   3.305   0.024   7.310  1.7340  0.4634  0.8669
 6272SOL    HW230276   3.217   4.668   7.395 -0.2776  0.8104  0.0214
 6273SOL     OW30277   1.300   4.511   7.377 -0.0434 -0.2161  0.3742
 6273SOL    HW130278   1.353   4.520   7.457 -0.0203  0.7844  0.2432
 6273SOL    HW230279   1.249   4.591   7.385 -0.7437 -0.6415  0.1129
 6274SOL     OW30280   0.953   0.984   0.138  0.0945 -0.0800  1.0970
 6274SOL    HW130281   0.903   0.904   0.122 -1.2226  1.0921 -0.6788
 6274SOL    HW230282   1.028   0.949   0.185  0.1996 -1.0629  0.2026
 6275SOL     OW30283   1.363   3.373   8.285  0.3356 -0.0745  0.1987
 6275SOL    HW130284   1.297   3.423   8.237 -0.6183 -0.8863  0.6563
 6275SOL    HW230285   1.325   3.285   8.291 -0.3794  0.0234 -2.5979
 6276SOL     OW30286   2.705   0.383  16.502 -0.7812 -0.5745  0.4308
 6276SOL    HW130287   2.745   0.324  16.438  2.0148  2.7708 -0.8685
 6276SOL    HW230288   2.719   0.346  16.589  0.5870 -3.1125 -0.8804
 6277SOL     OW30289   4.020   0.489   3.050 -0.4558 -0.1575  0.0230
 6277SOL    HW130290   4.030   0.486   3.145  1.3868 -2.1253 -0.2216
 6277SOL    HW230291   4.097   0.543   3.033  0.1324 -0.9176  0.2686
 6278SOL     OW30292   2.091   2.392   4.863  0.4113  0.3284 -0.0605
 6278SOL    HW130293   2.065   2.485   4.862  0.5383  0.3527 -0.9680
 6278SOL    HW230294   2.169   2.394   4.919  0.9269 -3.6149 -0.6712
 6279SOL     OW30295   3.603   0.634   4.649 -0.3437 -0.1908  0.3217
 6279SOL    HW130296   3.661   0.617   4.575  0.2274  1.4212  0.3785
 6279SOL    HW230297   3.561   0.549   4.661 -0.7003  0.0988  1.1407
 6280SOL     OW30298   2.344   1.760  16.798 -0.2894  0.5728  0.2948
 6280SOL    HW130299   2.337   1.699  16.871  0.3310 -1.1673 -1.1260
 6280SOL    HW230300   2.354   1.837  16.854  1.5573 -0.7298  1.7388
 6281SOL     OW30301   0.499   3.546   8.057 -0.4439  0.1639  0.1657
 6281SOL    HW130302   0.488   3.535   7.962  1.2211  0.7211 -0.0841
 6281SOL    HW230303   0.561   3.618   8.064  2.9421 -2.7394  0.1576
 6282SOL     OW30304   4.561   2.731  10.161  0.0917  0.0758  0.5325
 6282SOL    HW130305   4.534   2.793  10.228  0.2671  0.3343  0.3618
 6282SOL    HW230306   4.656   2.744  10.156 -0.6211  3.9711 -2.6855
 6283SOL     OW30307   0.683   0.400   1.671 -0.8325 -0.0803 -0.3980
 6283SOL    HW130308   0.664   0.428   1.582 -2.5744 -0.3913 -0.1198
 6283SOL    HW230309   0.738   0.473   1.700  0.8894 -0.5948 -2.3926
 6284SOL     OW30310   0.216   0.177   5.850  0.5464  0.1490 -0.1139
 6284SOL    HW130311   0.217   0.106   5.786  1.4491  0.5215 -0.5071
 6284SOL    HW230312   0.187   0.256   5.803 -2.1380 -1.0457 -0.4675
 6285SOL     OW30313   3.868   2.368   0.604 -0.4797 -0.6858 -0.1532
 6285SOL    HW130314   3.861   2.326   0.690 -2.5820  0.0542  0.0454
 6285SOL    HW230315   3.802   2.435   0.625 -0.2809 -1.3112  2.4756
 6286SOL     OW30316   0.627   0.647  11.460  0.1456 -0.0867 -0.1628
 6286SOL    HW130317   0.668   0.578  11.513  1.5415  0.3394 -0.6891
 6286SOL    HW230318   0.688   0.718  11.479  0.8952 -0.4093 -1.3445
 6287SOL     OW30319   1.375   2.643  13.240 -0.8791 -0.7301 -0.4004
 6287SOL    HW130320   1.469   2.648  13.221 -1.1562 -2.1304 -2.1252
 6287SOL    HW230321   1.347   2.720  13.289 -1.4419 -1.2820  0.1642
 6288SOL     OW30322   2.736   2.354  17.671 -0.0922 -0.2208 -0.1924
 6288SOL    HW130323   2.664   2.411   0.000  0.5848 -0.0343  1.1861
 6288SOL    HW230324   2.702   2.271   0.005  1.1407 -1.1213 -1.2072
 6289SOL     OW30325   2.138   3.453   3.991 -0.4330  0.3701  0.0779
 6289SOL    HW130326   2.052   3.485   3.963 -0.1850 -0.6621 -1.8758
 6289SOL    HW230327   2.192   3.490   3.921  1.3282  1.2749  1.9325
 6290SOL     OW30328   0.529   2.927  16.257  0.0322  0.4324  0.3608
 6290SOL    HW130329   0.477   2.931  16.337  2.1753  1.8023  1.6750
 6290SOL    HW230330   0.591   2.857  16.276 -0.3297  0.6977  2.5397
 6291SOL     OW30331   1.209   2.923   7.514  0.0261  0.0942 -0.2699
 6291SOL    HW130332   1.189   2.967   7.596 -0.9226 -0.4010 -0.2350
 6291SOL    HW230333   1.136   2.941   7.454 -1.1926 -1.9386  0.5791
 6292SOL     OW30334   1.880   3.468  13.350  0.6138 -0.2661  0.3366
 6292SOL    HW130335   1.873   3.506  13.263  1.0962 -0.1758  0.3360
 6292SOL    HW230336   1.791   3.475  13.384 -0.2684  2.4701 -2.6040
 6293SOL     OW30337   1.223   3.885   5.103 -0.4811  0.3429 -0.0006
 6293SOL    HW130338   1.139   3.875   5.149 -1.4136  0.0663 -1.7519
 6293SOL    HW230339   1.291   3.868   5.168 -1.6160  2.2898  1.6873
 6294SOL     OW30340   4.316   3.267  16.018 -0.0208  0.2122 -0.4792
 6294SOL    HW130341   4.309   3.294  16.109  0.5695  0.4679 -0.5113
 6294SOL    HW230342   4.230   3.225  16.010  0.1459 -0.0614 -0.8699
 6295SOL     OW30343   2.949   4.550  14.760  0.1732 -0.7127 -0.3605
 6295SOL    HW130344   2.906   4.628  14.725  1.1052 -0.1288 -0.1812
 6295SOL    HW230345   3.030   4.567  14.711  1.5125 -0.7121  1.8790
 6296SOL     OW30346   1.521   2.936   7.064 -0.0674  0.1451 -0.6711
 6296SOL    HW130347   1.533   2.989   7.143 -0.4827  0.1149 -0.5891
 6296SOL    HW230348   1.428   2.921   7.049 -0.0381 -1.8654  1.2492
 6297SOL     OW30349   4.045   1.769   9.464 -0.3243 -0.2083  0.0938
 6297SOL    HW130350   3.962   1.806   9.496 -0.1840 -0.2578  0.5146
 6297SOL    HW230351   4.076   1.830   9.397  1.3214 -2.8375 -1.5468
 6298SOL     OW30352   0.066   4.037   8.733 -0.3010 -0.3921  0.3278
 6298SOL    HW130353   0.066   4.129   8.706 -0.3990  0.0449  1.8582
 6298SOL    HW230354   0.149   4.018   8.775 -0.1812  0.7568  0.6159
 6299SOL     OW30355   3.047   1.373   4.046  0.0767  0.6191  0.2996
 6299SOL    HW130356   3.097   1.295   4.022 -0.2573  1.2049 -2.3013
 6299SOL    HW230357   3.051   1.426   3.966 -0.4900  1.5285  0.8826
 6300SOL     OW30358   2.593   1.482  14.596 -0.0787 -0.8314 -0.4060
 6300SOL    HW130359   2.687   1.472  14.611 -0.1631  0.3753  0.9996
 6300SOL    HW230360   2.593   1.492  14.501 -0.9207  0.6439 -0.2570
 6301SOL     OW30361   2.609   0.052   3.139  0.5963  0.4536 -1.0426
 6301SOL    HW130362   2.627   4.684   3.122 -3.4407 -0.7562  1.0641
 6301SOL    HW230363   2.519   0.055   3.172  0.4499 -0.8524 -1.3198
 6302SOL     OW30364   3.541   0.329   8.019  0.5383 -0.0054 -0.0080
 6302SOL    HW130365   3.488   0.409   8.009  0.2262  0.0097  1.7231
 6302SOL    HW230366   3.483   0.258   8.048  0.3536 -0.0679 -0.5333
 6303SOL     OW30367   1.857   2.769  17.650 -0.1786  0.3593  0.6090
 6303SOL    HW130368   1.772   2.777  17.606  0.7874 -0.1744 -1.3178
 6303SOL    HW230369   1.843   2.821   0.032  2.1458 -2.8208  3.0867
 6304SOL     OW30370   3.429   2.880   6.321 -0.4323  0.1712 -0.0532
 6304SOL    HW130371   3.483   2.823   6.267 -0.7718  1.5128 -1.8102
 6304SOL    HW230372   3.442   2.968   6.284 -0.2157  0.8472  1.6396
 6305SOL     OW30373   0.003   0.304   7.195  0.2316 -0.0730 -0.6249
 6305SOL    HW130374   4.655   0.267   7.247  0.6364  0.9721  0.6943
 6305SOL    HW230375   0.045   0.342   7.272 -1.5168 -1.4691  1.0137
 6306SOL     OW30376   0.294   4.334   8.783  0.0568 -0.0149 -0.7813
 6306SOL    HW130377   0.298   4.401   8.851 -2.5341  0.4244 -1.0567
 6306SOL    HW230378   0.293   4.265   8.849 -1.2703  1.2046  0.4686
 6307SOL     OW30379   0.835   0.208   9.016  0.3799  0.0586 -0.1020
 6307SOL    HW130380   0.864   0.148   9.085 -1.4273  0.1194  0.7394
 6307SOL    HW230381   0.790   0.274   9.069  0.9454 -0.5663  1.1681
 6308SOL     OW30382   2.574   3.857  14.145 -0.8442 -0.2300 -0.7330
 6308SOL    HW130383   2.493   3.908  14.146 -1.0771 -0.6183  0.3095
 6308SOL    HW230384   2.559   3.796  14.217  0.8431  0.5775  0.2810
 6309SOL     OW30385   1.459   2.657  17.199  0.7240  0.5330  0.2009
 6309SOL    HW130386   1.493   2.747  17.197  1.9865 -0.0062 -2.0613
 6309SOL    HW230387   1.406   2.646  17.120  0.7677  0.8885  0.1205
 6310SOL     OW30388   1.343   0.837   4.161  0.0272 -0.0384 -0.1518
 6310SOL    HW130389   1.432   0.814   4.184  0.1092  0.8248  0.4084
 6310SOL    HW230390   1.318   0.752   4.125 -2.8896  0.2598  1.0973
 6311SOL     OW30391   0.620   0.054  10.515 -0.1223  0.1435  0.2339
 6311SOL    HW130392   0.544   0.011  10.555  1.4500 -1.3624  1.6387
 6311SOL    HW230393   0.665   4.701  10.478 -0.6709 -0.3034  0.4953
 6312SOL     OW30394   0.484   3.321   2.954  0.5028 -0.4487  0.4492
 6312SOL    HW130395   0.510   3.241   3.000 -1.0115 -0.3657  1.4468
 6312SOL    HW230396   0.395   3.295   2.929 -0.1182  1.7074  0.4341
 6313SOL     OW30397   4.488   2.891  11.256  0.1085 -0.1902  0.9453
 6313SOL    HW130398   4.398   2.882  11.223 -0.8926  0.4750  3.4933
 6313SOL    HW230399   4.530   2.810  11.227 -0.6166  0.1866 -1.2044
 6314SOL     OW30400   2.372   0.700  11.447  0.1502 -0.0806  1.0326
 6314SOL    HW130401   2.370   0.619  11.497  3.3651 -1.6470 -1.3974
 6314SOL    HW230402   2.376   0.669  11.357  3.0683  2.1503  0.3776
 6315SOL     OW30403   4.442   0.615  16.746  0.2356 -0.4467  0.6305
 6315SOL    HW130404   4.412   0.542  16.691  0.0506 -0.0252  0.1654
 6315SOL    HW230405   4.533   0.588  16.738  0.5544  0.5319  1.0011
 6316SOL     OW30406   2.737   4.668   2.541 -0.1456 -0.2159  0.3739
 6316SOL    HW130407   2.712   4.680   2.632 -1.3159 -0.1423  0.0391
 6316SOL    HW230408   2.759   4.577   2.518  3.4475  0.7839 -0.2713
 6317SOL     OW30409   1.081   4.018   3.838 -0.7740 -0.1194  0.4442
 6317SOL    HW130410   1.165   3.989   3.801 -0.5089  2.0355 -0.6746
 6317SOL    HW230411   1.057   3.936   3.880 -0.3735 -1.2083 -1.4735
 6318SOL     OW30412   4.656   1.990   4.090 -0.0113  0.0903 -0.1460
 6318SOL    HW130413   4.653   2.044   4.012 -0.3946 -1.1505 -0.9817
 6318SOL    HW230414   4.690   1.908   4.054 -0.8519  0.1422 -1.0445
 6319SOL     OW30415   1.580   2.356  14.209 -0.2752  0.3361  0.6534
 6319SOL    HW130416   1.554   2.336  14.299 -1.1947 -0.3570  0.2327
 6319SOL    HW230417   1.509   2.313  14.162 -0.2249  2.0490 -0.9709
 6320SOL     OW30418   1.369   4.135   8.576  0.6041  0.0322  0.1097
 6320SOL    HW130419   1.293   4.188   8.552 -0.5689 -1.0854  1.3755
 6320SOL    HW230420   1.434   4.204   8.586  1.9647 -0.7776 -2.8985
 6321SOL     OW30421   0.508   0.732  11.199  0.0668 -0.5422 -0.0979
 6321SOL    HW130422   0.559   0.797  11.150 -0.7467  0.7367  0.7744
 6321SOL    HW230423   0.550   0.734  11.285  1.9783 -0.0002 -1.0415
 6322SOL     OW30424   3.443   2.948   2.925  0.6210 -0.9977 -0.5492
 6322SOL    HW130425   3.503   2.873   2.927 -0.7949 -2.1032  0.8039
 6322SOL    HW230426   3.441   2.963   2.831 -1.2306  0.0262 -0.3562
 6323SOL     OW30427   4.011   0.633   3.617 -0.2668 -0.3339 -0.3328
 6323SOL    HW130428   3.980   0.681   3.541 -0.9435 -0.3650 -0.0727
 6323SOL    HW230429   3.932   0.626   3.669 -0.7046  1.7169 -0.7345
 6324SOL     OW30430   1.710   1.257   9.082 -0.0255  0.2405 -0.1865
 6324SOL    HW130431   1.684   1.348   9.097  0.2337  0.1907  0.5922
 6324SOL    HW230432   1.764   1.267   9.004  3.4506 -1.2576  2.0031
 6325SOL     OW30433   3.135   4.480   9.360 -0.2036  0.2332 -0.2348
 6325SOL    HW130434   3.181   4.425   9.297  0.5908 -0.3882  0.8742
 6325SOL    HW230435   3.048   4.442   9.351 -0.3492  1.0036 -2.0119
 6326SOL     OW30436   1.960   0.424  10.181 -0.0039 -0.5199  0.5942
 6326SOL    HW130437   1.867   0.427  10.160  0.5609  2.0296 -1.5791
 6326SOL    HW230438   1.991   0.339  10.210 -1.4375 -1.5690 -1.0083
 6327SOL     OW30439   1.315   3.438   2.345 -0.0066  0.4020 -0.0427
 6327SOL    HW130440   1.410   3.427   2.335  0.1348  1.4949  0.1351
 6327SOL    HW230441   1.318   3.525   2.305 -0.8883  0.5596  0.2284
 6328SOL     OW30442   0.471   0.334  11.647  0.2675 -0.0493 -0.6273
 6328SOL    HW130443   0.513   0.321  11.562 -1.2469 -0.9179 -1.2242
 6328SOL    HW230444   0.437   0.423  11.642  0.9741  0.2723  0.2034
 6329SOL     OW30445   2.047   3.059   7.711 -0.5486  0.3881  0.2154
 6329SOL    HW130446   2.133   3.100   7.707 -0.0753 -0.5655  0.9705
 6329SOL    HW230447   2.046   3.013   7.795  3.1006 -1.4522 -0.7891
 6330SOL     OW30448   2.562   3.981   3.021  0.7819 -0.4845  0.4969
 6330SOL    HW130449   2.524   3.918   2.961 -0.6537  1.2532 -0.3938
 6330SOL    HW230450   2.552   3.942   3.108 -0.5339  2.3847  1.6629
 6331SOL     OW30451   1.448   2.076   4.327 -0.5335 -0.1686  0.3981
 6331SOL    HW130452   1.462   2.165   4.361  2.2930 -0.5558  0.3112
 6331SOL    HW230453   1.515   2.068   4.259  0.1992  0.6485  1.0209
 6332SOL     OW30454   0.182   4.103  14.235  0.3170 -0.1671 -0.2094
 6332SOL    HW130455   0.241   4.044  14.188  1.4856  0.5260  0.3841
 6332SOL    HW230456   0.243   4.160  14.282 -0.6956 -0.2608  1.1986
 6333SOL     OW30457   2.825   2.298   6.772 -0.4490  0.2020  0.1044
 6333SOL    HW130458   2.749   2.240   6.767 -1.3701  1.5375 -1.3976
 6333SOL    HW230459   2.894   2.245   6.733  2.0412  3.3238  0.2688
 6334SOL     OW30460   2.924   2.851   7.517  0.7865 -0.3363 -0.4358
 6334SOL    HW130461   2.840   2.893   7.496  0.0426 -0.3081  2.5785
 6334SOL    HW230462   2.940   2.781   7.455  0.5250 -0.8467  0.0702
 6335SOL     OW30463   0.530   4.573   9.597 -0.2009 -0.4829 -0.1139
 6335SOL    HW130464   0.616   4.537   9.622 -0.0467 -0.7228 -0.9630
 6335SOL    HW230465   0.522   4.640   9.664  0.9625  0.2081 -0.6635
 6336SOL     OW30466   0.245   3.527   5.179  0.5021 -0.3466 -0.8391
 6336SOL    HW130467   0.157   3.490   5.174  0.1604  0.4524 -0.7773
 6336SOL    HW230468   0.309   3.459   5.158  0.7900  0.7269 -3.4732
 6337SOL     OW30469   0.308   2.753   8.390  0.6123 -0.3225  0.5678
 6337SOL    HW130470   0.235   2.714   8.437  1.8682 -1.3955  1.6397
 6337SOL    HW230471   0.262   2.790   8.314 -2.4345 -1.6302  1.7874
 6338SOL     OW30472   3.528   0.508   2.510 -0.2115 -0.2073  0.2361
 6338SOL    HW130473   3.453   0.560   2.538 -0.2380 -1.0616  1.7519
 6338SOL    HW230474   3.540   0.448   2.584 -0.7511 -0.5201  0.0669
 6339SOL     OW30475   0.801   3.908   0.483 -0.0117  0.3018 -0.5048
 6339SOL    HW130476   0.719   3.900   0.434 -1.4904 -0.9163  2.1998
 6339SOL    HW230477   0.842   3.822   0.485  2.2670  1.4663  2.6079
 6340SOL     OW30478   4.067   3.500   0.957  0.0370  0.3066  0.6599
 6340SOL    HW130479   4.043   3.573   1.014 -0.8190  1.5777 -1.3461
 6340SOL    HW230480   4.157   3.524   0.933  0.5707 -1.8867  0.5177
 6341SOL     OW30481   3.315   2.240   2.391  0.2910 -0.9999 -0.0979
 6341SOL    HW130482   3.333   2.264   2.300  1.0494 -2.3610 -0.3041
 6341SOL    HW230483   3.395   2.191   2.406  1.0864 -0.5386 -2.7061
 6342SOL     OW30484   1.900   3.152   3.140  0.1180  0.2717  0.6286
 6342SOL    HW130485   1.943   3.204   3.072  1.8300 -2.9232 -0.7074
 6342SOL    HW230486   1.920   3.064   3.108 -0.7060 -0.0393  0.9663
 6343SOL     OW30487   0.201   1.589   6.021 -0.2988 -0.3023 -0.3599
 6343SOL    HW130488   0.222   1.508   5.973  2.1745 -0.0377  0.2802
 6343SOL    HW230489   0.162   1.557   6.101  1.0433 -0.7997  0.1035
 6344SOL     OW30490   1.371   1.606  16.456 -0.2587  0.0922 -0.2012
 6344SOL    HW130491   1.295   1.641  16.409  0.0278  1.0045  0.0083
 6344SOL    HW230492   1.395   1.680  16.512 -0.6889 -1.7178  2.3961
 6345SOL     OW30493   2.635   1.988   2.999 -0.2485  0.3920  0.2609
 6345SOL    HW130494   2.678   2.024   2.921  1.2019 -0.8804  0.4967
 6345SOL    HW230495   2.622   1.902   2.959 -0.6811 -0.2090  1.7167
 6346SOL     OW30496   0.768   1.908   3.757 -0.3794 -0.0820  0.6474
 6346SOL    HW130497   0.822   1.853   3.813  0.2603 -0.2109 -0.0878
 6346SOL    HW230498   0.809   1.993   3.768 -0.4246 -0.1934  1.6697
 6347SOL     OW30499   0.470   0.778  10.754  0.1265  0.4881 -0.3930
 6347SOL    HW130500   0.534   0.710  10.733 -0.3251 -0.2820  0.7047
 6347SOL    HW230501   0.437   0.750  10.840  1.1102 -1.1339 -0.5508
 6348SOL     OW30502   2.375   1.330  16.733  0.1510  0.1466 -0.0285
 6348SOL    HW130503   2.435   1.397  16.764  0.3416 -0.7777  1.5855
 6348SOL    HW230504   2.308   1.336  16.801 -0.4542  1.0214 -0.7028
 6349SOL     OW30505   1.708   3.483   3.793 -0.1844 -0.2807  0.3517
 6349SOL    HW130506   1.643   3.543   3.830 -1.8437 -2.0755  0.3242
 6349SOL    HW230507   1.793   3.510   3.827 -0.4304  0.0942  0.6816
 6350SOL     OW30508   2.280   0.214  15.709 -0.4372  0.6646 -0.6974
 6350SOL    HW130509   2.195   0.181  15.738 -0.2035  1.5772  1.0256
 6350SOL    HW230510   2.285   0.304  15.740 -0.4444  0.3235  0.3037
 6351SOL     OW30511   0.046   0.973  15.811  0.1660 -0.0094 -0.4784
 6351SOL    HW130512   4.713   0.995  15.885 -1.2425 -0.3069 -1.4672
 6351SOL    HW230513   4.711   0.995  15.739 -1.2660 -1.3681  0.2753
 6352SOL     OW30514   0.483   4.340   6.499  0.0561 -0.1151  0.1384
 6352SOL    HW130515   0.497   4.382   6.414  0.7113  0.6196  0.6144
 6352SOL    HW230516   0.437   4.263   6.464 -0.6259  1.4402 -2.4049
 6353SOL     OW30517   3.072   4.022   4.486 -0.7143 -0.6698 -0.3751
 6353SOL    HW130518   3.110   4.100   4.445  0.5315 -1.2082 -0.2166
 6353SOL    HW230519   3.140   3.978   4.536 -1.4486  0.0548  1.2698
 6354SOL     OW30520   0.287   4.186   2.964  0.2124 -0.2573  0.4046
 6354SOL    HW130521   0.303   4.254   3.030  0.4394  0.4038 -0.3429
 6354SOL    HW230522   0.202   4.208   2.925 -0.5607  1.2713  2.9228
 6355SOL     OW30523   3.306   0.607  13.653  0.4291  0.3049  0.1735
 6355SOL    HW130524   3.250   0.680  13.677 -0.8182 -0.7175  0.3572
 6355SOL    HW230525   3.241   0.544  13.623 -1.1645  2.9376 -1.7922
 6356SOL     OW30526   2.132   4.699   5.229  0.6984 -0.8378  0.1885
 6356SOL    HW130527   2.059   4.700   5.167 -0.6673 -0.4510  1.8108
 6356SOL    HW230528   2.206   4.645   5.200  1.0311 -0.0298 -0.4614
 6357SOL     OW30529   1.081   1.696  11.915  0.1346  0.1859  0.2360
 6357SOL    HW130530   1.077   1.723  11.823 -2.3423 -0.7674  0.0724
 6357SOL    HW230531   1.011   1.752  11.947  0.0427 -0.9664  2.0492
 6358SOL     OW30532   3.617   2.598   1.903  0.3223 -0.0492 -0.2237
 6358SOL    HW130533   3.571   2.533   1.851 -1.8299 -0.6298  2.3734
 6358SOL    HW230534   3.616   2.566   1.993 -1.9425  0.7144  0.0490
 6359SOL     OW30535   0.782   3.823   0.862  0.5565  0.5539  0.5566
 6359SOL    HW130536   0.824   3.797   0.944 -1.0509  0.4839  1.3657
 6359SOL    HW230537   0.783   3.741   0.813 -0.6923  0.7717  0.1549
 6360SOL     OW30538   3.036   3.980   7.712  0.0770  0.6671  0.4301
 6360SOL    HW130539   3.061   3.897   7.752  1.4969  0.7499 -0.2931
 6360SOL    HW230540   3.118   4.029   7.714  0.8505 -0.7188  2.1815
 6361SOL     OW30541   3.575   1.819  16.879  0.3574 -0.1560 -0.2075
 6361SOL    HW130542   3.498   1.801  16.933 -0.1055 -1.5157 -1.3327
 6361SOL    HW230543   3.593   1.905  16.916  2.3911 -0.4210 -0.5990
 6362SOL     OW30544   1.102   1.132   4.662  0.1823  0.3399  0.0903
 6362SOL    HW130545   1.023   1.115   4.612  0.3966 -1.3796  0.3457
 6362SOL    HW230546   1.079   1.093   4.746  3.2026 -1.5870  0.0526
 6363SOL     OW30547   3.966   4.613   6.381 -0.3102  0.3595 -0.1429
 6363SOL    HW130548   4.003   4.527   6.399  0.2609  0.5817 -0.2582
 6363SOL    HW230549   4.046   4.666   6.381 -0.5484  0.7163  2.1396
 6364SOL     OW30550   3.507   2.393  16.890 -0.1133  0.0223 -0.0345
 6364SOL    HW130551   3.602   2.396  16.906 -0.3242  2.2022  0.8423
 6364SOL    HW230552   3.479   2.484  16.883 -0.5617 -0.3158 -2.3391
 6365SOL     OW30553   2.326   2.389   8.317 -0.4250 -0.7984 -0.0384
 6365SOL    HW130554   2.394   2.441   8.276  2.2567 -2.3028  2.4421
 6365SOL    HW230555   2.379   2.314   8.345 -0.9450 -1.0468  0.2689
 6366SOL     OW30556   2.000   3.902   5.027  0.1246 -0.4005  0.3034
 6366SOL    HW130557   1.914   3.862   5.037 -0.8915  1.1757 -2.0778
 6366SOL    HW230558   2.043   3.866   5.104  1.7155  0.5238 -0.1432
 6367SOL     OW30559   0.325   0.655   8.003 -0.1641  0.6841  0.4444
 6367SOL    HW130560   0.417   0.640   8.026  0.0067 -0.7418 -1.1966
 6367SOL    HW230561   0.333   0.701   7.920 -1.5799  2.5987  1.3601
 6368SOL     OW30562   1.747   3.101   4.326  0.0777 -0.5217 -0.0157
 6368SOL    HW130563   1.799   3.060   4.257  2.3504  1.9287  0.2417
 6368SOL    HW230564   1.812   3.099   4.396  0.0506 -0.5707  0.0079
 6369SOL     OW30565   4.138   3.570   6.674  0.4515 -0.8046  0.5199
 6369SOL    HW130566   4.060   3.615   6.708  0.9539 -0.4342  1.1687
 6369SOL    HW230567   4.160   3.518   6.751 -0.3864  0.3606  1.5421
 6370SOL     OW30568   0.128   1.954  14.015  0.0846 -0.9994 -0.6156
 6370SOL    HW130569   0.070   2.016  14.059 -0.6070 -3.4439  1.8926
 6370SOL    HW230570   0.217   1.991  14.019  0.3361 -1.5228 -1.3956
 6371SOL     OW30571   2.650   4.174   6.559 -0.0965  0.3813  0.3114
 6371SOL    HW130572   2.588   4.102   6.569  1.8048 -1.3806 -0.6946
 6371SOL    HW230573   2.588   4.230   6.608 -0.2211 -0.3244  0.9558
 6372SOL     OW30574   0.448   4.642   2.968  0.1620  0.5462  0.1931
 6372SOL    HW130575   0.520   4.660   3.029  0.1532 -0.3975  0.4987
 6372SOL    HW230576   0.382   4.643   3.037  0.7487  2.3135  0.7156
 6373SOL     OW30577   0.130   1.909   6.532  0.0678  0.5828 -0.1704
 6373SOL    HW130578   0.164   1.837   6.478  0.4336  1.4246 -1.0498
 6373SOL    HW230579   0.037   1.890   6.524  0.3224 -0.5666 -0.5306
 6374SOL     OW30580   3.064   0.773   6.968  0.4620 -0.0281 -0.0377
 6374SOL    HW130581   3.064   0.684   7.004 -0.4864  0.4988  1.2720
 6374SOL    HW230582   3.156   0.798   6.961  0.2308  1.2596  1.5122
 6375SOL     OW30583   3.820   2.910   8.614 -0.1511  0.1232 -0.1651
 6375SOL    HW130584   3.819   2.831   8.559 -0.1350  0.6776 -0.9616
 6375SOL    HW230585   3.762   2.894   8.688  0.6124 -2.1393 -0.0459
 6376SOL     OW30586   2.334   1.654   2.627  0.2680  0.3808 -0.5598
 6376SOL    HW130587   2.395   1.706   2.575 -0.3781 -0.7861 -2.4874
 6376SOL    HW230588   2.391   1.586   2.663 -1.2503 -0.5998  0.0341
 6377SOL     OW30589   1.041   4.591   2.487 -0.4743  0.4691  0.2969
 6377SOL    HW130590   1.118   4.558   2.533 -0.0632 -0.1871 -0.8823
 6377SOL    HW230591   1.047   4.534   2.411 -1.3133  0.0697  0.5333
 6378SOL     OW30592   3.830   2.975   4.403  0.0361  0.1833 -0.1986
 6378SOL    HW130593   3.771   2.985   4.477  0.5939  0.6099  0.1940
 6378SOL    HW230594   3.815   2.883   4.383  1.0404  0.7841 -3.8351
 6379SOL     OW30595   0.698   3.083  10.269 -0.1382  0.0073 -0.1219
 6379SOL    HW130596   0.649   3.019  10.218 -0.3764 -0.5377  0.7904
 6379SOL    HW230597   0.681   3.057  10.359 -0.9851 -1.4924 -0.7120
 6380SOL     OW30598   3.001   0.512   0.541 -0.2022  0.1001 -0.8651
 6380SOL    HW130599   3.002   0.607   0.538  2.6873  0.1139  0.2269
 6380SOL    HW230600   2.913   0.492   0.509 -0.8649  1.3114  0.2182
 6381SOL     OW30601   0.389   1.529   5.434 -0.5651  0.1063  0.4630
 6381SOL    HW130602   0.442   1.456   5.403 -1.4680  0.0499 -0.9570
 6381SOL    HW230603   0.316   1.529   5.371 -0.6516 -1.0112  0.5578
 6382SOL     OW30604   3.824   3.876   1.394  0.2707  0.1791 -0.3096
 6382SOL    HW130605   3.822   3.836   1.307  1.6138 -0.0503 -0.2455
 6382SOL    HW230606   3.919   3.893   1.395 -0.0320  1.8355  0.8528
 6383SOL     OW30607   0.374   4.723  17.169  0.0045 -0.6655  0.5095
 6383SOL    HW130608   0.456   0.029  17.129  0.9324 -0.4945  2.5050
 6383SOL    HW230609   0.320   0.075  17.189  0.6517 -0.4840  1.5753
 6384SOL     OW30610   1.591   2.033   3.805 -0.4502  0.3166 -0.3594
 6384SOL    HW130611   1.577   2.034   3.900  1.4592  1.4170 -0.0815
 6384SOL    HW230612   1.534   2.102   3.773 -0.9592  0.5157  0.9677
 6385SOL     OW30613   3.757   2.905   2.027  0.1843  0.0812 -0.5709
 6385SOL    HW130614   3.663   2.902   2.009  0.2033 -0.1845 -0.6215
 6385SOL    HW230615   3.777   2.979   1.970  0.4113  0.5665  0.1340
 6386SOL     OW30616   2.649   4.244   7.700 -0.2493 -0.0670 -0.0730
 6386SOL    HW130617   2.575   4.296   7.667 -0.1069  1.4652  1.9981
 6386SOL    HW230618   2.638   4.245   7.795  0.3547  1.8610 -0.0039
 6387SOL     OW30619   2.545   2.848  13.620 -0.3587 -0.2598  0.7452
 6387SOL    HW130620   2.609   2.783  13.649  0.6914  0.7747  0.7180
 6387SOL    HW230621   2.538   2.890  13.706 -0.8488 -1.5431  1.3466
 6388SOL     OW30622   3.507   2.772   4.970  0.5360  0.1180 -0.4511
 6388SOL    HW130623   3.444   2.790   5.040  2.1830  0.9568  0.8295
 6388SOL    HW230624   3.561   2.716   5.026 -2.6115 -1.5529  0.9383
 6389SOL     OW30625   1.149   2.425   5.456  0.6103  0.1617  0.5386
 6389SOL    HW130626   1.215   2.478   5.412  0.5819 -0.2284  0.0256
 6389SOL    HW230627   1.189   2.385   5.533  0.5254 -2.7339 -0.9087
 6390SOL     OW30628   4.469   4.047   2.395 -0.1986  0.4199 -0.2146
 6390SOL    HW130629   4.537   4.060   2.461  0.8137 -1.8339 -0.7935
 6390SOL    HW230630   4.486   4.126   2.345  1.8264  0.1983  0.1243
 6391SOL     OW30631   1.239   4.606  17.152  0.3988  0.1446 -0.2456
 6391SOL    HW130632   1.211   4.596  17.243 -0.3766  0.0108 -0.4987
 6391SOL    HW230633   1.333   4.589  17.155  0.4117  0.4281  0.7852
 6392SOL     OW30634   3.884   3.358   4.317 -0.0728 -0.7531 -0.0997
 6392SOL    HW130635   3.824   3.395   4.252  2.0069 -1.4920 -2.4660
 6392SOL    HW230636   3.928   3.286   4.271 -2.3687 -0.2151 -3.1524
 6393SOL     OW30637   3.765   2.170  15.274  0.4305  0.2469 -0.5936
 6393SOL    HW130638   3.815   2.215  15.207  0.8714 -1.1173 -1.1843
 6393SOL    HW230639   3.775   2.222  15.354  1.4574  0.6025 -0.9637
 6394SOL     OW30640   1.740   4.018   4.770  0.0136 -0.4976 -0.1240
 6394SOL    HW130641   1.697   3.994   4.688  0.9145  0.9313 -1.0070
 6394SOL    HW230642   1.811   3.953   4.768  1.4059  1.0464 -0.5849
 6395SOL     OW30643   0.301   3.910  14.095 -0.1457 -0.0303 -0.1243
 6395SOL    HW130644   0.303   3.982  14.031  1.9786  2.0297  2.2448
 6395SOL    HW230645   0.209   3.882  14.093 -0.2637  0.0676  3.7896
 6396SOL     OW30646   1.947   1.047   9.628 -0.1824  0.0170  0.0605
 6396SOL    HW130647   1.870   1.014   9.673  1.1161 -0.1420  2.1749
 6396SOL    HW230648   1.919   1.115   9.567 -3.2363  0.9174  2.4674
 6397SOL     OW30649   2.405   0.957   6.654  0.3753 -0.1731 -0.3726
 6397SOL    HW130650   2.340   0.891   6.628 -1.5962  2.0461 -1.0064
 6397SOL    HW230651   2.443   0.967   6.567 -1.4261  1.9187 -0.9054
 6398SOL     OW30652   0.690   0.288  10.630  0.6194  0.3359  0.5979
 6398SOL    HW130653   0.713   0.195  10.632 -0.0571  0.1392 -0.5906
 6398SOL    HW230654   0.673   0.296  10.723  0.5264  1.9488  0.4436
 6399SOL     OW30655   0.161   4.361  17.077  0.4202 -0.2548 -0.2588
 6399SOL    HW130656   0.074   4.328  17.056  0.6152 -1.6976  1.2079
 6399SOL    HW230657   0.221   4.307  17.026  1.5606 -0.3645  1.1842
 6400SOL     OW30658   0.055   0.354   3.355  0.0418  0.7945  0.2719
 6400SOL    HW130659   0.078   0.390   3.441 -0.5401 -0.0906  0.8003
 6400SOL    HW230660   0.043   0.434   3.305  0.0954  2.5552  3.0477
 6401SOL     OW30661   4.612   1.193   7.733 -0.1198 -0.2553  0.1592
 6401SOL    HW130662   4.682   1.230   7.788  0.8020 -3.2062  0.9488
 6401SOL    HW230663   4.614   1.100   7.756  1.7760 -0.2407  0.0685
 6402SOL     OW30664   1.879   4.139  11.930 -0.2601 -0.2646  0.1568
 6402SOL    HW130665   1.962   4.127  11.886 -1.1890  0.9109 -1.9244
 6402SOL    HW230666   1.828   4.199  11.875 -0.6346 -0.6252  0.1123
 6403SOL     OW30667   0.766   1.774   9.531 -0.0267 -0.1431  0.6453
 6403SOL    HW130668   0.743   1.787   9.439 -0.4333 -0.6497  0.6709
 6403SOL    HW230669   0.837   1.838   9.534 -0.2318  0.1380 -0.4461
 6404SOL     OW30670   2.954   1.602   5.294 -0.4167 -0.0812 -0.1441
 6404SOL    HW130671   2.977   1.552   5.216  3.0815  0.6328  0.4005
 6404SOL    HW230672   3.029   1.580   5.349 -0.2376  1.9453  0.4292
 6405SOL     OW30673   3.835   4.136   6.205 -0.0406 -0.2516 -0.2628
 6405SOL    HW130674   3.760   4.189   6.233 -0.0902 -0.3090 -0.2866
 6405SOL    HW230675   3.869   4.184   6.129  1.0265  0.8960  0.9507
 6406SOL     OW30676   3.121   2.966  13.068 -0.1903  0.2707 -0.3223
 6406SOL    HW130677   3.202   2.993  13.024 -0.2297  0.3944 -0.3195
 6406SOL    HW230678   3.164   2.966  13.154  1.4271 -1.1164 -1.1288
 6407SOL     OW30679   2.308   2.099  14.116 -0.3268  0.7078 -0.2875
 6407SOL    HW130680   2.347   2.168  14.064  0.4246 -0.2293 -0.9692
 6407SOL    HW230681   2.221   2.115  14.080 -1.1920 -3.5201 -0.0466
 6408SOL     OW30682   2.764   2.332   7.528 -0.3062 -0.0198 -0.5742
 6408SOL    HW130683   2.688   2.274   7.527 -1.0255  0.8858  1.5026
 6408SOL    HW230684   2.721   2.416   7.508 -1.5892 -1.0545 -2.1718
 6409SOL     OW30685   3.760   4.028   0.189 -0.2019 -0.2015  0.4667
 6409SOL    HW130686   3.776   3.960   0.123  1.5678  2.2922 -1.6873
 6409SOL    HW230687   3.717   4.096   0.137  1.4250 -0.0795 -0.7535
 6410SOL     OW30688   3.154   3.459   1.019 -0.4044 -0.8112  0.2582
 6410SOL    HW130689   3.218   3.389   1.031 -1.2054 -1.1831  2.3792
 6410SOL    HW230690   3.217   3.530   1.002  0.5142 -1.0878  2.4575
 6411SOL     OW30691   2.821   1.896  17.563  0.1458  0.6696  0.0334
 6411SOL    HW130692   2.829   1.888  17.658 -0.1994  1.0238  0.0937
 6411SOL    HW230693   2.733   1.859  17.557 -0.7812  2.7369  0.9983
 6412SOL     OW30694   3.917   1.255   6.997 -0.7056  0.0393 -0.7286
 6412SOL    HW130695   3.930   1.201   6.919  2.0294 -0.7125  0.2402
 6412SOL    HW230696   3.960   1.196   7.059  0.6636  0.0232 -1.6942
 6413SOL     OW30697   0.019   3.849   5.636  0.2358  0.1512 -0.5095
 6413SOL    HW130698   4.650   3.829   5.641  0.6805 -1.9596 -0.2826
 6413SOL    HW230699   0.043   3.796   5.560  0.7980  0.4008 -0.5057
 6414SOL     OW30700   2.084   1.201   7.372  0.5693 -0.1356 -0.3657
 6414SOL    HW130701   2.005   1.230   7.326 -0.2943  0.6253  1.5983
 6414SOL    HW230702   2.137   1.156   7.306 -1.2959 -1.7643 -0.7526
 6415SOL     OW30703   3.442   1.762   2.519  0.0709  0.4114  0.5327
 6415SOL    HW130704   3.498   1.758   2.596  0.2081 -0.0106  0.4088
 6415SOL    HW230705   3.382   1.836   2.529 -1.0772 -0.2765 -1.2431
 6416SOL     OW30706   3.000   2.826   6.486  0.1299 -0.1539  0.2628
 6416SOL    HW130707   2.908   2.841   6.505  0.1556 -0.1700  0.4011
 6416SOL    HW230708   3.003   2.876   6.405 -0.1117  1.2349  1.1162
 6417SOL     OW30709   1.226   2.670   1.527  0.2909  0.2531  0.3050
 6417SOL    HW130710   1.258   2.594   1.477  1.9619  0.3858  1.2074
 6417SOL    HW230711   1.267   2.653   1.611  0.5499 -1.1515 -0.0967
 6418SOL     OW30712   2.294   1.938   3.052  0.3961 -0.2225 -0.3108
 6418SOL    HW130713   2.363   1.872   3.057  1.8815  1.4227  0.5867
 6418SOL    HW230714   2.266   1.934   2.960  0.5366  0.0785 -0.3651
 6419SOL     OW30715   1.948   0.099   8.458  0.1086 -0.0884  0.5272
 6419SOL    HW130716   2.034   0.086   8.497  1.1041  1.1292 -1.2595
 6419SOL    HW230717   1.943   0.192   8.435 -1.7445 -0.0313  1.1304
 6420SOL     OW30718   1.344   3.996   1.888  0.4322 -0.5838 -0.2995
 6420SOL    HW130719   1.310   4.085   1.896  0.9261 -0.3281 -1.0336
 6420SOL    HW230720   1.335   3.993   1.792 -1.3304 -1.0220 -0.1218
 6421SOL     OW30721   1.438   2.806   0.306 -0.7576 -0.6016  0.1122
 6421SOL    HW130722   1.366   2.745   0.296 -0.1019 -0.9399 -2.5618
 6421SOL    HW230723   1.405   2.864   0.375 -2.4906 -1.3121 -0.1185
 6422SOL     OW30724   0.895   1.960   4.834  0.2236 -0.2960  0.1855
 6422SOL    HW130725   0.882   1.949   4.740 -1.0193  2.3986  0.0376
 6422SOL    HW230726   0.895   2.053   4.854  0.5202 -0.3712  0.5376
 6423SOL     OW30727   1.242   2.617   0.287  0.0114 -0.3154  0.2189
 6423SOL    HW130728   1.150   2.588   0.289 -0.3695  0.8141 -1.1775
 6423SOL    HW230729   1.270   2.574   0.207  1.0555  1.0514 -0.1417
 6424SOL     OW30730   2.140   0.121   8.685  0.6262 -0.4707 -0.1679
 6424SOL    HW130731   2.189   0.197   8.653  0.2931  0.2625  1.0654
 6424SOL    HW230732   2.084   0.169   8.746  0.9235  0.3591 -0.5535
 6425SOL     OW30733   2.535   3.247   6.278  0.0206 -0.3537  0.1206
 6425SOL    HW130734   2.448   3.265   6.315  0.1298 -0.0038  0.2006
 6425SOL    HW230735   2.577   3.332   6.277 -0.5484 -0.0846 -0.6626
 6426SOL     OW30736   1.530   1.925   6.330 -0.0052  0.4044  0.0752
 6426SOL    HW130737   1.496   1.838   6.312 -0.7115  0.3985  1.4109
 6426SOL    HW230738   1.468   1.952   6.399  1.9211  3.1518  0.7424
 6427SOL     OW30739   2.749   1.161   6.308 -0.0965 -0.3655 -0.4653
 6427SOL    HW130740   2.838   1.142   6.277 -0.4101 -0.3542 -1.3763
 6427SOL    HW230741   2.761   1.190   6.398  0.3042 -0.8831 -0.3515
 6428SOL     OW30742   0.057   1.230   6.553  0.4208  1.0850  0.0604
 6428SOL    HW130743   0.057   1.141   6.587  0.8028  2.1316  2.7829
 6428SOL    HW230744   0.098   1.283   6.621  1.5491  1.0021 -0.5593
 6429SOL     OW30745   4.262   0.215   0.690  0.3024  0.1316 -0.4423
 6429SOL    HW130746   4.167   0.212   0.689  0.2388  1.9192  0.7045
 6429SOL    HW230747   4.273   0.120   0.688 -1.4626 -0.0796  0.1746
 6430SOL     OW30748   4.034   2.519  17.355 -0.3702  0.1017  0.1480
 6430SOL    HW130749   4.025   2.586  17.287  0.0496  0.3532  0.3343
 6430SOL    HW230750   4.078   2.450  17.305  1.1317  2.4630 -1.8115
 6431SOL     OW30751   1.400   1.918   7.294  0.1901  0.1214 -0.0799
 6431SOL    HW130752   1.307   1.906   7.278  0.4350  0.9025 -2.0377
 6431SOL    HW230753   1.400   2.013   7.304  1.1345 -0.0606  1.6336
 6432SOL     OW30754   0.231   2.514   3.917  0.3437 -0.4573  0.2524
 6432SOL    HW130755   0.229   2.483   3.826  3.4848 -2.2896  0.8371
 6432SOL    HW230756   0.325   2.521   3.932  0.5080  0.3158 -1.0804
 6433SOL     OW30757   2.870   4.245   6.892 -0.4708 -0.0327 -0.4516
 6433SOL    HW130758   2.862   4.302   6.815  0.3060  1.1885  0.3896
 6433SOL    HW230759   2.807   4.282   6.954 -0.4026 -0.1859 -0.2893
 6434SOL     OW30760   4.246   2.039   7.438  0.1636  0.0403 -0.6853
 6434SOL    HW130761   4.331   2.031   7.395  0.0309 -0.6349 -0.8168
 6434SOL    HW230762   4.203   2.086   7.366  1.0543  4.1204  1.4253
 6435SOL     OW30763   2.980   0.166   6.032  0.3849  0.3628 -0.0397
 6435SOL    HW130764   2.953   0.235   5.971 -3.2445 -1.4804 -0.5454
 6435SOL    HW230765   2.996   0.211   6.115  1.8454 -0.0424 -0.1099
 6436SOL     OW30766   1.077   4.658   5.766 -0.0010  0.6139  0.0949
 6436SOL    HW130767   1.171   4.647   5.753  0.0374 -0.7046  1.4926
 6436SOL    HW230768   1.063   4.597   5.839  1.6041 -0.2866 -0.3457
 6437SOL     OW30769   2.513   4.154   1.490 -0.0538 -0.3034  0.2523
 6437SOL    HW130770   2.492   4.159   1.397 -2.2279  3.2460  0.9475
 6437SOL    HW230771   2.455   4.221   1.526 -0.1628  1.3844 -3.0544
 6438SOL     OW30772   3.745   2.962   4.686  0.1387  0.0253 -0.3908
 6438SOL    HW130773   3.760   2.965   4.780 -2.7994  0.4958  0.0603
 6438SOL    HW230774   3.697   3.041   4.660  0.1746  0.8503  2.1215
 6439SOL     OW30775   3.076   1.228  11.685  0.3166  0.0745  0.9275
 6439SOL    HW130776   3.008   1.273  11.635  0.7977  1.2629  1.3534
 6439SOL    HW230777   3.085   1.143  11.643 -0.2117  0.9746 -1.0120
 6440SOL     OW30778   2.677   2.450   2.899  0.5155  0.0386 -0.1677
 6440SOL    HW130779   2.769   2.478   2.899  0.4175  0.3543  0.2451
 6440SOL    HW230780   2.652   2.490   2.982  2.3214  0.1254  0.3510
 6441SOL     OW30781   0.676   2.148  10.965 -0.0617  0.1934  0.0967
 6441SOL    HW130782   0.635   2.182  10.885 -1.4295 -1.9712 -0.1207
 6441SOL    HW230783   0.748   2.207  10.988  1.1905 -1.1709 -0.3240
 6442SOL     OW30784   0.962   4.111   7.060 -0.1483 -0.0765  0.4807
 6442SOL    HW130785   0.966   4.031   7.008 -1.6059  0.3143 -0.2485
 6442SOL    HW230786   0.893   4.077   7.117 -0.2687  2.1868  1.6807
 6443SOL     OW30787   2.505   1.980   0.256  0.5091 -0.0773  0.1415
 6443SOL    HW130788   2.453   1.995   0.335 -1.9689  0.9637 -1.6912
 6443SOL    HW230789   2.457   1.913   0.207  1.8725 -0.0529 -1.2561
 6444SOL     OW30790   4.652   3.527   7.389 -0.5541  0.0744 -1.0096
 6444SOL    HW130791   4.681   3.436   7.389  1.9651  0.8926  0.5937
 6444SOL    HW230792   0.012   3.565   7.364 -0.5183  0.5128 -0.2135
 6445SOL     OW30793   2.561   3.630   7.270  0.1288 -0.8839  0.0089
 6445SOL    HW130794   2.531   3.641   7.179 -0.6902  0.7245  0.4906
 6445SOL    HW230795   2.490   3.665   7.324  0.2374  0.8984 -0.9924
 6446SOL     OW30796   2.695   4.366   7.060  0.1217  0.1524  0.1817
 6446SOL    HW130797   2.695   4.402   7.149 -1.2016 -0.3923  0.3856
 6446SOL    HW230798   2.603   4.342   7.051  0.4035 -0.9525  0.2951
 6447SOL     OW30799   1.722   2.184   1.449  0.2523  0.4509 -0.0257
 6447SOL    HW130800   1.781   2.213   1.519  1.1378 -0.2413 -0.4887
 6447SOL    HW230801   1.635   2.209   1.479 -0.3077 -2.1769  0.5622
 6448SOL     OW30802   3.268   3.737   6.294  0.1392  0.1410 -0.4684
 6448SOL    HW130803   3.264   3.698   6.382  2.2594  2.0179  0.4705
 6448SOL    HW230804   3.259   3.659   6.239 -0.6863 -0.4245  0.4562
 6449SOL     OW30805   3.136   4.275   5.039  0.7018 -0.3874 -0.6042
 6449SOL    HW130806   3.170   4.193   5.076  0.0420  0.1043  1.1239
 6449SOL    HW230807   3.052   4.242   5.009  0.2077  1.5464 -1.3059
 6450SOL     OW30808   0.403   2.612  12.659  0.1432  0.4247 -0.6172
 6450SOL    HW130809   0.324   2.570  12.693  1.3174 -1.4775 -0.2444
 6450SOL    HW230810   0.442   2.653  12.736 -1.6165  0.7686  0.0836
 6451SOL     OW30811   2.246   0.647   9.429 -0.0467  0.0777  0.1147
 6451SOL    HW130812   2.186   0.648   9.504  1.5883  0.3321  1.4145
 6451SOL    HW230813   2.192   0.614   9.357 -2.0627  0.8246  1.2735
 6452SOL     OW30814   1.405   2.835   6.763  0.1917  0.3468  0.2172
 6452SOL    HW130815   1.377   2.902   6.826 -0.7505 -0.9859  1.2043
 6452SOL    HW230816   1.396   2.754   6.812 -1.1615 -0.4037 -1.2529
 6453SOL     OW30817   4.304   4.504  13.197  0.3072  0.0088  0.4678
 6453SOL    HW130818   4.272   4.449  13.269 -0.1296 -1.2860 -0.6950
 6453SOL    HW230819   4.272   4.589  13.225 -1.0968 -0.0025 -1.0473
 6454SOL     OW30820   3.264   2.613  16.474  0.0774 -0.3584  0.2868
 6454SOL    HW130821   3.223   2.695  16.444  0.2544 -0.1248  0.6799
 6454SOL    HW230822   3.341   2.643  16.521  1.4777 -0.8935 -1.6807
 6455SOL     OW30823   4.618   3.884   5.156 -0.0658 -0.1085 -0.4807
 6455SOL    HW130824   4.582   3.909   5.071 -2.0015  0.2169  0.4263
 6455SOL    HW230825   4.628   3.790   5.142  0.9197  0.0011 -0.5240
 6456SOL     OW30826   3.175   0.464   3.989  0.2976 -0.1035 -0.7377
 6456SOL    HW130827   3.117   0.496   3.920 -0.4749 -0.8967 -0.4686
 6456SOL    HW230828   3.154   0.531   4.054  3.6328 -0.5482  0.7940
 6457SOL     OW30829   2.622   4.333   8.978 -0.4064  0.3535  0.0641
 6457SOL    HW130830   2.707   4.377   8.986 -1.2533  2.0076 -0.1437
 6457SOL    HW230831   2.580   4.386   8.910  0.7855 -0.1543 -1.0609
 6458SOL     OW30832   3.205   3.477   6.890  0.2028 -0.2299  0.1387
 6458SOL    HW130833   3.152   3.540   6.939 -0.8726 -1.6207  0.7702
 6458SOL    HW230834   3.266   3.532   6.841 -0.4616  0.8237  0.4916
 6459SOL     OW30835   3.340   1.235   1.904 -0.1237 -0.1391  0.0846
 6459SOL    HW130836   3.373   1.158   1.951  1.4130  0.0452 -0.7043
 6459SOL    HW230837   3.289   1.195   1.833 -0.4672  0.8731 -0.2319
 6460SOL     OW30838   4.087   0.019   2.101 -0.0544  0.4563 -0.2449
 6460SOL    HW130839   4.108   4.675   2.037  2.3337 -0.7928  1.8718
 6460SOL    HW230840   3.995   0.010   2.126  0.1665 -0.0451  0.4013
 6461SOL     OW30841   1.551   1.454   3.344  0.1563 -0.3089  0.3322
 6461SOL    HW130842   1.544   1.400   3.265  0.6903 -1.5951  1.1666
 6461SOL    HW230843   1.472   1.438   3.394 -1.3149 -1.5795 -2.3982
 6462SOL     OW30844   0.228   1.165   8.888 -0.2053 -0.6730  0.3113
 6462SOL    HW130845   0.317   1.152   8.856 -0.3060  0.4281 -0.3940
 6462SOL    HW230846   0.254   1.207   8.970  1.2935  0.3737 -0.7001
 6463SOL     OW30847   0.687   2.237   7.901 -0.5186 -0.4711  0.4033
 6463SOL    HW130848   0.679   2.331   7.915  0.0776 -0.6308  1.8498
 6463SOL    HW230849   0.594   2.215   7.896 -0.3849 -0.8800 -0.2444
 6464SOL     OW30850   2.306   2.871  13.490  0.4038  0.2488  0.1355
 6464SOL    HW130851   2.374   2.860  13.556  1.0831  1.2713 -0.3921
 6464SOL    HW230852   2.293   2.964  13.508 -0.3175  0.4991 -1.6194
 6465SOL     OW30853   0.767   0.999   8.583 -0.2473 -0.1271 -0.1550
 6465SOL    HW130854   0.820   0.996   8.662 -1.4605 -1.5905  0.5948
 6465SOL    HW230855   0.833   0.998   8.513 -0.1703 -0.2105 -0.0823
 6466SOL     OW30856   4.350   1.705   8.021 -0.1322 -0.3050 -0.0877
 6466SOL    HW130857   4.307   1.764   7.959  2.7096  1.1106 -0.7137
 6466SOL    HW230858   4.296   1.698   8.100 -1.3139  0.9658 -0.7625
 6467SOL     OW30859   4.669   3.810  16.883  0.5024  0.0950  0.4791
 6467SOL    HW130860   4.686   3.879  16.947 -1.1670  0.4487  0.5589
 6467SOL    HW230861   4.618   3.748  16.935 -0.0989  0.4372  0.3027
 6468SOL     OW30862   2.417   2.344   9.590  0.3671  0.6820  0.3363
 6468SOL    HW130863   2.349   2.278   9.575 -0.0551  1.4049 -0.9661
 6468SOL    HW230864   2.403   2.391   9.508  0.8112 -0.8292 -0.5964
 6469SOL     OW30865   4.147   2.283   5.378 -0.4322 -0.1102  0.3732
 6469SOL    HW130866   4.080   2.245   5.321 -1.2128 -0.5145  1.5784
 6469SOL    HW230867   4.123   2.277   5.470 -2.2716  0.9024 -0.0359
 6470SOL     OW30868   1.962   0.521   1.930  0.3416  0.2619 -0.5006
 6470SOL    HW130869   1.993   0.465   1.859 -2.3588 -0.7605 -0.8713
 6470SOL    HW230870   2.043   0.561   1.961  0.4788 -0.2650 -0.1687
 6471SOL     OW30871   0.563   2.043   5.394 -0.5346 -0.2667  0.0265
 6471SOL    HW130872   0.468   2.033   5.395 -0.5930  0.2095 -1.4889
 6471SOL    HW230873   0.582   2.091   5.314  3.2930 -0.2690  0.9324
 6472SOL     OW30874   1.927   2.867   1.807  0.4914  0.6279  0.3747
 6472SOL    HW130875   1.900   2.927   1.738  1.5213  0.4648 -0.1801
 6472SOL    HW230876   1.908   2.904   1.893  0.2411  1.0134  0.1508
 6473SOL     OW30877   3.768   2.559   9.310 -0.5512  0.4381 -0.4749
 6473SOL    HW130878   3.769   2.489   9.245  1.1469  0.8516 -0.8937
 6473SOL    HW230879   3.841   2.613   9.277 -0.4130  1.1235  0.9283
 6474SOL     OW30880   0.432   4.492   4.242  0.1388  0.8688  0.5406
 6474SOL    HW130881   0.422   4.534   4.327 -0.7520  0.3700  0.6790
 6474SOL    HW230882   0.347   4.517   4.205 -0.1259 -0.3927  0.2658
 6475SOL     OW30883   1.880   2.513   5.096  0.8578  0.1973 -0.6866
 6475SOL    HW130884   1.920   2.428   5.117 -1.4678 -0.6189  0.4079
 6475SOL    HW230885   1.796   2.513   5.141  0.7291 -0.6741 -0.9273
 6476SOL     OW30886   0.905   2.255   4.860 -0.3074  0.7671 -0.2886
 6476SOL    HW130887   0.896   2.350   4.869 -0.0909  0.8070 -0.5000
 6476SOL    HW230888   0.947   2.231   4.942 -0.2042 -0.7786 -0.7993
 6477SOL     OW30889   1.209   2.230  14.944  0.0430 -0.1106  0.0120
 6477SOL    HW130890   1.120   2.242  14.978  0.9810  1.7182  1.7797
 6477SOL    HW230891   1.201   2.280  14.862  0.0637  0.1769  0.1860
 6478SOL     OW30892   0.954   0.318   6.858 -0.5100  0.0704 -0.1383
 6478SOL    HW130893   0.872   0.295   6.814 -1.1159 -1.6193  1.8869
 6478SOL    HW230894   0.934   0.276   6.942  1.6523  0.4086  0.5497
 6479SOL     OW30895   0.397   0.123   3.829  0.3657  0.0678 -0.4364
 6479SOL    HW130896   0.470   0.095   3.884 -1.4850 -0.0672  1.9373
 6479SOL    HW230897   0.356   0.038   3.813  1.7228 -0.8221  0.8615
 6480SOL     OW30898   3.712   2.082   7.098 -0.0264  0.2656 -0.0723
 6480SOL    HW130899   3.795   2.101   7.054 -1.5102  1.8062 -2.2024
 6480SOL    HW230900   3.713   1.986   7.096 -0.8004  0.2881 -1.2261
 6481SOL     OW30901   2.884   3.517   7.561 -0.2558 -0.4188 -0.2960
 6481SOL    HW130902   2.811   3.558   7.609 -2.3986 -2.2097 -2.0502
 6481SOL    HW230903   2.902   3.588   7.499  0.2824 -1.5586 -1.4456
 6482SOL     OW30904   1.237   3.713   4.622 -0.0349  0.2921 -0.4249
 6482SOL    HW130905   1.150   3.672   4.629  0.4151 -0.4083  1.1623
 6482SOL    HW230906   1.218   3.806   4.630 -1.6690 -0.2158  1.6687
 6483SOL     OW30907   0.275   3.155   4.076  0.4670 -0.0642 -0.0166
 6483SOL    HW130908   0.260   3.153   4.170 -0.0062  0.0588 -0.0897
 6483SOL    HW230909   0.368   3.134   4.074  0.7968  1.2749  1.8234
 6484SOL     OW30910   1.987   4.126   3.874 -0.9321  0.6060 -0.3025
 6484SOL    HW130911   1.948   4.050   3.830 -0.1488  0.8220 -1.3652
 6484SOL    HW230912   1.939   4.190   3.821  0.2842  1.0675 -0.8424
 6485SOL     OW30913   0.532   0.663   7.392 -0.4902 -0.5460 -0.2751
 6485SOL    HW130914   0.538   0.598   7.322  1.8525  0.0412 -0.6130
 6485SOL    HW230915   0.454   0.711   7.363 -0.9392 -0.7216  0.6419
 6486SOL     OW30916   2.003   3.756  17.571  0.3806 -0.5567 -0.3507
 6486SOL    HW130917   2.087   3.721  17.541  0.9820 -0.2856  1.0070
 6486SOL    HW230918   2.032   3.839  17.608 -1.8512  0.2827 -0.4900
 6487SOL     OW30919   1.999   3.281   6.412 -0.3164  0.2968 -0.5993
 6487SOL    HW130920   1.915   3.236   6.418 -0.1876  0.1945  0.4684
 6487SOL    HW230921   1.983   3.359   6.466 -1.7106 -0.9247  0.7560
 6488SOL     OW30922   3.630   1.110  13.714  0.2799  0.6089  0.4178
 6488SOL    HW130923   3.553   1.059  13.689  0.9232 -0.8144  1.3417
 6488SOL    HW230924   3.588   1.196  13.712 -1.1431 -0.0418  1.7818
 6489SOL     OW30925   4.410   3.267  12.330 -0.1579 -0.1562 -0.2428
 6489SOL    HW130926   4.334   3.229  12.286 -0.3978 -0.1144  0.1303
 6489SOL    HW230927   4.473   3.204  12.295 -1.0392 -2.7977  2.8701
 6490SOL     OW30928   1.497   1.377   7.062  0.1974  0.2434 -0.6448
 6490SOL    HW130929   1.579   1.417   7.091  0.5515  0.2405 -1.6318
 6490SOL    HW230930   1.534   1.304   7.012  0.4266  0.1594 -0.3486
 6491SOL     OW30931   2.286   1.714   2.233 -0.0666 -0.1281  0.3832
 6491SOL    HW130932   2.335   1.634   2.254  2.1903  0.6338 -1.9603
 6491SOL    HW230933   2.237   1.687   2.155 -0.5093  2.0035 -0.0670
 6492SOL     OW30934   4.620   2.457  16.678  0.7228 -0.0313  0.0417
 6492SOL    HW130935   4.664   2.389  16.627 -3.6954 -2.4271 -0.6009
 6492SOL    HW230936   4.672   2.469  16.758  1.1116  1.6519 -0.4699
 6493SOL     OW30937   3.875   3.530   1.583 -0.0214  0.3037  0.7051
 6493SOL    HW130938   3.833   3.615   1.599  1.4344  1.4954 -1.8219
 6493SOL    HW230939   3.959   3.566   1.555  0.1190 -1.6693 -1.3176
 6494SOL     OW30940   1.292   1.462   6.167 -0.1868  0.4093 -0.1184
 6494SOL    HW130941   1.294   1.414   6.250 -0.1724  1.8051  0.6834
 6494SOL    HW230942   1.263   1.389   6.112 -0.3724 -0.0147  0.5471
 6495SOL     OW30943   2.062   1.658  16.541 -0.4924 -0.3226  0.6223
 6495SOL    HW130944   2.069   1.645  16.635 -2.2871  0.2519  0.8432
 6495SOL    HW230945   2.154   1.679  16.525 -0.8035  1.1495  0.8045
 6496SOL     OW30946   3.233   1.887  12.131 -0.1315 -0.8073  0.1033
 6496SOL    HW130947   3.318   1.883  12.176  1.0004  1.8824 -1.7610
 6496SOL    HW230948   3.213   1.978  12.151  3.3502  0.2986 -1.4683
 6497SOL     OW30949   3.795   1.111  16.370 -0.1475  0.2678  0.0042
 6497SOL    HW130950   3.724   1.126  16.308  0.8885  0.8860 -1.0214
 6497SOL    HW230951   3.817   1.200  16.396  0.3713 -0.4038  1.9145
 6498SOL     OW30952   1.836   1.247  11.409 -0.1845 -0.1118 -0.6198
 6498SOL    HW130953   1.913   1.193  11.425 -0.9109 -0.7958  0.5654
 6498SOL    HW230954   1.772   1.210  11.470  1.3623 -3.4392 -1.0357
 6499SOL     OW30955   1.200   3.557   1.108  0.1245  0.2380 -0.5069
 6499SOL    HW130956   1.112   3.584   1.079 -0.2620  0.4798  0.8712
 6499SOL    HW230957   1.215   3.613   1.184  2.6429 -0.5283 -0.4431
 6500SOL     OW30958   2.980   3.878   4.785  0.4298 -0.1307  0.4716
 6500SOL    HW130959   2.972   3.783   4.777 -0.5329 -0.0449  0.4320
 6500SOL    HW230960   2.913   3.913   4.726  1.8558 -0.4066 -1.3356
 6501SOL     OW30961   0.250   1.471   4.329 -0.1129 -0.4268 -0.5353
 6501SOL    HW130962   0.258   1.565   4.309  0.8925 -0.7908 -1.8252
 6501SOL    HW230963   0.298   1.434   4.254 -0.9489  0.7424 -1.6560
 6502SOL     OW30964   0.291   2.880   9.420  0.0031 -0.1711  0.1791
 6502SOL    HW130965   0.225   2.922   9.475 -0.8134  1.1337 -1.7740
 6502SOL    HW230966   0.270   2.787   9.416 -0.5102 -0.1672  3.1268
 6503SOL     OW30967   0.478   4.252   5.940 -0.2521 -0.1710  0.6735
 6503SOL    HW130968   0.457   4.191   5.869 -1.3779  1.3326 -0.2820
 6503SOL    HW230969   0.410   4.231   6.004 -0.6594  0.7052  0.5296
 6504SOL     OW30970   1.920   2.049   9.082  0.1800  0.1622  0.0951
 6504SOL    HW130971   1.899   2.028   9.173 -2.0710  0.9661 -0.2410
 6504SOL    HW230972   1.838   2.094   9.062 -0.8307 -1.6269  0.2284
 6505SOL     OW30973   2.064   4.552   2.631 -0.0828  0.5461  0.4822
 6505SOL    HW130974   2.040   4.614   2.562 -0.9341  1.5606  1.7008
 6505SOL    HW230975   1.980   4.511   2.648 -0.4714  0.1772 -2.2661
 6506SOL     OW30976   3.659   4.679  17.080 -0.1750  0.2218  0.2289
 6506SOL    HW130977   3.658   0.013  17.004 -1.8555 -2.5149 -1.8173
 6506SOL    HW230978   3.743   4.706  17.118 -0.2696 -0.3895  0.8618
 6507SOL     OW30979   0.757   1.446  12.159  0.0488  0.4467 -0.5881
 6507SOL    HW130980   0.709   1.379  12.111 -0.2056 -0.0308  0.3384
 6507SOL    HW230981   0.792   1.500  12.088  1.2794  0.6216  0.1467
 6508SOL     OW30982   3.025   2.029   8.184 -0.2166 -0.2655  0.3041
 6508SOL    HW130983   2.993   2.099   8.127 -1.2573  0.0702  1.3017
 6508SOL    HW230984   3.045   2.087   8.258  0.3597 -1.5933  1.1861
 6509SOL     OW30985   4.528   2.307  13.047  0.6377 -0.7554  0.3905
 6509SOL    HW130986   4.494   2.391  13.078 -2.1436 -2.1719  1.2003
 6509SOL    HW230987   4.504   2.250  13.120 -0.6186 -1.2942 -0.4370
 6510SOL     OW30988   3.886   1.519  14.716 -0.4994 -0.3297 -0.2020
 6510SOL    HW130989   3.899   1.483  14.804 -1.2478  0.6746  0.3158
 6510SOL    HW230990   3.906   1.450  14.653 -0.4367  1.3120 -1.9682
 6511SOL     OW30991   1.464   1.988   8.319 -0.3944  0.2573  0.5150
 6511SOL    HW130992   1.415   2.052   8.268 -0.7841  1.5158  2.4781
 6511SOL    HW230993   1.411   1.909   8.308  0.3836 -0.4707  2.0402
 6512SOL     OW30994   3.862   3.776   4.932  0.1301  0.0716 -0.0197
 6512SOL    HW130995   3.924   3.732   4.873  0.3780  0.9138 -0.3897
 6512SOL    HW230996   3.864   3.726   5.013 -2.0601  1.4766  0.9004
 6513SOL     OW30997   3.717   4.435   7.446  0.2884  0.8192  0.0395
 6513SOL    HW130998   3.624   4.454   7.442 -0.2613 -1.6851  0.8723
 6513SOL    HW230999   3.715   4.342   7.472  1.7373  0.8664  0.3544
 6514SOL     OW31000   4.024   3.341   2.777 -0.1426 -0.6016  0.5022
 6514SOL    HW131001   3.957   3.274   2.790  0.1490 -0.6739  1.6159
 6514SOL    HW231002   4.035   3.348   2.682 -0.3745  1.0514  0.5963
 6515SOL     OW31003   0.596   2.472   0.190 -0.6179 -0.5030  0.1492
 6515SOL    HW131004   0.525   2.511   0.139 -0.5357  0.8447  1.0740
 6515SOL    HW231005   0.543   2.460   0.268  2.1396  0.6336  2.2214
 6516SOL     OW31006   4.241   4.444  15.028  0.2941 -0.1567  0.1194
 6516SOL    HW131007   4.283   4.462  14.944  0.4816 -1.0652  0.0153
 6516SOL    HW231008   4.190   4.367  15.001 -0.5186  1.3504 -2.5529
 6517SOL     OW31009   0.735   2.666   2.179 -0.7342  0.1064 -0.2481
 6517SOL    HW131010   0.652   2.692   2.139  1.2019  0.3395 -4.1181
 6517SOL    HW231011   0.760   2.599   2.115  0.5909  0.0159  0.3512
 6518SOL     OW31012   3.811   2.841   7.311  0.8731 -0.0683  0.3412
 6518SOL    HW131013   3.716   2.838   7.299  0.6769  1.4799  1.5495
 6518SOL    HW231014   3.814   2.778   7.383  1.5628  0.0256  0.3914
 6519SOL     OW31015   3.027   0.518  14.072 -0.2353  0.0701 -0.8954
 6519SOL    HW131016   2.983   0.524  14.157  0.3703  0.7841 -0.6336
 6519SOL    HW231017   3.105   0.572  14.085 -0.5963  0.0537  1.3445
 6520SOL     OW31018   1.309   0.660   1.934  0.1089  0.2187  0.1164
 6520SOL    HW131019   1.383   0.599   1.933  0.3290  0.5009 -1.9820
 6520SOL    HW231020   1.347   0.741   1.899 -2.1163  1.1403 -0.1421
 6521SOL     OW31021   2.713   2.595  15.557 -0.4435 -0.7676 -0.0172
 6521SOL    HW131022   2.664   2.674  15.581 -1.4644 -1.5894  0.6079
 6521SOL    HW231023   2.645   2.531  15.535  1.6591 -2.9428 -0.1659
 6522SOL     OW31024   3.746   4.319  14.993 -0.4584 -0.1805  0.0412
 6522SOL    HW131025   3.690   4.396  14.996  1.6528  1.3480 -0.0514
 6522SOL    HW231026   3.828   4.347  15.034 -1.9833  0.8114  2.3973
 6523SOL     OW31027   0.787   2.857  15.886 -0.0494 -0.2315 -0.4024
 6523SOL    HW131028   0.864   2.825  15.934  0.0026  1.1139  0.4227
 6523SOL    HW231029   0.792   2.950  15.909  3.0343 -0.5780  0.3901
 6524SOL     OW31030   3.752   2.801   6.712 -0.3153 -0.6831 -0.2137
 6524SOL    HW131031   3.708   2.867   6.766 -0.0629 -1.7173  1.2615
 6524SOL    HW231032   3.813   2.769   6.778 -0.3938  1.5698  0.9484
 6525SOL     OW31033   4.433   0.472   7.069  0.4959  0.4154 -0.2986
 6525SOL    HW131034   4.377   0.508   7.138 -0.0232 -0.2010 -0.3985
 6525SOL    HW231035   4.504   0.428   7.115  2.0725  3.8492  0.5513
 6526SOL     OW31036   3.781   1.867   7.774  0.0783  0.2766 -0.2817
 6526SOL    HW131037   3.770   1.802   7.844 -2.0821  0.6828 -0.2625
 6526SOL    HW231038   3.756   1.947   7.820  0.8298  0.3993 -0.0806
 6527SOL     OW31039   4.682   0.147   0.080  0.0030  0.5196  0.0154
 6527SOL    HW131040   0.042   0.104   0.095 -0.9077 -1.7778 -1.4290
 6527SOL    HW231041   4.625   0.075   0.108  0.2888  0.7041  1.0736
 6528SOL     OW31042   0.148   1.182   8.232  0.5171  0.1235  0.3103
 6528SOL    HW131043   0.164   1.095   8.270  2.0013 -0.4113 -1.5234
 6528SOL    HW231044   0.057   1.178   8.203  0.7662  1.2607 -0.6003
 6529SOL     OW31045   1.245   1.437  16.644  0.7590  0.0605  0.1437
 6529SOL    HW131046   1.206   1.393  16.568  2.1761 -0.4517 -0.2766
 6529SOL    HW231047   1.304   1.495  16.596  2.2235 -0.0527  1.8440
 6530SOL     OW31048   0.892   2.754   0.540 -0.1166 -0.2450  0.0251
 6530SOL    HW131049   0.836   2.807   0.597 -1.0859 -2.9465  1.5690
 6530SOL    HW231050   0.832   2.740   0.467 -1.1569  1.0570  0.6163
 6531SOL     OW31051   2.341   2.765   9.874  0.2184  0.0588 -0.0003
 6531SOL    HW131052   2.311   2.749   9.963 -1.1715 -0.2311 -0.5158
 6531SOL    HW231053   2.296   2.848   9.858 -0.0945 -0.3124 -1.0846
 6532SOL     OW31054   1.458   3.979   7.910 -0.1498 -0.3786 -0.1953
 6532SOL    HW131055   1.432   4.071   7.909  0.5958 -0.1312  1.6751
 6532SOL    HW231056   1.509   3.976   7.829 -2.1437  0.3433 -1.4698
 6533SOL     OW31057   2.732   0.035   5.722 -0.8443  0.1928  1.0140
 6533SOL    HW131058   2.721   4.669   5.691  2.2083  0.2092 -0.0736
 6533SOL    HW231059   2.729   0.096   5.648 -0.5738 -0.7405  0.2333
 6534SOL     OW31060   0.946   1.968   9.537  0.0787  0.2931  0.5958
 6534SOL    HW131061   1.021   1.957   9.478 -0.5845  0.4490 -0.2818
 6534SOL    HW231062   0.959   2.043   9.596  0.7411  1.2238 -0.7059
 6535SOL     OW31063   4.405   4.260   4.724  0.4894  0.4350 -0.0874
 6535SOL    HW131064   4.452   4.291   4.801  0.3479 -0.9444  0.5551
 6535SOL    HW231065   4.452   4.305   4.654  1.1568 -1.4214 -0.8355
 6536SOL     OW31066   4.472   2.092   9.499 -0.7688 -0.5958  0.2768
 6536SOL    HW131067   4.414   2.021   9.528 -2.4518 -0.6230 -3.1248
 6536SOL    HW231068   4.495   2.138   9.580 -0.6712 -2.3170  1.2222
 6537SOL     OW31069   2.576   1.524   6.023 -0.0926  0.0402  0.1714
 6537SOL    HW131070   2.664   1.529   5.985 -0.3991  1.3714 -0.3723
 6537SOL    HW231071   2.591   1.478   6.105 -4.4127  0.7095  1.3332
 6538SOL     OW31072   3.923   2.914   0.180 -0.4163  0.2978 -0.0374
 6538SOL    HW131073   3.991   2.962   0.132 -0.3769 -0.8135 -1.1055
 6538SOL    HW231074   3.882   2.974   0.242  0.7081 -0.1843  1.1582
 6539SOL     OW31075   0.095   2.774   9.257 -0.6764  0.2007 -0.3728
 6539SOL    HW131076   0.157   2.713   9.297 -0.2018 -0.7895 -2.6069
 6539SOL    HW231077   0.148   2.853   9.263 -0.9294  0.4138 -1.0144
 6540SOL     OW31078   2.706   4.479  15.892  0.5595 -0.0736 -0.6967
 6540SOL    HW131079   2.797   4.485  15.863  0.2374 -0.3219 -1.7870
 6540SOL    HW231080   2.712   4.409  15.957 -1.4878 -0.5297 -1.0089
 6541SOL     OW31081   3.804   1.396  14.950 -0.7065 -0.4016  0.0752
 6541SOL    HW131082   3.742   1.395  14.877  0.3627 -3.7717 -0.8003
 6541SOL    HW231083   3.749   1.386  15.029 -0.6848  0.5267  0.2106
 6542SOL     OW31084   1.233   4.668   6.514 -0.1079  0.0007 -0.1697
 6542SOL    HW131085   1.162   4.720   6.551 -0.1752 -0.6677  0.6494
 6542SOL    HW231086   1.297   0.013   6.498 -0.3386  0.8467  2.4879
 6543SOL     OW31087   3.542   0.695   8.222 -0.0740  0.1763  0.3505
 6543SOL    HW131088   3.597   0.657   8.291 -0.0110 -1.1955 -0.4811
 6543SOL    HW231089   3.540   0.785   8.255 -0.0605 -0.2565  1.5344
 6544SOL     OW31090   1.668   2.245   8.667 -0.0318  0.3291 -0.3476
 6544SOL    HW131091   1.660   2.339   8.651 -1.6207  0.3032  0.2674
 6544SOL    HW231092   1.758   2.239   8.637 -0.1902 -2.2901 -0.2993
 6545SOL     OW31093   0.307   0.308   6.146 -0.4837 -0.3243  0.4423
 6545SOL    HW131094   0.391   0.260   6.141 -1.6521 -2.5541  2.0110
 6545SOL    HW231095   0.269   0.266   6.223 -1.8816  0.4275  0.1468
 6546SOL     OW31096   2.260   1.718   8.030  0.2652  0.4282 -0.0975
 6546SOL    HW131097   2.171   1.687   8.013 -0.5991  1.7322  2.0077
 6546SOL    HW231098   2.311   1.644   8.063  0.2877  0.2896 -0.4400
 6547SOL     OW31099   1.800   2.219   6.744  0.5219  0.4732  0.1170
 6547SOL    HW131100   1.859   2.149   6.773 -0.9140 -0.0694  1.7209
 6547SOL    HW231101   1.769   2.259   6.826 -1.8036  1.9286 -1.4792
 6548SOL     OW31102   0.815   4.254  16.871 -0.6117 -0.9896  0.4193
 6548SOL    HW131103   0.736   4.278  16.920  0.6395 -0.0651  1.9752
 6548SOL    HW231104   0.878   4.300  16.927 -1.5928  1.2735 -0.3352
 6549SOL     OW31105   4.239   0.884   0.683 -0.3232  0.0147 -0.0967
 6549SOL    HW131106   4.194   0.806   0.649  1.8268 -0.8888 -0.9253
 6549SOL    HW231107   4.204   0.895   0.771  1.2261  1.1836  0.3659
 6550SOL     OW31108   1.282   3.882  14.409  0.3588  0.1119  0.1051
 6550SOL    HW131109   1.357   3.929  14.445  0.6762 -0.1626 -0.1977
 6550SOL    HW231110   1.263   3.817  14.476 -1.6486  0.0247 -0.5458
 6551SOL     OW31111   3.476   1.552   3.420  0.4092  0.4942  0.0403
 6551SOL    HW131112   3.522   1.560   3.503  0.2948 -0.9850  0.2434
 6551SOL    HW231113   3.388   1.537   3.451  0.2009 -0.2791 -0.9152
 6552SOL     OW31114   2.208   2.015   2.648 -0.0483 -0.3547  0.1078
 6552SOL    HW131115   2.165   1.946   2.699  0.5173  0.0323  1.1082
 6552SOL    HW231116   2.131   2.067   2.625  0.9192  0.3465 -1.5439
 6553SOL     OW31117   1.906   0.665   7.657  0.1204  0.6244  0.5678
 6553SOL    HW131118   1.936   0.751   7.686 -1.4227  1.6927 -0.9477
 6553SOL    HW231119   1.993   0.629   7.642 -0.8711 -1.0892 -1.1316
 6554SOL     OW31120   3.567   4.333   2.967 -0.3831  0.1379 -0.2808
 6554SOL    HW131121   3.617   4.385   2.904  0.1619 -0.6487 -0.5066
 6554SOL    HW231122   3.523   4.287   2.896  0.5093  0.2546 -0.9168
 6555SOL     OW31123   3.585   1.606   1.500  0.5323  0.1864 -0.0848
 6555SOL    HW131124   3.563   1.514   1.489 -3.2312  1.1465 -0.3585
 6555SOL    HW231125   3.599   1.602   1.595  2.5015 -0.2786 -0.3775
 6556SOL     OW31126   0.191   3.724   4.661  0.3434  0.1550 -0.9044
 6556SOL    HW131127   0.192   3.706   4.567 -0.3602  1.6578 -1.1994
 6556SOL    HW231128   0.272   3.776   4.665  0.0239  0.7096 -1.5680
 6557SOL     OW31129   0.464   1.436   9.198 -0.3039 -0.5416 -0.6716
 6557SOL    HW131130   0.547   1.447   9.152  0.1338 -0.4057  0.1531
 6557SOL    HW231131   0.466   1.524   9.236  0.2116 -1.2836  1.0148
 6558SOL     OW31132   0.455   3.482   4.828 -0.1678  0.6933  0.2547
 6558SOL    HW131133   0.527   3.420   4.826 -0.0897  0.8437 -1.5614
 6558SOL    HW231134   0.488   3.545   4.892  2.6698 -0.9414  0.3927
 6559SOL     OW31135   3.329   3.570   5.686  0.3624 -0.6146  0.5747
 6559SOL    HW131136   3.367   3.518   5.757 -0.5601 -0.8642  0.8847
 6559SOL    HW231137   3.260   3.614   5.736  0.7680  0.9786 -0.2593
 6560SOL     OW31138   1.575   3.170  17.129  0.1417 -0.3022 -0.4278
 6560SOL    HW131139   1.559   3.227  17.204  0.9862  0.7348 -1.0299
 6560SOL    HW231140   1.627   3.220  17.066  0.1034 -1.4867 -1.3982
 6561SOL     OW31141   1.896   0.607   4.999 -0.4517  0.2688  0.1173
 6561SOL    HW131142   1.833   0.678   4.997 -0.1880  0.4753 -0.6848
 6561SOL    HW231143   1.972   0.635   4.948  0.4665 -1.1425  0.7006
 6562SOL     OW31144   2.000   2.713  10.387  0.1172  0.0194 -0.3461
 6562SOL    HW131145   1.971   2.693  10.298  1.4282  0.7570 -0.9412
 6562SOL    HW231146   2.017   2.622  10.413 -1.8137 -0.9862 -2.6317
 6563SOL     OW31147   2.331   3.434   4.213  0.1754  0.5408 -0.6086
 6563SOL    HW131148   2.384   3.410   4.138  1.2720  1.4928 -0.1307
 6563SOL    HW231149   2.250   3.444   4.163  0.5768 -0.3153 -1.4058
 6564SOL     OW31150   4.157   1.778   3.448 -0.3552 -0.4289  0.8413
 6564SOL    HW131151   4.082   1.837   3.434 -0.6267 -1.0678 -0.4366
 6564SOL    HW231152   4.115   1.692   3.451 -2.0539  0.5196  3.6619
 6565SOL     OW31153   2.519   2.530   3.943 -0.1609  0.1917 -0.3072
 6565SOL    HW131154   2.557   2.446   3.968  1.6192  0.8101 -0.9822
 6565SOL    HW231155   2.594   2.583   3.967  0.4629 -0.0949 -1.6526
 6566SOL     OW31156   3.375   0.899  12.527 -0.0188 -0.6597  0.0279
 6566SOL    HW131157   3.296   0.882  12.476 -1.5335  3.4257  0.9710
 6566SOL    HW231158   3.372   0.839  12.601  2.4764 -1.7022 -0.7035
 6567SOL     OW31159   3.450   2.191   6.375  0.2278 -0.0514  0.1757
 6567SOL    HW131160   3.403   2.108   6.383 -0.1935 -0.0182 -2.0120
 6567SOL    HW231161   3.402   2.232   6.303 -1.6789 -2.0328  0.3464
 6568SOL     OW31162   2.759   3.947   8.651  0.0588 -0.0803 -0.7813
 6568SOL    HW131163   2.746   3.903   8.567 -1.9807  0.1291 -0.5695
 6568SOL    HW231164   2.844   3.990   8.641  0.1312 -0.2078 -0.7136
 6569SOL     OW31165   3.607   1.002   3.272  0.0550  0.2188 -0.2365
 6569SOL    HW131166   3.650   1.076   3.229 -0.9905  0.9807  0.0307
 6569SOL    HW231167   3.646   1.005   3.359 -1.4180  3.9753  0.3110
 6570SOL     OW31168   4.043   0.251   4.932 -0.2118  0.2041  0.3602
 6570SOL    HW131169   4.129   0.264   4.891 -0.0258  1.1060  1.0264
 6570SOL    HW231170   3.979   0.316   4.905 -0.3554  0.0195  0.2560
 6571SOL     OW31171   4.166   0.885   3.530  0.6112 -0.3566 -0.4204
 6571SOL    HW131172   4.104   0.899   3.458 -0.6866 -0.8787  0.6023
 6571SOL    HW231173   4.148   0.793   3.549 -1.8567 -0.1952 -1.8903
 6572SOL     OW31174   0.062   1.273   4.427 -1.2879 -0.0623  0.6825
 6572SOL    HW131175   0.139   1.306   4.379 -0.6085 -0.8692  1.2164
 6572SOL    HW231176   4.719   1.333   4.394 -0.6722  0.8068  0.9840
 6573SOL     OW31177   2.552   2.496   8.473  0.2139  0.1778 -0.1092
 6573SOL    HW131178   2.482   2.439   8.506 -0.4754  1.1032  0.0256
 6573SOL    HW231179   2.628   2.439   8.463  0.7746  0.9107  0.0241
 6574SOL     OW31180   3.157   0.940   1.424  0.3663  0.1586  0.2404
 6574SOL    HW131181   3.161   0.845   1.412 -0.0166  0.3525 -1.4383
 6574SOL    HW231182   3.076   0.956   1.473  0.7471 -1.4326  1.4051
 6575SOL     OW31183   1.455   2.589   3.296 -0.0239 -0.1070 -0.0337
 6575SOL    HW131184   1.446   2.670   3.245 -0.4984  0.3614  0.7906
 6575SOL    HW231185   1.548   2.581   3.315 -0.2141 -0.5165  0.7429
 6576SOL     OW31186   3.929   2.749   9.184 -0.2207  0.0878  0.9736
 6576SOL    HW131187   3.964   2.809   9.118  1.1108 -1.3847  0.3734
 6576SOL    HW231188   3.939   2.794   9.268 -2.4527  0.3953  1.0922
 6577SOL     OW31189   3.674   1.140   3.801 -0.5446 -0.2959  0.5933
 6577SOL    HW131190   3.653   1.056   3.841  0.5595 -1.9905 -2.3678
 6577SOL    HW231191   3.693   1.199   3.873 -1.6370  2.4416 -1.3817
 6578SOL     OW31192   0.873   3.346   0.252 -0.4506 -0.2579 -0.0323
 6578SOL    HW131193   0.951   3.291   0.249  0.0131  0.4133 -0.4573
 6578SOL    HW231194   0.913   3.431   0.234 -1.3616  0.1831  0.0010
 6579SOL     OW31195   4.213   0.093   3.088  0.4282  0.1608  0.3147
 6579SOL    HW131196   4.218   0.187   3.102  2.1786 -0.0051  0.9003
 6579SOL    HW231197   4.234   0.075   2.997 -2.0559  0.7532 -0.3609
 6580SOL     OW31198   2.625   2.893   1.136 -0.1836  0.2577  0.1868
 6580SOL    HW131199   2.678   2.894   1.215  0.7719  0.5491 -0.4561
 6580SOL    HW231200   2.679   2.831   1.086  0.4417  0.9270  0.0312
 6581SOL     OW31201   2.044   4.634  11.413  0.5092 -0.0757 -0.4350
 6581SOL    HW131202   2.096   4.671  11.342  0.4713  0.8490  0.0068
 6581SOL    HW231203   2.012   4.718  11.446  0.7034  0.8096 -2.5308
 6582SOL     OW31204   2.795   1.663   6.283  0.2063  0.6574  0.4153
 6582SOL    HW131205   2.703   1.688   6.292 -0.7867 -1.6593 -2.9950
 6582SOL    HW231206   2.777   1.594   6.219  3.1313  1.1687 -0.9564
 6583SOL     OW31207   3.138   2.052   7.808  0.0979 -0.4137 -0.6102
 6583SOL    HW131208   3.187   1.977   7.842  0.0448 -0.5432 -0.8119
 6583SOL    HW231209   3.053   2.025   7.841 -0.5490  3.6657  1.0232
 6584SOL     OW31210   2.392   2.523  12.210 -0.3028  0.5261 -0.4420
 6584SOL    HW131211   2.479   2.513  12.247 -0.9731 -2.1568  0.3918
 6584SOL    HW231212   2.400   2.606  12.163  1.7428 -0.9792 -2.7331
 6585SOL     OW31213   4.585   0.691   2.324  1.1358 -0.2654 -0.1581
 6585SOL    HW131214   4.553   0.618   2.377  0.6252  1.6553  2.1725
 6585SOL    HW231215   4.678   0.669   2.319  1.0788 -0.9568  1.6962
 6586SOL     OW31216   2.691   1.015   7.405 -0.1084  0.3410 -0.1850
 6586SOL    HW131217   2.666   0.952   7.337 -0.2217  1.4229 -1.1469
 6586SOL    HW231218   2.782   0.987   7.416 -0.1587  0.6184  0.9396
 6587SOL     OW31219   2.255   3.890  14.645 -0.2499 -0.4356 -0.0890
 6587SOL    HW131220   2.321   3.931  14.590  0.5767 -0.0462  1.2061
 6587SOL    HW231221   2.244   3.948  14.721  2.1623 -0.9973  0.6773
 6588SOL     OW31222   2.483   1.630  15.467  0.0599  0.1856  0.2558
 6588SOL    HW131223   2.561   1.654  15.415  0.9143  1.3318  2.0601
 6588SOL    HW231224   2.441   1.575  15.402  1.7744  1.5177 -2.0100
 6589SOL     OW31225   2.363   4.658   8.799 -0.0719 -0.3438  0.0751
 6589SOL    HW131226   2.329   0.023   8.799 -0.8679 -0.6432 -2.7401
 6589SOL    HW231227   2.365   4.634   8.706 -1.1963 -0.6575  0.1301
 6590SOL     OW31228   2.625   0.708   4.648 -0.1571 -0.1028 -0.4310
 6590SOL    HW131229   2.664   0.747   4.570 -0.8743  2.0797  0.2947
 6590SOL    HW231230   2.698   0.659   4.686 -0.8711 -1.6529 -1.0659
 6591SOL     OW31231   1.061   4.696   5.409 -0.4990 -0.1860 -0.4209
 6591SOL    HW131232   1.046   0.063   5.437 -3.2362 -0.9810  0.6900
 6591SOL    HW231233   1.147   4.705   5.368 -0.5058 -0.5842 -0.5194
 6592SOL     OW31234   2.390   2.253  14.853  0.0168  0.7300 -0.1694
 6592SOL    HW131235   2.411   2.214  14.768 -1.4068 -0.9686  0.2594
 6592SOL    HW231236   2.474   2.296  14.863  0.2838  0.1824 -0.0522
 6593SOL     OW31237   1.142   0.060   8.005 -0.0829  0.0226 -0.5553
 6593SOL    HW131238   1.077   4.721   7.975  0.3168 -1.9573  2.7779
 6593SOL    HW231239   1.210   4.723   8.033 -0.4664 -0.1380  0.0095
 6594SOL     OW31240   1.291   4.502   2.853 -0.5955  0.5476  0.0893
 6594SOL    HW131241   1.309   4.558   2.929  1.1369 -3.1667  2.4237
 6594SOL    HW231242   1.304   4.416   2.893 -2.4844  0.8233  1.2956
 6595SOL     OW31243   2.586   1.378  17.102 -0.1836  0.0209 -0.5007
 6595SOL    HW131244   2.563   1.409  17.014 -0.6251  1.1863  0.0244
 6595SOL    HW231245   2.650   1.445  17.125 -1.1260  0.8555 -0.2861
 6596SOL     OW31246   4.492   3.905   4.492  0.3800 -0.4829  0.5628
 6596SOL    HW131247   4.490   3.809   4.495  3.7096 -0.6441 -1.7682
 6596SOL    HW231248   4.432   3.930   4.563 -0.3326 -2.4647  0.6552
 6597SOL     OW31249   3.441   1.484   4.962 -0.3465  0.3950  0.4496
 6597SOL    HW131250   3.517   1.458   5.013 -0.7114 -1.8221 -0.1459
 6597SOL    HW231251   3.375   1.428   5.002 -1.7419 -0.3216 -2.8025
 6598SOL     OW31252   1.916   2.620   4.474  0.3548  0.0579 -0.5916
 6598SOL    HW131253   1.941   2.676   4.401 -0.3831 -1.4994 -2.0484
 6598SOL    HW231254   1.964   2.665   4.543  1.6324  0.6867 -1.8899
 6599SOL     OW31255   2.954   2.643  11.762 -0.2144  0.5952  0.0371
 6599SOL    HW131256   2.916   2.714  11.710  0.3854  1.1125  0.3071
 6599SOL    HW231257   3.039   2.681  11.785  0.1379 -1.6655  2.4024
 6600SOL     OW31258   4.329   3.930   4.740 -0.2334 -0.2121  0.0994
 6600SOL    HW131259   4.342   3.891   4.827  0.5466 -1.0092 -0.3831
 6600SOL    HW231260   4.341   4.025   4.750 -0.0135 -0.2093 -0.2059
 6601SOL     OW31261   4.695   0.759   8.973 -0.1326 -0.4398 -0.3101
 6601SOL    HW131262   0.007   0.675   9.001  1.0112  0.5212  1.1106
 6601SOL    HW231263   4.601   0.743   8.969 -0.6775  2.3229  1.2910
 6602SOL     OW31264   0.005   3.588  14.087  0.5619  0.3869 -0.6843
 6602SOL    HW131265   4.651   3.545  14.053  1.1032  0.2110 -1.7043
 6602SOL    HW231266   0.074   3.555  14.029 -0.3323 -0.2703 -1.3822
 6603SOL     OW31267   4.073   2.551  13.209  0.2421  0.3930 -0.4094
 6603SOL    HW131268   4.050   2.609  13.281  0.0906  1.9356 -1.6817
 6603SOL    HW231269   3.987   2.515  13.187 -0.0470  1.4111 -0.9607
 6604SOL     OW31270   4.137   4.226   3.983 -0.4597  0.5922  0.1703
 6604SOL    HW131271   4.213   4.284   3.989 -0.5556  0.8294 -0.8565
 6604SOL    HW231272   4.122   4.225   3.889  0.1295  2.4075  0.0592
 6605SOL     OW31273   4.155   0.831   2.887  0.1399  0.0370 -0.6478
 6605SOL    HW131274   4.071   0.858   2.850 -0.4912 -1.5232 -0.3312
 6605SOL    HW231275   4.218   0.853   2.818  0.3149  0.0070 -0.4966
 6606SOL     OW31276   1.738   2.360  11.255 -0.3317  0.0747  0.5842
 6606SOL    HW131277   1.715   2.425  11.321  2.3133  0.9764  0.5988
 6606SOL    HW231278   1.692   2.406  11.184 -1.2573 -2.3919 -0.3841
 6607SOL     OW31279   2.637   2.868  14.609 -0.2202 -0.0149 -0.4594
 6607SOL    HW131280   2.677   2.943  14.654 -2.3403  0.8764 -0.0515
 6607SOL    HW231281   2.707   2.804  14.624  1.6584  2.1992  0.3064
 6608SOL     OW31282   1.611   0.896  11.466 -0.4241 -0.0139  0.0831
 6608SOL    HW131283   1.549   0.914  11.396  0.2263 -1.1190 -0.7665
 6608SOL    HW231284   1.566   0.838  11.527  0.1956 -0.6710 -0.0851
 6609SOL     OW31285   2.036   4.658   3.191  0.4132  0.1528 -0.5329
 6609SOL    HW131286   2.064   4.566   3.199 -2.6212 -0.7944 -1.0339
 6609SOL    HW231287   2.015   4.664   3.098 -1.9498 -1.7750 -0.1155
 6610SOL     OW31288   2.898   4.367   6.169  0.2925  0.9689  0.2063
 6610SOL    HW131289   2.981   4.337   6.206  0.1840  1.1803  0.6239
 6610SOL    HW231290   2.827   4.324   6.217  0.7274  1.6597  1.4708
 6611SOL     OW31291   1.352   3.876   0.466  0.5523  0.3467 -0.5457
 6611SOL    HW131292   1.391   3.867   0.379 -0.1054 -0.1967 -0.7823
 6611SOL    HW231293   1.306   3.959   0.456  0.2352  0.4250  1.4840
 6612SOL     OW31294   2.797   0.510   7.434  0.8483 -0.1785  0.0328
 6612SOL    HW131295   2.796   0.549   7.347 -2.8885  1.0510  0.6391
 6612SOL    HW231296   2.870   0.559   7.472  0.1934 -0.0689  1.1435
 6613SOL     OW31297   3.693   2.372   7.885  0.2038  0.4499  0.0130
 6613SOL    HW131298   3.661   2.451   7.842  4.6393  0.8969 -2.4652
 6613SOL    HW231299   3.626   2.308   7.861  0.8170 -1.1020  2.4934
 6614SOL     OW31300   2.278   0.755   2.767 -0.0023  0.5691 -0.3130
 6614SOL    HW131301   2.277   0.659   2.767 -1.8029  0.5911  0.4345
 6614SOL    HW231302   2.332   0.772   2.845 -1.3270  1.3868  0.4322
 6615SOL     OW31303   4.584   1.779   6.290  0.9675 -0.0766  0.5884
 6615SOL    HW131304   4.603   1.872   6.281  1.5743 -0.3637 -1.0000
 6615SOL    HW231305   4.599   1.780   6.385 -0.0311 -0.0301  0.7483
 6616SOL     OW31306   3.548   2.124   7.360  0.1129  0.4996 -0.7419
 6616SOL    HW131307   3.611   2.092   7.296 -0.5907  0.1945 -1.2746
 6616SOL    HW231308   3.472   2.139   7.304 -0.0930  0.4846 -0.4667
 6617SOL     OW31309   4.481   2.887   6.337 -0.3354  0.1413 -0.2606
 6617SOL    HW131310   4.459   2.811   6.283  0.4664  0.1960 -0.6694
 6617SOL    HW231311   4.418   2.865   6.406 -1.6329  0.3941 -1.3753
 6618SOL     OW31312   2.223   3.199   4.380  0.1227  0.2838  0.4374
 6618SOL    HW131313   2.313   3.172   4.400  0.3031  0.2165 -0.4324
 6618SOL    HW231314   2.238   3.278   4.328  1.5155 -0.6677 -0.6348
 6619SOL     OW31315   1.468   1.428   5.761 -0.2177  0.3126  0.6052
 6619SOL    HW131316   1.561   1.444   5.773 -0.0987  0.0323  0.0305
 6619SOL    HW231317   1.467   1.344   5.806 -0.2577 -0.3134 -0.5558
 6620SOL     OW31318   0.712   1.105   3.379  0.7059 -0.1490  0.2370
 6620SOL    HW131319   0.657   1.153   3.317 -0.7995 -0.5244  1.2686
 6620SOL    HW231320   0.650   1.095   3.452  1.4686  2.2318  1.1851
 6621SOL     OW31321   0.379   3.831  10.681  0.5757 -0.0936  0.3018
 6621SOL    HW131322   0.434   3.871  10.748  0.4040  1.3806 -0.4241
 6621SOL    HW231323   0.387   3.892  10.607  0.3202  2.2573  2.2004
 6622SOL     OW31324   2.268   2.093   9.602 -0.0543  0.2189 -0.6947
 6622SOL    HW131325   2.277   2.108   9.696 -3.6623  2.7772 -0.7346
 6622SOL    HW231326   2.194   2.032   9.610  0.0936 -0.0908 -1.7159
 6623SOL     OW31327   4.358   0.516   0.311 -0.1208 -0.8173 -0.2696
 6623SOL    HW131328   4.380   0.456   0.240 -0.1359 -1.7618  0.5227
 6623SOL    HW231329   4.305   0.458   0.365  1.9286 -0.6970  1.8969
 6624SOL     OW31330   4.188   3.944   1.690  0.0135  0.2467  0.5704
 6624SOL    HW131331   4.096   3.940   1.715 -0.2994 -4.3298 -1.1468
 6624SOL    HW231332   4.182   3.992   1.608  2.1350  0.5157  0.5738
 6625SOL     OW31333   4.567   4.640   4.462 -0.0304 -0.1974 -0.2327
 6625SOL    HW131334   4.477   4.668   4.443  0.3658  0.7312 -0.7458
 6625SOL    HW231335   4.612   4.721   4.440 -1.2666  0.6302  0.2999
 6626SOL     OW31336   1.012   3.431   7.699  0.2128 -0.8624  0.2373
 6626SOL    HW131337   1.096   3.385   7.701  0.5905 -0.2061 -0.6720
 6626SOL    HW231338   0.956   3.372   7.648 -2.3316 -0.2491  2.3288
 6627SOL     OW31339   2.801   0.458   6.886 -0.2870 -0.2708  0.0034
 6627SOL    HW131340   2.846   0.458   6.801  0.3651  0.0045  0.3550
 6627SOL    HW231341   2.747   0.537   6.877  1.2338  0.8661  1.0100
 6628SOL     OW31342   0.025   4.273   8.176 -0.4177  0.2627  0.2422
 6628SOL    HW131343   0.038   4.191   8.224 -0.2769  0.5406  0.6780
 6628SOL    HW231344   0.117   4.301   8.176  0.1088 -1.4056  1.0167
 6629SOL     OW31345   1.893   2.889   6.639  0.2659  0.1576 -0.0763
 6629SOL    HW131346   1.971   2.860   6.591  0.2826  1.5027 -0.8826
 6629SOL    HW231347   1.915   2.848   6.722 -0.2270 -0.3236 -0.1783
 6630SOL     OW31348   0.952   4.300   0.497  0.2932  0.0628  0.4951
 6630SOL    HW131349   0.968   4.381   0.449  0.5174 -0.6432 -0.6154
 6630SOL    HW231350   1.035   4.273   0.536 -0.3790 -1.1910  1.0478
 6631SOL     OW31351   2.176   4.104   9.402  0.1069  0.0966 -0.1675
 6631SOL    HW131352   2.094   4.055   9.392 -0.5637  1.7177 -2.4551
 6631SOL    HW231353   2.219   4.093   9.317 -0.9558 -0.4663 -0.6316
 6632SOL     OW31354   2.082   4.178   8.050 -0.1651  0.6512 -0.4238
 6632SOL    HW131355   2.014   4.116   8.025  0.9909 -0.5322 -0.6000
 6632SOL    HW231356   2.038   4.216   8.127 -0.7178  1.4358 -1.1224
 6633SOL     OW31357   4.369   4.396   0.852  0.3385 -0.2420  0.0078
 6633SOL    HW131358   4.364   4.372   0.944  0.3670  0.9047  0.3056
 6633SOL    HW231359   4.455   4.367   0.824 -0.1291 -4.0952  2.6329
 6634SOL     OW31360   0.956   4.594   7.906 -0.1822  0.6212  0.3380
 6634SOL    HW131361   0.902   4.618   7.982  1.2069  0.8183  1.2744
 6634SOL    HW231362   0.922   4.505   7.895  1.7810  0.2274 -2.3591
 6635SOL     OW31363   0.063   3.724  12.295  0.1784  0.1496 -0.1374
 6635SOL    HW131364   0.003   3.789  12.329 -0.2334 -0.8034  0.9607
 6635SOL    HW231365   0.014   3.642  12.305 -2.1562  1.4969 -0.6180
 6636SOL     OW31366   1.415   1.663   3.592  0.3911 -0.3943  0.6208
 6636SOL    HW131367   1.343   1.726   3.594  0.2743 -0.5528  1.5227
 6636SOL    HW231368   1.380   1.587   3.546  1.2115  0.4869 -1.4601
 6637SOL     OW31369   2.422   3.981   9.236 -0.3666  0.0673 -0.0205
 6637SOL    HW131370   2.394   3.982   9.145  0.6227 -1.3329 -0.3308
 6637SOL    HW231371   2.465   4.067   9.244  0.3619 -0.6479  3.9457
 6638SOL     OW31372   4.325   1.101   3.871  0.1768  0.3592  0.3099
 6638SOL    HW131373   4.349   1.102   3.963  0.9441  0.2779  0.1109
 6638SOL    HW231374   4.242   1.149   3.876 -0.0833  0.0506 -1.0937
 6639SOL     OW31375   1.042   2.352  13.899  0.3966 -0.2799 -0.0770
 6639SOL    HW131376   1.114   2.413  13.914 -0.8515  1.5947 -1.6619
 6639SOL    HW231377   0.963   2.406  13.904  0.2371 -0.2666 -2.9018
 6640SOL     OW31378   1.545   1.428   9.830 -0.1948  0.0724  0.0693
 6640SOL    HW131379   1.640   1.433   9.839 -0.4048  1.3030  1.6500
 6640SOL    HW231380   1.530   1.341   9.866 -0.3737  0.9957  2.2219
 6641SOL     OW31381   3.523   4.203  14.909  0.1808 -0.6775 -0.0745
 6641SOL    HW131382   3.458   4.252  14.958  0.6305 -1.3061  1.1521
 6641SOL    HW231383   3.600   4.249  14.944 -0.1807  0.0555 -0.2496
 6642SOL     OW31384   3.062   0.413   4.822 -0.0219  0.0650  0.0684
 6642SOL    HW131385   3.076   0.362   4.901  1.2807 -1.2533 -1.0116
 6642SOL    HW231386   3.144   0.461   4.830  0.3411 -1.0481  2.9841
 6643SOL     OW31387   4.159   1.621   5.918 -0.1616  0.1799  0.4370
 6643SOL    HW131388   4.168   1.663   6.004 -2.6931 -1.0114  1.3014
 6643SOL    HW231389   4.171   1.692   5.856  2.3647 -1.1016 -0.5384
 6644SOL     OW31390   1.974   0.607   2.969 -0.7953  0.1321  0.2879
 6644SOL    HW131391   1.942   0.580   3.055 -0.2512 -0.5706  0.2726
 6644SOL    HW231392   2.064   0.577   2.958 -1.1014 -1.1370  1.3370
 6645SOL     OW31393   2.754   2.102   1.575 -0.0780 -1.0507  0.1406
 6645SOL    HW131394   2.675   2.057   1.605 -0.7931 -0.1237 -0.3556
 6645SOL    HW231395   2.805   2.029   1.541  1.0059  0.0110 -0.5279
 6646SOL     OW31396   4.086   4.549   5.775  0.5993  0.2561 -0.3215
 6646SOL    HW131397   4.023   4.594   5.831 -0.3019 -1.2775 -0.1078
 6646SOL    HW231398   4.148   4.522   5.842 -0.7864 -0.2979  0.7319
 6647SOL     OW31399   2.908   4.259   6.495  0.5608 -0.1982  0.3602
 6647SOL    HW131400   2.891   4.324   6.564 -0.4472 -0.8984  0.7679
 6647SOL    HW231401   2.839   4.195   6.511  1.2693 -0.8408  0.8713
 6648SOL     OW31402   0.607   1.015  12.959 -0.1628  0.4852  0.0410
 6648SOL    HW131403   0.517   0.983  12.960  0.4131 -1.1311 -0.6771
 6648SOL    HW231404   0.600   1.076  12.885 -1.2764 -0.2808 -0.4711
 6649SOL     OW31405   0.096   0.590   2.618 -0.4858  0.0261 -0.2718
 6649SOL    HW131406   0.118   0.622   2.530  0.0854 -1.7126 -0.7651
 6649SOL    HW231407   0.173   0.543   2.649  0.4094  1.2883 -0.5918
 6650SOL     OW31408   2.847   0.307   3.519  0.0113  0.0400 -0.4929
 6650SOL    HW131409   2.840   0.390   3.473 -1.8088  0.0742 -0.1815
 6650SOL    HW231410   2.840   0.245   3.446 -3.9089 -1.9611  1.5280
 6651SOL     OW31411   4.709   3.134   6.672 -0.0090  0.3775  0.1983
 6651SOL    HW131412   0.001   3.214   6.722  1.2977  0.2712 -0.0542
 6651SOL    HW231413   0.003   3.166   6.584 -0.7478 -0.7428 -0.3723
 6652SOL     OW31414   1.493   1.120   7.573 -0.0470 -0.2587 -0.0803
 6652SOL    HW131415   1.476   1.212   7.595 -0.4259 -0.6608  1.3078
 6652SOL    HW231416   1.507   1.078   7.658 -0.6103 -1.0255 -0.3711
 6653SOL     OW31417   4.410   1.410   2.645 -0.1022  0.3387  0.2043
 6653SOL    HW131418   4.438   1.438   2.732 -1.9199 -0.9229  1.2019
 6653SOL    HW231419   4.353   1.335   2.665 -0.6682  0.7701  0.1886
 6654SOL     OW31420   4.010   3.632   4.731  0.3138 -0.4380  0.0567
 6654SOL    HW131421   3.997   3.683   4.651  3.2739 -1.6349 -1.1957
 6654SOL    HW231422   4.096   3.594   4.710  0.4113  0.0111 -0.3572
 6655SOL     OW31423   1.724   0.133   7.634 -0.2411  0.5030  0.2121
 6655SOL    HW131424   1.759   0.195   7.570  2.7670  0.8448  2.1714
 6655SOL    HW231425   1.682   0.075   7.571  0.5770 -0.4374  0.5161
 6656SOL     OW31426   3.580   1.210   8.405 -0.0936 -0.4178  0.1801
 6656SOL    HW131427   3.619   1.277   8.462  0.8413 -0.2639 -0.6532
 6656SOL    HW231428   3.637   1.134   8.416 -0.8030 -1.5333 -3.8173
 6657SOL     OW31429   1.372   2.219   9.906 -0.2395 -0.7999 -0.2902
 6657SOL    HW131430   1.417   2.283   9.961 -1.1278 -1.4160  1.1601
 6657SOL    HW231431   1.334   2.158   9.969 -0.0581  0.0950  0.6811
 6658SOL     OW31432   3.456   0.441   0.432  0.1051 -0.0286  0.3774
 6658SOL    HW131433   3.398   0.513   0.409 -1.6303 -1.0954  1.4654
 6658SOL    HW231434   3.534   0.493   0.454 -0.0955 -0.5491  2.2821
 6659SOL     OW31435   3.263   3.921   4.682 -0.4854 -0.5100  0.1547
 6659SOL    HW131436   3.300   3.977   4.750 -1.3416 -2.1995  2.0033
 6659SOL    HW231437   3.176   3.901   4.717 -0.6733 -1.7619 -1.0279
 6660SOL     OW31438   4.637   2.519  17.083  0.1435  0.2844 -0.2823
 6660SOL    HW131439   4.552   2.557  17.106 -0.0490 -0.5838  0.4812
 6660SOL    HW231440   4.631   2.448  17.147  0.7957  1.9572  1.6147
 6661SOL     OW31441   2.780   0.984   5.323  0.6514  0.0830 -0.4388
 6661SOL    HW131442   2.796   0.947   5.410 -2.2961 -0.6733 -0.2369
 6661SOL    HW231443   2.699   1.030   5.343  0.4459 -1.2630  1.7727
 6662SOL     OW31444   2.246   4.500  13.618  0.8090  0.0034  0.1132
 6662SOL    HW131445   2.302   4.521  13.543  1.1852 -0.5314  0.2446
 6662SOL    HW231446   2.162   4.518  13.574  1.7870 -3.2877 -3.1207
 6663SOL     OW31447   1.196   4.055  15.157 -0.3301 -0.5605  0.0362
 6663SOL    HW131448   1.253   4.125  15.190  0.0737 -1.1896  0.6610
 6663SOL    HW231449   1.120   4.097  15.117  0.8797 -0.1080 -1.7952
 6664SOL     OW31450   2.919   0.816   7.227  0.0043  0.4266 -0.3217
 6664SOL    HW131451   2.961   0.837   7.144  0.2392 -1.7655 -0.7687
 6664SOL    HW231452   2.985   0.772   7.280 -0.2480 -0.6357 -0.8940
 6665SOL     OW31453   0.776   2.868   8.954  0.2589  0.0701  0.0054
 6665SOL    HW131454   0.806   2.849   9.044 -0.6001 -2.2023 -0.1967
 6665SOL    HW231455   0.689   2.906   8.967  0.0377 -0.0053 -1.2956
 6666SOL     OW31456   0.615   2.992  14.298  0.5073  0.2150  0.1878
 6666SOL    HW131457   0.534   2.960  14.337 -0.2380  0.0512 -1.4911
 6666SOL    HW231458   0.586   2.972  14.209  1.2634 -0.3691  0.0687
 6667SOL     OW31459   3.717   1.007   5.443 -0.2813 -0.2101 -0.0723
 6667SOL    HW131460   3.794   1.039   5.395 -0.1815 -1.1063 -0.5128
 6667SOL    HW231461   3.736   0.916   5.463 -1.2718 -0.5488 -0.6282
 6668SOL     OW31462   0.727   3.409   0.521 -0.3335 -0.6285  0.2572
 6668SOL    HW131463   0.671   3.477   0.485  0.0783 -1.0764 -1.2250
 6668SOL    HW231464   0.797   3.399   0.456  1.1457  2.4795  1.3320
 6669SOL     OW31465   3.887   3.719   8.874  0.2883 -0.1490 -0.3878
 6669SOL    HW131466   3.957   3.784   8.886 -1.3668  1.2085  1.6665
 6669SOL    HW231467   3.872   3.734   8.780 -1.9764 -1.6639 -0.2527
 6670SOL     OW31468   2.976   0.352   2.428 -0.3176  0.3356  0.3567
 6670SOL    HW131469   3.005   0.399   2.506 -0.3763 -0.5714  0.9255
 6670SOL    HW231470   3.008   0.264   2.447  2.5535  0.9936 -1.4290
 6671SOL     OW31471   1.759   0.753  13.018  0.0985 -0.5433 -0.1643
 6671SOL    HW131472   1.744   0.826  13.078  0.3055  0.0856 -0.8876
 6671SOL    HW231473   1.750   0.800  12.935  1.4335  1.1619  0.6447
 6672SOL     OW31474   1.932   2.185   8.617 -0.2171  0.3022  0.2177
 6672SOL    HW131475   1.970   2.167   8.532 -0.8111  3.2642 -0.6683
 6672SOL    HW231476   1.957   2.114   8.676 -0.6948  0.2696  0.3864
 6673SOL     OW31477   2.291   1.147  10.148 -0.5244 -0.5444  0.1099
 6673SOL    HW131478   2.273   1.177  10.059 -1.1229  0.5982  0.6093
 6673SOL    HW231479   2.343   1.068  10.136 -0.9520 -0.7377 -0.4597
 6674SOL     OW31480   1.838   3.306  14.693 -0.4476  0.5675 -0.2950
 6674SOL    HW131481   1.867   3.218  14.668 -3.3929 -1.0716  2.1002
 6674SOL    HW231482   1.748   3.275  14.695 -0.4138  0.5753  1.3912
 6675SOL     OW31483   3.895   2.501   2.061  0.2210  0.3958 -0.2756
 6675SOL    HW131484   3.909   2.560   1.986 -0.5064 -0.7979 -1.3415
 6675SOL    HW231485   3.857   2.422   2.023  1.1779 -0.3360  0.2849
 6676SOL     OW31486   3.208   1.766   3.292  0.3512 -0.3618 -0.2056
 6676SOL    HW131487   3.287   1.740   3.338  1.1545 -0.5457 -1.6920
 6676SOL    HW231488   3.215   1.721   3.208  0.8042  1.3469 -1.0940
 6677SOL     OW31489   2.816   2.950   0.076 -0.0826  0.3091  0.3263
 6677SOL    HW131490   2.773   2.963   0.161 -0.9886  1.0669 -0.2476
 6677SOL    HW231491   2.777   2.866   0.052  2.2370 -0.8312  0.5239
 6678SOL     OW31492   0.963   3.083   8.101  0.1585  0.0087  0.3389
 6678SOL    HW131493   0.979   3.166   8.056 -1.4345 -0.7203 -1.5588
 6678SOL    HW231494   0.872   3.090   8.130 -0.1095  1.5985 -0.8673
 6679SOL     OW31495   2.904   1.136   8.367  0.7563 -0.0401  0.1279
 6679SOL    HW131496   2.970   1.084   8.413  0.8968 -0.4591 -0.5580
 6679SOL    HW231497   2.916   1.112   8.275 -1.2080 -0.8730  0.0871
 6680SOL     OW31498   0.074   1.007   5.428 -0.0290  0.5223 -0.8818
 6680SOL    HW131499   0.170   1.011   5.423  0.0575  0.4113  0.7636
 6680SOL    HW231500   0.051   1.090   5.470 -1.0661  0.5769 -1.5783
 6681SOL     OW31501   1.080   1.985   4.375  0.1491 -0.0827  0.1891
 6681SOL    HW131502   1.141   1.912   4.386 -0.4364 -0.4243  1.1674
 6681SOL    HW231503   1.105   2.051   4.440 -1.5654  0.6725  0.0839
 6682SOL     OW31504   3.496   2.759   7.257  0.0116  0.1754 -0.4246
 6682SOL    HW131505   3.410   2.740   7.218 -0.2869  0.4207  0.1187
 6682SOL    HW231506   3.547   2.707   7.195  0.2258 -1.3067  0.9914
 6683SOL     OW31507   3.113   0.623   5.262 -0.4591  0.4174  0.7274
 6683SOL    HW131508   3.032   0.636   5.213  0.3777 -0.5759 -0.9086
 6683SOL    HW231509   3.142   0.714   5.258  3.5878 -1.0265 -2.3890
 6684SOL     OW31510   1.255   2.573   2.068 -0.5966 -0.1465 -0.3311
 6684SOL    HW131511   1.315   2.515   2.116 -1.0557  1.3694  2.0311
 6684SOL    HW231512   1.181   2.563   2.128 -0.8714  0.2249 -0.6074
 6685SOL     OW31513   4.129   1.568  10.849 -0.7505 -0.1341  0.1044
 6685SOL    HW131514   4.069   1.549  10.922 -1.9948  1.8102 -0.4220
 6685SOL    HW231515   4.202   1.607  10.897 -0.1987  2.6417 -3.0450
 6686SOL     OW31516   0.973   0.897   1.468  0.2279 -0.7434 -0.7552
 6686SOL    HW131517   0.968   0.959   1.541  1.4601 -0.8947 -0.5349
 6686SOL    HW231518   0.973   0.956   1.393 -0.9428  0.4156  0.1579
 6687SOL     OW31519   1.337   3.802   7.291  0.2302  0.5276 -0.9294
 6687SOL    HW131520   1.339   3.740   7.365  1.6238  1.0844 -0.5180
 6687SOL    HW231521   1.244   3.820   7.308  0.5932  1.9580 -0.5236
 6688SOL     OW31522   2.890   1.507  14.572 -0.4081  0.4261  0.0879
 6688SOL    HW131523   2.976   1.472  14.596  0.6726  1.2531 -2.5624
 6688SOL    HW231524   2.902   1.492  14.478  0.4593 -1.4343  0.4891
 6689SOL     OW31525   0.863   1.173   5.711  0.1997  0.0198  1.1777
 6689SOL    HW131526   0.939   1.218   5.747  1.1657  1.2791 -2.4751
 6689SOL    HW231527   0.824   1.238   5.653  0.7212 -2.5447 -2.0118
 6690SOL     OW31528   3.000   3.692   8.789  0.1381 -0.4083 -0.6712
 6690SOL    HW131529   2.925   3.634   8.780 -0.2198 -0.4985  2.8018
 6690SOL    HW231530   3.014   3.699   8.884 -0.2154 -4.0814 -0.3606
 6691SOL     OW31531   2.454   4.569   4.499 -0.6667 -0.2883  0.2889
 6691SOL    HW131532   2.470   4.650   4.547  2.3132 -0.6636 -0.0329
 6691SOL    HW231533   2.506   4.582   4.419 -3.6024  0.8514 -1.4488
 6692SOL     OW31534   2.674   4.246   3.474 -0.1856 -0.4341 -0.3607
 6692SOL    HW131535   2.643   4.251   3.564 -0.6288  3.1714 -0.7096
 6692SOL    HW231536   2.619   4.306   3.422 -3.0831 -2.3912  0.4606
 6693SOL     OW31537   2.203   4.261   0.728 -0.6005  0.1740  0.5553
 6693SOL    HW131538   2.298   4.258   0.736 -0.4053  4.1667  0.0308
 6693SOL    HW231539   2.165   4.289   0.812 -0.8659 -1.1806  0.8872
 6694SOL     OW31540   4.079   1.661  14.414 -0.1648 -0.2589 -0.1190
 6694SOL    HW131541   4.155   1.662  14.355 -1.7988 -0.5795 -2.2113
 6694SOL    HW231542   4.000   1.671  14.361  0.0021 -0.7625 -0.4691
 6695SOL     OW31543   1.824   1.454  14.013 -0.1266  0.4197 -0.0385
 6695SOL    HW131544   1.887   1.383  14.010 -0.8690 -0.3338  1.7930
 6695SOL    HW231545   1.871   1.527  13.974  0.5538  2.3585  4.4524
 6696SOL     OW31546   1.210   2.285  14.656  0.2414  0.0601  0.0239
 6696SOL    HW131547   1.123   2.250  14.635  0.7638 -0.9197 -0.5172
 6696SOL    HW231548   1.251   2.254  14.575  2.3238 -1.2814  1.6071
 6697SOL     OW31549   2.689   2.721   0.019 -0.0127 -0.3325  0.7429
 6697SOL    HW131550   2.603   2.748  17.683  0.7706 -0.7122 -1.5566
 6697SOL    HW231551   2.665   2.631   0.041 -0.4281  0.0999  2.0775
 6698SOL     OW31552   3.939   3.137   6.430 -0.0130 -0.6361 -0.5034
 6698SOL    HW131553   4.029   3.135   6.464 -1.1889 -2.5834  2.4272
 6698SOL    HW231554   3.923   3.230   6.414  1.1762 -0.1421  1.2433
 6699SOL     OW31555   3.196   0.365   5.111 -0.4329  0.2020  0.4052
 6699SOL    HW131556   3.157   0.443   5.151 -0.8193 -0.4426  1.2907
 6699SOL    HW231557   3.271   0.353   5.169 -0.2759  3.2421  0.7943
 6700SOL     OW31558   3.958   0.641   2.687 -0.2531 -0.4475  0.3207
 6700SOL    HW131559   4.005   0.568   2.646 -0.3176 -1.7097  2.4825
 6700SOL    HW231560   3.973   0.715   2.628 -0.0035 -0.9700 -0.2688
 6701SOL     OW31561   4.660   3.933   5.914  0.2865  0.0611 -0.5713
 6701SOL    HW131562   4.566   3.916   5.909  0.1652  0.9482 -1.3331
 6701SOL    HW231563   4.690   3.902   5.828  2.5314 -2.2028  1.0442
 6702SOL     OW31564   0.698   4.340   9.382 -0.1831 -0.2557  0.5618
 6702SOL    HW131565   0.623   4.395   9.358 -1.4378 -2.1157  0.2211
 6702SOL    HW231566   0.738   4.406   9.437  0.3497  1.0426 -1.3958
 6703SOL     OW31567   2.604   1.278   7.185 -0.0356 -0.1425 -0.2262
 6703SOL    HW131568   2.613   1.359   7.135 -2.3544 -0.8773 -1.7880
 6703SOL    HW231569   2.649   1.303   7.266  0.0563 -0.6682 -0.1170
 6704SOL     OW31570   2.368   4.562  15.146 -0.0487 -0.2480 -0.1351
 6704SOL    HW131571   2.379   4.519  15.061 -2.6474 -1.4774  0.1476
 6704SOL    HW231572   2.282   4.602  15.138 -0.3521 -0.7797  0.4157
 6705SOL     OW31573   4.477   3.022   5.868 -0.8875 -0.6052  0.2119
 6705SOL    HW131574   4.452   2.972   5.790  0.2879  0.0075 -0.5473
 6705SOL    HW231575   4.476   2.953   5.934  1.9830 -0.6444  0.1942
 6706SOL     OW31576   3.833   1.493   8.436  0.3573  0.7403 -0.5145
 6706SOL    HW131577   3.797   1.578   8.413  1.9881  2.1950  2.1881
 6706SOL    HW231578   3.803   1.484   8.527  3.9149  0.3393  0.6545
 6707SOL     OW31579   4.617   2.603   4.137 -0.2711 -0.2821  0.1323
 6707SOL    HW131580   4.634   2.585   4.229 -2.1212 -1.6212  0.2056
 6707SOL    HW231581   4.670   2.678   4.109 -0.2659  0.1056  1.1880
 6708SOL     OW31582   3.345   3.139  10.506  0.3620 -0.2733  0.0446
 6708SOL    HW131583   3.410   3.202  10.537  0.8466 -0.5916 -0.3311
 6708SOL    HW231584   3.309   3.099  10.586  1.5438  0.3881  0.9000
 6709SOL     OW31585   0.288   1.394  11.733  0.2022  0.3110 -0.7028
 6709SOL    HW131586   0.354   1.377  11.800 -0.1175  0.0203 -0.4645
 6709SOL    HW231587   0.214   1.362  11.784 -0.5709  4.6355  0.8228
 6710SOL     OW31588   3.521   3.485   9.382  1.2996  0.6164 -0.0787
 6710SOL    HW131589   3.472   3.446   9.310  2.3251  0.7031 -0.8160
 6710SOL    HW231590   3.508   3.418   9.449  1.1231  2.5435  1.8481
 6711SOL     OW31591   1.071   0.645   7.793 -0.2605  0.3505 -0.6867
 6711SOL    HW131592   1.108   0.600   7.717  0.1782 -1.6194  0.6919
 6711SOL    HW231593   1.122   0.604   7.862 -0.1463  2.1292  0.2996
 6712SOL     OW31594   0.443   4.157   9.841 -0.2254 -0.5878 -0.6998
 6712SOL    HW131595   0.450   4.145   9.936  2.7609 -1.2503 -1.0157
 6712SOL    HW231596   0.481   4.244   9.835 -3.8239  1.0628  0.5402
 6713SOL     OW31597   3.153   1.103   3.496  0.2996 -0.0552  0.4073
 6713SOL    HW131598   3.127   1.020   3.456 -1.4361 -0.1988  1.8137
 6713SOL    HW231599   3.205   1.147   3.429  0.0260 -0.2120  0.0951
 6714SOL     OW31600   0.584   3.273   5.692  0.3216 -0.2501  0.3604
 6714SOL    HW131601   0.600   3.357   5.735 -0.7416  0.2141 -0.1381
 6714SOL    HW231602   0.510   3.235   5.740  1.4166 -1.1246  1.3497
 6715SOL     OW31603   3.754   4.715   4.384 -0.2647 -0.3272 -0.5397
 6715SOL    HW131604   3.731   4.625   4.410  1.3958 -0.1404  1.5665
 6715SOL    HW231605   3.688   0.037   4.436  0.2683  1.1509 -1.1781
 6716SOL     OW31606   1.221   4.039   8.168 -0.0442  0.0881 -0.2936
 6716SOL    HW131607   1.221   3.945   8.148 -2.6351  0.1157 -0.4189
 6716SOL    HW231608   1.249   4.033   8.260  0.2256  3.4638 -0.1523
 6717SOL     OW31609   0.873   1.292   8.183 -0.5879  0.3077  0.2260
 6717SOL    HW131610   0.924   1.232   8.237  2.4556  0.3861 -2.5843
 6717SOL    HW231611   0.812   1.229   8.146 -0.1303  0.4679 -0.7896
 6718SOL     OW31612   0.168   4.159   0.880 -0.4034 -0.1648 -0.6773
 6718SOL    HW131613   0.227   4.199   0.816 -2.4252 -1.2996 -3.2275
 6718SOL    HW231614   0.195   4.067   0.879  0.8006  0.1647  0.4464
 6719SOL     OW31615   1.882   2.208   0.685  0.1994  0.0201 -0.1355
 6719SOL    HW131616   1.805   2.265   0.676  0.0114  0.1617  2.5215
 6719SOL    HW231617   1.942   2.258   0.629  1.8234 -1.0120  0.6826
 6720SOL     OW31618   0.862   0.365   8.570 -0.1789 -0.3474  0.0352
 6720SOL    HW131619   0.882   0.307   8.643 -0.4203  1.2754  1.4046
 6720SOL    HW231620   0.769   0.383   8.582 -0.0938  0.3880 -0.3666
 6721SOL     OW31621   2.047   0.942   1.997  0.2446 -0.0570 -0.0297
 6721SOL    HW131622   2.083   1.015   2.047 -2.3363 -0.1379  2.0033
 6721SOL    HW231623   2.023   0.979   1.912 -1.3002 -1.1421 -0.0748
 6722SOL     OW31624   3.403   3.937  16.782  0.0899 -0.4307  0.4876
 6722SOL    HW131625   3.461   4.013  16.783  0.0027 -0.3734  0.8908
 6722SOL    HW231626   3.372   3.931  16.872 -0.5903  0.3034  0.2938
 6723SOL     OW31627   4.076   4.216   0.088 -0.3001 -0.6675  0.7323
 6723SOL    HW131628   4.169   4.233   0.101 -0.9174  2.1890  1.6044
 6723SOL    HW231629   4.043   4.192   0.175 -2.3214 -2.7432 -0.6030
 6724SOL     OW31630   3.689   3.927   5.813 -0.1191 -0.4819  0.3661
 6724SOL    HW131631   3.610   3.921   5.867 -1.1965 -0.8967 -1.2447
 6724SOL    HW231632   3.719   3.836   5.807 -0.3859 -0.6727  1.9086
 6725SOL     OW31633   1.965   0.922   7.764 -0.0991 -0.2352 -0.0047
 6725SOL    HW131634   1.918   1.004   7.751 -0.7233 -0.9196 -2.1157
 6725SOL    HW231635   2.052   0.935   7.724  0.3265  0.1090  1.0301
 6726SOL     OW31636   1.972   3.962   9.332  0.0046 -0.4604 -0.6444
 6726SOL    HW131637   1.907   3.916   9.384 -0.4254 -0.0683 -0.8387
 6726SOL    HW231638   1.950   3.942   9.241  1.9313 -1.6059 -0.8707
 6727SOL     OW31639   1.605   0.564  10.696  0.2496 -0.1471 -0.1101
 6727SOL    HW131640   1.556   0.491  10.735  0.6102 -0.0243  0.5677
 6727SOL    HW231641   1.637   0.610  10.774  0.0603  1.2908 -0.8835
 6728SOL     OW31642   1.284   1.043  10.411 -0.2048  0.3692  0.1711
 6728SOL    HW131643   1.193   1.073  10.400 -0.2839 -0.3771 -1.2848
 6728SOL    HW231644   1.329   1.118  10.450  0.5940  0.3441 -0.7007
 6729SOL     OW31645   0.185   3.068   9.104 -0.0593  0.1927  0.8090
 6729SOL    HW131646   0.183   3.119   9.184 -0.0748  1.3106  0.0918
 6729SOL    HW231647   0.242   3.118   9.046 -0.3910  0.8608  1.0654
 6730SOL     OW31648   3.394   1.678   2.259  0.2691 -0.0168  0.0911
 6730SOL    HW131649   3.480   1.641   2.241  0.7967  0.6668  1.1675
 6730SOL    HW231650   3.404   1.688   2.354 -3.3663  3.3245  0.1425
 6731SOL     OW31651   4.086   4.109   4.258  0.5530 -0.4228  0.2540
 6731SOL    HW131652   4.171   4.120   4.301  0.9007 -2.5071  0.0800
 6731SOL    HW231653   4.113   4.135   4.170 -0.3399 -3.0608 -0.8034
 6732SOL     OW31654   2.177   0.599   7.699 -0.7082 -0.2979 -0.4344
 6732SOL    HW131655   2.256   0.651   7.717 -0.9832 -0.4185  1.0884
 6732SOL    HW231656   2.201   0.563   7.613 -0.3918 -0.1916 -0.3928
 6733SOL     OW31657   1.103   0.921  16.193 -0.0674 -0.3658  0.4383
 6733SOL    HW131658   1.047   0.893  16.265 -0.5684 -0.1779  0.1267
 6733SOL    HW231659   1.069   0.861  16.126 -1.5370  0.1061  0.7580
 6734SOL     OW31660   3.719   2.150   6.431  0.3618  0.8460  0.1911
 6734SOL    HW131661   3.715   2.055   6.427 -3.9951  1.0665 -0.1991
 6734SOL    HW231662   3.632   2.178   6.403  1.1623  1.8895 -1.2736
 6735SOL     OW31663   2.372   0.901   3.405  0.7926 -0.7279  0.3246
 6735SOL    HW131664   2.378   0.805   3.411 -1.6335 -0.8521  1.0319
 6735SOL    HW231665   2.279   0.917   3.422  1.2737  2.5650 -0.1847
 6736SOL     OW31666   3.035   2.337   6.468 -0.5367 -0.2865  0.3367
 6736SOL    HW131667   2.990   2.291   6.539  1.8693  1.8093  3.2121
 6736SOL    HW231668   2.989   2.299   6.393 -1.8708  1.3807  0.3189
 6737SOL     OW31669   3.972   2.708  15.528 -0.2955  1.3227 -0.1237
 6737SOL    HW131670   3.969   2.764  15.451  2.2318  0.9065 -0.5408
 6737SOL    HW231671   3.893   2.658  15.510  0.4235 -0.1409  0.6825
 6738SOL     OW31672   1.454   0.669  10.484  0.1136  0.0525  0.6336
 6738SOL    HW131673   1.488   0.631  10.564  0.3133 -0.0467  0.5029
 6738SOL    HW231674   1.378   0.724  10.506  1.0469  2.3197 -1.7507
 6739SOL     OW31675   2.645   4.171   8.429  0.1003  0.2118 -0.2068
 6739SOL    HW131676   2.734   4.196   8.455 -0.8091 -0.7891  3.8237
 6739SOL    HW231677   2.610   4.143   8.513 -2.5228  0.4082 -1.2177
 6740SOL     OW31678   2.420   4.330   5.549  0.2052 -0.1464  0.7315
 6740SOL    HW131679   2.358   4.313   5.477  2.0122 -3.1822 -0.1071
 6740SOL    HW231680   2.439   4.423   5.539 -0.5409 -0.3530 -2.7964
 6741SOL     OW31681   0.483   4.435  12.813 -0.1786 -0.0502  0.0812
 6741SOL    HW131682   0.397   4.444  12.773  0.2935 -0.0392 -0.9388
 6741SOL    HW231683   0.526   4.519  12.799 -2.1976  0.8126 -0.9407
 6742SOL     OW31684   1.692   1.044   8.775 -0.4614 -0.6948  0.2471
 6742SOL    HW131685   1.730   0.980   8.715 -1.2234 -2.0002  1.1527
 6742SOL    HW231686   1.761   1.109   8.794  0.4677 -2.2139  2.1075
 6743SOL     OW31687   1.292   3.735  10.954  0.2445  0.0600 -0.1467
 6743SOL    HW131688   1.209   3.691  10.935  0.5107 -0.8852  0.8804
 6743SOL    HW231689   1.274   3.814  10.903  0.4178 -0.0694 -0.4074
 6744SOL     OW31690   0.057   0.381  13.094  0.2806  0.6655 -0.3989
 6744SOL    HW131691   0.053   0.286  13.101  3.9443  0.4683 -1.1220
 6744SOL    HW231692   0.056   0.398  13.188  2.4368 -0.2892 -0.2122
 6745SOL     OW31693   3.741   4.194   8.537 -0.5380  0.2496 -0.6004
 6745SOL    HW131694   3.738   4.110   8.491  0.3620  1.0268 -2.0801
 6745SOL    HW231695   3.673   4.183   8.604 -1.1631 -0.7044 -1.3938
 6746SOL     OW31696   1.729   2.123   0.140  0.6057  0.0402  0.6924
 6746SOL    HW131697   1.766   2.050   0.189 -0.6021  0.8069  2.7186
 6746SOL    HW231698   1.650   2.151   0.187  0.0117  2.2025 -1.5726
 6747SOL     OW31699   1.413   3.514   6.851  0.1761  0.5205 -0.3396
 6747SOL    HW131700   1.494   3.465   6.839  1.5589  2.6716  0.3721
 6747SOL    HW231701   1.409   3.518   6.946  0.7818 -0.4006 -0.2770
 6748SOL     OW31702   3.149   2.154   5.608 -0.2042 -0.4536 -0.6730
 6748SOL    HW131703   3.145   2.146   5.703 -1.2892 -1.6555 -0.8157
 6748SOL    HW231704   3.235   2.118   5.586  0.2669  0.5755 -0.5301
 6749SOL     OW31705   4.402   2.942   7.585 -0.4384  0.1289 -0.1561
 6749SOL    HW131706   4.390   2.885   7.661 -1.9764  0.0612 -0.4501
 6749SOL    HW231707   4.312   2.968   7.564 -0.1114  0.0152 -1.6820
 6750SOL     OW31708   0.460   3.693   4.604 -0.0631 -0.2457 -0.3078
 6750SOL    HW131709   0.435   3.624   4.665 -0.3072  1.1976  1.2069
 6750SOL    HW231710   0.553   3.697   4.625 -0.7939 -0.2425  2.9467
 6751SOL     OW31711   1.706   4.338   6.899 -0.0351 -0.2443 -0.3306
 6751SOL    HW131712   1.756   4.264   6.932  1.4083  0.0074 -1.9656
 6751SOL    HW231713   1.717   4.399   6.972 -0.0139 -1.8868  1.0466
 6752SOL     OW31714   1.824   0.811   7.972  0.3147  0.5044 -0.2807
 6752SOL    HW131715   1.842   0.718   7.988  2.2680  1.3482  2.4127
 6752SOL    HW231716   1.888   0.838   7.906  0.3962  1.1506  0.0714
 6753SOL     OW31717   0.496   1.108   4.637  0.2093 -0.0546  0.0599
 6753SOL    HW131718   0.503   1.084   4.544  1.3466  0.2162  0.0680
 6753SOL    HW231719   0.403   1.131   4.638 -0.3025 -1.8309 -3.6368
 6754SOL     OW31720   1.613   4.056  10.592 -0.5962  0.2756  0.7303
 6754SOL    HW131721   1.588   4.028  10.680 -1.2217  0.6034  0.6546
 6754SOL    HW231722   1.681   4.124  10.596  0.5555 -0.8738  0.7610
 6755SOL     OW31723   4.027   0.669   7.323  0.0421  0.3229  0.5034
 6755SOL    HW131724   3.990   0.661   7.235  0.5074  0.1148  0.3267
 6755SOL    HW231725   4.073   0.753   7.322 -3.2945  2.1927  1.5971
 6756SOL     OW31726   4.073   3.543   9.145 -0.6480 -0.2394 -0.3446
 6756SOL    HW131727   4.082   3.507   9.057  0.9195  1.0746 -0.7210
 6756SOL    HW231728   4.126   3.484   9.198 -1.5284  0.3819  1.2275
 6757SOL     OW31729   3.906   0.893  11.732  0.6432 -0.2325  0.3638
 6757SOL    HW131730   3.848   0.903  11.807  0.4132 -1.9287  0.4002
 6757SOL    HW231731   3.985   0.933  11.768  0.2474  0.6850  0.2090
 6758SOL     OW31732   4.677   1.158   0.475  0.1840 -0.1489 -0.1753
 6758SOL    HW131733   4.594   1.200   0.452  0.2828 -0.5178 -1.1826
 6758SOL    HW231734   4.658   1.107   0.554  0.9053 -2.1999 -1.3539
 6759SOL     OW31735   0.218   1.132   4.610 -0.2944 -0.1948  1.1053
 6759SOL    HW131736   0.217   1.073   4.534  0.6419  0.2792  0.7177
 6759SOL    HW231737   0.157   1.197   4.577  0.6402  0.5063  0.7700
 6760SOL     OW31738   1.029   0.174  10.404 -0.2464 -0.0925  0.4175
 6760SOL    HW131739   1.031   0.238  10.475 -1.3708 -0.8504  1.1289
 6760SOL    HW231740   0.969   0.216  10.343  0.5750 -1.3952 -1.2997
 6761SOL     OW31741   0.109   3.487   1.657 -0.0417  0.0536 -0.2046
 6761SOL    HW131742   0.109   3.506   1.751 -1.7129 -0.0088 -0.1936
 6761SOL    HW231743   0.030   3.536   1.633  0.7960  1.1066 -0.8096
 6762SOL     OW31744   1.604   1.479  10.229  0.0744 -0.2125 -0.1045
 6762SOL    HW131745   1.643   1.393  10.214 -1.0198 -0.5676 -0.9011
 6762SOL    HW231746   1.518   1.457  10.263 -0.8454  3.3761 -0.1127
 6763SOL     OW31747   3.712   0.365   6.892 -0.1031  0.7231  0.2941
 6763SOL    HW131748   3.764   0.290   6.920  0.9901  1.2473 -0.3084
 6763SOL    HW231749   3.772   0.440   6.890  1.5354 -0.5947  0.5454
 6764SOL     OW31750   1.263   3.748   7.637  0.0708  0.0790 -0.1125
 6764SOL    HW131751   1.174   3.764   7.669 -0.4516 -2.4794 -0.2740
 6764SOL    HW231752   1.269   3.825   7.581 -0.1172 -0.3627 -0.7437
 6765SOL     OW31753   0.412   1.625  10.869  0.5555 -0.0773  0.4432
 6765SOL    HW131754   0.468   1.679  10.924 -0.4179  0.4857  0.8808
 6765SOL    HW231755   0.395   1.690  10.801 -1.0699 -0.9349 -0.0007
 6766SOL     OW31756   3.310   4.093   7.188  0.1256 -0.0115  0.4082
 6766SOL    HW131757   3.317   4.167   7.128  0.8413  0.9315  1.6541
 6766SOL    HW231758   3.238   4.039   7.155 -0.5331  0.2757  1.4011
 6767SOL     OW31759   0.665   0.449   1.401 -0.5545 -0.3646  0.4536
 6767SOL    HW131760   0.648   0.398   1.322 -1.9018  0.1175  0.4287
 6767SOL    HW231761   0.744   0.398   1.421  0.2017  0.4408 -0.5295
 6768SOL     OW31762   0.274   3.184   6.864  0.4210  0.3274  0.4384
 6768SOL    HW131763   0.288   3.258   6.805  1.7155  1.2342  1.8782
 6768SOL    HW231764   0.200   3.211   6.918 -0.0434 -0.6855  0.3130
 6769SOL     OW31765   0.974   3.257   5.835 -0.7507 -0.3519  0.3440
 6769SOL    HW131766   0.883   3.227   5.835 -1.2977  1.3538  1.4174
 6769SOL    HW231767   1.017   3.171   5.839  2.5478  1.2797 -0.7611
 6770SOL     OW31768   3.484   4.306  11.717 -0.2283 -0.2545  0.1391
 6770SOL    HW131769   3.572   4.344  11.718  0.7031 -2.3704 -0.1522
 6770SOL    HW231770   3.466   4.302  11.623 -1.4550  1.5720  0.3038
 6771SOL     OW31771   2.208   1.305   2.092 -0.2909 -0.7601  0.1078
 6771SOL    HW131772   2.249   1.288   2.176 -1.2380  1.4449  1.0157
 6771SOL    HW231773   2.281   1.283   2.035 -0.7100 -0.9480 -0.3647
 6772SOL     OW31774   4.518   4.704   5.485 -0.7222 -0.2136  0.0961
 6772SOL    HW131775   4.515   4.608   5.476 -2.1340  0.1031 -2.6645
 6772SOL    HW231776   4.517   0.018   5.397  0.6330 -0.0954  0.1262
 6773SOL     OW31777   4.476   4.563   7.677  0.1690 -0.0528  0.1744
 6773SOL    HW131778   4.528   4.633   7.638  0.4034  0.9729  2.3195
 6773SOL    HW231779   4.519   4.570   7.762 -1.2355  2.0640  0.6922
 6774SOL     OW31780   3.579   1.198  12.652  0.7800 -0.3001  0.4456
 6774SOL    HW131781   3.563   1.139  12.726 -1.8406 -1.3089 -0.9316
 6774SOL    HW231782   3.511   1.262  12.672  0.1789  0.0804 -2.7725
 6775SOL     OW31783   3.452   3.808  12.126  0.1021 -0.2120 -0.4239
 6775SOL    HW131784   3.426   3.791  12.035  1.2825 -2.6762 -0.3062
 6775SOL    HW231785   3.495   3.891  12.106 -0.9732  0.4327 -0.0087
 6776SOL     OW31786   1.370   4.206  14.249  0.4556  0.2171 -0.5932
 6776SOL    HW131787   1.275   4.194  14.247  0.4468 -0.0136  0.8776
 6776SOL    HW231788   1.400   4.123  14.284 -0.6285  0.3919  0.7687
 6777SOL     OW31789   4.205   1.964  14.948  0.4692  0.0198 -0.4143
 6777SOL    HW131790   4.155   2.044  14.932  1.3176  0.7295  0.5199
 6777SOL    HW231791   4.131   1.903  14.952 -0.6400  1.1839 -2.7990
 6778SOL     OW31792   2.391   2.395   2.939 -0.1374 -0.9849  0.4756
 6778SOL    HW131793   2.413   2.317   2.991 -1.9567 -0.1913  2.4106
 6778SOL    HW231794   2.357   2.450   3.009  0.6400  1.3909 -1.0178
 6779SOL     OW31795   3.827   0.028   3.881 -0.0784 -0.0483 -0.3074
 6779SOL    HW131796   3.915   0.059   3.860  0.6754 -1.4500  0.7212
 6779SOL    HW231797   3.818   0.060   3.970  2.3034  0.9597 -0.4268
 6780SOL     OW31798   3.147   0.557   6.141  0.6898 -0.4955 -0.2349
 6780SOL    HW131799   3.141   0.527   6.050  0.4482 -2.4290  0.4263
 6780SOL    HW231800   3.093   0.486   6.176 -0.3945  1.1151  1.3408
 6781SOL     OW31801   0.222   3.274  15.538  0.0775 -0.1277 -0.1882
 6781SOL    HW131802   0.149   3.260  15.598 -0.0382 -1.3740 -0.6253
 6781SOL    HW231803   0.168   3.307  15.467  0.9915  1.9712  0.0969
 6782SOL     OW31804   0.957   2.448   0.987  0.4442  0.6332 -0.8514
 6782SOL    HW131805   0.976   2.514   0.921  3.6812  0.0306 -0.5087
 6782SOL    HW231806   1.044   2.409   1.000  0.3550  0.9147  0.5769
 6783SOL     OW31807   3.341   0.715  11.074  0.0372  0.5702 -0.3760
 6783SOL    HW131808   3.429   0.713  11.112 -0.0000 -1.8537 -0.4029
 6783SOL    HW231809   3.287   0.748  11.146  1.6090  0.0639  1.0643
 6784SOL     OW31810   1.764   2.892   3.208 -0.1541  0.0975 -0.0989
 6784SOL    HW131811   1.676   2.892   3.245 -0.5379 -1.8397 -1.0241
 6784SOL    HW231812   1.807   2.818   3.251  1.0590  0.7020 -0.2461
 6785SOL     OW31813   2.091   2.144  10.750  0.0289 -0.3136  0.1552
 6785SOL    HW131814   2.033   2.218  10.734 -0.7061 -0.9530 -0.1782
 6785SOL    HW231815   2.073   2.133  10.843  0.4347  2.5719  0.5579
 6786SOL     OW31816   2.229   1.987   3.851 -0.0284 -0.8195 -0.4796
 6786SOL    HW131817   2.199   1.903   3.886  0.4548 -1.1250 -0.8033
 6786SOL    HW231818   2.267   2.032   3.927  0.8597  0.9062 -1.9440
 6787SOL     OW31819   2.746   1.616  17.028  0.1139 -0.0217  0.5158
 6787SOL    HW131820   2.814   1.568  16.979 -1.0091  0.2285 -1.2634
 6787SOL    HW231821   2.800   1.676  17.079  0.8371 -0.6784  0.5243
 6788SOL     OW31822   3.392   0.002   8.786  0.4913 -0.1936 -0.3239
 6788SOL    HW131823   3.333   0.006   8.861  0.6701 -0.7595 -0.1534
 6788SOL    HW231824   3.342   4.677   8.721 -1.0129  2.3683 -1.0908
 6789SOL     OW31825   1.527   1.066   7.850  0.1745  0.0499 -0.7082
 6789SOL    HW131826   1.525   1.161   7.844 -1.0750  0.0651 -0.1894
 6789SOL    HW231827   1.582   1.049   7.927 -0.6797 -1.5664 -0.4526
 6790SOL     OW31828   0.596   2.664  11.527 -0.7605 -0.4629  0.7196
 6790SOL    HW131829   0.599   2.610  11.448 -1.3385  1.5916 -0.7071
 6790SOL    HW231830   0.580   2.747  11.482  0.0744 -0.6324  0.1082
 6791SOL     OW31831   3.580   3.568   3.908  0.1026 -0.1034 -0.4914
 6791SOL    HW131832   3.627   3.525   3.836 -1.4715 -1.4750 -0.7193
 6791SOL    HW231833   3.487   3.574   3.887  0.0339  1.0572  0.1727
 6792SOL     OW31834   1.990   0.686   9.003  0.4269 -0.1259  0.1703
 6792SOL    HW131835   1.939   0.766   8.994  0.4551  0.0475  1.4973
 6792SOL    HW231836   1.916   0.632   8.977 -1.5424  1.8363  1.6775
 6793SOL     OW31837   3.402   1.255   7.249 -0.2785 -0.6548 -0.1647
 6793SOL    HW131838   3.443   1.192   7.189  0.7998  0.6848 -0.8507
 6793SOL    HW231839   3.376   1.316   7.180  0.8880 -0.2714 -0.2782
 6794SOL     OW31840   4.106   1.869   8.352  0.6892  0.1767 -0.5306
 6794SOL    HW131841   4.126   1.935   8.286 -0.5271  1.8211  0.7632
 6794SOL    HW231842   4.060   1.914   8.423 -0.8487 -1.7060 -0.3255
 6795SOL     OW31843   2.925   1.823   1.015  0.1697  0.6180  0.3249
 6795SOL    HW131844   2.905   1.874   1.093 -0.3751  0.9281 -0.0133
 6795SOL    HW231845   2.841   1.787   0.987  0.7027 -0.5087  0.1836
 6796SOL     OW31846   0.276   4.053   6.053  1.1765 -0.2337  0.1667
 6796SOL    HW131847   0.223   3.992   6.105 -0.4243  0.6019 -0.4591
 6796SOL    HW231848   0.213   4.097   5.995  1.1178  1.0114  1.1749
 6797SOL     OW31849   1.100   0.776   9.295 -0.3525 -0.2176 -0.0512
 6797SOL    HW131850   1.175   0.822   9.256  1.5743 -3.1456  0.2379
 6797SOL    HW231851   1.027   0.814   9.247  1.0492  2.6503  0.0903
 6798SOL     OW31852   3.612   1.017  12.314 -0.1579 -0.1106  0.2843
 6798SOL    HW131853   3.631   1.081  12.246 -2.5710 -0.4398 -0.6824
 6798SOL    HW231854   3.599   0.935  12.265 -2.9540  0.7636 -0.4596
 6799SOL     OW31855   3.475   1.309  11.151 -0.0153  0.3702  0.0909
 6799SOL    HW131856   3.546   1.252  11.123  0.2066 -0.7932  2.9863
 6799SOL    HW231857   3.450   1.262  11.231 -0.5190  0.0829 -0.2347
 6800SOL     OW31858   3.413   3.263   5.168 -0.1535  0.1858 -0.7208
 6800SOL    HW131859   3.499   3.281   5.131  0.2413  2.0670  1.0915
 6800SOL    HW231860   3.371   3.346   5.141  0.6344  1.3730  1.7145
 6801SOL     OW31861   1.722   2.498  14.030 -0.1504 -0.2491 -0.1325
 6801SOL    HW131862   1.651   2.457  14.080  1.1268 -0.1593  1.7554
 6801SOL    HW231863   1.710   2.587  14.063 -0.1758 -0.8171  1.3657
 6802SOL     OW31864   2.142   2.861   6.479  0.2954  0.0886  0.6719
 6802SOL    HW131865   2.179   2.936   6.526  1.4288  1.9415 -3.2182
 6802SOL    HW231866   2.205   2.799   6.513 -0.9816 -1.7667 -0.3600
 6803SOL     OW31867   1.629   3.458  17.089 -0.5230 -0.1962  0.0781
 6803SOL    HW131868   1.635   3.544  17.048 -0.9146 -0.4897 -0.5952
 6803SOL    HW231869   1.572   3.477  17.164  0.3344  1.3830  0.3282
 6804SOL     OW31870   0.030   2.192  13.734  0.0121 -0.1439 -0.3495
 6804SOL    HW131871   0.126   2.202  13.734 -0.1890  1.7612 -2.7380
 6804SOL    HW231872   0.006   2.248  13.808  1.4654 -1.5268  1.1592
 6805SOL     OW31873   3.289   2.604  14.105 -0.0536 -0.6951  0.1309
 6805SOL    HW131874   3.272   2.698  14.114 -1.7346 -0.9612 -0.4211
 6805SOL    HW231875   3.208   2.574  14.145 -0.7238  1.1733  0.1869
 6806SOL     OW31876   2.824   4.069   2.832 -0.1832 -0.2108 -0.0902
 6806SOL    HW131877   2.869   4.139   2.785 -0.7144  0.8256  0.9727
 6806SOL    HW231878   2.842   4.087   2.924 -1.3031  2.4716 -0.4084
 6807SOL     OW31879   1.521   2.719   6.511 -0.0283  0.1592 -0.7003
 6807SOL    HW131880   1.455   2.655   6.538  0.0229 -0.5206 -2.2313
 6807SOL    HW231881   1.504   2.795   6.568 -2.1309  0.1691 -1.3550
 6808SOL     OW31882   1.648   2.932   6.220 -0.0802  0.4407 -0.4452
 6808SOL    HW131883   1.647   2.840   6.248  0.5428  0.4773 -0.3249
 6808SOL    HW231884   1.655   2.974   6.306  2.5374 -4.1685  1.6135
 6809SOL     OW31885   0.957   3.861  10.949 -0.0661 -0.3913  0.5079
 6809SOL    HW131886   0.996   3.775  10.930 -3.0651 -1.2883 -1.5740
 6809SOL    HW231887   0.868   3.849  10.916 -0.4243  2.3800  0.4926
 6810SOL     OW31888   0.924   1.544   8.200 -0.4208 -0.0071 -0.5728
 6810SOL    HW131889   0.921   1.552   8.104 -0.8032  0.2980 -0.5351
 6810SOL    HW231890   0.913   1.449   8.199  0.8179 -0.1636  0.8126
 6811SOL     OW31891   0.787   1.343   8.775 -0.2408 -0.0307  0.3954
 6811SOL    HW131892   0.821   1.329   8.687  0.1785 -1.7506  0.8339
 6811SOL    HW231893   0.862   1.328   8.832 -1.9302 -0.3861  2.5152
 6812SOL     OW31894   2.136   3.831   5.273  0.1247 -0.0458 -0.5157
 6812SOL    HW131895   2.077   3.857   5.345  0.1748 -0.7068 -0.2380
 6812SOL    HW231896   2.202   3.769   5.305 -1.0568 -0.9662  0.1468
 6813SOL     OW31897   2.511   2.916   1.966  0.0798 -0.1104  0.3068
 6813SOL    HW131898   2.509   2.999   2.013  2.1119  0.2838 -0.2789
 6813SOL    HW231899   2.568   2.928   1.890 -0.3433  2.0706  0.3449
 6814SOL     OW31900   3.283   0.005   2.766 -0.1857 -0.0146 -0.4212
 6814SOL    HW131901   3.233   0.087   2.769 -1.0556 -0.5854  1.0625
 6814SOL    HW231902   3.356   0.013   2.827 -0.2432 -2.2701 -0.0451
 6815SOL     OW31903   0.650   3.990  11.651 -0.8865 -0.1418 -0.3490
 6815SOL    HW131904   0.705   4.056  11.694  1.0300 -0.8393 -1.7520
 6815SOL    HW231905   0.718   3.928  11.623  0.1522  0.7448  0.1642
 6816SOL     OW31906   4.065   0.507   7.012 -0.2716 -0.6697  0.0691
 6816SOL    HW131907   4.107   0.587   7.043 -1.5667 -0.4021  1.1096
 6816SOL    HW231908   4.103   0.494   6.925 -0.8170 -1.0815 -0.1090
 6817SOL     OW31909   2.105   2.801   2.373  0.1229 -0.0325 -0.4784
 6817SOL    HW131910   2.109   2.724   2.316  0.2285 -2.3540  2.6674
 6817SOL    HW231911   2.161   2.861   2.323  1.6737 -0.6891  0.4864
 6818SOL     OW31912   2.378   4.193   1.252  0.0139 -0.3967  0.0659
 6818SOL    HW131913   2.411   4.199   1.163  0.9627  1.9173  0.5629
 6818SOL    HW231914   2.358   4.286   1.262 -2.5699 -0.7934 -1.4062
 6819SOL     OW31915   2.031   4.082   2.198 -0.5755 -0.1671 -0.2482
 6819SOL    HW131916   1.949   4.062   2.154 -0.5610  2.7683 -1.6098
 6819SOL    HW231917   2.061   3.995   2.225 -1.4141 -0.2804  0.3069
 6820SOL     OW31918   2.825   4.011   1.906 -0.0101 -0.3790 -0.0091
 6820SOL    HW131919   2.771   4.033   1.831  1.1907  2.2150 -0.0909
 6820SOL    HW231920   2.862   4.099   1.912 -1.5722  0.2928 -0.4378
 6821SOL     OW31921   0.916   2.361   5.294 -0.1472  0.2246 -0.5609
 6821SOL    HW131922   0.984   2.377   5.359 -0.2998  0.1059 -0.3739
 6821SOL    HW231923   0.968   2.353   5.214  0.7628  0.5472  0.0068
 6822SOL     OW31924   3.302   2.035  13.710  0.0238  0.1449  0.1465
 6822SOL    HW131925   3.391   2.063  13.730  1.0746 -1.3832 -2.3418
 6822SOL    HW231926   3.275   2.107  13.653 -1.3711 -0.2455  0.3251
 6823SOL     OW31927   3.491   4.459   8.514 -0.2283  0.0149 -0.3204
 6823SOL    HW131928   3.413   4.506   8.544  0.5196  1.4292 -0.5760
 6823SOL    HW231929   3.465   4.454   8.422 -1.0951  1.4588 -0.1630
 6824SOL     OW31930   4.115   3.656   1.527 -0.1475 -0.2848 -0.3299
 6824SOL    HW131931   4.114   3.732   1.585  2.7132 -2.1755  2.2106
 6824SOL    HW231932   4.170   3.593   1.573 -0.4001 -0.6115 -0.4775
 6825SOL     OW31933   1.190   0.079   3.634  0.3221  0.5256 -0.0525
 6825SOL    HW131934   1.276   0.105   3.667  0.0376 -0.5235  1.4974
 6825SOL    HW231935   1.140   0.151   3.674 -0.7830  0.8707 -2.0587
 6826SOL     OW31936   1.001   2.326  15.128  0.5045 -0.1465  0.5342
 6826SOL    HW131937   0.956   2.289  15.052 -1.3897  0.9053  1.1401
 6826SOL    HW231938   0.921   2.350  15.176  0.5099  1.2359 -0.1430
 6827SOL     OW31939   2.482   3.552   8.826  0.0567  0.2498 -0.4698
 6827SOL    HW131940   2.574   3.554   8.852 -0.9978  0.8136  3.2510
 6827SOL    HW231941   2.455   3.470   8.867 -1.1104  0.7815 -0.1640
 6828SOL     OW31942   1.778   1.662   6.219 -0.2503 -0.5173  0.2512
 6828SOL    HW131943   1.813   1.639   6.133  1.8208 -1.3073  1.3016
 6828SOL    HW231944   1.686   1.671   6.195  0.3596 -2.3882 -2.7373
 6829SOL     OW31945   4.284   3.203  16.493  0.0879  0.2198 -0.0271
 6829SOL    HW131946   4.347   3.256  16.443 -0.6681 -1.7746 -3.1288
 6829SOL    HW231947   4.340   3.132  16.522  1.1021  2.1099  2.6191
 6830SOL     OW31948   3.574   2.367  13.740 -0.1039  0.2395 -0.0500
 6830SOL    HW131949   3.599   2.279  13.770 -0.6059  0.1418  0.0742
 6830SOL    HW231950   3.482   2.367  13.766 -0.7762 -1.2858 -2.4948
 6831SOL     OW31951   0.304   0.999  15.807  0.1895  0.1516 -0.2668
 6831SOL    HW131952   0.210   1.017  15.810  0.5854  2.3334 -1.2557
 6831SOL    HW231953   0.298   0.904  15.809  1.0467  0.1016  0.1544
 6832SOL     OW31954   2.227   1.380   8.591  0.1947 -0.0028 -0.2040
 6832SOL    HW131955   2.321   1.391   8.601  0.2390  0.9333 -1.6795
 6832SOL    HW231956   2.208   1.436   8.516 -0.4431  0.6191  0.4154
 6833SOL     OW31957   3.841   3.332  14.961  0.3007  0.1049  0.6869
 6833SOL    HW131958   3.792   3.344  14.879  1.2018 -0.8489  0.0072
 6833SOL    HW231959   3.776   3.276  15.003 -1.5644  1.4454 -0.3413
 6834SOL     OW31960   3.329   2.940   5.460  0.0795 -0.3846 -0.4033
 6834SOL    HW131961   3.382   2.866   5.430  1.7849  1.0163 -0.8419
 6834SOL    HW231962   3.272   2.891   5.519  1.7909 -3.1356 -1.0345
 6835SOL     OW31963   2.472   3.990   7.898  0.1215  0.3481 -0.2021
 6835SOL    HW131964   2.440   4.050   7.966 -0.0781  0.0108  0.0033
 6835SOL    HW231965   2.561   3.967   7.925 -0.4305 -0.9249  0.5474
 6836SOL     OW31966   4.447   3.791  11.201 -0.5531  0.0934  0.1322
 6836SOL    HW131967   4.540   3.790  11.221 -0.0519 -0.0394 -2.1168
 6836SOL    HW231968   4.461   3.743  11.119  0.3608  0.4607  0.0698
 6837SOL     OW31969   3.128   1.835   2.231 -0.0665  0.1396  0.0935
 6837SOL    HW131970   3.067   1.900   2.197 -1.6133 -0.7656  1.1709
 6837SOL    HW231971   3.191   1.832   2.159  2.5977  0.7477  2.3789
 6838SOL     OW31972   2.754   1.575  15.840 -0.1004  0.3075 -0.4176
 6838SOL    HW131973   2.683   1.545  15.784 -0.0101 -1.3525  0.3727
 6838SOL    HW231974   2.730   1.667  15.853  0.9114  0.2914  1.6504
 6839SOL     OW31975   0.723   3.914   1.714 -0.1397  0.2840 -0.3322
 6839SOL    HW131976   0.760   3.961   1.790  0.7810 -1.6352  0.3962
 6839SOL    HW231977   0.761   3.960   1.639 -0.1577  1.5080  0.3993
 6840SOL     OW31978   1.117   2.282   2.375  0.1091 -0.0772  0.4053
 6840SOL    HW131979   1.210   2.303   2.384  0.1736 -0.0309 -0.3911
 6840SOL    HW231980   1.120   2.191   2.348 -0.5245  0.2316 -0.7103
 6841SOL     OW31981   2.669   2.125   5.694 -0.2279  0.2408  0.2424
 6841SOL    HW131982   2.613   2.082   5.758  0.6288 -0.6855  0.3523
 6841SOL    HW231983   2.721   2.053   5.659  0.9822  0.6092  1.3223
 6842SOL     OW31984   4.480   2.703   3.024  0.3233 -0.2209 -0.0161
 6842SOL    HW131985   4.574   2.688   3.014  0.4075  0.8601 -0.8068
 6842SOL    HW231986   4.447   2.698   2.935  0.8707  0.6136 -0.2674
 6843SOL     OW31987   1.283   2.364   5.729  0.4865  0.0974 -0.0902
 6843SOL    HW131988   1.313   2.279   5.697 -2.1142 -1.1148  0.7111
 6843SOL    HW231989   1.369   2.395   5.758  0.2860  2.2618 -1.7949
 6844SOL     OW31990   2.337   2.101   7.345 -0.2052 -0.0187 -0.5398
 6844SOL    HW131991   2.269   2.137   7.402  0.5317 -1.5024  1.2504
 6844SOL    HW231992   2.285   2.103   7.264 -1.9665  1.1801  0.6066
 6845SOL     OW31993   4.042   2.778  16.802  0.0557 -0.2284 -0.1371
 6845SOL    HW131994   3.958   2.812  16.771 -0.9334 -2.7177 -0.1160
 6845SOL    HW231995   4.024   2.777  16.896  0.4449  2.6203 -0.0251
 6846SOL     OW31996   4.185   1.893   4.669  0.0568 -1.1648 -0.1359
 6846SOL    HW131997   4.180   1.801   4.694  1.7599 -1.3034 -0.3113
 6846SOL    HW231998   4.193   1.930   4.757 -0.9535 -0.7561 -0.2161
 6847SOL     OW31999   4.313   1.296   1.028 -0.3817 -0.0668  0.1575
 6847SOL    HW132000   4.254   1.255   0.965 -0.8572  2.0143 -0.7484
 6847SOL    HW232001   4.249   1.362   1.052 -2.9580 -2.4253 -0.1973
 6848SOL     OW32002   1.786   3.120   4.907 -0.7958 -0.0016  0.2922
 6848SOL    HW132003   1.782   3.203   4.955  1.0240  0.7073 -0.7419
 6848SOL    HW232004   1.859   3.084   4.956 -0.4901  0.5880  0.2676
 6849SOL     OW32005   4.197   3.521   6.945  0.5614  0.2842  0.0645
 6849SOL    HW132006   4.286   3.555   6.954  0.7585 -0.1018 -0.4108
 6849SOL    HW232007   4.162   3.534   7.033  1.0194  0.4880  0.2162
 6850SOL     OW32008   4.168   1.803   1.235  0.1932 -0.0277  0.0719
 6850SOL    HW132009   4.074   1.805   1.251  0.2489 -1.8801  0.6292
 6850SOL    HW232010   4.193   1.768   1.321  0.7840 -0.3957 -0.2487
 6851SOL     OW32011   3.879   2.761  16.062 -0.6007  0.0883  0.3409
 6851SOL    HW132012   3.800   2.720  16.025  0.0702 -2.4937  1.7518
 6851SOL    HW232013   3.950   2.740  16.001 -0.8244 -0.0234  0.1184
 6852SOL     OW32014   4.343   1.034   6.442 -0.0581 -0.1802  0.1251
 6852SOL    HW132015   4.413   0.972   6.460  0.6213  0.4178 -0.4584
 6852SOL    HW232016   4.397   1.112   6.430 -2.6793  1.7770  0.8962
 6853SOL     OW32017   4.678   3.988   9.388  0.0770 -0.4504 -0.5681
 6853SOL    HW132018   4.603   4.003   9.330  0.6348 -2.3473 -1.8001
 6853SOL    HW232019   0.014   4.054   9.352 -0.7352  0.4751 -0.2037
 6854SOL     OW32020   1.783   3.748  13.472 -0.4368 -0.0094  0.4644
 6854SOL    HW132021   1.803   3.709  13.557  0.1364  2.4699  1.4801
 6854SOL    HW232022   1.740   3.672  13.434 -2.2622  2.0317 -1.5463
 6855SOL     OW32023   2.606   3.569   5.662  0.0298  0.2773 -0.3306
 6855SOL    HW132024   2.616   3.475   5.653 -0.9845  0.4900 -3.5717
 6855SOL    HW232025   2.540   3.579   5.731  1.0328 -0.1098  0.6851
 6856SOL     OW32026   1.467   1.811   1.812  0.1235 -0.5431  0.4538
 6856SOL    HW132027   1.430   1.828   1.725 -1.0120 -0.0757  1.0221
 6856SOL    HW232028   1.507   1.726   1.797 -0.7701 -0.9410  0.3278
 6857SOL     OW32029   3.438   4.382   2.328  0.1650 -0.3430 -1.1907
 6857SOL    HW132030   3.352   4.396   2.290  0.0676 -0.3349 -0.9644
 6857SOL    HW232031   3.484   4.329   2.262  0.6983 -2.8074  1.1441
 6858SOL     OW32032   0.342   0.284   3.060 -0.5680 -0.1284 -0.8287
 6858SOL    HW132033   0.377   0.352   3.117  1.2460  0.4066 -2.5446
 6858SOL    HW232034   0.421   0.273   3.006  1.1188 -0.3967  1.6872
 6859SOL     OW32035   4.007   2.321   3.273  0.2379  0.0051 -0.2139
 6859SOL    HW132036   4.041   2.403   3.237 -2.0609  1.2321  0.3348
 6859SOL    HW232037   3.955   2.291   3.199 -2.5362  2.8992  0.5452
 6860SOL     OW32038   1.773   0.467   7.776  0.2820  0.0308  0.3613
 6860SOL    HW132039   1.768   0.412   7.698 -0.0715  0.0020  0.4071
 6860SOL    HW232040   1.802   0.549   7.737  0.1693 -0.7058 -1.2612
 6861SOL     OW32041   2.419   2.826  13.064 -0.6837  0.1558  0.7829
 6861SOL    HW132042   2.444   2.874  13.143  0.9764  1.0404 -0.2900
 6861SOL    HW232043   2.492   2.763  13.068 -1.0714 -0.3452 -0.1017
 6862SOL     OW32044   1.242   2.127   7.365  0.0904 -0.6290 -0.6391
 6862SOL    HW132045   1.223   2.072   7.442 -0.7698  1.4595  0.6553
 6862SOL    HW232046   1.160   2.123   7.317 -0.5124  0.3124  0.2999
 6863SOL     OW32047   3.483   2.847   1.957  0.1026  0.1738 -0.0676
 6863SOL    HW132048   3.396   2.831   1.920 -0.0816  1.0555 -0.0158
 6863SOL    HW232049   3.538   2.771   1.937  0.8760  0.7842 -0.3045
 6864SOL     OW32050   3.857   0.577   4.161 -0.2122 -0.1147  0.4571
 6864SOL    HW132051   3.870   0.486   4.135 -2.1717  0.7075 -3.3611
 6864SOL    HW232052   3.920   0.621   4.103  0.6115 -0.4978  1.0517
 6865SOL     OW32053   4.002   3.737   7.043 -0.0315 -0.5395 -0.2525
 6865SOL    HW132054   4.089   3.757   7.077 -0.6570 -1.6477  2.0014
 6865SOL    HW232055   3.997   3.647   7.077 -1.2543 -1.5854 -3.1521
 6866SOL     OW32056   1.619   1.219   6.772  0.1148  0.5678 -0.2291
 6866SOL    HW132057   1.657   1.208   6.685 -0.8853  1.4672 -0.7803
 6866SOL    HW232058   1.570   1.301   6.777 -0.4163  0.2288  0.0480
 6867SOL     OW32059   1.769   0.678   1.985  0.2309 -0.3912 -0.2272
 6867SOL    HW132060   1.815   0.762   1.978 -1.0619  0.2940 -0.7003
 6867SOL    HW232061   1.840   0.618   1.966  1.1804  0.0194  2.0938
 6868SOL     OW32062   3.571   3.156   3.390 -0.4394  0.0105  0.6842
 6868SOL    HW132063   3.626   3.111   3.326 -4.4189 -0.6175 -2.3151
 6868SOL    HW232064   3.486   3.111   3.384 -0.3212 -0.2058  0.6197
 6869SOL     OW32065   2.025   1.649   2.910 -0.0217  0.0502 -0.3370
 6869SOL    HW132066   2.096   1.593   2.942  0.0498  0.0032 -0.5726
 6869SOL    HW232067   1.953   1.615   2.963  0.8202  0.6900  1.2193
 6870SOL     OW32068   1.339   0.148   7.583  0.0761  0.9626 -0.5360
 6870SOL    HW132069   1.274   0.119   7.646  0.5216  0.1710 -0.4306
 6870SOL    HW232070   1.356   0.239   7.608  2.4443 -0.0764  1.6357
 6871SOL     OW32071   3.242   3.409  13.290 -0.0398  0.2471 -0.0894
 6871SOL    HW132072   3.158   3.392  13.333  0.9375 -0.6521  1.5191
 6871SOL    HW232073   3.240   3.499  13.258 -1.1644 -0.8380 -2.9901
 6872SOL     OW32074   3.675   4.710   5.259  0.0578  0.0719  0.0120
 6872SOL    HW132075   3.720   0.013   5.180 -0.0705  1.4702  0.4179
 6872SOL    HW232076   3.721   4.627   5.266 -0.4844 -0.4805 -3.1850
 6873SOL     OW32077   0.386   3.637   2.800 -0.1125  0.4904  0.1030
 6873SOL    HW132078   0.438   3.574   2.751  1.4411  1.6888  0.2522
 6873SOL    HW232079   0.457   3.674   2.852  0.1344  1.9891 -1.3340
 6874SOL     OW32080   3.742   4.516   8.333 -0.2644  0.3183 -0.2186
 6874SOL    HW132081   3.680   4.460   8.380 -0.2392  0.1763 -0.3564
 6874SOL    HW232082   3.751   4.479   8.245 -2.4957 -1.2011  0.1988
 6875SOL     OW32083   1.965   0.526   6.726  0.0748  0.1897 -0.2032
 6875SOL    HW132084   1.930   0.604   6.681  1.0044  0.9991  0.4643
 6875SOL    HW232085   1.914   0.458   6.683 -0.7953  0.1205  0.9562
 6876SOL     OW32086   2.850   2.091   3.190 -0.2720 -0.1265  0.6062
 6876SOL    HW132087   2.774   2.039   3.163 -1.8247  1.8160  1.2232
 6876SOL    HW232088   2.901   2.025   3.238  3.4257 -0.8547 -4.3566
 6877SOL     OW32089   0.544   0.814   0.401  0.0811 -0.3109  0.1423
 6877SOL    HW132090   0.592   0.746   0.449 -1.4612 -1.9479 -0.6407
 6877SOL    HW232091   0.565   0.790   0.311 -1.1139  0.1750 -0.2677
 6878SOL     OW32092   3.526   4.571   0.141  0.7003 -0.3340 -0.3732
 6878SOL    HW132093   3.610   4.543   0.178 -0.3583 -0.0174  2.1831
 6878SOL    HW232094   3.510   4.649   0.194 -1.0577 -1.3208  0.5011
 6879SOL     OW32095   3.777   0.673   8.056 -0.4261 -0.2136  0.2553
 6879SOL    HW132096   3.702   0.704   8.106  0.7730 -1.2900  2.7407
 6879SOL    HW232097   3.802   0.591   8.098  0.6923  0.4010  0.8033
 6880SOL     OW32098   0.725   1.302   9.981 -0.7701 -0.3102 -0.0240
 6880SOL    HW132099   0.718   1.327   9.888 -0.6731 -1.9396 -0.4773
 6880SOL    HW232100   0.809   1.337  10.009 -0.0865 -1.0025 -1.1947
 6881SOL     OW32101   1.978   0.083   7.734  0.7842  0.0473  0.1820
 6881SOL    HW132102   1.893   0.118   7.707  0.0933 -0.0734  2.1525
 6881SOL    HW232103   2.033   0.123   7.668  0.5766  0.8978  0.5213
 6882SOL     OW32104   4.628   1.335   5.334 -0.4712  0.4363  0.2366
 6882SOL    HW132105   4.684   1.322   5.411 -1.2422 -0.5450  0.6301
 6882SOL    HW232106   4.670   1.300   5.256 -0.8438 -0.5098  0.4652
 6883SOL     OW32107   4.082   1.718  13.687 -0.3034  0.2940  0.1393
 6883SOL    HW132108   4.084   1.676  13.602 -2.4729 -0.0568  0.2738
 6883SOL    HW232109   4.019   1.669  13.740 -0.9117  0.1529 -0.7146
 6884SOL     OW32110   3.847   2.384   7.593  0.0224 -0.4088 -0.2154
 6884SOL    HW132111   3.781   2.416   7.656  1.3318  0.0385  0.9405
 6884SOL    HW232112   3.821   2.294   7.574  0.6163 -0.1500 -2.2354
 6885SOL     OW32113   3.288   1.888   1.926  0.2082 -0.1533 -0.0299
 6885SOL    HW132114   3.255   1.977   1.915  1.4949  0.6625  2.6508
 6885SOL    HW232115   3.351   1.900   1.997  1.1402 -0.3268 -0.8332
 6886SOL     OW32116   0.498   3.761   5.186 -0.0493 -0.2218 -0.2597
 6886SOL    HW132117   0.518   3.853   5.204  1.6819 -0.5022 -0.6736
 6886SOL    HW232118   0.454   3.737   5.268 -0.8749  0.6309 -0.4616
 6887SOL     OW32119   2.339   4.638   2.378 -0.3282  0.2279  0.3527
 6887SOL    HW132120   2.294   4.554   2.370 -0.7942  0.5844 -0.8453
 6887SOL    HW232121   2.426   4.611   2.347  0.0403  0.5318  1.1299
 6888SOL     OW32122   3.004   0.394   3.080 -0.0363 -0.0455 -0.1859
 6888SOL    HW132123   3.030   0.437   3.161  2.4831 -1.7978 -0.0622
 6888SOL    HW232124   2.913   0.364   3.087 -0.4613  1.5253  0.8539
 6889SOL     OW32125   4.178   2.306   6.857 -0.3114 -0.7988 -0.0748
 6889SOL    HW132126   4.116   2.233   6.852 -0.2011 -1.0457  1.9492
 6889SOL    HW232127   4.235   2.282   6.930 -0.9933 -0.5839  0.5379
 6890SOL     OW32128   3.146   1.147  14.766 -0.2819 -0.3547  0.1530
 6890SOL    HW132129   3.167   1.089  14.840 -0.4180  0.3746  0.7568
 6890SOL    HW232130   3.052   1.135  14.761  0.0225 -2.1349 -1.5350
 6891SOL     OW32131   1.997   2.716  11.494 -0.3171 -0.5150  0.4847
 6891SOL    HW132132   2.038   2.666  11.423 -1.5155 -1.7625  0.6784
 6891SOL    HW232133   2.002   2.809  11.470 -0.7359 -0.7015 -0.3204
 6892SOL     OW32134   2.297   4.721  10.569 -0.1624 -0.1168 -0.3016
 6892SOL    HW132135   2.230   0.065  10.581 -0.0074  0.4349 -2.6049
 6892SOL    HW232136   2.288   4.672  10.650 -0.4784  0.4695  0.0206
 6893SOL     OW32137   3.635   2.913   7.778  0.0087 -0.4072 -0.5890
 6893SOL    HW132138   3.592   2.999   7.778 -0.3413 -0.5887 -2.1266
 6893SOL    HW232139   3.585   2.888   7.700 -5.4756  1.4446  2.3232
 6894SOL     OW32140   0.963   2.410   1.284  0.3388 -0.5175 -0.2374
 6894SOL    HW132141   0.881   2.380   1.323  0.2897 -0.0211  0.0435
 6894SOL    HW232142   0.940   2.466   1.210  1.9048  0.7081  0.1746
 6895SOL     OW32143   3.464   2.546   3.013 -0.5241  0.4665  0.0905
 6895SOL    HW132144   3.400   2.475   3.005 -1.1380  1.0400 -0.1914
 6895SOL    HW232145   3.398   2.610   3.038 -0.0052  1.7164 -1.7290
 6896SOL     OW32146   1.007   0.603  11.025  0.3687  0.2235  0.0669
 6896SOL    HW132147   1.023   0.526  10.971  1.0275 -0.9808  1.9770
 6896SOL    HW232148   1.054   0.578  11.105  1.4521  1.0007 -0.3325
 6897SOL     OW32149   2.480   3.294   2.942 -0.0349  0.2619  0.0313
 6897SOL    HW132150   2.448   3.281   2.852  0.7063  0.2215 -0.2196
 6897SOL    HW232151   2.406   3.276   3.001  1.1523  0.1322  1.4790
 6898SOL     OW32152   1.774   3.901   5.314  0.4125  0.0151 -0.0808
 6898SOL    HW132153   1.750   3.965   5.247  0.1871  0.0540  0.0362
 6898SOL    HW232154   1.856   3.941   5.345 -0.0023  0.2718  0.6831
 6899SOL     OW32155   4.718   1.541  16.356 -0.2843 -0.4083 -0.1590
 6899SOL    HW132156   4.642   1.576  16.403 -0.7482 -0.1888 -1.0769
 6899SOL    HW232157   0.038   1.489  16.423 -0.4078  1.1899  1.1730
 6900SOL     OW32158   3.841   0.112   7.459 -0.1444 -0.4656  0.1053
 6900SOL    HW132159   3.910   0.163   7.501 -0.3944 -0.1307  0.1125
 6900SOL    HW232160   3.782   0.182   7.433 -0.6953  0.7265  4.6093
 6901SOL     OW32161   2.724   4.370   3.767 -0.0363  0.4025 -0.1613
 6901SOL    HW132162   2.749   4.434   3.701 -0.6314 -1.2996 -2.0075
 6901SOL    HW232163   2.632   4.356   3.745 -0.0247 -0.7562  0.5000
 6902SOL     OW32164   1.484   3.740  12.169 -0.2477 -0.0545  0.1768
 6902SOL    HW132165   1.566   3.690  12.165 -0.0751  0.2395  0.0621
 6902SOL    HW232166   1.435   3.682  12.110  4.2790 -3.5058 -0.1691
 6903SOL     OW32167   4.045   2.731  15.865 -0.2109  0.7062  0.2219
 6903SOL    HW132168   4.051   2.757  15.773  0.1283  3.0524  0.9033
 6903SOL    HW232169   4.055   2.636  15.859 -0.5795  0.8528 -3.1569
 6904SOL     OW32170   0.554   2.298  10.767 -0.3092 -0.0806  0.5349
 6904SOL    HW132171   0.557   2.260  10.678  0.7843 -0.3809  0.7019
 6904SOL    HW232172   0.481   2.359  10.771  0.1841  0.4694  0.9591
 6905SOL     OW32173   3.054   2.998   2.483 -0.2253  0.0826  0.1034
 6905SOL    HW132174   2.990   3.055   2.524 -0.4422  0.6063 -0.9499
 6905SOL    HW232175   3.029   3.008   2.391 -0.5107  1.8053  0.3770
 6906SOL     OW32176   0.118   2.379   4.718 -0.4542  0.0268 -0.5324
 6906SOL    HW132177   0.072   2.296   4.733  1.9007 -1.1716  0.0257
 6906SOL    HW232178   0.148   2.354   4.630  0.4484  1.3986 -0.6012
 6907SOL     OW32179   1.713   4.284  16.863 -0.0544  0.3198  0.2115
 6907SOL    HW132180   1.763   4.238  16.796  0.0545 -0.3369  0.7426
 6907SOL    HW232181   1.658   4.340  16.809 -3.3043 -0.0080  3.1664
 6908SOL     OW32182   2.063   0.124   5.474  0.4158  0.1272 -0.1096
 6908SOL    HW132183   2.073   0.076   5.392 -1.5854 -0.2374 -0.1291
 6908SOL    HW232184   1.996   0.075   5.522 -0.8557  2.4237  0.4902
 6909SOL     OW32185   2.075   2.860   4.359  0.0746 -0.3216  0.2623
 6909SOL    HW132186   2.071   2.898   4.271  0.2220 -0.5453  0.1592
 6909SOL    HW232187   2.150   2.801   4.364  0.8667  0.5667 -1.1410
 6910SOL     OW32188   0.958   0.623   8.769  0.4458 -0.6502  0.0980
 6910SOL    HW132189   0.891   0.610   8.703 -1.2092 -0.7231  1.7970
 6910SOL    HW232190   1.034   0.660   8.724  0.1713  2.1618  1.8778
 6911SOL     OW32191   3.276   4.205   5.865 -0.3524 -0.0490  0.2337
 6911SOL    HW132192   3.356   4.233   5.821  0.0554 -1.3615  0.1164
 6911SOL    HW232193   3.247   4.286   5.905 -0.9793  0.6875 -1.7433
 6912SOL     OW32194   1.419   2.858  16.023 -0.1270 -0.5854  0.8117
 6912SOL    HW132195   1.442   2.836  15.933 -1.1457 -0.2136  0.4667
 6912SOL    HW232196   1.325   2.850  16.008 -0.0991 -0.9020  0.7982
 6913SOL     OW32197   0.432   2.773  11.739  0.3958  0.1093 -0.2684
 6913SOL    HW132198   0.484   2.731  11.670  0.4890 -0.3507  0.0808
 6913SOL    HW232199   0.482   2.852  11.758  0.2305  0.3701 -0.9171
 6914SOL     OW32200   4.616   3.617   6.561  0.5316 -0.6971  0.4660
 6914SOL    HW132201   4.543   3.675   6.540  1.7644  1.1473  1.2865
 6914SOL    HW232202   4.602   3.553   6.491  0.7857  0.4006 -0.5727
 6915SOL     OW32203   1.232   2.387   1.359  0.4444 -0.0492 -0.1603
 6915SOL    HW132204   1.270   2.393   1.272 -1.2174 -1.5974 -0.9802
 6915SOL    HW232205   1.144   2.355   1.342  0.3688 -1.3211  2.5317
 6916SOL     OW32206   0.553   4.111   4.406  0.5023 -0.3257  0.0918
 6916SOL    HW132207   0.533   4.120   4.499  2.0844 -0.9355  0.4845
 6916SOL    HW232208   0.581   4.199   4.382  0.5939 -0.5786 -0.7296
 6917SOL     OW32209   2.022   1.850  12.830  0.1375 -0.1444  0.0569
 6917SOL    HW132210   2.026   1.791  12.756 -1.7612  0.2355 -0.3644
 6917SOL    HW232211   1.952   1.907  12.797  0.5723  0.8431  0.8107
 6918SOL     OW32212   4.463   3.582   6.962 -0.3494  0.7553  0.2701
 6918SOL    HW132213   4.480   3.622   7.047 -1.0081 -0.2127  0.8571
 6918SOL    HW232214   4.518   3.637   6.907  0.6312  1.1043  1.5897
 6919SOL     OW32215   4.181   0.128   3.593  0.3511  0.6000 -0.4140
 6919SOL    HW132216   4.161   0.217   3.621 -0.7891 -0.1952  1.3140
 6919SOL    HW232217   4.146   0.123   3.504 -0.3274  1.5791 -0.1959
 6920SOL     OW32218   2.680   4.040   1.684 -0.2428  0.2083  0.6827
 6920SOL    HW132219   2.612   4.068   1.623 -0.4987 -0.4441  0.6737
 6920SOL    HW232220   2.757   4.063   1.631  0.5276 -0.8877  1.3149
 6921SOL     OW32221   1.959   1.301   6.605 -0.3265 -0.0237  0.1081
 6921SOL    HW132222   2.024   1.267   6.543  0.7492  1.6638  0.2970
 6921SOL    HW232223   1.879   1.294   6.553  0.0508  1.5419 -0.6997
 6922SOL     OW32224   4.496   4.080   8.315  0.0920  0.9420 -0.2148
 6922SOL    HW132225   4.577   4.032   8.299 -1.0797 -1.1417  0.1244
 6922SOL    HW232226   4.508   4.124   8.399  1.0847  0.4468 -0.0985
 6923SOL     OW32227   3.521   1.983  14.560  0.1553 -0.1425 -0.2339
 6923SOL    HW132228   3.459   1.964  14.490  0.8395 -1.6936 -0.4069
 6923SOL    HW232229   3.556   2.068  14.533 -0.5329  0.2794  0.1959
 6924SOL     OW32230   1.726   0.253   1.995  0.3329  0.5200 -0.4587
 6924SOL    HW132231   1.767   0.293   2.072  0.6170  0.5317 -0.6187
 6924SOL    HW232232   1.799   0.195   1.974  0.0917 -0.6841  1.9231
 6925SOL     OW32233   2.441   1.047   7.567  0.0842 -0.6168  0.5168
 6925SOL    HW132234   2.526   1.038   7.523 -0.2520 -0.9453 -0.0547
 6925SOL    HW232235   2.461   1.117   7.630  1.3779 -1.7306  1.3569
 6926SOL     OW32236   2.086   2.710   0.097  0.9546 -0.1995 -0.2464
 6926SOL    HW132237   2.080   2.615   0.086 -0.6018 -0.1630  0.2528
 6926SOL    HW232238   2.019   2.744   0.039 -0.4281 -1.7337  0.4439
 6927SOL     OW32239   0.706   1.922   2.280 -0.4033  0.6145  0.0204
 6927SOL    HW132240   0.723   2.016   2.285  0.8117  0.4743 -1.4875
 6927SOL    HW232241   0.612   1.926   2.263 -0.4030  0.5106 -0.0075
 6928SOL     OW32242   1.466   3.217   5.325  0.0055  0.0435  0.0109
 6928SOL    HW132243   1.504   3.160   5.258 -1.1988 -4.3887  3.1016
 6928SOL    HW232244   1.505   3.180   5.404 -1.9534  0.7281  1.2720
 6929SOL     OW32245   3.490   0.573   3.457  0.0400 -0.3947  0.0206
 6929SOL    HW132246   3.473   0.565   3.551  1.2146 -0.8091  0.1870
 6929SOL    HW232247   3.566   0.630   3.459 -0.1423 -0.1389 -0.5036
 6930SOL     OW32248   1.940   0.934  12.847 -0.1622 -0.8713 -0.2216
 6930SOL    HW132249   2.027   0.895  12.854 -0.5892 -1.6516  0.7469
 6930SOL    HW232250   1.919   0.903  12.759  1.6300 -1.1073 -0.5635
 6931SOL     OW32251   0.182   3.200   9.336 -0.3367  0.5773  0.3652
 6931SOL    HW132252   0.160   3.290   9.315 -2.1397  0.1736  0.5584
 6931SOL    HW232253   0.277   3.199   9.353 -0.1108  2.0500 -0.7771
 6932SOL     OW32254   2.097   1.838   9.008  0.1785  0.0986 -0.3194
 6932SOL    HW132255   2.063   1.901   9.071 -3.3443  1.2094 -3.3060
 6932SOL    HW232256   2.015   1.816   8.963 -0.3867 -0.6287  1.0527
 6933SOL     OW32257   4.550   1.721   2.377 -0.2785 -0.5463  0.1696
 6933SOL    HW132258   4.520   1.810   2.396 -2.6376 -0.7614 -2.5947
 6933SOL    HW232259   4.487   1.663   2.420 -3.8163  1.0617 -2.8217
 6934SOL     OW32260   3.272   1.080   9.026  0.5404  0.4224 -0.4288
 6934SOL    HW132261   3.180   1.107   9.034  0.0576 -1.5696  0.7994
 6934SOL    HW232262   3.300   1.164   9.062  0.5830 -0.0008  0.5144
 6935SOL     OW32263   4.215   3.424   0.543 -0.5902 -0.2084 -0.6590
 6935SOL    HW132264   4.217   3.329   0.531  0.2172 -0.6040  2.4868
 6935SOL    HW232265   4.241   3.421   0.635  1.6790 -1.6239 -1.3439
 6936SOL     OW32266   2.699   3.634   6.968 -0.3749  0.5272  0.1445
 6936SOL    HW132267   2.702   3.563   6.905  0.6922  0.2622  0.4932
 6936SOL    HW232268   2.604   3.638   6.982 -0.6000  1.6812 -1.6543
 6937SOL     OW32269   3.891   1.838  14.579  0.0962  0.6513  0.4625
 6937SOL    HW132270   3.809   1.830  14.628  0.8553  1.7386  1.9136
 6937SOL    HW232271   3.871   1.905  14.514  1.2805 -1.4717 -2.1171
 6938SOL     OW32272   0.531   0.447   6.813 -0.1363  0.9830  0.2054
 6938SOL    HW132273   0.478   0.390   6.869  1.5160  1.2291  2.0104
 6938SOL    HW232274   0.586   0.379   6.774 -0.9857 -0.2154  1.1039
 6939SOL     OW32275   3.315   0.061   5.045  0.9457  0.1491 -0.4516
 6939SOL    HW132276   3.326   4.708   4.988 -1.9549 -1.8881  1.7038
 6939SOL    HW232277   3.397   0.108   5.033  0.4035  1.1958 -0.0664
 6940SOL     OW32278   1.363   0.326   4.742  0.0728  0.1096  0.3379
 6940SOL    HW132279   1.356   0.382   4.820  0.2020 -2.3793  2.1365
 6940SOL    HW232280   1.341   0.240   4.779 -0.1408  0.7219  1.6487
 6941SOL     OW32281   1.665   2.852   4.571 -0.4828  0.3776 -0.0084
 6941SOL    HW132282   1.724   2.806   4.512  2.9765  3.1110  1.3665
 6941SOL    HW232283   1.619   2.913   4.513 -1.3778 -1.4958 -1.2760
 6942SOL     OW32284   3.128   2.979  14.310 -0.7322 -0.2378  0.2754
 6942SOL    HW132285   3.147   2.950  14.220  2.4216  1.9771  0.2319
 6942SOL    HW232286   3.168   3.066  14.314 -0.3153 -0.4979  1.5951
 6943SOL     OW32287   2.791   1.659   6.558 -0.0200  0.2897  0.1336
 6943SOL    HW132288   2.819   1.671   6.467 -0.3761  2.3434  0.2905
 6943SOL    HW232289   2.857   1.595   6.584 -0.4345  0.6376  2.0502
 6944SOL     OW32290   2.140   4.243   8.912  0.9107  0.8221 -0.3222
 6944SOL    HW132291   2.133   4.335   8.937 -1.1764  1.2289 -2.3894
 6944SOL    HW232292   2.048   4.223   8.931  0.3644  2.5251 -1.2006
 6945SOL     OW32293   2.792   4.585  12.159  0.5136  0.1659 -0.8216
 6945SOL    HW132294   2.829   4.547  12.238 -0.4093 -0.7500 -0.8269
 6945SOL    HW232295   2.742   4.658  12.194  0.3104  0.9766 -2.7748
 6946SOL     OW32296   3.954   2.997  16.183  0.5764 -0.9912  0.3925
 6946SOL    HW132297   3.946   2.907  16.151 -0.3737 -1.0122  0.6944
 6946SOL    HW232298   4.018   2.993  16.254  0.9225 -0.8874  0.0863
 6947SOL     OW32299   0.179   0.941   6.919  0.3912  0.2847  0.4242
 6947SOL    HW132300   0.167   0.847   6.911  1.7899  0.0666  0.9271
 6947SOL    HW232301   0.274   0.939   6.911  0.2482 -1.5766 -0.8078
 6948SOL     OW32302   2.676   4.418   1.005  0.4966  0.0144  0.1187
 6948SOL    HW132303   2.677   4.503   1.050  1.8597 -0.3627  0.7716
 6948SOL    HW232304   2.658   4.451   0.916  0.7093 -2.3354 -0.7776
 6949SOL     OW32305   3.011   2.136   2.713 -0.2263  0.0368  0.2152
 6949SOL    HW132306   2.994   2.116   2.621 -0.8625  0.7804  0.1738
 6949SOL    HW232307   2.922   2.141   2.747 -0.1312  0.9121  0.3293
 6950SOL     OW32308   0.773   1.634   2.177  0.3856 -0.2164  0.6130
 6950SOL    HW132309   0.696   1.629   2.120 -0.5702 -1.4481  2.0161
 6950SOL    HW232310   0.774   1.719   2.220  1.2586  0.7385 -1.3031
 6951SOL     OW32311   0.874   3.757   9.688 -0.3165  0.3878 -0.5412
 6951SOL    HW132312   0.960   3.778   9.725 -1.3326 -0.0136  2.0038
 6951SOL    HW232313   0.904   3.742   9.598 -0.6722  0.3282 -0.6502
 6952SOL     OW32314   1.710   3.017  10.346  0.1249  0.0016 -0.0616
 6952SOL    HW132315   1.620   3.045  10.366  0.9133  1.5133  1.2874
 6952SOL    HW232316   1.714   2.923  10.365 -2.8985 -0.3762 -1.2235
 6953SOL     OW32317   4.597   3.126  12.174 -0.7091  0.2221 -0.0586
 6953SOL    HW132318   4.563   3.148  12.087 -0.8498 -0.5361 -0.1940
 6953SOL    HW232319   4.691   3.129  12.155 -0.4960 -1.6396  0.6830
 6954SOL     OW32320   1.488   0.739   3.076  0.1856  0.0456 -0.4185
 6954SOL    HW132321   1.474   0.678   3.004 -0.8529  1.6391 -1.5669
 6954SOL    HW232322   1.537   0.678   3.131  0.0089  0.2712 -0.0048
 6955SOL     OW32323   4.224   2.176   2.694 -0.0245  0.7016 -0.1105
 6955SOL    HW132324   4.304   2.218   2.662  1.0996 -0.8212  0.6764
 6955SOL    HW232325   4.272   2.134   2.766  0.0683 -1.5850 -1.5035
 6956SOL     OW32326   4.173   4.007   8.059 -0.0658 -0.4669  0.0640
 6956SOL    HW132327   4.242   4.046   8.006 -1.2494  0.9071 -0.4483
 6956SOL    HW232328   4.114   4.076   8.088  0.1476 -0.6616  0.9824
 6957SOL     OW32329   3.977   4.156  12.128  1.1691  0.0407  0.1325
 6957SOL    HW132330   3.895   4.165  12.177  1.3817  0.6264  0.3712
 6957SOL    HW232331   3.944   4.112  12.049  1.0169 -1.7461  1.2011
 6958SOL     OW32332   1.558   3.925  13.408  0.4786 -0.4435  0.8909
 6958SOL    HW132333   1.604   3.842  13.424  0.2271 -0.8439 -0.4009
 6958SOL    HW232334   1.615   3.973  13.347 -0.6752 -0.8391 -0.5022
 6959SOL     OW32335   2.596   4.149   8.723  0.1173 -0.2494 -0.5079
 6959SOL    HW132336   2.640   4.064   8.721 -1.1164 -0.8704 -0.9463
 6959SOL    HW232337   2.625   4.174   8.811  0.9712 -1.1186 -0.5418
 6960SOL     OW32338   4.035   4.620   8.790 -0.0444  0.0685 -0.2458
 6960SOL    HW132339   4.030   4.526   8.774  0.4133  0.4513 -2.7035
 6960SOL    HW232340   3.942   4.640   8.796  0.0556  0.1405  0.9917
 6961SOL     OW32341   2.297   3.231   5.853  0.5506  0.0353 -0.4538
 6961SOL    HW132342   2.212   3.220   5.896  1.0130 -1.0385  0.1803
 6961SOL    HW232343   2.351   3.176   5.909 -1.1351  0.5219  1.6542
 6962SOL     OW32344   0.749   1.816   9.242  0.0786 -0.6335  0.2612
 6962SOL    HW132345   0.807   1.884   9.207 -0.3588  0.3197  1.4064
 6962SOL    HW232346   0.690   1.815   9.166 -0.4975  1.6062  0.6905
 6963SOL     OW32347   3.374   2.994   9.987  0.2474  0.1437 -0.4161
 6963SOL    HW132348   3.286   2.999   9.951  0.8650 -2.1892 -2.1969
 6963SOL    HW232349   3.368   2.911  10.033 -2.3290  0.1330 -0.7840
 6964SOL     OW32350   3.405   4.132  17.564  0.1263 -0.1416  0.0182
 6964SOL    HW132351   3.376   4.044  17.540  2.0715 -0.6735 -0.4406
 6964SOL    HW232352   3.340   4.189  17.524  1.9407  1.6103 -0.4492
 6965SOL     OW32353   1.689   1.599   3.937  0.0552  0.4993 -0.1646
 6965SOL    HW132354   1.610   1.616   3.988 -0.2567 -1.2752 -0.0544
 6965SOL    HW232355   1.708   1.691   3.916 -1.2724  0.9943  0.8315
 6966SOL     OW32356   3.314   2.851  15.297 -0.0123 -0.0099  0.0161
 6966SOL    HW132357   3.338   2.777  15.241  1.1334  0.5375 -0.2255
 6966SOL    HW232358   3.277   2.809  15.374 -1.1147 -2.5956 -1.9234
 6967SOL     OW32359   0.979   0.438   2.766 -0.0614 -0.1653  0.4508
 6967SOL    HW132360   1.062   0.485   2.759 -0.0102 -0.1637  1.0689
 6967SOL    HW232361   0.961   0.420   2.674  1.1712 -2.1129  0.5744
 6968SOL     OW32362   0.005   4.528  15.444  0.2218  0.0092 -0.4199
 6968SOL    HW132363   0.031   4.437  15.426  0.7165 -0.1201  0.9481
 6968SOL    HW232364   0.085   4.569  15.475  0.6120 -1.0192 -0.0540
 6969SOL     OW32365   3.394   2.500   1.691  0.1600 -0.4610  0.6932
 6969SOL    HW132366   3.336   2.439   1.645  0.1385 -0.9251  1.3236
 6969SOL    HW232367   3.446   2.528   1.617  1.5255  1.3927  2.3714
 6970SOL     OW32368   4.169   0.461   5.908  0.5135 -0.0589 -0.1077
 6970SOL    HW132369   4.190   0.370   5.925 -0.8826 -0.3916 -0.1552
 6970SOL    HW232370   4.153   0.449   5.814 -2.6774 -1.1271  0.5883
 6971SOL     OW32371   2.986   2.066   5.437  0.4802  0.3259 -0.0206
 6971SOL    HW132372   3.051   2.087   5.505 -0.1634  1.4608  0.2474
 6971SOL    HW232373   2.917   2.127   5.463  3.3168  3.3222  0.4443
 6972SOL     OW32374   4.574   1.580   7.122 -0.4094 -0.2909  0.7123
 6972SOL    HW132375   4.612   1.502   7.081 -1.7404 -0.2710 -0.5321
 6972SOL    HW232376   4.512   1.526   7.171 -0.9351 -1.2308 -0.9890
 6973SOL     OW32377   0.732   0.324   2.722 -0.5639 -0.1752  0.4459
 6973SOL    HW132378   0.714   0.400   2.666  0.1186  0.0852  0.5790
 6973SOL    HW232379   0.807   0.352   2.775 -1.2200  1.3701  0.5479
 6974SOL     OW32380   3.387   4.223  13.820  0.7527  0.0343 -0.6389
 6974SOL    HW132381   3.428   4.180  13.896 -0.2342 -3.1828 -1.9240
 6974SOL    HW232382   3.376   4.149  13.760  1.6836  0.5488 -1.4479
 6975SOL     OW32383   2.893   3.313   1.941  0.2976  0.2674 -0.7150
 6975SOL    HW132384   2.822   3.368   1.973  1.1830  0.0503  1.6405
 6975SOL    HW232385   2.903   3.344   1.851 -0.6006  3.2461  0.1915
 6976SOL     OW32386   4.361   4.493   7.051 -0.4634  0.0525  0.2869
 6976SOL    HW132387   4.332   4.552   7.121  2.0405 -0.8504  2.1031
 6976SOL    HW232388   4.312   4.529   6.977 -0.2375  2.1124  1.1322
 6977SOL     OW32389   1.801   4.278   0.265 -0.4399  0.1381  0.3738
 6977SOL    HW132390   1.710   4.253   0.277  0.3447 -2.4082  1.0212
 6977SOL    HW232391   1.824   4.216   0.196  1.2972  1.6504 -0.4338
 6978SOL     OW32392   3.314   3.981   8.788  0.5990 -0.4611 -0.1558
 6978SOL    HW132393   3.223   4.009   8.772  0.7202 -0.7633 -1.3202
 6978SOL    HW232394   3.312   3.991   8.883  1.6582 -0.1577 -0.1685
 6979SOL     OW32395   3.224   1.092   7.752 -0.6835  0.3717 -1.0003
 6979SOL    HW132396   3.260   1.158   7.692 -1.1221 -0.0547 -1.7344
 6979SOL    HW232397   3.253   1.126   7.836  0.4662  2.5141 -2.2647
 6980SOL     OW32398   0.746   1.581   2.487 -0.4796  0.8377  0.4371
 6980SOL    HW132399   0.738   1.489   2.512 -0.0843  0.2978 -1.3937
 6980SOL    HW232400   0.671   1.594   2.429 -1.2088 -0.6557  1.0321
 6981SOL     OW32401   1.065   2.564  17.420 -0.3165  0.0464 -0.0095
 6981SOL    HW132402   1.051   2.578  17.326 -0.4254  0.7013  0.1025
 6981SOL    HW232403   1.068   2.654  17.453  2.2054  0.1104 -0.4528
 6982SOL     OW32404   4.178   2.561  17.098  0.7180 -0.8422 -0.0366
 6982SOL    HW132405   4.195   2.577  17.005  3.0056 -0.3988  0.4354
 6982SOL    HW232406   4.259   2.516  17.123  0.5626 -0.5048  1.0873
 6983SOL     OW32407   3.286   2.280  12.791  0.1821  0.1453  0.6646
 6983SOL    HW132408   3.307   2.293  12.884 -3.4861  1.5763  1.2760
 6983SOL    HW232409   3.361   2.297  12.734  0.1857 -2.6067 -0.1674
 6984SOL     OW32410   2.412   4.568   3.941 -0.5618 -0.5231  0.6132
 6984SOL    HW132411   2.424   4.662   3.930 -0.2297 -0.7869 -1.3709
 6984SOL    HW232412   2.355   4.548   3.867  0.4115  2.9877 -1.0970
 6985SOL     OW32413   3.555   2.727   2.769  0.3704 -0.3936  0.3749
 6985SOL    HW132414   3.524   2.692   2.853 -0.8264 -1.5566 -0.5510
 6985SOL    HW232415   3.544   2.652   2.711 -0.4306  0.2244 -0.2744
 6986SOL     OW32416   3.426   0.774   2.063  0.7356  0.2815 -0.3115
 6986SOL    HW132417   3.497   0.717   2.092 -1.4817 -1.2674  2.0687
 6986SOL    HW232418   3.448   0.789   1.971  1.1235 -1.7417 -0.5393
 6987SOL     OW32419   4.549   4.178   8.562  0.0636 -0.6460 -0.4817
 6987SOL    HW132420   4.522   4.124   8.636 -0.4465  1.0807  0.5652
 6987SOL    HW232421   4.628   4.221   8.594 -0.9916  1.4545 -0.7290
 6988SOL     OW32422   1.516   1.146  16.494 -0.1534  0.5290  0.2825
 6988SOL    HW132423   1.480   1.101  16.417  0.4999 -0.9628  0.8540
 6988SOL    HW232424   1.516   1.237  16.464 -0.1237  0.7984  1.1069
 6989SOL     OW32425   4.425   2.090   4.639 -0.1153 -0.2255 -0.2871
 6989SOL    HW132426   4.400   2.096   4.731  4.2651  0.7302  0.8710
 6989SOL    HW232427   4.428   1.995   4.624 -1.0996 -0.0453 -1.5833
 6990SOL     OW32428   3.596   2.082  13.121  0.5152  0.0518  0.7347
 6990SOL    HW132429   3.625   2.058  13.209  1.6529 -0.5845  0.1976
 6990SOL    HW232430   3.604   2.177  13.110 -2.6691  0.2144  0.0255
 6991SOL     OW32431   3.211   4.398   4.089 -0.2148  0.0740 -0.1428
 6991SOL    HW132432   3.194   4.443   4.006  1.8661  0.8547 -0.1303
 6991SOL    HW232433   3.273   4.452   4.137 -0.3669 -0.9084  1.1626
 6992SOL     OW32434   3.149   3.710   8.060 -0.0756 -0.0074  0.1937
 6992SOL    HW132435   3.187   3.792   8.092 -1.7602  0.8251  0.0480
 6992SOL    HW232436   3.220   3.687   8.000  0.0437  0.0565  0.3095
 6993SOL     OW32437   2.581   3.463   2.508 -0.2087 -0.0095 -0.5360
 6993SOL    HW132438   2.544   3.498   2.427  1.7946 -1.3450 -2.0256
 6993SOL    HW232439   2.539   3.515   2.576  0.3647 -0.7873  0.4217
 6994SOL     OW32440   3.695   3.897   2.277  0.1433  0.2707 -0.0123
 6994SOL    HW132441   3.717   3.974   2.331  1.6297 -1.8979  2.4579
 6994SOL    HW232442   3.671   3.825   2.335  1.0486  0.1338  0.2011
 6995SOL     OW32443   0.698   2.404  15.640  0.3524  0.0270 -0.1305
 6995SOL    HW132444   0.631   2.466  15.670 -3.0048 -3.5060 -0.3072
 6995SOL    HW232445   0.661   2.363  15.562 -1.1981 -2.0613  1.7149
 6996SOL     OW32446   3.949   0.810  17.324  0.2021  0.6771 -0.6943
 6996SOL    HW132447   3.998   0.867  17.383  1.7439 -1.7282  0.3428
 6996SOL    HW232448   3.856   0.819  17.343 -0.2217 -3.0573 -0.9798
 6997SOL     OW32449   3.873   2.451   9.671 -0.2311 -0.7806 -0.2158
 6997SOL    HW132450   3.916   2.526   9.631 -1.4480 -0.1342 -0.3226
 6997SOL    HW232451   3.910   2.439   9.758  0.2288  0.1331 -0.2896
 6998SOL     OW32452   0.795   3.999   7.616 -0.2243  0.2248 -0.2563
 6998SOL    HW132453   0.816   4.087   7.649 -0.9691  0.2656  0.1110
 6998SOL    HW232454   0.729   4.022   7.551 -0.8540  3.9650  1.7059
 6999SOL     OW32455   4.334   4.652   8.828 -0.7956 -0.2514  0.4809
 6999SOL    HW132456   4.331   4.680   8.736  0.2384 -1.7185  0.0078
 6999SOL    HW232457   4.243   4.672   8.849 -0.8592 -1.9611  1.7504
 7000SOL     OW32458   3.074   3.832  16.898  0.1598  0.1347  0.3463
 7000SOL    HW132459   3.008   3.881  16.849  0.8412  1.2296  0.5148
 7000SOL    HW232460   3.028   3.749  16.910  0.8650 -0.5621 -1.8845
 7001SOL     OW32461   0.705   0.141  12.173 -0.3823 -0.2460 -0.0046
 7001SOL    HW132462   0.680   0.052  12.198  0.9355 -0.2332  1.3168
 7001SOL    HW232463   0.765   0.168  12.243  0.7192 -1.0760 -0.6333
 7002SOL     OW32464   3.346   0.673   2.589  0.2737 -0.4511 -0.7494
 7002SOL    HW132465   3.321   0.726   2.665  0.3943  1.5332 -2.0971
 7002SOL    HW232466   3.342   0.741   2.522  0.6497 -0.0047 -0.3222
 7003SOL     OW32467   4.010   2.532   7.272  0.5659 -0.9034  0.1945
 7003SOL    HW132468   4.080   2.467   7.275  1.5858  0.2789  1.7923
 7003SOL    HW232469   3.963   2.503   7.195  1.0333 -0.3977 -0.2842
 7004SOL     OW32470   3.748   0.612   8.402 -0.0499  0.5702 -0.3303
 7004SOL    HW132471   3.798   0.684   8.440 -0.3907  1.4095 -1.4713
 7004SOL    HW232472   3.805   0.535   8.399 -1.6715 -0.6450 -0.1067
 7005SOL     OW32473   0.438   0.808   9.191 -0.1225  0.2423 -0.6096
 7005SOL    HW132474   0.482   0.847   9.266 -0.9904  0.7544 -0.3693
 7005SOL    HW232475   0.402   0.889   9.155 -1.5720  0.6834  1.8702
 7006SOL     OW32476   2.017   3.029  11.666  0.2902 -0.4070  0.0009
 7006SOL    HW132477   1.950   3.075  11.717  0.6237 -0.3597  0.3890
 7006SOL    HW232478   1.975   3.027  11.580  0.1540 -0.0340  0.0616
 7007SOL     OW32479   1.022   1.416   8.961 -0.1877 -0.3608 -0.0358
 7007SOL    HW132480   1.105   1.400   8.917 -0.8215 -3.4926 -0.0783
 7007SOL    HW232481   1.049   1.474   9.033 -1.3147 -0.9540  0.8529
 7008SOL     OW32482   2.858   2.622   8.362 -0.6221 -0.0847  0.5336
 7008SOL    HW132483   2.852   2.570   8.442 -1.8589 -0.3211  0.2843
 7008SOL    HW232484   2.932   2.578   8.321  0.6644  1.9638  0.7036
 7009SOL     OW32485   2.774   3.773   5.763 -0.2334  0.3238 -0.0644
 7009SOL    HW132486   2.710   3.719   5.718 -0.4305 -0.4406  1.1409
 7009SOL    HW232487   2.853   3.744   5.716  0.8188  1.1769  1.1604
 7010SOL     OW32488   1.220   3.784   5.595  0.5279 -0.2797 -0.5342
 7010SOL    HW132489   1.168   3.773   5.674  0.7258 -2.4193 -0.7228
 7010SOL    HW232490   1.150   3.794   5.530 -0.6033  3.6340  1.2634
 7011SOL     OW32491   3.863   2.900   3.059  0.4973  0.2140  0.3296
 7011SOL    HW132492   3.907   2.891   2.974  0.3590 -1.5540  0.4499
 7011SOL    HW232493   3.830   2.813   3.082 -0.0743  0.2262 -0.4251
 7012SOL     OW32494   0.628   2.124   3.573  0.4419 -0.3580 -0.5362
 7012SOL    HW132495   0.677   2.050   3.538 -0.0158 -0.7087 -0.4340
 7012SOL    HW232496   0.592   2.159   3.492 -1.1410 -1.0169 -0.1084
 7013SOL     OW32497   2.202   3.674   9.088  0.0195  0.3592  0.0287
 7013SOL    HW132498   2.230   3.679   8.996 -2.5509  0.0399 -0.7802
 7013SOL    HW232499   2.291   3.662   9.120 -0.8015  0.2518  2.2836
 7014SOL     OW32500   1.976   1.413   2.069 -0.1276  0.3915  0.2544
 7014SOL    HW132501   1.914   1.382   2.135  0.0735  0.9864  0.7166
 7014SOL    HW232502   2.047   1.349   2.077 -0.6772 -0.1825  0.5530
 7015SOL     OW32503   0.338   2.044   7.783  0.0360 -0.3635  0.4652
 7015SOL    HW132504   0.319   2.132   7.815 -0.7453 -0.7613  1.0785
 7015SOL    HW232505   0.299   1.990   7.851  2.4661 -4.4321 -1.3524
 7016SOL     OW32506   2.132   3.439   8.573 -0.5154 -0.0623  0.2845
 7016SOL    HW132507   2.213   3.390   8.584 -0.8687 -1.2198 -2.0571
 7016SOL    HW232508   2.088   3.417   8.655  0.2068  1.1754  0.9939
 7017SOL     OW32509   2.711   3.384   9.251  0.5174  0.1186 -0.6329
 7017SOL    HW132510   2.629   3.376   9.202 -0.7559 -2.0715  1.8266
 7017SOL    HW232511   2.686   3.358   9.340 -0.9345  1.2479 -0.7094
 7018SOL     OW32512   1.144   3.804   6.240  0.6552 -0.1979  0.1398
 7018SOL    HW132513   1.128   3.827   6.148 -1.9695  0.7937  0.8388
 7018SOL    HW232514   1.066   3.839   6.282 -0.1495 -2.7014  0.7424
 7019SOL     OW32515   2.568   4.061  10.305 -0.2945  0.6205 -0.0411
 7019SOL    HW132516   2.480   4.048  10.269  0.8574  1.2156 -2.9966
 7019SOL    HW232517   2.570   4.155  10.322 -0.7478  0.6951 -0.4116
 7020SOL     OW32518   4.190   0.823   4.914  0.0634  0.0597 -0.3150
 7020SOL    HW132519   4.266   0.826   4.973 -0.3416  2.7616  0.0448
 7020SOL    HW232520   4.152   0.909   4.928  0.3124  0.2676 -0.9635
 7021SOL     OW32521   1.998   4.513  11.667  0.2865 -0.0489 -0.7996
 7021SOL    HW132522   2.025   4.534  11.578 -1.4644 -1.2322 -1.6197
 7021SOL    HW232523   1.982   4.419  11.669  3.9644 -0.5953  2.6689
 7022SOL     OW32524   1.837   0.896  16.606  0.4285 -0.2313  0.4207
 7022SOL    HW132525   1.844   0.992  16.609 -0.7761 -0.0761 -1.8552
 7022SOL    HW232526   1.866   0.882  16.516  0.5996  0.3982  0.3779
 7023SOL     OW32527   0.214   1.594   5.721  0.3144 -0.5095 -0.5355
 7023SOL    HW132528   0.133   1.636   5.692 -0.7082 -1.8031  0.4772
 7023SOL    HW232529   0.265   1.596   5.640 -0.3351  0.0937 -0.9260
 7024SOL     OW32530   1.172   2.987  12.266  0.0147  0.3016  0.1797
 7024SOL    HW132531   1.224   3.035  12.331  0.2595  0.7874 -0.3753
 7024SOL    HW232532   1.100   2.957  12.320  0.4805 -0.0134  0.6260
 7025SOL     OW32533   2.488   2.931   2.456 -0.1998 -0.0177 -0.0179
 7025SOL    HW132534   2.574   2.918   2.417  0.1479 -0.8998  1.0239
 7025SOL    HW232535   2.430   2.919   2.381 -1.5257 -0.6100  1.0838
 7026SOL     OW32536   1.772   2.881   0.183  0.5097  0.4714 -0.8508
 7026SOL    HW132537   1.800   2.936   0.256  1.0893 -0.5011 -0.3369
 7026SOL    HW232538   1.678   2.896   0.182  0.3189 -0.6824  0.9102
 7027SOL     OW32539   0.888   4.411   3.419 -0.3043  0.1522  0.1853
 7027SOL    HW132540   0.932   4.429   3.335  1.2337  0.3301  1.0233
 7027SOL    HW232541   0.800   4.440   3.395 -0.1315  2.2384  2.1132
 7028SOL     OW32542   2.175   1.451   4.210 -0.0425  0.5910  0.3308
 7028SOL    HW132543   2.118   1.527   4.208 -1.2319 -0.1919  2.9838
 7028SOL    HW232544   2.194   1.452   4.304  0.2310 -1.4648  0.3087
 7029SOL     OW32545   2.446   2.662   3.353  0.3261  0.0847  0.8938
 7029SOL    HW132546   2.433   2.674   3.448 -0.6314  1.9359  0.5280
 7029SOL    HW232547   2.365   2.619   3.326  0.3047 -1.5401  3.4941
 7030SOL     OW32548   2.845   1.072  10.940  0.1617 -0.6395 -0.2066
 7030SOL    HW132549   2.767   1.084  10.994 -1.0405 -1.1794 -1.8234
 7030SOL    HW232550   2.908   1.127  10.988 -1.2315  0.2829  0.5786
 7031SOL     OW32551   1.192   2.356   9.426  0.2590 -0.0302  0.4232
 7031SOL    HW132552   1.146   2.326   9.348 -1.7454  0.8404  1.2815
 7031SOL    HW232553   1.118   2.377   9.482  0.2467  1.0304  0.0143
 7032SOL     OW32554   0.169   4.682   7.014  0.1295 -0.2238 -0.1801
 7032SOL    HW132555   0.237   4.701   6.950 -0.0915  1.0652 -0.0370
 7032SOL    HW232556   0.195   4.597   7.050  0.4399  0.4391  1.1849
 7033SOL     OW32557   4.014   2.930  10.885 -0.3810  0.6044  0.4548
 7033SOL    HW132558   4.046   2.967  10.967 -1.1720  2.4995 -0.0956
 7033SOL    HW232559   4.008   2.836  10.903 -2.7385  0.3653 -1.5627
 7034SOL     OW32560   0.968   1.882   7.908 -0.3963 -0.0766  0.2553
 7034SOL    HW132561   0.992   1.801   7.864 -1.8324 -0.4974  0.2587
 7034SOL    HW232562   0.890   1.911   7.861 -0.8446  0.0190  1.0662
 7035SOL     OW32563   3.516   0.217   5.082 -0.2856  0.0784  0.4022
 7035SOL    HW132564   3.482   0.281   5.146 -2.2533  0.6708 -1.2488
 7035SOL    HW232565   3.590   0.177   5.128 -1.4904 -3.9195 -1.2258
 7036SOL     OW32566   4.317   2.764   3.221 -0.2022 -0.0712  0.0140
 7036SOL    HW132567   4.277   2.822   3.156 -0.4842  1.9187  1.9566
 7036SOL    HW232568   4.383   2.727   3.162 -1.4315  1.6642 -2.4046
 7037SOL     OW32569   2.866   2.740   1.641  0.1321  0.3150  0.0740
 7037SOL    HW132570   2.811   2.818   1.652  1.6028  1.2900  0.4867
 7037SOL    HW232571   2.939   2.787   1.680 -0.0879  1.4900 -0.9077
 7038SOL     OW32572   2.456   3.542   5.910 -0.1794 -0.3164 -0.0967
 7038SOL    HW132573   2.424   3.457   5.881 -1.9368  0.7829 -1.3443
 7038SOL    HW232574   2.421   3.555   5.998 -2.3452 -1.5803 -0.7821
 7039SOL     OW32575   1.604   0.249   8.488  0.1752 -0.5269 -0.5081
 7039SOL    HW132576   1.666   0.251   8.560 -2.1230  0.7211  1.4579
 7039SOL    HW232577   1.531   0.298   8.527  1.9075  0.6589  1.2390
 7040SOL     OW32578   2.106   2.405   4.418 -0.2020 -0.3709  0.0356
 7040SOL    HW132579   2.131   2.458   4.342  1.6932 -2.0269 -0.4780
 7040SOL    HW232580   2.041   2.471   4.444  0.6985  1.6780 -2.8517
 7041SOL     OW32581   1.784   2.602   6.647 -0.3642 -0.1659  0.1106
 7041SOL    HW132582   1.724   2.600   6.721  0.8178 -2.6245  1.0057
 7041SOL    HW232583   1.794   2.696   6.634  0.8060 -0.1848  0.8437
 7042SOL     OW32584   3.647   1.794  14.721  0.2000 -0.3056  0.3657
 7042SOL    HW132585   3.640   1.841  14.805 -3.3846 -1.0667  0.5174
 7042SOL    HW232586   3.589   1.845  14.664  2.9525  1.0177 -1.2317
 7043SOL     OW32587   3.056   3.870   6.136  0.2548 -0.0302  0.1246
 7043SOL    HW132588   3.137   3.885   6.185  0.4858 -0.0968 -0.2423
 7043SOL    HW232589   3.077   3.910   6.052 -0.2162 -0.3158 -0.1248
 7044SOL     OW32590   2.091   0.205   6.401 -0.1395  0.1604  0.1063
 7044SOL    HW132591   2.170   0.182   6.351  1.3549  1.8385  1.7032
 7044SOL    HW232592   2.053   0.257   6.331  0.3810 -1.0830 -1.1016
 7045SOL     OW32593   3.483   4.060  15.183  0.5422  0.0903 -0.4442
 7045SOL    HW132594   3.416   4.049  15.115 -0.6369  0.2251  0.7171
 7045SOL    HW232595   3.432   4.038  15.261 -0.3783 -0.0087 -1.0728
 7046SOL     OW32596   0.513   1.291   7.372 -0.2081  0.3491  0.7616
 7046SOL    HW132597   0.533   1.221   7.310 -1.1762  0.6261  0.1365
 7046SOL    HW232598   0.511   1.365   7.310  0.9874 -1.6466 -1.6819
 7047SOL     OW32599   1.357   4.128   2.948  0.8912  0.2492  0.0678
 7047SOL    HW132600   1.393   4.116   2.860  0.7922  2.1246 -0.2401
 7047SOL    HW232601   1.399   4.057   2.997 -1.6417 -2.2225 -1.4103
 7048SOL     OW32602   0.820   1.800   5.971 -0.2725 -0.0729  0.4502
 7048SOL    HW132603   0.837   1.708   5.989  3.0726 -0.1417 -3.2400
 7048SOL    HW232604   0.897   1.834   5.926  0.6605  0.0503  2.1533
 7049SOL     OW32605   3.213   1.408   7.564  0.0796 -0.6599 -0.6176
 7049SOL    HW132606   3.184   1.432   7.475  1.7941  0.7481 -0.7931
 7049SOL    HW232607   3.297   1.370   7.538  0.4384 -0.1509 -0.1960
 7050SOL     OW32608   0.579   4.269  14.213  0.3179 -0.4874  0.7555
 7050SOL    HW132609   0.578   4.364  14.214  1.4282 -0.4535 -0.8718
 7050SOL    HW232610   0.665   4.245  14.177  0.0715 -0.9001  0.4315
 7051SOL     OW32611   0.320   2.908   4.866 -0.2344 -0.0348  0.2797
 7051SOL    HW132612   0.358   2.844   4.926  2.5471 -2.7868 -4.4017
 7051SOL    HW232613   0.382   2.974   4.897  0.8728 -0.2832 -1.4095
 7052SOL     OW32614   4.273   1.624   7.665 -0.0690  0.6956  0.4568
 7052SOL    HW132615   4.299   1.670   7.745 -1.0170  0.2536  1.0160
 7052SOL    HW232616   4.358   1.625   7.621  0.7965  1.0279  2.1529
 7053SOL     OW32617   3.626   2.648  13.313  0.1541 -0.1966 -0.0771
 7053SOL    HW132618   3.696   2.604  13.266  0.9407  1.5303 -0.5372
 7053SOL    HW232619   3.667   2.733  13.329 -2.7561  1.0130  1.0329
 7054SOL     OW32620   0.175   4.603  14.079  0.5362  0.1589 -0.2099
 7054SOL    HW132621   0.200   4.661  14.152  0.4412 -0.7309  0.5257
 7054SOL    HW232622   0.171   4.674  14.014 -0.4851 -0.9210 -1.3093
 7055SOL     OW32623   2.417   2.945   0.202  0.3012 -0.1753  0.2607
 7055SOL    HW132624   2.490   2.972   0.259 -0.8437 -0.7038  1.9517
 7055SOL    HW232625   2.441   2.995   0.124  1.1424 -0.4535  0.3403
 7056SOL     OW32626   3.563   1.823   3.863  0.2674 -0.4925 -0.1977
 7056SOL    HW132627   3.549   1.917   3.849 -0.7023 -0.3964  1.3335
 7056SOL    HW232628   3.472   1.793   3.859 -0.1728  0.7423  0.4086
 7057SOL     OW32629   2.898   1.073  14.724  0.4210 -0.2033  0.6544
 7057SOL    HW132630   2.824   1.125  14.755 -0.8501 -0.1904 -2.3946
 7057SOL    HW232631   2.845   1.015  14.669 -1.6865  1.0888  1.3276
 7058SOL     OW32632   4.545   0.762   0.935  0.0865  0.3155 -0.2329
 7058SOL    HW132633   4.519   0.679   0.976 -1.5743 -0.3121 -2.5629
 7058SOL    HW232634   4.556   0.735   0.844  0.5216  2.9993 -0.9527
 7059SOL     OW32635   4.253   1.379   5.687 -0.1273 -0.6109  0.2292
 7059SOL    HW132636   4.162   1.389   5.715 -0.1875  0.4481 -0.3340
 7059SOL    HW232637   4.301   1.400   5.766 -0.5099 -1.1379  0.6060
 7060SOL     OW32638   4.297   4.219   6.366 -0.2772  0.1734 -0.0862
 7060SOL    HW132639   4.296   4.188   6.275 -1.3688 -2.6448  0.8909
 7060SOL    HW232640   4.212   4.263   6.370  0.7698  2.2015 -0.2112
 7061SOL     OW32641   0.511   1.850   4.514 -0.1423  0.3143 -0.2859
 7061SOL    HW132642   0.429   1.823   4.555  0.5140  2.4312  2.4182
 7061SOL    HW232643   0.521   1.779   4.449  0.8084  0.1044  0.0891
 7062SOL     OW32644   2.450   2.510   7.362 -0.0235 -0.1524 -0.6709
 7062SOL    HW132645   2.523   2.549   7.314 -0.3712  0.4169 -0.7342
 7062SOL    HW232646   2.378   2.505   7.299 -1.6899 -1.7937  1.3769
 7063SOL     OW32647   2.895   4.667   8.255  0.2444 -0.1048 -0.1965
 7063SOL    HW132648   2.871   0.036   8.258 -0.1680 -0.2869  1.6639
 7063SOL    HW232649   2.814   4.624   8.283  0.9649 -0.8437  0.7505
 7064SOL     OW32650   4.236   3.185   4.284 -0.3262 -0.3942 -0.0862
 7064SOL    HW132651   4.279   3.116   4.336 -1.5491 -0.3781  0.9515
 7064SOL    HW232652   4.144   3.171   4.305 -0.2932 -1.5677 -0.6976
 7065SOL     OW32653   1.016   4.158  10.775  0.6391 -0.0441  0.2051
 7065SOL    HW132654   0.941   4.099  10.772  0.7419 -0.2366  1.6981
 7065SOL    HW232655   1.081   4.099  10.813  0.5569 -0.4028 -0.2128
 7066SOL     OW32656   0.368   1.877   6.930 -0.4275  0.1173  0.1637
 7066SOL    HW132657   0.373   1.852   6.838  0.4645  0.0457  0.2316
 7066SOL    HW232658   0.358   1.972   6.926 -0.6339  0.0860 -0.0176
 7067SOL     OW32659   2.823   0.658   5.212 -0.4851  0.1296  0.0897
 7067SOL    HW132660   2.762   0.636   5.282  0.7053 -1.2822  0.6694
 7067SOL    HW232661   2.814   0.753   5.203  0.2764  0.1649 -0.2984
 7068SOL     OW32662   1.783   2.100   5.622  0.0479  0.0327 -0.1535
 7068SOL    HW132663   1.731   2.180   5.617  0.3349 -0.2133 -6.1842
 7068SOL    HW232664   1.874   2.127   5.611  0.2462 -0.4315  0.3166
 7069SOL     OW32665   0.654   3.277   6.827 -0.2418 -0.4624  0.7972
 7069SOL    HW132666   0.709   3.282   6.749 -0.0401  1.7001  1.0860
 7069SOL    HW232667   0.620   3.366   6.839 -1.9860 -0.8883 -1.1569
 7070SOL     OW32668   0.593   3.360  17.094 -0.4539 -0.7464  0.2976
 7070SOL    HW132669   0.558   3.294  17.153  0.3199 -2.1934 -0.8533
 7070SOL    HW232670   0.602   3.308  17.013  1.3451  0.8915 -0.5513
 7071SOL     OW32671   1.193   2.646   7.561  0.3480 -0.0437  0.7853
 7071SOL    HW132672   1.217   2.652   7.653  1.3044  0.6695  0.4887
 7071SOL    HW232673   1.196   2.735   7.526  1.2742 -1.6668 -3.2551
 7072SOL     OW32674   0.126   3.709   7.280  0.2166 -0.1182 -0.8669
 7072SOL    HW132675   0.201   3.706   7.220 -0.8241 -0.1201 -2.1651
 7072SOL    HW232676   0.082   3.790   7.253 -2.5927 -1.0747  0.8471
 7073SOL     OW32677   2.070   0.386  14.788  0.3735 -0.0684  0.2412
 7073SOL    HW132678   1.976   0.400  14.779  0.3831  1.1078  1.9928
 7073SOL    HW232679   2.092   0.475  14.814 -0.5559  0.4442 -0.7120
 7074SOL     OW32680   0.273   2.875   1.666  0.6356  0.1637  0.2990
 7074SOL    HW132681   0.188   2.917   1.677 -0.0869 -2.0564  3.2081
 7074SOL    HW232682   0.322   2.945   1.622  0.1268 -0.3991 -1.1834
 7075SOL     OW32683   4.206   3.651   6.139  0.2429  0.1187 -0.3525
 7075SOL    HW132684   4.251   3.628   6.058 -2.7168 -1.8176 -1.4616
 7075SOL    HW232685   4.119   3.614   6.121 -0.0230  0.6006 -0.0505
 7076SOL     OW32686   1.905   1.206   4.064 -0.4765  0.3477 -0.2177
 7076SOL    HW132687   1.991   1.199   4.106 -0.0482 -1.0743 -1.3477
 7076SOL    HW232688   1.876   1.284   4.111  0.6111  0.6089  0.0322
 7077SOL     OW32689   3.711   3.417   0.323 -0.3624 -0.0375 -0.5634
 7077SOL    HW132690   3.676   3.504   0.304 -0.1268  0.1860  0.0319
 7077SOL    HW232691   3.740   3.392   0.235 -0.6665 -2.5452  0.0626
 7078SOL     OW32692   3.832   0.453  11.224 -0.4631 -0.6654 -0.4105
 7078SOL    HW132693   3.895   0.386  11.251 -0.1988  0.0290  0.7220
 7078SOL    HW232694   3.871   0.481  11.142  1.5999 -0.4626  0.6232
 7079SOL     OW32695   3.197   1.446   3.442 -0.3175 -0.2581 -0.4821
 7079SOL    HW132696   3.107   1.429   3.469 -0.7735  1.7825 -0.7602
 7079SOL    HW232697   3.208   1.386   3.368  0.6681 -1.0624  0.3140
 7080SOL     OW32698   3.885   1.278   5.582  0.6166 -0.5501  0.1799
 7080SOL    HW132699   3.797   1.241   5.593  0.2434  0.7723  1.4986
 7080SOL    HW232700   3.943   1.203   5.590  1.1458 -0.3664 -1.9986
 7081SOL     OW32701   0.505   4.124   3.548 -0.3962  0.2477  0.1722
 7081SOL    HW132702   0.592   4.087   3.535 -0.4962 -0.0657  0.3933
 7081SOL    HW232703   0.469   4.105   3.461  0.9028  2.1561 -0.8012
 7082SOL     OW32704   0.976   0.123  12.529 -0.7031 -0.0362 -0.3826
 7082SOL    HW132705   1.042   0.082  12.585 -0.0444  0.5657 -0.7120
 7082SOL    HW232706   0.923   0.163  12.597 -1.1655  0.4204 -1.0187
 7083SOL     OW32707   2.308   4.516  12.775  0.7976 -0.2539  0.0325
 7083SOL    HW132708   2.235   4.566  12.811 -0.6078 -0.8378 -2.0228
 7083SOL    HW232709   2.334   4.568  12.699 -0.4740  2.4916  1.4800
 7084SOL     OW32710   2.834   3.067   4.245  0.0777 -0.1474 -0.3610
 7084SOL    HW132711   2.925   3.051   4.269 -0.2182 -4.6212 -2.2008
 7084SOL    HW232712   2.784   3.025   4.315  1.3645  0.3635  0.8580
 7085SOL     OW32713   4.247   0.278   5.484 -0.1691 -0.4497  0.4573
 7085SOL    HW132714   4.328   0.318   5.451  0.1424 -2.2254 -0.9544
 7085SOL    HW232715   4.263   0.214   5.554 -0.0497  1.2357  1.9609
 7086SOL     OW32716   1.199   0.749   1.129  0.4813 -0.4245 -0.1685
 7086SOL    HW132717   1.202   0.739   1.224 -2.2873 -1.9599 -0.2366
 7086SOL    HW232718   1.192   0.655   1.111  0.1882 -0.5277  0.4849
 7087SOL     OW32719   4.008   0.846  15.857  0.4936  0.2994 -0.2851
 7087SOL    HW132720   3.953   0.816  15.785  0.0485 -0.8709  0.5436
 7087SOL    HW232721   4.085   0.807  15.816  3.3621  2.6224  2.8733
 7088SOL     OW32722   3.436   3.645   9.592 -0.4514 -0.3237 -0.5049
 7088SOL    HW132723   3.462   3.577   9.530  1.6622 -1.9745  2.2092
 7088SOL    HW232724   3.413   3.592   9.668 -0.3447 -0.3836 -0.5143
 7089SOL     OW32725   2.272   1.482   6.702 -0.1179 -0.5020 -0.4877
 7089SOL    HW132726   2.342   1.433   6.745 -1.6474 -2.8917 -0.7618
 7089SOL    HW232727   2.195   1.460   6.754 -0.0587  0.5875  0.0681
 7090SOL     OW32728   0.347   1.160   2.356  0.6014  0.6655  0.1258
 7090SOL    HW132729   0.388   1.157   2.270  1.1689 -2.4163  0.4956
 7090SOL    HW232730   0.375   1.074   2.388  0.9329 -0.1553 -2.3817
 7091SOL     OW32731   3.191   1.359  16.829 -0.3704 -0.4187 -0.1827
 7091SOL    HW132732   3.258   1.412  16.785 -0.5370  0.9827  1.2188
 7091SOL    HW232733   3.112   1.413  16.824  1.3970  1.9783 -2.3253
 7092SOL     OW32734   1.871   0.531   8.027  0.2131 -0.3286 -0.8312
 7092SOL    HW132735   1.963   0.517   8.007  0.2550  0.8596 -1.5076
 7092SOL    HW232736   1.835   0.500   7.944  0.2847 -2.0592 -0.2098
 7093SOL     OW32737   4.067   0.643   4.435  0.0127  0.0840 -0.2272
 7093SOL    HW132738   4.107   0.712   4.489  0.1222 -0.8796  0.9243
 7093SOL    HW232739   4.113   0.662   4.353  1.8784 -1.5590  0.4440
 7094SOL     OW32740   1.265   0.362   6.101 -0.0261  0.0990 -0.5518
 7094SOL    HW132741   1.356   0.392   6.102  0.2490 -0.7739  0.2419
 7094SOL    HW232742   1.242   0.353   6.008  0.3887 -2.1785 -0.4135
 7095SOL     OW32743   1.184   0.182   0.120  0.0861 -0.1671  0.3089
 7095SOL    HW132744   1.211   0.210   0.032  2.7701  0.1135  1.2291
 7095SOL    HW232745   1.192   0.267   0.163  2.8103 -0.4458  0.3557
 7096SOL     OW32746   1.437   0.595  15.004  0.4142  0.1786 -0.1307
 7096SOL    HW132747   1.480   0.572  15.087 -1.3615 -3.3793 -0.1998
 7096SOL    HW232748   1.383   0.667  15.037  0.6513 -0.3640  1.4922
 7097SOL     OW32749   2.673   0.681   6.835  0.0873  0.6396  0.4818
 7097SOL    HW132750   2.709   0.763   6.800  3.7877 -1.2514 -0.1423
 7097SOL    HW232751   2.620   0.713   6.909 -0.1053 -1.6983  1.3472
 7098SOL     OW32752   3.279   3.874  10.031 -0.1587 -0.6672  0.4538
 7098SOL    HW132753   3.188   3.850  10.051 -0.4301  1.0007  1.2718
 7098SOL    HW232754   3.329   3.797  10.055  1.2100 -0.4613 -1.7084
 7099SOL     OW32755   4.335   4.654  16.526  0.7581 -0.5887  0.0165
 7099SOL    HW132756   4.269   4.587  16.509 -2.5921  2.2788  1.8324
 7099SOL    HW232757   4.365   4.668  16.436  0.8849  0.0611  0.1605
 7100SOL     OW32758   4.220   1.768   4.412  0.1953 -0.4275  0.3624
 7100SOL    HW132759   4.257   1.828   4.347 -1.6209  2.1520  1.7080
 7100SOL    HW232760   4.225   1.829   4.485  1.3869  1.3725 -1.2182
 7101SOL     OW32761   4.590   1.725   8.289  0.2393 -0.5882 -0.3510
 7101SOL    HW132762   4.610   1.634   8.309 -0.8418 -0.8512 -0.4534
 7101SOL    HW232763   4.522   1.752   8.351  1.5822  0.7436  0.5494
 7102SOL     OW32764   0.037   0.625  17.188  0.2214  0.0803  0.1496
 7102SOL    HW132765   0.015   0.534  17.209 -0.2814  0.4858  1.3877
 7102SOL    HW232766   4.682   0.651  17.140  0.1766 -1.5280 -0.6379
 7103SOL     OW32767   2.666   1.680   4.019  0.0990 -0.6767 -0.3261
 7103SOL    HW132768   2.629   1.767   4.002 -1.6927 -1.2087  0.8231
 7103SOL    HW232769   2.668   1.645   3.930 -0.6855 -3.2749  0.6570
 7104SOL     OW32770   0.486   0.118   3.427 -0.0243 -0.6861 -0.5016
 7104SOL    HW132771   0.396   0.109   3.398 -0.3032  3.6816 -1.1059
 7104SOL    HW232772   0.506   0.026   3.442  0.4237  0.2741  4.8610
 7105SOL     OW32773   0.960   3.260   5.439 -0.1500 -0.3594 -0.6452
 7105SOL    HW132774   0.890   3.299   5.491  0.9935 -2.2468  2.3566
 7105SOL    HW232775   1.003   3.341   5.414 -0.9599  0.5671  0.9720
 7106SOL     OW32776   3.561   4.255   7.799  0.2994 -0.3206  0.4331
 7106SOL    HW132777   3.654   4.263   7.822 -0.0418  1.6122  1.1348
 7106SOL    HW232778   3.559   4.309   7.720  2.8807 -1.6907 -0.5778
 7107SOL     OW32779   3.101   1.615   0.952  0.4323 -0.0637  0.6268
 7107SOL    HW132780   3.075   1.684   1.012 -0.9793 -1.9687  2.2149
 7107SOL    HW232781   3.025   1.618   0.894  0.3968 -1.3028  0.5952
 7108SOL     OW32782   1.848   0.669  15.249 -0.3011  0.2453 -0.0320
 7108SOL    HW132783   1.813   0.687  15.162  1.1870  0.1362 -0.6440
 7108SOL    HW232784   1.809   0.589  15.286  0.1164  0.9811  2.0259
 7109SOL     OW32785   4.660   2.078   8.506  0.2406 -0.2318  0.0788
 7109SOL    HW132786   4.587   2.111   8.558 -0.0960  1.6032 -1.5619
 7109SOL    HW232787   4.621   2.027   8.435  2.0653 -2.1831  0.4727
 7110SOL     OW32788   4.421   1.158  16.966  0.0384 -0.1516  0.1643
 7110SOL    HW132789   4.458   1.087  17.019 -2.0369 -1.4147 -0.0991
 7110SOL    HW232790   4.395   1.111  16.887  1.3180 -0.9946  0.2424
 7111SOL     OW32791   2.306   2.333   5.048  0.0167  0.2695  0.2589
 7111SOL    HW132792   2.369   2.265   5.073 -1.3095 -0.9264  0.3732
 7111SOL    HW232793   2.365   2.388   4.996 -1.0129  1.4431  0.3373
 7112SOL     OW32794   4.031   0.925   9.430 -0.0205 -0.9347  0.5355
 7112SOL    HW132795   4.025   1.000   9.371  0.2108  2.1179  4.4137
 7112SOL    HW232796   4.023   0.975   9.511 -1.5387 -1.5791  0.7805
 7113SOL     OW32797   1.471   1.422  16.292  0.4694  0.4188  0.6891
 7113SOL    HW132798   1.437   1.471  16.366  0.1805  1.2665 -0.0024
 7113SOL    HW232799   1.502   1.499  16.246 -2.3267  0.8216 -0.5353
 7114SOL     OW32800   4.649   2.517   4.388  0.2675 -0.2690 -0.0045
 7114SOL    HW132801   4.605   2.468   4.458 -4.2017  2.2554 -1.0386
 7114SOL    HW232802   0.004   2.463   4.389  0.0821 -0.5172  2.2147
 7115SOL     OW32803   2.037   2.218   2.572 -0.7799 -0.7401  0.6725
 7115SOL    HW132804   2.054   2.309   2.550  1.2753 -1.4873 -0.8399
 7115SOL    HW232805   1.947   2.212   2.540  0.5090 -2.2348 -2.5904
 7116SOL     OW32806   3.214   0.329   5.668 -0.2330  0.6877 -0.6217
 7116SOL    HW132807   3.298   0.286   5.651 -0.5444 -0.0958 -0.1524
 7116SOL    HW232808   3.215   0.386   5.591 -0.4176  1.1923 -0.2491
 7117SOL     OW32809   3.734   3.801  15.242  0.1701  0.1156 -0.4448
 7117SOL    HW132810   3.673   3.756  15.300 -0.4614  1.0830 -0.3546
 7117SOL    HW232811   3.800   3.738  15.214  1.4360  0.2697  2.2429
 7118SOL     OW32812   3.817   1.914  17.651  0.1655  0.0775  0.1662
 7118SOL    HW132813   3.734   1.934  17.694 -0.1264 -2.7341  0.9624
 7118SOL    HW232814   3.854   1.864   0.027 -1.7990  0.5588  1.4624
 7119SOL     OW32815   1.053   1.118   8.322 -0.9909  0.5535  0.4694
 7119SOL    HW132816   1.115   1.056   8.362 -0.0390  0.7335 -0.7533
 7119SOL    HW232817   1.115   1.141   8.254 -2.9300 -0.6899 -1.7149
 7120SOL     OW32818   4.037   0.669   3.951 -0.1205  0.1061  0.0768
 7120SOL    HW132819   3.971   0.618   3.904  2.3027 -0.7542 -2.4440
 7120SOL    HW232820   4.009   0.755   3.921 -2.9901 -0.7443  0.2854
 7121SOL     OW32821   1.762   1.289   3.464 -0.7717 -0.4039  0.4141
 7121SOL    HW132822   1.739   1.262   3.553  0.1792 -1.4240  0.3591
 7121SOL    HW232823   1.707   1.364   3.443 -0.4725 -0.0872  0.7574
 7122SOL     OW32824   3.925   4.451   5.589  0.7627  0.0067  0.3976
 7122SOL    HW132825   3.848   4.441   5.646 -1.4767 -2.0689 -2.9779
 7122SOL    HW232826   3.993   4.486   5.646  1.8086  1.0359 -1.4689
 7123SOL     OW32827   0.693   3.279   1.148  0.5753 -0.3363  0.1840
 7123SOL    HW132828   0.768   3.265   1.207  1.7858  1.5158 -0.9317
 7123SOL    HW232829   0.683   3.374   1.152  1.7817 -0.1265 -1.3160
 7124SOL     OW32830   1.066   3.837   4.080 -0.1565 -0.2944 -0.3504
 7124SOL    HW132831   1.007   3.906   4.111  1.4135  0.8205  0.1606
 7124SOL    HW232832   1.105   3.819   4.166 -0.8854 -0.6741 -0.0964
 7125SOL     OW32833   4.103   3.836  17.502  0.6827  0.2922 -0.0022
 7125SOL    HW132834   4.123   3.819  17.594  2.8309  1.9300 -0.1868
 7125SOL    HW232835   4.067   3.750  17.479  1.2138 -0.4903  1.9966
 7126SOL     OW32836   2.869   0.621   8.262 -0.4561 -0.2816  0.0637
 7126SOL    HW132837   2.815   0.699   8.272 -0.9862 -0.9001  2.0062
 7126SOL    HW232838   2.922   0.633   8.341 -0.6328  0.9581 -0.0143
 7127SOL     OW32839   0.218   3.569  10.910 -0.4868 -0.5683 -0.5589
 7127SOL    HW132840   0.182   3.580  10.998 -0.0697  0.4799 -0.5202
 7127SOL    HW232841   0.226   3.660  10.882  0.5963 -0.3419  0.4805
 7128SOL     OW32842   4.103   2.569   3.154 -0.0234 -0.3637 -0.0678
 7128SOL    HW132843   4.196   2.580   3.174 -0.2403  1.2795  0.0023
 7128SOL    HW232844   4.114   2.527   3.069 -3.0183 -1.0455 -0.1245
 7129SOL     OW32845   3.879   1.612   4.880  0.1766  0.5947  0.3518
 7129SOL    HW132846   3.819   1.598   4.953  2.0214 -0.7598  1.6060
 7129SOL    HW232847   3.890   1.707   4.880  0.2199  0.5862 -1.5824
 7130SOL     OW32848   4.256   2.415   5.881 -0.0509  0.5127  0.2328
 7130SOL    HW132849   4.290   2.411   5.791 -0.8014  0.6868 -0.0589
 7130SOL    HW232850   4.252   2.322   5.900  1.3807  0.8338  1.9883
 7131SOL     OW32851   0.868   2.326  16.574 -0.3416  0.6996  0.0871
 7131SOL    HW132852   0.815   2.260  16.618 -0.9753  0.4195 -1.1218
 7131SOL    HW232853   0.958   2.292  16.574 -1.8979 -3.3141 -1.6914
 7132SOL     OW32854   0.951   0.301   7.600 -0.0488 -0.1179  0.5597
 7132SOL    HW132855   0.997   0.233   7.649  1.7513  0.8944  0.3198
 7132SOL    HW232856   1.004   0.380   7.613 -0.2272  0.2099 -0.7294
 7133SOL     OW32857   0.195   0.357  11.193 -0.9147  0.5140 -0.1135
 7133SOL    HW132858   0.252   0.314  11.130 -0.4872  0.0661  0.5731
 7133SOL    HW232859   0.248   0.427  11.232  2.0347 -1.3358 -0.7975
 7134SOL     OW32860   2.541   4.133   4.230  0.1417  0.0778 -0.6140
 7134SOL    HW132861   2.536   4.116   4.136  0.2004 -1.4412 -0.3495
 7134SOL    HW232862   2.605   4.204   4.228 -1.5427  1.5929  0.2612
 7135SOL     OW32863   3.033   0.038   7.590 -0.1486 -0.1686  0.3626
 7135SOL    HW132864   3.123   0.071   7.582 -0.8357  1.8849  1.0689
 7135SOL    HW232865   3.047   4.698   7.660 -0.6613  1.2115  1.7384
 7136SOL     OW32866   4.519   0.541   1.247  0.0687  0.0154 -0.2106
 7136SOL    HW132867   4.610   0.568   1.235  0.1890 -0.0783  0.4522
 7136SOL    HW232868   4.528   0.449   1.270  0.5231  0.2959  0.7331
 7137SOL     OW32869   1.788   3.097  11.030 -0.2280  0.0718 -0.3111
 7137SOL    HW132870   1.838   3.179  11.022  1.1517 -0.6689  0.7325
 7137SOL    HW232871   1.700   3.135  11.029 -0.8319 -1.3724 -2.7839
 7138SOL     OW32872   2.248   2.261   4.616 -0.3496  0.1616 -0.4109
 7138SOL    HW132873   2.194   2.275   4.694  1.9307  0.5761  1.1165
 7138SOL    HW232874   2.188   2.296   4.550  0.4183 -0.1283 -1.2635
 7139SOL     OW32875   1.114   1.857   8.710 -0.1040  0.0751  0.5413
 7139SOL    HW132876   1.041   1.862   8.772 -0.3688  0.2085  0.2230
 7139SOL    HW232877   1.077   1.821   8.630 -0.6812  0.3034  0.7044
 7140SOL     OW32878   0.907   0.467   5.126 -0.1100 -0.4805  0.0768
 7140SOL    HW132879   0.869   0.388   5.164 -1.8563  0.0287 -0.6397
 7140SOL    HW232880   0.935   0.434   5.041 -1.8485  0.4613 -0.8477
 7141SOL     OW32881   3.360   1.594   8.290 -0.1018 -0.2566  0.3277
 7141SOL    HW132882   3.330   1.658   8.354 -2.8414 -1.4658  0.2461
 7141SOL    HW232883   3.305   1.521   8.319 -1.8662  1.2089  0.5911
 7142SOL     OW32884   2.364   3.093  10.002 -0.5910  0.6742  0.4202
 7142SOL    HW132885   2.303   3.028  10.037  1.3553 -1.0418  0.6701
 7142SOL    HW232886   2.364   3.157  10.073 -1.3516  1.2446 -0.1001
 7143SOL     OW32887   4.701   4.269   3.787 -0.1964  0.7590  0.0044
 7143SOL    HW132888   4.672   4.356   3.813  2.2762  1.5602  0.1135
 7143SOL    HW232889   4.653   4.203   3.837  1.2580  0.2607  0.7277
 7144SOL     OW32890   4.306   0.104   8.547 -0.0498  0.2481  0.2457
 7144SOL    HW132891   4.221   0.144   8.529  0.6019  0.4061 -2.5300
 7144SOL    HW232892   4.311   0.031   8.486 -2.1875 -0.6050  1.1148
 7145SOL     OW32893   3.793   2.304   2.639 -0.2114  0.2173 -0.4530
 7145SOL    HW132894   3.863   2.304   2.705 -1.6799 -0.0717  1.1096
 7145SOL    HW232895   3.831   2.331   2.555 -1.0785 -0.6175 -1.1170
 7146SOL     OW32896   2.147   2.468   0.252 -0.0084  0.1881  0.1427
 7146SOL    HW132897   2.073   2.524   0.278 -1.0933  0.4192 -3.3877
 7146SOL    HW232898   2.225   2.508   0.290  0.5190  0.2164 -0.9702
 7147SOL     OW32899   4.540   4.589   6.098 -0.2008 -0.4369  0.5771
 7147SOL    HW132900   4.582   4.517   6.143  1.0332 -0.0218  0.0803
 7147SOL    HW232901   4.617   4.627   6.055 -0.8515  0.4150  0.1523
 7148SOL     OW32902   2.480   1.374   3.810  0.2965  0.3836 -0.3346
 7148SOL    HW132903   2.425   1.426   3.869  0.5964 -2.0944  2.1443
 7148SOL    HW232904   2.531   1.450   3.782  1.3234 -1.0103 -2.1997
 7149SOL     OW32905   3.863   1.486   2.276  1.1058 -0.7265 -0.1341
 7149SOL    HW132906   3.785   1.513   2.226  0.6991 -0.1859  0.8039
 7149SOL    HW232907   3.877   1.404   2.229  0.0517 -0.6437 -0.6048
 7150SOL     OW32908   4.297   4.647  10.576  0.1312 -0.1572 -0.0872
 7150SOL    HW132909   4.295   0.016  10.600 -0.0934 -0.5006  1.2474
 7150SOL    HW232910   4.361   4.620  10.643  0.2979 -1.3104 -0.7219
 7151SOL     OW32911   3.284   4.494   0.230 -0.2538  0.3541  0.2762
 7151SOL    HW132912   3.309   4.509   0.322  1.9460  3.0974 -0.7806
 7151SOL    HW232913   3.366   4.515   0.186  0.1104 -1.7043 -0.0088
 7152SOL     OW32914   1.474   0.655   7.647  0.1671  0.4171  0.5441
 7152SOL    HW132915   1.521   0.731   7.680 -0.8768  1.8576 -1.3239
 7152SOL    HW232916   1.420   0.695   7.580  0.4253 -2.7486 -1.5638
 7153SOL     OW32917   2.441   3.672  14.548 -0.1468  0.5576 -0.1850
 7153SOL    HW132918   2.386   3.665  14.626 -0.7026 -0.2508 -0.6429
 7153SOL    HW232919   2.438   3.767  14.551 -0.8672  0.6462 -3.1201
 7154SOL     OW32920   3.485   0.073   2.452 -0.1993 -0.1570  0.0515
 7154SOL    HW132921   3.559   0.025   2.414  0.4750  2.0386 -1.3773
 7154SOL    HW232922   3.516   0.104   2.537 -0.8876 -0.7081  0.5125
 7155SOL     OW32923   1.452   3.639   0.600  0.0713 -0.4212 -0.0123
 7155SOL    HW132924   1.545   3.619   0.599  0.3090  0.8716 -2.4527
 7155SOL    HW232925   1.451   3.728   0.565  0.7289 -0.1995  0.5333
 7156SOL     OW32926   3.847   2.524  13.475  0.3000  0.1979  0.5682
 7156SOL    HW132927   3.897   2.605  13.469 -0.8056  0.8763  0.4502
 7156SOL    HW232928   3.853   2.496  13.384  0.9131 -0.0217  0.6747
 7157SOL     OW32929   2.206   3.507   5.010  0.4606  0.2335 -0.1344
 7157SOL    HW132930   2.193   3.415   5.035 -0.9074  0.9125  1.6870
 7157SOL    HW232931   2.125   3.540   5.050 -0.4290 -3.5560  1.2035
 7158SOL     OW32932   2.455   3.024  17.645  0.9338  0.3347 -0.0260
 7158SOL    HW132933   2.384   3.072  17.602 -0.9804 -1.0689  1.5700
 7158SOL    HW232934   2.461   2.951  17.583  0.5587  1.2891 -1.1949
 7159SOL     OW32935   0.299   2.352   5.382  0.5862 -0.1951 -0.0608
 7159SOL    HW132936   0.258   2.431   5.417 -0.5986 -0.7405 -0.2100
 7159SOL    HW232937   0.243   2.281   5.413  0.2349  1.9524  4.1715
 7160SOL     OW32938   2.371   3.391  17.628  0.1503 -0.0453  0.6874
 7160SOL    HW132939   2.457   3.361  17.600 -0.3473  0.3173 -1.2341
 7160SOL    HW232940   2.313   3.332  17.579 -0.5940 -0.2165  1.7679
 7161SOL     OW32941   2.011   0.206   5.874 -0.3928  0.1039 -0.0048
 7161SOL    HW132942   1.960   0.193   5.793  0.7652  0.0931 -0.7349
 7161SOL    HW232943   2.069   0.130   5.877  1.4845  1.5632  0.3964
 7162SOL     OW32944   0.963   3.423   3.381  0.3528 -0.0278 -0.2335
 7162SOL    HW132945   1.026   3.357   3.411  0.2514 -0.8765 -1.9337
 7162SOL    HW232946   0.986   3.502   3.430  0.4777  1.1117 -2.1290
 7163SOL     OW32947   2.713   0.508   2.851  0.3305  0.3951 -0.3091
 7163SOL    HW132948   2.716   0.430   2.906 -2.3224 -0.1586 -0.9271
 7163SOL    HW232949   2.644   0.480   2.790  0.7912 -0.6876 -0.3343
 7164SOL     OW32950   2.012   4.160   5.886 -0.8024  0.0489  0.7578
 7164SOL    HW132951   2.065   4.127   5.813  1.8493  0.3356  2.5628
 7164SOL    HW232952   2.031   4.253   5.880 -1.1695  0.0789  0.0324
 7165SOL     OW32953   3.473   4.238   9.399  0.2993  0.2004  0.4440
 7165SOL    HW132954   3.419   4.201   9.469 -0.8855 -4.5708 -3.0398
 7165SOL    HW232955   3.522   4.161   9.370 -0.8821 -0.8892  1.3364
 7166SOL     OW32956   3.799   0.585   3.788 -0.3201 -0.4050 -0.0389
 7166SOL    HW132957   3.817   0.496   3.820 -2.1868 -0.3892  1.0556
 7166SOL    HW232958   3.709   0.571   3.756  0.9955 -1.2362 -3.4103
 7167SOL     OW32959   0.140   2.514   6.228 -0.4010  0.1787 -0.6375
 7167SOL    HW132960   0.099   2.582   6.282  0.4340  2.0149 -2.3532
 7167SOL    HW232961   0.186   2.573   6.169  2.3798 -2.6400 -1.2279
 7168SOL     OW32962   2.500   4.325   0.720  0.0369  0.0361 -0.3860
 7168SOL    HW132963   2.456   4.399   0.679 -1.5140  1.9452  4.6592
 7168SOL    HW232964   2.589   4.354   0.703  0.2354 -0.5242 -0.3114
 7169SOL     OW32965   1.790   1.870   2.771  0.4306 -0.3503 -0.6869
 7169SOL    HW132966   1.820   1.784   2.743 -2.1088 -1.7649  1.0212
 7169SOL    HW232967   1.750   1.890   2.686 -1.4896  2.4124  0.8738
 7170SOL     OW32968   2.021   1.362   3.346  0.3846  0.2710 -0.2483
 7170SOL    HW132969   2.035   1.336   3.437  0.5086  0.9867 -0.0602
 7170SOL    HW232970   1.937   1.327   3.318 -0.8654  3.0379  0.0850
 7171SOL     OW32971   4.152   3.026   9.405  0.3103 -0.3313  0.7395
 7171SOL    HW132972   4.228   3.064   9.451 -0.0776  0.4444  0.7394
 7171SOL    HW232973   4.191   2.982   9.329 -1.0447 -0.9069  0.3816
 7172SOL     OW32974   3.592   4.403   3.246 -0.3364 -0.5356  0.5164
 7172SOL    HW132975   3.554   4.351   3.317 -2.9132  0.1245 -0.3808
 7172SOL    HW232976   3.563   4.357   3.168 -0.6766  1.5675 -0.6119
 7173SOL     OW32977   2.944   3.529   6.536  0.0320 -0.3520 -0.2495
 7173SOL    HW132978   3.011   3.462   6.553  0.8082  0.5910  0.3968
 7173SOL    HW232979   2.872   3.505   6.594  0.9521 -3.5883 -0.4225
 7174SOL     OW32980   4.660   2.997   8.217  0.0593  0.5133  1.0840
 7174SOL    HW132981   4.616   2.986   8.301  1.5847  2.0087  2.0873
 7174SOL    HW232982   4.680   3.089   8.234 -0.4926  1.2304 -2.1779
 7175SOL     OW32983   1.919   3.012   1.319 -0.6418 -0.3744  0.1078
 7175SOL    HW132984   1.931   2.922   1.349  0.7261  0.1209  1.0398
 7175SOL    HW232985   1.831   3.036   1.349 -0.7771 -3.1655  1.8881
 7176SOL     OW32986   2.935   2.502   2.910 -0.4916  0.1854  0.0700
 7176SOL    HW132987   2.930   2.579   2.854 -0.4808  0.3765  0.3368
 7176SOL    HW232988   3.031   2.494   2.916 -0.4344  0.1470 -0.8152
 7177SOL     OW32989   3.168   2.465   3.272  0.4791  0.4291 -0.4047
 7177SOL    HW132990   3.226   2.390   3.259  1.5905  1.3082 -0.5708
 7177SOL    HW232991   3.090   2.423   3.236  1.3746  0.3738 -2.2779
 7178SOL     OW32992   3.780   0.818  17.616 -0.0360 -0.2404  0.6784
 7178SOL    HW132993   3.721   0.828  17.542  1.0029  0.1350 -0.0967
 7178SOL    HW232994   3.717   0.796  17.685  0.4119  1.4352  1.6411
 7179SOL     OW32995   3.837   2.308   0.078 -0.0057 -0.3096 -0.0016
 7179SOL    HW132996   3.890   2.230   0.099  0.8596  0.3944  0.4326
 7179SOL    HW232997   3.887   2.383   0.109 -2.0455  1.5677 -1.3249
 7180SOL     OW32998   3.364   3.683   0.666 -0.5932  0.0997 -0.4682
 7180SOL    HW132999   3.460   3.687   0.671 -0.4954 -3.1945  0.2650
 7180SOL    HW233000   3.344   3.744   0.595  0.8559 -0.4421 -1.3577
 7181SOL     OW33001   2.042   0.031   7.310  0.1402 -1.0160 -0.0524
 7181SOL    HW133002   1.991   4.677   7.330 -1.2541  0.2642  1.3100
 7181SOL    HW233003   2.085   0.005   7.228  3.2248  1.5534  0.7447
 7182SOL     OW33004   3.586   4.217   0.061  0.1334 -0.2368 -0.3830
 7182SOL    HW133005   3.642   4.265  17.698 -0.4906 -1.2005 -1.6945
 7182SOL    HW233006   3.544   4.168  17.689 -0.3466 -0.0718 -0.2133
 7183SOL     OW33007   1.828   3.836   8.658  0.0847 -0.1520 -0.6158
 7183SOL    HW133008   1.869   3.921   8.673 -0.4439 -0.3858  2.1680
 7183SOL    HW233009   1.905   3.781   8.669  0.7528  0.7903 -0.5656
 7184SOL     OW33010   4.104   0.770  11.329  0.1034  0.3138  0.7068
 7184SOL    HW133011   4.119   0.811  11.415  0.0940  1.4009  0.1882
 7184SOL    HW233012   4.130   0.844  11.274 -1.4051 -0.0073 -0.4461
 7185SOL     OW33013   3.007   2.085   4.208 -0.0935  0.0460 -0.3048
 7185SOL    HW133014   2.935   2.023   4.220 -0.5573  0.2999 -1.7617
 7185SOL    HW233015   3.085   2.056   4.257  0.0083 -2.4335 -1.8863
 7186SOL     OW33016   1.303   2.577   8.975 -0.0236 -0.0159 -0.5287
 7186SOL    HW133017   1.229   2.586   9.035 -0.3782  0.4468 -1.0349
 7186SOL    HW233018   1.348   2.512   9.029 -1.4435  0.4180  1.1924
 7187SOL     OW33019   4.685   0.492  15.497 -0.2196  0.5813  0.0470
 7187SOL    HW133020   4.636   0.554  15.550 -1.3328 -0.6425  0.4596
 7187SOL    HW233021   4.646   0.407  15.516 -0.3919  0.4831 -0.7548
 7188SOL     OW33022   0.580   3.379   7.224  0.1823 -0.4041 -0.1195
 7188SOL    HW133023   0.658   3.351   7.175  1.4730  0.7526  1.2585
 7188SOL    HW233024   0.559   3.466   7.192 -3.3649 -1.6951 -1.2372
 7189SOL     OW33025   3.089   3.862   0.856 -0.2339  0.5977 -0.0975
 7189SOL    HW133026   2.999   3.869   0.889  0.0607 -0.6914  0.9827
 7189SOL    HW233027   3.132   3.838   0.938 -0.0884  1.7168  0.1504
 7190SOL     OW33028   3.176   0.993  11.540  0.3553 -0.4401  0.0535
 7190SOL    HW133029   3.208   1.059  11.479  2.4395 -1.2403  0.2614
 7190SOL    HW233030   3.200   0.912  11.496  2.7196 -0.8913  2.1270
 7191SOL     OW33031   3.257   1.507  11.122 -0.2230 -0.5526 -0.4830
 7191SOL    HW133032   3.300   1.590  11.101  3.3953 -1.7750  2.0874
 7191SOL    HW233033   3.323   1.442  11.100  0.7894 -0.1833  1.4640
 7192SOL     OW33034   2.493   4.179   4.561  0.4158  0.4211 -0.7329
 7192SOL    HW133035   2.435   4.251   4.538 -0.8531  0.5506  2.8905
 7192SOL    HW233036   2.553   4.176   4.487  0.6515  0.7004 -0.5530
 7193SOL     OW33037   2.150   3.527  14.527 -0.0016  0.6246  0.2900
 7193SOL    HW133038   2.144   3.471  14.604 -0.0364 -1.1339 -0.9962
 7193SOL    HW233039   2.189   3.469  14.462  0.5199  2.0837 -0.7048
 7194SOL     OW33040   4.097   2.159   5.728 -0.0425  0.5715 -0.3286
 7194SOL    HW133041   4.144   2.150   5.811 -1.4801 -0.1047  0.4127
 7194SOL    HW233042   4.036   2.088   5.746 -0.6717  1.0960 -0.3883
 7195SOL     OW33043   0.189   3.713  11.144  0.8614 -0.0840  0.3248
 7195SOL    HW133044   0.238   3.794  11.155  2.6439 -1.0545 -0.4857
 7195SOL    HW233045   0.107   3.740  11.185  0.9918 -1.2901  1.4085
 7196SOL     OW33046   3.481   2.821   7.573 -0.2473  0.2082  0.1271
 7196SOL    HW133047   3.388   2.833   7.595  0.3715  1.4898  1.9731
 7196SOL    HW233048   3.471   2.794   7.482  0.2089 -1.9581  0.7234
 7197SOL     OW33049   2.107   3.215   3.726  0.1810  0.2370  0.2154
 7197SOL    HW133050   2.139   3.163   3.652 -1.4170  0.6639 -0.7757
 7197SOL    HW233051   2.073   3.294   3.685 -0.5697  0.5746  1.4954
 7198SOL     OW33052   1.635   0.182   2.807  0.2585  0.1129  0.1732
 7198SOL    HW133053   1.578   0.208   2.878 -0.4850  0.0001 -0.3804
 7198SOL    HW233054   1.711   0.240   2.810  0.1927  0.2354 -0.4659
 7199SOL     OW33055   4.613   1.225   8.509 -0.0350 -0.1479 -0.2946
 7199SOL    HW133056   4.676   1.213   8.580 -1.0098 -2.0772  0.2490
 7199SOL    HW233057   4.591   1.132   8.510  1.4092 -0.5257 -3.1634
 7200SOL     OW33058   3.764   2.066  12.624 -0.8893 -0.4714 -0.1834
 7200SOL    HW133059   3.684   2.110  12.593 -1.4207 -0.1679  1.5980
 7200SOL    HW233060   3.733   2.043  12.712  1.2937  0.6193  0.8770
 7201SOL     OW33061   1.220   0.771  15.639 -0.2665  0.0971 -0.1642
 7201SOL    HW133062   1.296   0.760  15.583 -0.2600 -1.6400  0.1859
 7201SOL    HW233063   1.253   0.824  15.711  0.6137 -1.7076  0.7548
 7202SOL     OW33064   4.382   1.356   8.643 -0.2682  0.6228 -0.2846
 7202SOL    HW133065   4.327   1.280   8.664  1.9917 -1.1844 -0.9044
 7202SOL    HW233066   4.443   1.325   8.576  0.3219 -0.4283  0.7311
 7203SOL     OW33067   0.785   4.177   5.052  0.1492  0.7163  0.1001
 7203SOL    HW133068   0.753   4.142   4.968 -0.2308  1.0572  0.1049
 7203SOL    HW233069   0.786   4.272   5.050  1.7402  0.6785 -2.3299
 7204SOL     OW33070   1.332   3.773   6.753 -0.1507  0.1281 -0.3441
 7204SOL    HW133071   1.375   3.697   6.794  2.7375  2.3082  0.6322
 7204SOL    HW233072   1.302   3.809   6.837 -0.7841 -2.4750  0.5500
 7205SOL     OW33073   2.260   3.196   6.400  0.2694  0.4929  0.1756
 7205SOL    HW133074   2.170   3.229   6.397  1.1810  2.6504 -3.2752
 7205SOL    HW233075   2.265   3.168   6.491  0.8579 -1.7733 -0.5681
 7206SOL     OW33076   2.456   2.617  17.078  0.2405  0.0560 -0.0417
 7206SOL    HW133077   2.521   2.569  17.129  0.8869  1.0494  0.0870
 7206SOL    HW233078   2.387   2.631  17.143 -0.7798  0.7898 -1.2814
 7207SOL     OW33079   3.583   2.075   4.761  0.4893 -0.2399 -0.4055
 7207SOL    HW133080   3.674   2.103   4.765  0.8327 -1.0268 -2.3354
 7207SOL    HW233081   3.547   2.154   4.800  1.6670 -0.0115  0.2105
 7208SOL     OW33082   1.866   3.455   0.508  0.1588 -0.4487  0.3641
 7208SOL    HW133083   1.863   3.521   0.438  1.0592  1.1433  1.8437
 7208SOL    HW233084   1.942   3.402   0.485  0.0633  0.1170 -1.2944
 7209SOL     OW33085   3.115   2.963   9.341 -0.3143 -0.0342  0.1173
 7209SOL    HW133086   3.069   3.047   9.346  1.8494  1.0918  0.8620
 7209SOL    HW233087   3.200   2.987   9.377 -0.5438 -0.6835  1.0783
 7210SOL     OW33088   0.141   4.534   5.273  0.1639 -0.5290 -0.5573
 7210SOL    HW133089   0.112   4.446   5.249 -0.0659 -0.9290  1.2293
 7210SOL    HW233090   0.156   4.512   5.364  0.9806 -0.6665 -0.7285
 7211SOL     OW33091   2.615   0.413  16.922 -0.0907  0.0965 -0.0115
 7211SOL    HW133092   2.582   0.366  16.999 -2.5618  0.8076 -0.6490
 7211SOL    HW233093   2.535   0.430  16.873  0.2615 -2.3274 -1.4433
 7212SOL     OW33094   2.847   0.207  16.359 -0.0258  0.7196  0.3646
 7212SOL    HW133095   2.934   0.241  16.338  0.1305  0.5629  0.7512
 7212SOL    HW233096   2.836   0.150  16.283 -0.7712  0.1160  0.9189
 7213SOL     OW33097   0.824   2.532  13.929  0.1054  0.0730  0.0551
 7213SOL    HW133098   0.855   2.598  13.992  0.3240  1.4032 -1.4629
 7213SOL    HW233099   0.766   2.575  13.866 -1.4220 -1.4436  0.4281
 7214SOL     OW33100   3.112   3.848   7.056 -0.4973 -0.4098 -0.2875
 7214SOL    HW133101   3.098   3.773   7.114  0.1493 -1.6160 -1.6999
 7214SOL    HW233102   3.024   3.885   7.045 -1.1271 -1.3926  1.4027
 7215SOL     OW33103   4.012   1.189   2.377  0.1347 -0.2401  0.1790
 7215SOL    HW133104   4.095   1.170   2.334 -0.4345 -0.9297 -0.6286
 7215SOL    HW233105   3.953   1.204   2.302  0.0350 -0.4807  0.2092
 7216SOL     OW33106   0.803   0.850   6.488  0.2394  0.1656 -0.3102
 7216SOL    HW133107   0.848   0.791   6.428 -0.4028 -0.5586 -0.0899
 7216SOL    HW233108   0.712   0.840   6.461  0.0678 -1.7044  0.9512
 7217SOL     OW33109   0.402   3.626  15.422  0.3326 -0.6097 -0.1512
 7217SOL    HW133110   0.477   3.625  15.482  0.0138  3.0991  0.3246
 7217SOL    HW233111   0.335   3.592  15.481  1.8433  1.0763  2.5692
 7218SOL     OW33112   4.259   4.658  10.300  0.6748  0.6397 -0.4104
 7218SOL    HW133113   4.284   4.690  10.387 -0.7046  1.1463 -0.1966
 7218SOL    HW233114   4.324   4.589  10.289  2.1852  2.0973 -0.7248
 7219SOL     OW33115   2.703   1.511  10.004  0.3463  0.3375 -0.4575
 7219SOL    HW133116   2.794   1.486   9.988  0.6362  2.4002 -1.9589
 7219SOL    HW233117   2.693   1.452  10.079  2.5405 -0.1891 -0.5610
 7220SOL     OW33118   1.737   2.327   6.983  0.1454  0.3623  0.1119
 7220SOL    HW133119   1.691   2.335   7.066  2.3619  0.0086  1.3756
 7220SOL    HW233120   1.717   2.414   6.949  2.0325  0.0046 -1.9794
 7221SOL     OW33121   0.902   2.947   6.458  0.3568 -0.0679  0.3806
 7221SOL    HW133122   0.920   3.009   6.387 -0.8123 -0.5643 -0.3380
 7221SOL    HW233123   0.958   2.871   6.445  2.1388  1.1449  0.9448
 7222SOL     OW33124   2.888   0.545   6.618 -0.3686 -0.2972 -0.0549
 7222SOL    HW133125   2.958   0.609   6.604  1.5290 -1.9706  1.7672
 7222SOL    HW233126   2.826   0.590   6.561  0.7865  1.0579 -0.2525
 7223SOL     OW33127   4.573   0.502   4.524  0.2721 -0.1082 -0.0358
 7223SOL    HW133128   4.611   0.587   4.544 -0.4255 -0.1205  1.3163
 7223SOL    HW233129   4.538   0.478   4.610 -0.1569  0.8133  0.0460
 7224SOL     OW33130   0.902   4.361   6.943 -0.3497 -0.6032  0.1336
 7224SOL    HW133131   0.984   4.400   6.911 -0.2320 -0.7956  0.1981
 7224SOL    HW233132   0.941   4.278   6.970  0.3443 -0.1252  0.6201
 7225SOL     OW33133   2.760   2.743   0.912  0.4284 -0.0326  0.0148
 7225SOL    HW133134   2.777   2.678   0.844  0.8529  0.5656 -0.4460
 7225SOL    HW233135   2.680   2.780   0.876 -0.8163 -3.7759 -1.0972
 7226SOL     OW33136   4.185   4.679   6.932 -0.1619  0.1683  0.3121
 7226SOL    HW133137   4.237   0.032   6.910 -2.4333  2.3830  2.6210
 7226SOL    HW233138   4.098   4.704   6.900  0.2673  0.6271 -0.4959
 7227SOL     OW33139   0.486   1.531   2.283  0.6260  0.1181 -0.5949
 7227SOL    HW133140   0.488   1.463   2.216 -2.2333  0.4958 -1.0758
 7227SOL    HW233141   0.494   1.614   2.237 -1.0619 -0.0237 -1.1373
 7228SOL     OW33142   4.529   3.523   1.152 -0.4945 -0.0111  0.2961
 7228SOL    HW133143   4.550   3.488   1.065  2.0200  2.3323 -0.0210
 7228SOL    HW233144   4.580   3.468   1.211  1.0334 -0.1541 -1.1663
 7229SOL     OW33145   0.088   1.587  10.315 -0.0792  0.3393  0.3965
 7229SOL    HW133146   0.082   1.505  10.365  0.0217 -0.4867 -0.9428
 7229SOL    HW233147   0.023   1.644  10.356  0.1297  1.7493 -1.2218
 7230SOL     OW33148   4.302   2.888   5.679  0.1375  0.0107  0.3412
 7230SOL    HW133149   4.210   2.864   5.677  0.1401  0.1023 -0.5078
 7230SOL    HW233150   4.346   2.805   5.663  2.2410  0.4428  3.9116
 7231SOL     OW33151   0.539   2.911   2.141  0.0705 -0.1625  0.2101
 7231SOL    HW133152   0.484   2.980   2.178  1.4712  0.8702  0.3528
 7231SOL    HW233153   0.623   2.956   2.133 -0.3405  0.8108  1.3853
 7232SOL     OW33154   4.390   4.026  16.663 -0.1493  0.1725  0.0441
 7232SOL    HW133155   4.368   3.934  16.677 -1.8637  0.6763  0.6800
 7232SOL    HW233156   4.403   4.021  16.569 -0.6589 -2.3027  0.1089
 7233SOL     OW33157   1.269   0.656  16.564 -0.4733 -0.5204 -0.5310
 7233SOL    HW133158   1.249   0.748  16.550 -0.2162 -0.1856  1.2952
 7233SOL    HW233159   1.356   0.666  16.602 -0.7119  1.8918 -0.6031
 7234SOL     OW33160   2.485   0.208   6.454 -0.3862 -0.5247  0.2217
 7234SOL    HW133161   2.507   0.299   6.475 -2.0250  0.0754 -0.6342
 7234SOL    HW233162   2.493   0.175   6.543 -1.5622  1.9353  1.2498
 7235SOL     OW33163   0.184   4.419   4.089 -0.2412 -0.0497 -0.3307
 7235SOL    HW133164   0.137   4.376   4.160  0.9243  1.4922  1.3653
 7235SOL    HW233165   0.183   4.510   4.120 -0.7798 -0.4877  0.9287
 7236SOL     OW33166   2.883   2.828   7.194 -0.8650  0.2038 -0.2412
 7236SOL    HW133167   2.970   2.798   7.171 -1.2369 -1.2772  0.2893
 7236SOL    HW233168   2.885   2.903   7.135 -0.9763 -0.6127 -1.2879
 7237SOL     OW33169   3.611   0.746   4.196 -0.3192  0.0277 -0.5565
 7237SOL    HW133170   3.684   0.690   4.170 -0.3220  0.3538 -1.2625
 7237SOL    HW233171   3.532   0.701   4.164 -0.4272 -1.6602  2.1306
 7238SOL     OW33172   3.131   4.065   2.213 -0.1277  0.3880  0.0071
 7238SOL    HW133173   3.208   4.008   2.212  2.3948  3.8120 -0.7842
 7238SOL    HW233174   3.065   3.996   2.211 -0.1884  0.4457  0.0114
 7239SOL     OW33175   2.925   2.549   5.882 -0.4301 -0.0477 -0.0509
 7239SOL    HW133176   2.942   2.534   5.975 -3.4800  2.7947  0.9504
 7239SOL    HW233177   2.909   2.644   5.878 -1.9917 -0.2711  1.0732
 7240SOL     OW33178   2.553   3.251   7.049 -0.5901  0.1927  0.6824
 7240SOL    HW133179   2.603   3.303   7.112 -0.6543  0.5143  0.4667
 7240SOL    HW233180   2.537   3.176   7.106  0.1370 -1.0846 -0.7764
 7241SOL     OW33181   3.023   0.285   5.428  0.9001 -0.4364 -0.4421
 7241SOL    HW133182   3.067   0.218   5.376  2.1907 -1.7493  2.3536
 7241SOL    HW233183   3.075   0.290   5.508 -1.7603  0.2346  1.2747
 7242SOL     OW33184   1.550   2.575   4.487  1.1509 -0.3819 -1.2967
 7242SOL    HW133185   1.626   2.616   4.447  0.2530  1.8510 -0.7432
 7242SOL    HW233186   1.549   2.494   4.436  1.9440 -2.3233  1.7807
 7243SOL     OW33187   4.547   2.658  12.966 -0.0981 -0.1813 -0.1927
 7243SOL    HW133188   4.570   2.751  12.971 -2.0926  0.3642 -1.3669
 7243SOL    HW233189   4.463   2.669  13.009 -0.8018  0.4020 -1.7080
 7244SOL     OW33190   1.524   3.067  12.728  0.3782 -0.0647  0.1687
 7244SOL    HW133191   1.618   3.051  12.735  0.2220 -1.8885 -1.8887
 7244SOL    HW233192   1.524   3.133  12.658 -0.3455 -1.4119 -1.0941
 7245SOL     OW33193   1.944   2.459   1.973  0.3043 -0.2704 -0.1558
 7245SOL    HW133194   1.969   2.370   1.949  1.3021  0.1112 -0.4978
 7245SOL    HW233195   1.852   2.460   1.947  0.4343 -0.4729 -0.6188
 7246SOL     OW33196   1.797   2.198   9.564  0.1827  0.0422 -0.0372
 7246SOL    HW133197   1.892   2.199   9.576  0.3556 -1.5560 -1.1658
 7246SOL    HW233198   1.779   2.222   9.654  3.4629 -0.6074  0.7733
 7247SOL     OW33199   2.879   1.520   6.001 -0.9778  0.0809  0.3154
 7247SOL    HW133200   2.937   1.470   5.943 -0.4006 -0.1671  1.1128
 7247SOL    HW233201   2.934   1.525   6.079  2.2168 -3.3343 -1.7241
 7248SOL     OW33202   3.030   3.242   5.139 -0.0052  0.1044 -0.0341
 7248SOL    HW133203   3.057   3.281   5.222 -2.0270 -2.5520  1.8781
 7248SOL    HW233204   2.952   3.188   5.153 -0.1359  0.3076  0.0180
 7249SOL     OW33205   2.949   3.360   3.409  0.2139  0.0462  0.2420
 7249SOL    HW133206   3.035   3.394   3.430 -0.4470  1.4817  0.6469
 7249SOL    HW233207   2.911   3.421   3.345  0.3062 -0.4998 -0.3367
 7250SOL     OW33208   0.565   0.493   8.148 -0.4786 -0.1371  0.1798
 7250SOL    HW133209   0.619   0.572   8.156 -2.1052  0.7487  2.5770
 7250SOL    HW233210   0.571   0.471   8.241  0.4586  1.8340  0.5977
 7251SOL     OW33211   0.538   4.031   5.228  0.6883  0.5336 -0.6135
 7251SOL    HW133212   0.481   4.050   5.303  2.6186  0.5603  0.8606
 7251SOL    HW233213   0.578   4.115   5.207 -0.2505  0.8184 -1.2516
 7252SOL     OW33214   1.457   0.863   7.130  0.2613  0.0881  0.5474
 7252SOL    HW133215   1.382   0.891   7.184 -0.6515  2.5022 -2.0051
 7252SOL    HW233216   1.515   0.831   7.199  0.5044  0.7112  0.6296
 7253SOL     OW33217   2.409   3.074   8.873  0.8945 -0.0143 -0.0362
 7253SOL    HW133218   2.384   3.027   8.952  1.1143 -0.5620 -0.2915
 7253SOL    HW233219   2.424   3.164   8.904  0.1817 -0.1413  0.6612
 7254SOL     OW33220   4.677   3.930  12.407 -0.1692  0.3106  0.0606
 7254SOL    HW133221   4.652   3.918  12.499  0.7356 -0.7286  0.1729
 7254SOL    HW233222   4.701   4.022  12.406 -1.5917  0.7003  0.8573
 7255SOL     OW33223   0.477   0.497   3.892  0.0754  0.0469  0.7816
 7255SOL    HW133224   0.451   0.500   3.800  2.6385  3.7334  0.1825
 7255SOL    HW233225   0.562   0.454   3.881 -1.0173 -2.1770  1.0001
 7256SOL     OW33226   2.539   0.843   3.879 -0.6109  0.0951  0.1042
 7256SOL    HW133227   2.489   0.806   3.807  1.8262 -2.4598 -0.2670
 7256SOL    HW233228   2.496   0.928   3.885 -0.9745 -0.0028 -1.2332
 7257SOL     OW33229   0.652   2.384   1.647  0.2087 -0.0210  0.4352
 7257SOL    HW133230   0.718   2.332   1.692 -0.2694 -2.4352 -1.6699
 7257SOL    HW233231   0.619   2.453   1.705  1.7316  1.1944 -0.1632
 7258SOL     OW33232   3.099   1.022   8.499  0.3596 -0.3805 -0.1811
 7258SOL    HW133233   3.120   1.106   8.540  1.2644  0.5399 -2.5181
 7258SOL    HW233234   3.121   0.971   8.577 -1.6211 -2.2952 -0.8834
 7259SOL     OW33235   1.710   3.669   0.594  0.6363 -0.1423  0.0664
 7259SOL    HW133236   1.744   3.583   0.572  0.4711 -0.2702  0.3128
 7259SOL    HW233237   1.783   3.716   0.634 -0.7165  0.2776  2.0364
 7260SOL     OW33238   1.696   3.297   1.265 -0.3040  0.4746 -0.1000
 7260SOL    HW133239   1.706   3.239   1.340  0.5278  0.8329  0.0602
 7260SOL    HW233240   1.615   3.343   1.287 -0.5581 -0.1919  0.3759
 7261SOL     OW33241   0.787   2.876   7.571 -0.2547  0.0180 -0.1623
 7261SOL    HW133242   0.726   2.917   7.633  0.4482 -2.0680  1.9089
 7261SOL    HW233243   0.788   2.782   7.588  1.3732 -0.4783 -3.0056
 7262SOL     OW33244   0.714   3.002   1.919  0.0717  0.1564 -0.2172
 7262SOL    HW133245   0.748   3.019   1.831  2.4294 -0.2991  0.5813
 7262SOL    HW233246   0.634   2.954   1.900 -0.0107 -0.4916  1.7634
 7263SOL     OW33247   3.794   0.409   7.410  0.1871 -0.0369  0.3678
 7263SOL    HW133248   3.731   0.405   7.481  1.0740 -2.4301  1.0170
 7263SOL    HW233249   3.784   0.500   7.383  0.8833  0.6969  2.6501
 7264SOL     OW33250   1.168   2.797  17.567 -0.3060  0.4007 -0.2082
 7264SOL    HW133251   1.133   2.783  17.655  1.2525 -2.3882 -0.0358
 7264SOL    HW233252   1.234   2.731  17.548  2.0703  1.8841  2.8397
 7265SOL     OW33253   2.589   3.177   4.828  0.3339 -0.0792  0.4962
 7265SOL    HW133254   2.563   3.263   4.796  0.0471 -0.2038  0.3890
 7265SOL    HW233255   2.683   3.187   4.841  0.3466  2.9501 -1.9600
 7266SOL     OW33256   1.855   4.251   8.274  0.3941  0.2672 -0.1739
 7266SOL    HW133257   1.890   4.286   8.356 -0.3427  0.5244  0.0341
 7266SOL    HW233258   1.835   4.163   8.306 -0.2526 -0.4116 -2.3978
 7267SOL     OW33259   2.389   3.468   0.199 -0.1017  0.0964  0.1196
 7267SOL    HW133260   2.380   3.420   0.117  1.7910 -0.8201  0.4452
 7267SOL    HW233261   2.480   3.447   0.220  0.1853  0.0978 -1.1381
 7268SOL     OW33262   0.963   1.972   6.839 -0.0391  0.1928  0.2422
 7268SOL    HW133263   0.882   1.983   6.789  0.5274  0.6647 -0.5822
 7268SOL    HW233264   0.949   2.060   6.874  1.0821  0.1887  0.6946
 7269SOL     OW33265   0.586   0.956   9.428  0.2867  0.2268 -0.3179
 7269SOL    HW133266   0.583   0.962   9.524  0.9677 -0.7393 -0.2344
 7269SOL    HW233267   0.537   1.032   9.398 -1.7254 -0.8560  0.1811
 7270SOL     OW33268   3.408   3.343   7.944  0.1338 -0.2919 -0.0707
 7270SOL    HW133269   3.324   3.317   7.983  0.9231 -0.8595  1.2631
 7270SOL    HW233270   3.467   3.328   8.018 -0.5371  0.2469  0.5763
 7271SOL     OW33271   2.703   4.362   4.229  0.1310 -0.7778 -0.2530
 7271SOL    HW133272   2.715   4.447   4.187 -0.2042 -0.2527  0.7058
 7271SOL    HW233273   2.776   4.355   4.291  1.3371  0.1501 -1.5880
 7272SOL     OW33274   2.604   3.451  10.450 -0.4836  0.2245 -0.0846
 7272SOL    HW133275   2.649   3.460  10.366  0.6779  0.6239  0.5743
 7272SOL    HW233276   2.668   3.492  10.509 -1.3801  0.5776  0.6440
 7273SOL     OW33277   3.747   0.377  12.954 -0.0748  0.3559  0.5749
 7273SOL    HW133278   3.787   0.359  13.039 -1.0967 -1.8775  0.5735
 7273SOL    HW233279   3.706   0.296  12.925 -1.1243  1.2552 -0.4381
 7274SOL     OW33280   1.237   0.844   1.469 -0.1175 -0.0552  0.1279
 7274SOL    HW133281   1.253   0.760   1.427  0.6643  1.3056 -2.3022
 7274SOL    HW233282   1.142   0.849   1.480  0.0292  0.3122  1.2374
 7275SOL     OW33283   3.468   3.306   4.820  0.2233  0.0349  0.1601
 7275SOL    HW133284   3.457   3.217   4.851  0.4359  0.3497  1.1633
 7275SOL    HW233285   3.510   3.291   4.736 -0.3055  0.8752 -0.2501
 7276SOL     OW33286   2.030   3.244   1.167  0.0749 -0.7199  0.5806
 7276SOL    HW133287   2.068   3.157   1.177 -0.0477 -0.8444  0.0154
 7276SOL    HW233288   1.940   3.221   1.188  1.1726 -3.5355  2.1186
 7277SOL     OW33289   2.948   2.456   1.727  0.4369 -0.1429  0.0702
 7277SOL    HW133290   3.025   2.480   1.778 -0.3468  1.8077  0.3160
 7277SOL    HW233291   2.903   2.536   1.700 -1.3790  0.2804  4.3622
 7278SOL     OW33292   1.470   3.510   2.028 -0.0073  0.2643  0.2751
 7278SOL    HW133293   1.407   3.573   2.065  0.3276  0.5339  0.3829
 7278SOL    HW233294   1.438   3.428   2.066  1.1976  0.2956  1.3517
 7279SOL     OW33295   2.025   1.843   9.419  0.9845 -0.0348 -0.1559
 7279SOL    HW133296   2.087   1.805   9.482  3.1072  0.7928 -1.7180
 7279SOL    HW233297   1.985   1.758   9.398  0.9600  0.2271 -1.1452
 7280SOL     OW33298   1.844   3.905  15.312 -0.0279 -0.0855 -0.3045
 7280SOL    HW133299   1.923   3.949  15.345  0.0326  0.6474 -1.4147
 7280SOL    HW233300   1.833   3.824  15.363  0.0535  0.9103  1.2940
 7281SOL     OW33301   3.673   4.073  15.438 -0.3670  0.1874 -0.2950
 7281SOL    HW133302   3.583   4.042  15.436  0.0125 -0.8782 -0.9591
 7281SOL    HW233303   3.668   4.158  15.394  2.4078  0.7937  0.5252
 7282SOL     OW33304   1.532   4.229   4.633  0.1402  0.9587 -0.1443
 7282SOL    HW133305   1.609   4.258   4.681 -0.7798 -1.4486  2.8224
 7282SOL    HW233306   1.547   4.135   4.618  1.1993  1.4223 -1.9302
 7283SOL     OW33307   3.413   1.431  16.688  0.5150  0.5181  0.0301
 7283SOL    HW133308   3.500   1.392  16.694 -0.2952 -1.2000  0.3657
 7283SOL    HW233309   3.445   1.521  16.680  0.6881  0.6802  2.4398
 7284SOL     OW33310   1.449   3.566  13.311  0.8202 -0.0805 -0.7122
 7284SOL    HW133311   1.524   3.528  13.358 -0.5332 -0.1492  1.3888
 7284SOL    HW233312   1.408   3.618  13.381 -1.4706 -1.9635 -0.6471
 7285SOL     OW33313   3.497   0.535   7.405  0.0257  0.1106 -0.2122
 7285SOL    HW133314   3.543   0.619   7.400  0.7449 -0.3176 -0.9448
 7285SOL    HW233315   3.457   0.523   7.318  2.5312  1.5124 -1.5784
 7286SOL     OW33316   1.565   3.639   1.346 -0.0304  0.3826  0.5741
 7286SOL    HW133317   1.643   3.587   1.367 -0.5958 -1.1193 -1.0442
 7286SOL    HW233318   1.594   3.694   1.273 -0.9850 -0.2417 -0.2850
 7287SOL     OW33319   0.386   3.008   8.034  0.1288 -0.4896  0.0097
 7287SOL    HW133320   0.347   3.061   8.104 -1.1664 -0.9206 -0.3729
 7287SOL    HW233321   0.359   3.052   7.954  2.8056  0.2997 -0.4286
 7288SOL     OW33322   3.478   4.090  14.037 -0.1564  0.3440 -0.2044
 7288SOL    HW133323   3.488   4.032  14.112  1.2737  0.2345 -0.4894
 7288SOL    HW233324   3.483   4.166  14.095  0.4536  1.6533 -1.9569
 7289SOL     OW33325   2.766   4.616   8.760  0.4455 -0.2157 -0.4883
 7289SOL    HW133326   2.693   4.561   8.732 -1.0598  1.7549 -0.5129
 7289SOL    HW233327   2.721   4.699   8.776  2.1001  0.6473 -0.2641
 7290SOL     OW33328   3.969   1.967   3.398  0.2007 -0.0578  0.4186
 7290SOL    HW133329   3.922   1.980   3.480 -0.2638 -0.0687  0.1499
 7290SOL    HW233330   3.899   1.990   3.337  0.1309 -0.8857  0.1822
 7291SOL     OW33331   4.292   3.511   7.218  0.0559 -0.1477 -0.3821
 7291SOL    HW133332   4.350   3.436   7.208 -1.0756 -1.1078  0.2933
 7291SOL    HW233333   4.295   3.520   7.313  0.2422 -0.6088 -0.3446
 7292SOL     OW33334   0.576   1.562   0.644 -0.0353  0.5171 -0.3656
 7292SOL    HW133335   0.562   1.568   0.550 -0.9066  0.6389 -0.2312
 7292SOL    HW233336   0.650   1.502   0.641 -0.4376  0.1180 -2.4244
 7293SOL     OW33337   2.980   4.450   8.705 -0.1365  0.1539  0.6713
 7293SOL    HW133338   2.932   4.532   8.708 -0.2686  0.1530 -1.5705
 7293SOL    HW233339   2.999   4.440   8.799  1.2733 -4.7562 -0.0936
 7294SOL     OW33340   0.998   3.650   5.982 -0.1038 -0.5054 -0.7260
 7294SOL    HW133341   0.940   3.587   6.024 -0.4392  0.1996 -0.1120
 7294SOL    HW233342   1.081   3.607   6.003  0.8814  1.8704  0.2966
 7295SOL     OW33343   4.336   3.862   5.167  0.7831 -0.1248 -0.7444
 7295SOL    HW133344   4.423   3.870   5.204  2.0106  1.0258 -3.8699
 7295SOL    HW233345   4.351   3.825   5.080 -2.5859 -2.4519 -0.3565
 7296SOL     OW33346   0.480   3.420  16.106 -0.0913  0.5744 -0.4212
 7296SOL    HW133347   0.393   3.417  16.146 -0.1990 -3.0429 -0.9427
 7296SOL    HW233348   0.500   3.329  16.084 -0.1504  1.0990 -2.6558
 7297SOL     OW33349   0.643   4.081   1.059  0.4468 -0.3311 -0.1939
 7297SOL    HW133350   0.733   4.096   1.088 -0.1720  1.3426  0.8412
 7297SOL    HW233351   0.591   4.145   1.108 -0.1999  0.1911 -1.5489
 7298SOL     OW33352   3.467   2.741   3.346  0.2780  0.1161 -0.3412
 7298SOL    HW133353   3.433   2.720   3.259 -0.3596 -1.7667  0.3493
 7298SOL    HW233354   3.514   2.660   3.366  1.0319  0.7826  0.5863
 7299SOL     OW33355   3.229   1.023  12.304  0.2057  0.5787  0.4449
 7299SOL    HW133356   3.138   1.037  12.277  0.4978  0.9184 -0.3608
 7299SOL    HW233357   3.258   0.981  12.223  0.7380 -0.5467  1.2225
 7300SOL     OW33358   4.566   4.611  12.544 -0.2261 -0.1782 -0.1093
 7300SOL    HW133359   4.487   4.566  12.572 -0.0490  1.7184  3.4440
 7300SOL    HW233360   4.629   4.557  12.593 -0.4446 -1.1500 -0.8819
 7301SOL     OW33361   1.519   1.393  11.602 -0.1769  0.2810  0.3806
 7301SOL    HW133362   1.575   1.316  11.609  0.1406  0.4804  0.0283
 7301SOL    HW233363   1.495   1.385  11.509  0.2290 -0.7761  0.3629
 7302SOL     OW33364   3.429   0.951  13.654 -0.3704 -0.4993  0.1272
 7302SOL    HW133365   3.377   0.950  13.734  0.9246  0.9509  0.9802
 7302SOL    HW233366   3.362   0.916  13.594  0.3910  0.3358 -1.2217
 7303SOL     OW33367   2.067   3.960  15.566 -0.1558  0.3940 -0.4405
 7303SOL    HW133368   1.992   4.020  15.562 -0.3954  0.2283  1.4039
 7303SOL    HW233369   2.077   3.958  15.661  0.2135  0.8439 -0.4682
 7304SOL     OW33370   0.681   0.906   7.235 -0.1381  0.1511 -0.2000
 7304SOL    HW133371   0.694   1.001   7.235  0.7367  0.0187  0.9682
 7304SOL    HW233372   0.703   0.892   7.327  1.6566 -2.2615 -1.0114
 7305SOL     OW33373   3.361   4.666   1.720  0.2947 -0.4176  0.3538
 7305SOL    HW133374   3.410   0.023   1.705 -4.7410  2.5370 -0.1807
 7305SOL    HW233375   3.273   4.699   1.700  0.8739  0.2871 -0.9830
 7306SOL     OW33376   3.566   0.907   5.730 -0.5657 -0.1023 -0.1411
 7306SOL    HW133377   3.648   0.954   5.743 -0.0544 -0.4712 -1.9207
 7306SOL    HW233378   3.575   0.851   5.807  1.4719  0.2260 -0.1303
 7307SOL     OW33379   3.837   1.927   9.555 -0.1198  0.2648  0.1726
 7307SOL    HW133380   3.819   1.932   9.461  0.4794  0.5415  0.0695
 7307SOL    HW233381   3.848   2.022   9.569  0.0709  0.2265  0.2818
 7308SOL     OW33382   1.625   3.366   9.425 -0.0536 -0.0706  0.1796
 7308SOL    HW133383   1.626   3.313   9.504  3.4053 -0.4185 -0.0777
 7308SOL    HW233384   1.593   3.302   9.360 -2.0543 -0.0258  1.1257
 7309SOL     OW33385   1.304   0.327   3.991 -0.4766 -0.6874 -0.8479
 7309SOL    HW133386   1.394   0.309   4.019 -0.7181 -0.7752 -0.1263
 7309SOL    HW233387   1.256   0.250   4.023 -2.7005  0.7061 -0.8591
 7310SOL     OW33388   0.900   3.375   3.967  0.4565 -0.0516  0.8397
 7310SOL    HW133389   0.932   3.465   3.959 -2.8071  1.1769  1.4914
 7310SOL    HW233390   0.812   3.396   3.997  0.7290 -0.3903  1.8840
 7311SOL     OW33391   3.816   0.117   5.078 -0.3225  0.2153  0.0683
 7311SOL    HW133392   3.866   0.195   5.101 -0.2040  0.7672 -2.0386
 7311SOL    HW233393   3.854   0.103   4.992  0.2657  1.6666  0.0910
 7312SOL     OW33394   2.468   0.953  11.461 -0.0104 -0.0359  0.4222
 7312SOL    HW133395   2.561   0.929  11.461 -0.9568 -3.6563  4.9153
 7312SOL    HW233396   2.426   0.867  11.462  0.0882 -0.0928 -0.1544
 7313SOL     OW33397   1.017   2.480   3.815 -0.5280 -0.6922  0.4297
 7313SOL    HW133398   0.929   2.498   3.781 -0.3248  3.7043  2.2089
 7313SOL    HW233399   1.062   2.451   3.736  0.5602 -0.0905  0.8312
 7314SOL     OW33400   3.431   3.764   7.183 -0.4894  0.8829 -0.4833
 7314SOL    HW133401   3.342   3.794   7.201  0.0354  2.0521  0.1118
 7314SOL    HW233402   3.466   3.782   7.271  1.5462  0.1371 -1.1416
 7315SOL     OW33403   1.164   2.965  13.683  0.2265  0.3925 -0.0613
 7315SOL    HW133404   1.260   2.969  13.684  0.3180 -2.7917  3.2521
 7315SOL    HW233405   1.160   2.996  13.593  0.1296  1.0986  0.1893
 7316SOL     OW33406   2.207   3.853   3.751  0.0540  0.3006 -0.7922
 7316SOL    HW133407   2.117   3.827   3.731 -0.1565 -0.4312  1.1299
 7316SOL    HW233408   2.256   3.770   3.748 -0.9100 -0.2744 -0.7857
 7317SOL     OW33409   3.217   4.467   6.728 -0.3387  0.0938 -0.0452
 7317SOL    HW133410   3.255   4.383   6.751  0.1145  0.3916  0.2991
 7317SOL    HW233411   3.272   4.504   6.658  1.3868 -0.6701  0.9191
 7318SOL     OW33412   0.184   1.004   7.583 -0.1417 -0.0572 -0.0470
 7318SOL    HW133413   0.259   1.064   7.582 -0.4122  0.2523 -2.1328
 7318SOL    HW233414   0.112   1.066   7.593  0.5492  0.4496  1.7691
 7319SOL     OW33415   3.749   1.217  13.254  0.1101 -0.1789 -0.0199
 7319SOL    HW133416   3.662   1.185  13.279 -0.9685  0.3473 -3.0558
 7319SOL    HW233417   3.774   1.151  13.190 -0.4862  0.5149 -0.9627
 7320SOL     OW33418   0.314   0.118   9.545 -0.4329 -0.4040 -0.0050
 7320SOL    HW133419   0.260   0.196   9.532  0.0069 -0.1727 -0.4673
 7320SOL    HW233420   0.397   0.143   9.502  0.3301  1.3562  2.5136
 7321SOL     OW33421   1.412   3.444   7.127 -0.1746  0.0328 -0.2526
 7321SOL    HW133422   1.330   3.478   7.160  1.4352  1.5707  2.1670
 7321SOL    HW233423   1.417   3.348   7.132  0.3259  0.1243  0.8897
 7322SOL     OW33424   3.640   3.775   2.684 -0.5220 -0.0284 -0.0536
 7322SOL    HW133425   3.588   3.749   2.608  0.2527 -0.0639 -0.5769
 7322SOL    HW233426   3.726   3.757   2.645 -1.3766 -1.3697 -1.2770
 7323SOL     OW33427   4.311   4.714   4.503  0.6512 -0.1591 -0.2622
 7323SOL    HW133428   4.223   4.687   4.478 -0.5912  2.3448  1.3638
 7323SOL    HW233429   4.306   4.709   4.598 -0.4695 -0.1215 -0.3296
 7324SOL     OW33430   0.816   3.373   1.924 -0.5327 -0.6040  0.0866
 7324SOL    HW133431   0.743   3.433   1.905  2.0309  2.2477 -0.8503
 7324SOL    HW233432   0.883   3.441   1.912 -1.2773  0.3553  1.3794
 7325SOL     OW33433   3.814   3.908   1.058 -0.6892 -0.1060 -0.3651
 7325SOL    HW133434   3.856   3.856   0.990  1.0698  0.5995  0.1920
 7325SOL    HW233435   3.891   3.962   1.075 -1.9824  1.3360  0.9138
 7326SOL     OW33436   4.310   2.221  14.243  0.3071  0.0814  0.2723
 7326SOL    HW133437   4.323   2.313  14.218  0.2626  0.7169  2.6157
 7326SOL    HW233438   4.349   2.180  14.166 -0.1821 -1.6119  0.9400
 7327SOL     OW33439   2.585   1.231   0.609 -0.3113  0.7658 -0.1933
 7327SOL    HW133440   2.520   1.288   0.651 -0.0851  2.0964 -1.6715
 7327SOL    HW233441   2.536   1.178   0.547 -1.1260 -1.6341  2.4800
 7328SOL     OW33442   3.274   1.522   4.739 -0.2742 -0.0976  0.2991
 7328SOL    HW133443   3.310   1.521   4.827  0.2533 -1.6967  0.0708
 7328SOL    HW233444   3.339   1.573   4.690 -0.3763  0.2793  0.5541
 7329SOL     OW33445   2.383   1.204   2.355 -0.0172 -0.1167 -0.0885
 7329SOL    HW133446   2.309   1.144   2.348  0.3055 -0.7316  1.7120
 7329SOL    HW233447   2.447   1.142   2.388  0.7524  0.8886  0.2901
 7330SOL     OW33448   0.065   1.698  14.080  0.1801  0.0072  0.2439
 7330SOL    HW133449   0.092   1.719  14.170 -0.3586 -0.6315  0.5609
 7330SOL    HW233450   0.081   1.787  14.047 -0.5357 -0.6430 -1.8193
 7331SOL     OW33451   4.326   1.719  10.945  0.5493  0.5563  0.0727
 7331SOL    HW133452   4.400   1.729  10.885  1.0270 -4.5148 -0.1640
 7331SOL    HW233453   4.354   1.751  11.031 -0.2318 -0.7422  0.7994
 7332SOL     OW33454   2.425   1.594  13.803  0.2063  1.1723 -0.6044
 7332SOL    HW133455   2.344   1.632  13.769  0.2111  1.2283 -0.5510
 7332SOL    HW233456   2.390   1.524  13.858 -0.5612  2.6250  0.7529
 7333SOL     OW33457   4.599   1.878   2.663 -0.2259 -0.3046 -0.1944
 7333SOL    HW133458   4.558   1.928   2.592 -2.7612  0.0984  1.5755
 7333SOL    HW233459   4.522   1.839   2.704 -0.0494 -0.9713 -0.4894
 7334SOL     OW33460   2.632   3.706   2.990 -0.0774  0.0490  0.0907
 7334SOL    HW133461   2.668   3.617   2.991  1.0099  0.4833  0.2263
 7334SOL    HW233462   2.587   3.710   3.074  0.0352  3.1331  0.0026
 7335SOL     OW33463   0.772   3.624   3.632  0.5081 -0.0038  0.5095
 7335SOL    HW133464   0.761   3.547   3.688 -0.5226 -0.2808 -0.0727
 7335SOL    HW233465   0.700   3.618   3.569  1.3654 -1.0943 -0.3741
 7336SOL     OW33466   4.433   0.415   7.798 -0.2871 -0.3979 -0.2533
 7336SOL    HW133467   4.520   0.447   7.822 -0.6179  1.0932 -1.0478
 7336SOL    HW233468   4.385   0.495   7.820 -0.4256 -0.5918  0.1491
 7337SOL     OW33469   2.453   3.927   3.956 -0.2391 -0.1639 -0.0073
 7337SOL    HW133470   2.364   3.895   3.967 -1.1877  2.3221 -0.5092
 7337SOL    HW233471   2.498   3.866   4.015 -0.7742  0.2893  0.8705
 7338SOL     OW33472   3.499   4.670  12.597 -0.6645  0.0057  0.1944
 7338SOL    HW133473   3.450   4.717  12.665 -0.5007 -1.2663  1.2033
 7338SOL    HW233474   3.433   4.601  12.588  1.6632 -2.1315 -0.5043
 7339SOL     OW33475   0.421   4.049   7.695 -0.4508 -0.2912 -0.1187
 7339SOL    HW133476   0.428   3.975   7.756  2.2645 -1.4621 -1.8668
 7339SOL    HW233477   0.376   4.007   7.622 -1.5545  0.9105 -0.1227
 7340SOL     OW33478   1.682   1.640   2.944  0.0293  0.4175  0.2465
 7340SOL    HW133479   1.739   1.675   2.876 -0.8702 -0.8081 -1.1494
 7340SOL    HW233480   1.630   1.712   2.979  0.3728  0.5070  0.5781
 7341SOL     OW33481   3.527   0.764  14.087 -0.0322 -0.0382 -0.7288
 7341SOL    HW133482   3.526   0.729  13.998 -1.5519 -0.6388 -0.4683
 7341SOL    HW233483   3.570   0.848  14.071  1.6693 -0.7050  0.3322
 7342SOL     OW33484   0.034   4.424   2.736  0.1811 -0.5346  0.8450
 7342SOL    HW133485   0.044   4.380   2.820  1.0981  0.3803  1.2164
 7342SOL    HW233486   4.663   4.435   2.739  0.3584  1.0640  0.7400
 7343SOL     OW33487   3.851   1.591   4.310  1.4100 -0.0269  0.0420
 7343SOL    HW133488   3.943   1.565   4.315  1.4061  0.3491  1.8846
 7343SOL    HW233489   3.848   1.654   4.237  2.7044 -0.4878 -0.4182
 7344SOL     OW33490   2.977   0.803   6.118  0.1248  0.1822 -0.3072
 7344SOL    HW133491   3.022   0.724   6.147  2.2225  2.1310  1.7020
 7344SOL    HW233492   3.007   0.868   6.182  0.9433 -0.9444  0.4399
 7345SOL     OW33493   3.039   4.557  17.255 -0.2718  0.3568 -0.3741
 7345SOL    HW133494   3.122   4.525  17.220  0.5082  2.2794 -0.3156
 7345SOL    HW233495   3.063   4.639  17.298  0.6139  0.5937 -1.3338
 7346SOL     OW33496   0.058   4.622   2.412 -0.4357 -0.0244  0.1800
 7346SOL    HW133497   4.690   4.597   2.421 -0.1726 -1.3286 -0.6938
 7346SOL    HW233498   0.069   4.586   2.324  0.4875 -2.9586  1.5045
 7347SOL     OW33499   0.792   4.148   0.664  0.0125  0.3473 -0.2197
 7347SOL    HW133500   0.813   4.088   0.593 -0.3872 -0.5259  0.3980
 7347SOL    HW233501   0.831   4.225   0.622  1.5983 -0.1158  0.4361
 7348SOL     OW33502   4.447   3.041   4.926  0.6396  0.3787  0.2555
 7348SOL    HW133503   4.353   3.026   4.935  0.7256 -0.6711 -0.6807
 7348SOL    HW233504   4.457   3.016   4.834 -0.6405 -0.1470  0.2586
 7349SOL     OW33505   2.724   1.302  10.171  0.5944  0.1124  0.4020
 7349SOL    HW133506   2.730   1.247  10.249 -1.2217 -2.5335 -1.3288
 7349SOL    HW233507   2.656   1.254  10.124  1.0042  0.6803 -0.7638
 7350SOL     OW33508   1.782   0.315   6.705  0.3097 -0.7455  1.0000
 7350SOL    HW133509   1.745   0.267   6.630  0.0425 -1.5734  1.6638
 7350SOL    HW233510   1.707   0.370   6.726 -0.4879 -1.0907 -0.9371
 7351SOL     OW33511   3.420   1.799  13.616 -0.3533  0.0164 -0.2348
 7351SOL    HW133512   3.351   1.865  13.620  1.9408  2.4855 -1.8212
 7351SOL    HW233513   3.373   1.727  13.658 -0.3102  1.1176  1.6914
 7352SOL     OW33514   2.430   1.149   8.597 -0.3329  0.1844 -0.3611
 7352SOL    HW133515   2.508   1.110   8.558 -0.7708 -0.7754 -0.2827
 7352SOL    HW233516   2.455   1.241   8.602 -0.6761  0.2995 -0.7549
 7353SOL     OW33517   0.092   4.075  17.463  0.5169  0.2369  0.3263
 7353SOL    HW133518   0.010   4.079  17.512 -1.4170 -0.0779 -2.8639
 7353SOL    HW233519   0.098   4.168  17.443  1.1964  0.1008 -0.0986
 7354SOL     OW33520   3.638   4.183   8.206  0.0236  0.3013  0.3956
 7354SOL    HW133521   3.718   4.150   8.246  0.3398  1.6243  0.8453
 7354SOL    HW233522   3.674   4.266   8.177 -2.2331  0.5501 -1.7654
 7355SOL     OW33523   1.252   1.927   7.940  0.2744 -0.2270 -0.4754
 7355SOL    HW133524   1.158   1.930   7.925 -0.0790 -0.1243  1.9231
 7355SOL    HW233525   1.271   1.833   7.933  1.4532  0.0673 -1.4260
 7356SOL     OW33526   2.593   1.389   8.201  0.0168  0.4184 -0.2051
 7356SOL    HW133527   2.612   1.476   8.167  3.2908 -0.8232 -1.5919
 7356SOL    HW233528   2.664   1.381   8.265 -0.6401 -1.9286  0.2504
 7357SOL     OW33529   1.501   0.915   3.927  0.2141  0.1270 -0.4787
 7357SOL    HW133530   1.431   0.892   3.989  1.4304 -2.0342  0.0994
 7357SOL    HW233531   1.528   0.996   3.970  2.4732 -0.0909 -1.5060
 7358SOL     OW33532   0.594   1.087   4.363 -0.1668 -0.0649  0.1403
 7358SOL    HW133533   0.612   0.999   4.395  1.6693  0.4327  0.4563
 7358SOL    HW233534   0.678   1.126   4.386  0.6993 -1.8131 -0.0895
 7359SOL     OW33535   0.961   3.705   3.059 -0.2808  0.4829 -0.0716
 7359SOL    HW133536   0.949   3.653   2.980  0.7274  0.0186  0.0857
 7359SOL    HW233537   0.934   3.791   3.025  0.1538  0.2270 -1.0583
 7360SOL     OW33538   0.205   1.917   7.575  0.1105 -0.3510 -0.2455
 7360SOL    HW133539   0.214   1.978   7.501 -0.7423  0.1813  0.0948
 7360SOL    HW233540   0.256   1.958   7.645 -0.7683  0.2089  0.0612
 7361SOL     OW33541   1.439   0.018   0.991 -0.1684 -0.5206 -0.8249
 7361SOL    HW133542   1.499   4.702   1.054  0.3752  0.0449 -0.9785
 7361SOL    HW233543   1.510   0.046   0.933 -0.2790 -0.1299 -0.7733
 7362SOL     OW33544   3.878   2.998   0.585  0.7071 -0.8635  0.5787
 7362SOL    HW133545   3.808   3.009   0.650 -0.7061  1.3949 -1.3392
 7362SOL    HW233546   3.845   3.034   0.503  2.5515  0.2748  0.3209
 7363SOL     OW33547   3.252   1.157   3.999 -0.6179  0.9600  0.5499
 7363SOL    HW133548   3.275   1.068   4.025  1.1854  1.0992 -0.5184
 7363SOL    HW233549   3.337   1.200   3.987 -0.2030 -0.1194 -0.4718
 7364SOL     OW33550   1.418   2.950  13.612 -0.3842 -0.4926 -0.3123
 7364SOL    HW133551   1.475   3.001  13.554 -0.3955  1.3069  1.2927
 7364SOL    HW233552   1.442   2.863  13.580  1.3202  0.9707 -3.0470
 7365SOL     OW33553   3.818   3.239  15.790 -0.0107 -0.0449  0.4346
 7365SOL    HW133554   3.744   3.208  15.738  1.8554  0.9657 -2.7937
 7365SOL    HW233555   3.880   3.268  15.724  0.9038 -0.6158  1.0328
 7366SOL     OW33556   1.597   0.908   2.153 -0.2443 -0.6883  0.5089
 7366SOL    HW133557   1.624   0.984   2.101  0.1173  1.4490  3.7691
 7366SOL    HW233558   1.676   0.869   2.191  1.0394  0.8168 -0.5758
 7367SOL     OW33559   3.015   2.103  12.625  0.1134 -0.2501 -0.9654
 7367SOL    HW133560   2.985   2.050  12.699  4.2130  0.4456  1.1730
 7367SOL    HW233561   3.033   2.043  12.553 -1.2791 -2.3861  0.4312
 7368SOL     OW33562   3.337   2.713   5.188  0.3968 -0.2491 -0.5599
 7368SOL    HW133563   3.256   2.678   5.223  1.6105 -2.1812  0.2995
 7368SOL    HW233564   3.385   2.739   5.267 -0.9538 -1.0664  0.5320
 7369SOL     OW33565   3.866   2.367   4.715  0.3779 -0.5738  0.3614
 7369SOL    HW133566   3.878   2.280   4.753  2.6645 -0.1226  0.6330
 7369SOL    HW233567   3.770   2.377   4.713  0.3765 -0.5377  0.7003
 7370SOL     OW33568   4.615   1.589   4.885  0.1888 -0.2920 -0.0520
 7370SOL    HW133569   4.697   1.560   4.924 -1.2238 -0.9369  2.5157
 7370SOL    HW233570   4.562   1.590   4.966  0.8603 -1.0028  0.4017
 7371SOL     OW33571   0.762   3.096   5.229  0.6445 -0.5314  0.1481
 7371SOL    HW133572   0.857   3.099   5.217  0.6046  3.7145  0.9430
 7371SOL    HW233573   0.769   3.084   5.323 -0.0933  0.9970  0.3937
 7372SOL     OW33574   1.633   0.296   3.188 -0.2354  0.4854  0.5023
 7372SOL    HW133575   1.587   0.281   3.105  0.9812  0.4343 -0.1647
 7372SOL    HW233576   1.573   0.363   3.222 -0.8408  0.2042 -0.0191
 7373SOL     OW33577   1.701   1.190   3.706 -0.0637 -0.1216  0.0167
 7373SOL    HW133578   1.738   1.277   3.722  0.3651 -0.4605  0.8869
 7373SOL    HW233579   1.723   1.142   3.786 -2.8378 -0.6399  0.4561
 7374SOL     OW33580   4.562   0.255   6.604 -0.0047 -0.4983  0.0019
 7374SOL    HW133581   4.590   0.314   6.675 -2.6923 -0.2954  0.9225
 7374SOL    HW233582   4.609   0.178   6.635  0.0144 -0.3170  0.4279
 7375SOL     OW33583   3.748   0.333   9.347  0.2131 -0.4844  0.1204
 7375SOL    HW133584   3.676   0.375   9.393 -0.4216 -1.3775 -0.0488
 7375SOL    HW233585   3.820   0.381   9.388  0.4845 -1.6883  1.0595
 7376SOL     OW33586   3.115   2.607  13.846 -0.2272  0.2324 -0.0178
 7376SOL    HW133587   3.136   2.665  13.920  1.0180 -0.4997  0.1997
 7376SOL    HW233588   3.046   2.547  13.874  0.7514  0.3495  2.6958
 7377SOL     OW33589   0.100   1.898   8.293  0.5347  0.5580 -0.2889
 7377SOL    HW133590   0.026   1.839   8.287 -0.8051  2.0157  1.8261
 7377SOL    HW233591   0.165   1.851   8.345  2.1902  2.3309 -0.7298
 7378SOL     OW33592   0.125   0.506   9.043 -0.0331  0.4147 -0.1830
 7378SOL    HW133593   0.096   0.467   8.960  0.1398  0.8083 -0.4279
 7378SOL    HW233594   0.135   0.427   9.097  1.5547  1.8773  1.6691
 7379SOL     OW33595   1.474   3.502   9.668  0.3645  0.2656 -0.3219
 7379SOL    HW133596   1.507   3.468   9.585 -0.3344 -2.3945  0.5025
 7379SOL    HW233597   1.551   3.543   9.707 -0.6985 -0.2489  2.2912
 7380SOL     OW33598   3.763   3.319   3.046 -0.0692 -0.4146 -0.3493
 7380SOL    HW133599   3.797   3.285   2.963  0.9637  0.2484 -0.2056
 7380SOL    HW233600   3.703   3.252   3.079 -1.3942  0.4416 -1.0175
 7381SOL     OW33601   1.410   1.988  16.813  0.0419 -0.2802  0.0612
 7381SOL    HW133602   1.409   2.055  16.881 -0.0890  2.7872 -2.9418
 7381SOL    HW233603   1.320   1.954  16.810  0.7951 -2.3519  1.4306
 7382SOL     OW33604   2.945   3.319   8.281 -0.3693  0.2131 -0.1072
 7382SOL    HW133605   2.895   3.262   8.340  0.9790  0.3832  1.2193
 7382SOL    HW233606   3.026   3.332   8.330 -1.2280  0.6767  1.1986
 7383SOL     OW33607   2.725   2.090   0.876 -0.5308 -0.6462 -0.2566
 7383SOL    HW133608   2.659   2.047   0.930 -0.1847 -0.7752  0.0668
 7383SOL    HW233609   2.723   2.176   0.918 -2.9970 -0.4811 -0.7144
 7384SOL     OW33610   3.171   3.876  15.997  0.0207 -0.0940  1.1581
 7384SOL    HW133611   3.104   3.834  15.942  2.6545 -3.6663  0.6996
 7384SOL    HW233612   3.240   3.810  15.988  0.3302  0.4308 -0.2848
 7385SOL     OW33613   0.446   1.709   0.838 -0.1650  0.0004  0.1555
 7385SOL    HW133614   0.408   1.787   0.798 -1.5058 -0.1079  1.1963
 7385SOL    HW233615   0.470   1.654   0.763 -0.8935 -1.3233  0.8872
 7386SOL     OW33616   1.548   1.589  14.015 -0.0470 -0.4887  0.5851
 7386SOL    HW133617   1.609   1.517  14.001 -0.5216 -1.3061  2.7072
 7386SOL    HW233618   1.538   1.584  14.110 -2.0832  0.4704  0.4186
 7387SOL     OW33619   3.642   4.291   6.360  0.0970  0.7403 -0.1842
 7387SOL    HW133620   3.560   4.312   6.314  0.7362  0.7182 -1.3261
 7387SOL    HW233621   3.640   4.340   6.443 -0.7666  0.8531 -0.2677
 7388SOL     OW33622   3.566   4.309  15.277  0.1484 -0.2599  0.1400
 7388SOL    HW133623   3.538   4.240  15.217 -2.7863  1.8060 -0.8928
 7388SOL    HW233624   3.492   4.316  15.338 -0.9116 -0.3096 -1.1392
 7389SOL     OW33625   3.205   1.755  11.277  0.0821 -0.3541 -0.1627
 7389SOL    HW133626   3.264   1.752  11.202  1.3293 -2.0646  0.8698
 7389SOL    HW233627   3.237   1.684  11.333 -0.6451 -1.9118 -1.7256
 7390SOL     OW33628   0.328   1.974  14.384  0.0812 -0.5874 -0.2225
 7390SOL    HW133629   0.381   2.024  14.445 -0.3752 -0.6902  0.2529
 7390SOL    HW233630   0.238   1.996  14.408  1.1742  1.7233  1.6926
 7391SOL     OW33631   4.322   3.240   9.449  0.4050  0.0330  0.1712
 7391SOL    HW133632   4.233   3.271   9.465 -0.4140 -1.6970 -1.1180
 7391SOL    HW233633   4.359   3.323   9.418  2.0622 -0.8131 -0.1324
 7392SOL     OW33634   3.756   2.007  14.937  0.0155 -0.3711  0.4166
 7392SOL    HW133635   3.824   2.053  14.888  0.8050 -1.1663  0.7620
 7392SOL    HW233636   3.807   1.969  15.009  3.0446  0.8820 -1.0916
 7393SOL     OW33637   3.363   3.612   0.934  0.3892  0.5365  0.0434
 7393SOL    HW133638   3.384   3.647   0.847 -1.0847 -0.1848 -0.5892
 7393SOL    HW233639   3.435   3.653   0.984  1.4802 -0.9107 -0.3595
 7394SOL     OW33640   1.748   0.958  10.024  0.1500  0.1477 -0.3131
 7394SOL    HW133641   1.811   0.900   9.981  0.5250 -0.2838  0.8085
 7394SOL    HW233642   1.772   1.041   9.983 -1.0140  0.0291 -1.2131
 7395SOL     OW33643   3.106   0.506   2.637  0.3038 -0.2999  0.3909
 7395SOL    HW133644   3.035   0.553   2.682  0.6107  0.5323  0.0157
 7395SOL    HW233645   3.180   0.565   2.620  1.3776 -1.4092  1.1948
 7396SOL     OW33646   2.484   2.345  10.561  0.6467 -0.0553 -0.0597
 7396SOL    HW133647   2.466   2.300  10.643 -1.6618 -1.1325 -1.1506
 7396SOL    HW233648   2.560   2.401  10.579  0.6103 -0.4455  1.3185
 7397SOL     OW33649   1.346   3.671  15.372  0.3489 -0.0514 -0.2062
 7397SOL    HW133650   1.440   3.685  15.366  0.3625  0.2062  0.5355
 7397SOL    HW233651   1.349   3.629  15.459 -0.3099  3.7794  1.6468
 7398SOL     OW33652   4.312   4.538   5.947  0.1042  0.3611  0.0046
 7398SOL    HW133653   4.354   4.461   5.908 -2.9296 -1.3388  0.1588
 7398SOL    HW233654   4.389   4.558   6.002  1.0891  2.0750 -1.9907
 7399SOL     OW33655   1.408   2.244   3.742 -0.4762  0.3005  0.5699
 7399SOL    HW133656   1.314   2.259   3.740 -0.2631  1.5499 -0.2400
 7399SOL    HW233657   1.441   2.334   3.737  0.2317 -0.1119 -2.2080
 7400SOL     OW33658   0.259   3.535   8.167  0.5082  0.2881  0.3929
 7400SOL    HW133659   0.352   3.524   8.149  0.6291 -1.6119  2.2781
 7400SOL    HW233660   0.238   3.617   8.122 -1.8472 -1.2472 -1.3459
 7401SOL     OW33661   2.968   2.234   8.678 -0.1509 -0.2686 -0.3731
 7401SOL    HW133662   3.061   2.250   8.694  0.1078  0.2279 -2.2932
 7401SOL    HW233663   2.939   2.245   8.768  1.4964 -0.6251  0.1987
 7402SOL     OW33664   0.265   1.363   8.064  0.1472  0.2513  0.1976
 7402SOL    HW133665   0.218   1.302   8.122  0.8333 -0.3301  0.1377
 7402SOL    HW233666   0.258   1.441   8.120 -1.9242 -1.2917  2.1229
 7403SOL     OW33667   1.596   1.701  15.607  0.3511 -0.2906 -0.4413
 7403SOL    HW133668   1.664   1.666  15.664  0.4440  1.9530  0.8276
 7403SOL    HW233669   1.599   1.794  15.628  0.7102 -0.8393  1.9477
 7404SOL     OW33670   0.426   4.024   8.435 -0.3299  0.4235  0.2677
 7404SOL    HW133671   0.387   3.937   8.446  0.6176  0.3572  3.2665
 7404SOL    HW233672   0.347   4.072   8.414 -1.2346 -1.6672 -1.0567
 7405SOL     OW33673   2.141   1.107   3.480  0.4383  0.0054  0.8080
 7405SOL    HW133674   2.114   1.107   3.388 -1.1919 -2.2649  1.2820
 7405SOL    HW233675   2.055   1.078   3.510  0.4819 -1.0644 -0.0867
 7406SOL     OW33676   4.356   4.375   8.788 -0.1317 -0.1101 -0.4597
 7406SOL    HW133677   4.371   4.467   8.807  2.1145 -1.2879  3.4290
 7406SOL    HW233678   4.441   4.333   8.798 -1.1901 -2.6104 -1.8805
 7407SOL     OW33679   0.320   0.230   1.321  0.1662  0.1029  0.0255
 7407SOL    HW133680   0.255   0.213   1.254 -0.1202  0.0609  0.3123
 7407SOL    HW233681   0.399   0.187   1.288  0.1477 -0.8402  1.2003
 7408SOL     OW33682   4.570   3.669   0.668 -0.0788  0.7564  0.1775
 7408SOL    HW133683   4.515   3.713   0.733  0.7152 -0.9101  1.9799
 7408SOL    HW233684   4.527   3.688   0.584  0.3249 -2.1819 -0.6993
 7409SOL     OW33685   4.633   0.892  14.209 -0.1236 -0.6499 -0.4502
 7409SOL    HW133686   4.673   0.806  14.201  2.4052  0.6560 -2.2208
 7409SOL    HW233687   4.557   0.867  14.261  0.2913 -0.5393  0.2085
 7410SOL     OW33688   2.861   0.033   3.989  0.7796  0.4320 -0.0941
 7410SOL    HW133689   2.900   0.102   4.041  1.8587 -0.1512 -0.1283
 7410SOL    HW233690   2.918   0.025   3.912  2.1964  0.1349  0.9798
 7411SOL     OW33691   4.365   3.723   3.212 -0.5326 -0.2278 -0.0445
 7411SOL    HW133692   4.296   3.674   3.166 -0.6345  0.2757 -0.4385
 7411SOL    HW233693   4.355   3.816   3.188  3.7404 -0.2552 -1.8431
 7412SOL     OW33694   0.764   2.551   3.785 -0.0914  0.3868 -0.3420
 7412SOL    HW133695   0.700   2.561   3.715 -0.4556 -0.3397 -0.1228
 7412SOL    HW233696   0.786   2.641   3.807  2.1971  0.5292 -3.3366
 7413SOL     OW33697   1.118   3.016   5.855  0.5818 -0.7559  0.3226
 7413SOL    HW133698   1.099   2.937   5.905  0.2597 -0.6142  0.4271
 7413SOL    HW233699   1.140   2.978   5.771  1.8419  0.0138  0.3143
 7414SOL     OW33700   0.466   2.922   7.270  0.1819  0.4714 -0.1964
 7414SOL    HW133701   0.408   2.988   7.230 -1.1877  0.3149  1.5214
 7414SOL    HW233702   0.442   2.949   7.359  2.4469  0.3944  0.4310
 7415SOL     OW33703   0.269   0.482   1.341 -0.1945  0.2702 -0.0807
 7415SOL    HW133704   0.349   0.529   1.365 -0.8616  0.4128  1.9161
 7415SOL    HW233705   0.306   0.394   1.336 -1.2181 -0.1460 -0.2493
 7416SOL     OW33706   4.210   2.426   2.896 -0.1497  0.1544  0.2911
 7416SOL    HW133707   4.238   2.358   2.958  1.0016 -1.8591 -2.4401
 7416SOL    HW233708   4.274   2.413   2.826  0.8616 -1.5012  1.5024
 7417SOL     OW33709   4.470   4.551  14.069 -0.5080  0.5126 -0.3210
 7417SOL    HW133710   4.487   4.645  14.067 -1.1251  0.6165 -0.8823
 7417SOL    HW233711   4.547   4.520  14.022 -0.7290  0.3515 -0.5785
 7418SOL     OW33712   0.964   3.730   6.497  0.0508 -0.0832 -0.0546
 7418SOL    HW133713   0.935   3.798   6.436 -0.6789 -1.0093 -0.7487
 7418SOL    HW233714   1.031   3.773   6.550  0.3568  0.6689 -1.0491
 7419SOL     OW33715   2.258   2.780   1.947  0.0506  0.5530 -0.1526
 7419SOL    HW133716   2.344   2.814   1.972 -0.7705  2.3099  0.3146
 7419SOL    HW233717   2.236   2.842   1.878 -0.9413  1.4695  0.9797
 7420SOL     OW33718   4.065   0.498   5.278 -0.0159  0.2960 -0.1780
 7420SOL    HW133719   4.052   0.404   5.296  0.2889  0.2855 -0.0151
 7420SOL    HW233720   4.143   0.490   5.222  0.9801  1.6421  1.0364
 7421SOL     OW33721   1.819   0.530   3.172  0.7604 -0.1298  0.3233
 7421SOL    HW133722   1.757   0.458   3.184  1.2074 -0.2744  1.7450
 7421SOL    HW233723   1.848   0.557   3.259 -0.8696 -0.7737  1.0697
 7422SOL     OW33724   1.280   1.408  16.905 -0.4867  0.2363  0.3266
 7422SOL    HW133725   1.271   1.417  16.810  1.4841  0.3781  0.1629
 7422SOL    HW233726   1.188   1.406  16.934 -0.4927 -1.2867  0.1858
 7423SOL     OW33727   4.555   3.842   2.939  0.0977  0.8750 -0.2525
 7423SOL    HW133728   4.642   3.859   2.902  0.8049  1.4804  1.6724
 7423SOL    HW233729   4.545   3.895   3.019 -1.5921  0.6693 -0.3310
 7424SOL     OW33730   0.307   0.166   8.681 -0.0145 -0.5195 -0.2379
 7424SOL    HW133731   0.381   0.137   8.734  0.4209  2.0787  0.5451
 7424SOL    HW233732   0.255   0.086   8.684 -2.1043  0.9607  2.4244
 7425SOL     OW33733   0.944   0.586   4.761 -0.4228 -0.3386 -0.2583
 7425SOL    HW133734   0.972   0.559   4.673  2.2683 -2.9625  1.3706
 7425SOL    HW233735   0.960   0.505   4.809 -1.1991  1.5319  3.1405
 7426SOL     OW33736   3.819   3.577   9.091  0.5608  0.2757  0.0907
 7426SOL    HW133737   3.847   3.653   9.039  1.6224 -0.7942 -0.8887
 7426SOL    HW233738   3.901   3.554   9.136 -0.5176 -1.4103  1.1717
 7427SOL     OW33739   0.341   1.825   6.652  0.5477  0.0727 -0.2453
 7427SOL    HW133740   0.410   1.863   6.599  1.6371 -0.4224  0.8251
 7427SOL    HW233741   0.262   1.865   6.615  0.9392  0.5593 -0.5545
 7428SOL     OW33742   2.838   0.310   1.353 -0.3983 -0.1487 -0.0546
 7428SOL    HW133743   2.883   0.270   1.279 -0.1957 -1.7414  0.9198
 7428SOL    HW233744   2.782   0.368   1.302  1.4328 -0.3038 -2.2558
 7429SOL     OW33745   2.164   2.045  10.189  0.1603  0.9459  0.0178
 7429SOL    HW133746   2.110   2.121  10.165 -1.1131  0.2199  0.5658
 7429SOL    HW233747   2.248   2.085  10.211  1.4933 -1.5017 -0.7114
 7430SOL     OW33748   2.166   0.619   8.396  0.1980  0.4379  0.6516
 7430SOL    HW133749   2.228   0.571   8.341 -2.4824 -1.5734 -0.6259
 7430SOL    HW233750   2.212   0.626   8.480 -1.8498  2.0011  1.6340
 7431SOL     OW33751   0.730   2.194   2.162 -0.1962 -0.2447 -0.0622
 7431SOL    HW133752   0.681   2.235   2.091 -0.1839 -0.3602 -0.1367
 7431SOL    HW233753   0.817   2.229   2.140  0.1506 -1.5419 -0.7896
 7432SOL     OW33754   2.965   0.675   7.618 -0.5190  0.1783  0.3852
 7432SOL    HW133755   2.942   0.599   7.672  1.5334 -0.4247  0.4294
 7432SOL    HW233756   3.004   0.725   7.689  1.5942  0.4660 -0.9688
 7433SOL     OW33757   0.929   0.128   4.600  0.0639  0.5118  0.5742
 7433SOL    HW133758   1.019   0.143   4.572 -0.1694 -0.2025 -0.5596
 7433SOL    HW233759   0.880   0.119   4.518 -0.5097 -1.5082  1.1593
 7434SOL     OW33760   4.360   3.800   1.408 -0.9073 -0.6276 -0.1926
 7434SOL    HW133761   4.275   3.843   1.413  0.7188  2.2567  2.4284
 7434SOL    HW233762   4.344   3.707   1.425 -1.7452  0.0578  2.8766
 7435SOL     OW33763   1.485   0.122   8.097 -0.3116  0.0066  0.5691
 7435SOL    HW133764   1.534   0.110   8.015 -2.1313 -2.3693 -0.1726
 7435SOL    HW233765   1.445   0.036   8.100  0.2327 -0.3314 -1.4572
 7436SOL     OW33766   3.769   3.014   4.966 -0.0677  0.8723 -0.0754
 7436SOL    HW133767   3.778   3.000   5.060 -1.2457  0.0769 -0.0810
 7436SOL    HW233768   3.821   3.094   4.958  2.4308 -0.7112  0.2109
 7437SOL     OW33769   1.591   1.725   5.204 -0.3059 -0.6481  0.1181
 7437SOL    HW133770   1.580   1.818   5.187  0.9995 -0.0547  2.4602
 7437SOL    HW233771   1.624   1.736   5.293  0.5729 -1.4548 -0.1062
 7438SOL     OW33772   3.405   0.413  13.063 -0.3313 -0.1043 -0.2799
 7438SOL    HW133773   3.355   0.348  13.013 -0.3446  0.2577 -0.7317
 7438SOL    HW233774   3.474   0.366  13.109  1.4836 -0.4925 -3.3775
 7439SOL     OW33775   3.718   3.126  16.205  0.3487  0.6989  0.0704
 7439SOL    HW133776   3.689   3.109  16.294  2.4763 -0.3193  0.5803
 7439SOL    HW233777   3.796   3.071  16.211 -0.8773 -1.0081  0.3758
 7440SOL     OW33778   3.204   3.701   5.931 -0.1552  0.1091 -0.4937
 7440SOL    HW133779   3.131   3.691   5.992  0.6629 -3.2353 -0.0528
 7440SOL    HW233780   3.201   3.790   5.897  1.3319  1.0494  1.8109
 7441SOL     OW33781   3.280   4.273   7.391 -0.4352 -0.4650 -0.3581
 7441SOL    HW133782   3.188   4.300   7.399  0.4030  2.2075  0.3506
 7441SOL    HW233783   3.284   4.213   7.318  1.1638  0.8524 -1.3507
 7442SOL     OW33784   2.871   3.338   5.423 -0.1915 -0.1380 -0.4625
 7442SOL    HW133785   2.897   3.417   5.376  1.5902  0.1147  0.9203
 7442SOL    HW233786   2.802   3.296   5.372  0.1047  0.9109 -1.7310
 7443SOL     OW33787   2.469   1.618   4.581 -0.0491 -0.1870  0.4719
 7443SOL    HW133788   2.414   1.663   4.645  4.0133  1.2376  2.9016
 7443SOL    HW233789   2.408   1.546   4.563  0.5287 -0.8377  1.1705
 7444SOL     OW33790   0.069   0.809   5.218 -0.1121  0.2992 -0.1727
 7444SOL    HW133791   0.080   0.870   5.291  0.1789 -0.2196  0.2128
 7444SOL    HW233792   0.148   0.800   5.164 -0.9133  5.6853 -2.2438
 7445SOL     OW33793   1.089   3.992   0.801  0.3103  0.5846  0.0689
 7445SOL    HW133794   1.150   4.042   0.747 -0.2211  0.0653 -1.0058
 7445SOL    HW233795   1.083   3.910   0.753  0.9039 -0.8879  2.4750
 7446SOL     OW33796   3.281   3.162   7.576 -0.3622  0.2945  0.3879
 7446SOL    HW133797   3.259   3.105   7.503  0.9472 -0.0475  0.2592
 7446SOL    HW233798   3.197   3.208   7.586 -1.5919 -1.9698  0.5136
 7447SOL     OW33799   4.252   1.034   9.216 -0.2444 -1.1882  0.1769
 7447SOL    HW133800   4.341   1.028   9.181  0.3103  0.7402  1.2342
 7447SOL    HW233801   4.208   0.963   9.169 -0.0708 -1.8767  1.0489
 7448SOL     OW33802   2.219   1.268   0.563  0.1775  0.4938 -0.1987
 7448SOL    HW133803   2.219   1.318   0.644  0.3486 -0.6629  0.5221
 7448SOL    HW233804   2.263   1.187   0.588  1.5707  0.8096 -1.6668
 7449SOL     OW33805   1.986   0.829   8.368  0.5779  0.0911 -0.2793
 7449SOL    HW133806   2.029   0.744   8.360  0.4734  0.1798 -1.8198
 7449SOL    HW233807   2.046   0.874   8.429  1.0276  0.5463 -1.0542
 7450SOL     OW33808   2.141   4.489   7.573  0.3578 -0.0005  0.3916
 7450SOL    HW133809   2.214   4.550   7.581 -0.8369  1.6101 -0.9717
 7450SOL    HW233810   2.094   4.532   7.502  1.4597  1.7186  0.6935
 7451SOL     OW33811   3.859   2.710  12.185 -0.0707 -0.4715 -0.8468
 7451SOL    HW133812   3.789   2.774  12.194  0.9241  0.7570 -1.8424
 7451SOL    HW233813   3.886   2.696  12.276 -1.3108  3.0360  0.0564
 7452SOL     OW33814   1.444   0.614   4.469  0.2608  0.1767  0.1060
 7452SOL    HW133815   1.435   0.544   4.404  1.4749  1.6414 -1.6390
 7452SOL    HW233816   1.460   0.693   4.418  1.5919  0.1550  0.4884
 7453SOL     OW33817   1.547   1.720  10.590 -0.1592 -0.3031 -0.3424
 7453SOL    HW133818   1.503   1.777  10.653 -0.4094 -2.2354  1.2268
 7453SOL    HW233819   1.476   1.698  10.529 -0.5259 -1.1958  0.4123
 7454SOL     OW33820   2.917   4.280   2.708 -0.0788 -0.0640  0.7661
 7454SOL    HW133821   2.942   4.362   2.752  2.0915  0.1973 -1.0026
 7454SOL    HW233822   2.883   4.307   2.623 -1.9863 -4.5141  0.1522
 7455SOL     OW33823   4.307   1.090   3.300 -0.0092 -0.0424  0.6896
 7455SOL    HW133824   4.294   1.124   3.389  0.8488  1.0469  0.4031
 7455SOL    HW233825   4.368   1.020   3.325  2.6137  1.6873 -0.8253
 7456SOL     OW33826   0.288   1.038   9.200  0.0419  0.0447  0.4861
 7456SOL    HW133827   0.338   1.089   9.264  0.4838 -0.5339  0.5982
 7456SOL    HW233828   0.258   1.106   9.139 -2.4595  0.0131  1.7047
 7457SOL     OW33829   3.130   2.995  17.148  0.4430 -0.3668 -0.4434
 7457SOL    HW133830   3.195   2.980  17.079  1.2596 -0.6196  0.3852
 7457SOL    HW233831   3.108   3.086  17.130 -1.0697 -0.3850  1.3634
 7458SOL     OW33832   2.827   0.087  17.450 -0.0493  0.3424 -0.3218
 7458SOL    HW133833   2.857   0.053  17.534 -0.4782  1.0826  0.1358
 7458SOL    HW233834   2.797   0.013  17.397 -0.9783  1.5299 -1.4493
 7459SOL     OW33835   4.236   4.601   3.692  0.3496  0.0385  0.3615
 7459SOL    HW133836   4.260   4.691   3.673  2.6131 -0.7920 -0.8392
 7459SOL    HW233837   4.230   4.567   3.603 -1.3485  0.8798  0.1732
 7460SOL     OW33838   3.378   0.240   8.506 -0.9410  0.5077  0.0520
 7460SOL    HW133839   3.425   0.180   8.565  0.9660 -1.0047 -3.0456
 7460SOL    HW233840   3.447   0.302   8.482 -0.9476 -0.1566 -1.6766
 7461SOL     OW33841   2.070   3.293   8.248  0.1465  0.2390 -0.9435
 7461SOL    HW133842   2.052   3.362   8.312 -0.5471 -1.0356  0.2500
 7461SOL    HW233843   1.985   3.249   8.247 -0.2286  0.9636 -1.1319
 7462SOL     OW33844   2.188   0.438  11.407  0.2641  0.3287  0.5467
 7462SOL    HW133845   2.143   0.388  11.339 -0.3344  2.0911 -0.3646
 7462SOL    HW233846   2.144   0.522  11.396  1.4260  0.4193 -3.1846
 7463SOL     OW33847   2.389   2.553   4.881  0.6954 -1.0149  0.7485
 7463SOL    HW133848   2.472   2.601   4.878  0.5127 -0.7496 -0.0322
 7463SOL    HW233849   2.327   2.624   4.898  2.4180  0.7597 -0.2908
 7464SOL     OW33850   3.270   3.071   5.014  0.9806  0.2980  0.1785
 7464SOL    HW133851   3.300   3.129   5.084  0.2112  0.5585  0.2886
 7464SOL    HW233852   3.354   3.071   4.969  0.9618  0.1095  0.1436
 7465SOL     OW33853   4.486   3.446  13.462  0.6394  0.5510 -0.0835
 7465SOL    HW133854   4.463   3.389  13.387  0.7847 -0.0939  0.3616
 7465SOL    HW233855   4.436   3.524  13.436  1.5761 -0.0067 -3.5130
 7466SOL     OW33856   4.196   1.029   6.677 -0.1670 -0.3754 -0.2700
 7466SOL    HW133857   4.256   1.061   6.609 -1.6462  0.1197 -1.3434
 7466SOL    HW233858   4.238   1.052   6.760 -1.2583 -0.3642  0.2734
 7467SOL     OW33859   1.356   2.542   9.334 -0.1869  0.2076  0.0591
 7467SOL    HW133860   1.310   2.481   9.391  0.4553 -2.2640 -2.0648
 7467SOL    HW233861   1.367   2.480   9.262  2.1607 -0.2502  0.8129
 7468SOL     OW33862   1.979   1.189   0.472 -0.0207  0.5055 -0.3581
 7468SOL    HW133863   1.960   1.178   0.379 -0.5761 -1.6591  0.0284
 7468SOL    HW233864   2.074   1.190   0.464  0.2479 -1.2523  2.6350
 7469SOL     OW33865   3.574   3.864   9.646  0.5943  0.3041  0.2657
 7469SOL    HW133866   3.587   3.769   9.639 -2.0686 -0.1096  1.1250
 7469SOL    HW233867   3.484   3.880   9.618  0.8827  1.0783 -0.2114
 7470SOL     OW33868   4.194   3.828   5.702 -0.1160 -0.0389  1.0568
 7470SOL    HW133869   4.134   3.838   5.628  0.3713 -0.2585  0.6313
 7470SOL    HW233870   4.172   3.742   5.739 -2.3835 -0.9767 -2.5198
 7471SOL     OW33871   2.047   2.454   3.162  0.0471  0.0559 -0.4217
 7471SOL    HW133872   2.114   2.515   3.133 -0.7994  1.1921 -0.0060
 7471SOL    HW233873   2.096   2.371   3.158  0.6531  0.5804 -3.6480
 7472SOL     OW33874   0.914   1.565   9.211  0.6681 -0.2223 -0.5297
 7472SOL    HW133875   0.858   1.641   9.226  1.9467  1.0940 -2.4121
 7472SOL    HW233876   0.974   1.578   9.283  0.3893  0.3262 -0.3957
 7473SOL     OW33877   3.188   2.788  12.063  0.1836 -0.4102 -0.0855
 7473SOL    HW133878   3.121   2.855  12.072  1.3896  1.0588 -2.0786
 7473SOL    HW233879   3.147   2.721  12.008  0.1307  1.0105 -1.7602
 7474SOL     OW33880   3.775   0.100  12.853 -0.4854  0.2463  0.4181
 7474SOL    HW133881   3.837   0.101  12.780 -1.0195  0.9557 -0.0206
 7474SOL    HW233882   3.729   0.019  12.829  0.6243 -0.1344 -0.4465
 7475SOL     OW33883   4.552   1.204  16.584 -0.2042 -0.2688 -0.0523
 7475SOL    HW133884   4.537   1.137  16.517 -0.7642 -0.9980  0.8101
 7475SOL    HW233885   4.539   1.156  16.666  0.5780 -0.8808 -0.2875
 7476SOL     OW33886   3.121   3.208   6.065  0.5028 -0.3956 -0.5421
 7476SOL    HW133887   3.126   3.149   5.989 -0.4903 -0.6408 -0.4259
 7476SOL    HW233888   3.031   3.238   6.056  0.0892 -1.1281  1.1305
 7477SOL     OW33889   0.712   0.625  10.655 -0.3425 -0.4346 -0.0888
 7477SOL    HW133890   0.784   0.564  10.642 -0.6695 -0.7289 -0.5114
 7477SOL    HW233891   0.742   0.685  10.723 -1.4342  0.5602 -0.4876
 7478SOL     OW33892   3.096   4.333   5.319  0.4723 -0.0635 -0.0348
 7478SOL    HW133893   3.007   4.306   5.340 -0.8303  4.1094 -0.1204
 7478SOL    HW233894   3.109   4.327   5.225 -0.3173  1.4792 -0.2459
 7479SOL     OW33895   0.558   3.370  12.693 -0.0463  0.2415  0.1718
 7479SOL    HW133896   0.530   3.367  12.601 -0.6953  0.6157  0.3613
 7479SOL    HW233897   0.607   3.294  12.723 -1.6324 -1.4183 -1.4573
 7480SOL     OW33898   1.257   3.060  14.943  0.0214  0.1008  0.3149
 7480SOL    HW133899   1.234   3.134  14.998  1.5800  0.9222 -0.1268
 7480SOL    HW233900   1.212   2.998  15.001 -2.1356 -0.5909 -2.0766
 7481SOL     OW33901   3.199   1.940   2.473 -0.4107  0.1796  0.2747
 7481SOL    HW133902   3.243   2.007   2.420  0.8930  0.7710  2.0693
 7481SOL    HW233903   3.147   1.900   2.404  0.6632  1.3195 -1.1834
 7482SOL     OW33904   0.997   3.093   9.080 -0.1387 -0.4994 -0.0591
 7482SOL    HW133905   0.955   3.007   9.086  2.8606 -1.9507  0.3385
 7482SOL    HW233906   0.971   3.136   9.162  2.6023 -2.3636  1.8047
 7483SOL     OW33907   1.405   2.354   6.194 -0.4371  0.6088 -0.1657
 7483SOL    HW133908   1.490   2.384   6.228 -0.8272  1.4440  0.0881
 7483SOL    HW233909   1.431   2.268   6.164  1.7854 -0.1312  3.8450
 7484SOL     OW33910   3.069   4.236   5.649  0.7075 -0.4587 -0.9821
 7484SOL    HW133911   3.146   4.238   5.706 -0.8308  2.6167  0.9867
 7484SOL    HW233912   3.018   4.161   5.679 -0.1728 -0.3524 -2.2438
 7485SOL     OW33913   4.033   2.955   5.470 -0.6022  0.4115  0.0327
 7485SOL    HW133914   4.012   3.048   5.455  1.1435  0.8341  0.0866
 7485SOL    HW233915   4.096   2.951   5.397 -2.3364 -0.1241 -1.4402
 7486SOL     OW33916   3.333   4.548  11.695 -0.3124  0.4567 -0.5207
 7486SOL    HW133917   3.410   4.495  11.713 -0.0267  1.1180  0.1834
 7486SOL    HW233918   3.344   4.556  11.600 -0.1116 -0.2449 -0.5521
 7487SOL     OW33919   3.490   1.779   8.080 -0.6952 -0.2986  0.8002
 7487SOL    HW133920   3.527   1.694   8.055 -1.1955 -0.8371  1.8699
 7487SOL    HW233921   3.445   1.748   8.159  0.0802 -0.8361  1.0297
 7488SOL     OW33922   1.087   1.232   0.112  0.2582 -0.1144  0.4480
 7488SOL    HW133923   1.114   1.254   0.202  0.7309  1.2351 -0.0153
 7488SOL    HW233924   1.026   1.159   0.117  0.4992 -0.4657 -1.8140
 7489SOL     OW33925   0.370   1.372   3.490  0.1124 -0.5132  0.1301
 7489SOL    HW133926   0.338   1.447   3.440  0.5172 -0.6179 -0.2801
 7489SOL    HW233927   0.361   1.402   3.581 -1.4081  2.1743 -0.8904
 7490SOL     OW33928   4.007   2.228   9.188 -0.3216 -0.0393  0.0187
 7490SOL    HW133929   4.060   2.308   9.185  0.1844 -0.3152  1.5851
 7490SOL    HW233930   3.935   2.245   9.249  0.4741  0.4442  0.8269
 7491SOL     OW33931   1.311   0.983   9.222  0.4134  0.1927 -0.0077
 7491SOL    HW133932   1.372   1.056   9.221  0.1223  0.4390  0.1211
 7491SOL    HW233933   1.228   1.017   9.256  0.3375  0.5764 -0.5934
 7492SOL     OW33934   0.523   2.592  15.717 -0.9027  0.0981  0.3339
 7492SOL    HW133935   0.512   2.657  15.648 -2.4336  0.6191  1.0714
 7492SOL    HW233936   0.553   2.650  15.787  1.8273 -0.3974 -0.4388
 7493SOL     OW33937   3.277   1.206  17.657 -0.4930 -0.4975 -0.1149
 7493SOL    HW133938   3.300   1.138  17.593 -1.2377 -0.7272 -0.1318
 7493SOL    HW233939   3.355   1.215   0.014 -1.8824 -0.2245  1.8111
 7494SOL     OW33940   4.109   3.958   1.399  0.0752 -0.3704 -0.2039
 7494SOL    HW133941   4.102   3.987   1.308  1.8018 -0.8906 -0.4938
 7494SOL    HW233942   4.098   4.042   1.444  1.1456 -0.9984  1.2232
 7495SOL     OW33943   3.530   2.953   3.976 -0.2612 -0.0050 -0.3069
 7495SOL    HW133944   3.600   2.895   4.005 -0.6485  0.0326  0.7127
 7495SOL    HW233945   3.462   2.888   3.956 -0.8853 -0.0950  2.1499
 7496SOL     OW33946   0.519   3.928  14.975 -0.3383  0.2234  0.4447
 7496SOL    HW133947   0.477   3.842  14.972  2.2131 -0.9414 -1.5105
 7496SOL    HW233948   0.482   3.964  15.056  0.5872 -4.5531  2.9769
 7497SOL     OW33949   1.741   3.824   9.354  0.1245 -0.1529 -0.1920
 7497SOL    HW133950   1.752   3.731   9.373 -2.0703 -0.2868  0.3309
 7497SOL    HW233951   1.651   3.811   9.324  0.2339  1.5924 -1.2635
 7498SOL     OW33952   3.011   3.697  15.802 -0.0897  0.1913  0.0783
 7498SOL    HW133953   3.024   3.650  15.720 -2.2837  0.6145 -0.5161
 7498SOL    HW233954   2.965   3.777  15.777  1.3984  0.3300 -2.2505
 7499SOL     OW33955   2.120   3.260  10.772  0.3539 -0.3817  0.0106
 7499SOL    HW133956   2.040   3.221  10.736 -0.0366  0.8444 -0.4271
 7499SOL    HW233957   2.107   3.344  10.728  1.1489 -0.3907 -0.2494
 7500SOL     OW33958   0.096   4.326  17.383 -0.0889  0.2129  0.6893
 7500SOL    HW133959   0.145   4.408  17.387  0.2977  0.0318 -0.4812
 7500SOL    HW233960   0.090   4.321  17.288  1.0104 -1.5334  0.7092
 7501SOL     OW33961   3.032   4.665   9.523  0.2369  0.5597  0.4390
 7501SOL    HW133962   2.974   4.607   9.572  1.1378 -0.6062  0.1019
 7501SOL    HW233963   3.078   4.606   9.464  0.0948  0.5777  0.3095
 7502SOL     OW33964   3.497   2.254   1.884  0.0290  0.1697 -0.2128
 7502SOL    HW133965   3.556   2.287   1.816  0.1253 -0.4393 -0.4283
 7502SOL    HW233966   3.423   2.229   1.828  0.7662 -0.6617 -0.8024
 7503SOL     OW33967   2.913   0.864   5.876  0.5079 -0.1675 -0.1237
 7503SOL    HW133968   2.926   0.839   5.967  0.0401  0.5604  0.1475
 7503SOL    HW233969   2.923   0.778   5.834  1.6974 -0.8094  1.4858
 7504SOL     OW33970   4.163   0.973   5.329  0.1168  0.5606 -0.9451
 7504SOL    HW133971   4.183   0.880   5.335 -1.8036  0.1585 -0.8443
 7504SOL    HW233972   4.242   1.015   5.295  1.4393 -0.5386  0.7916
 7505SOL     OW33973   2.200   0.548  10.125  0.0243  0.2628  0.2690
 7505SOL    HW133974   2.127   0.492  10.154  1.2067 -0.1337  2.4563
 7505SOL    HW233975   2.253   0.552  10.204 -1.2879 -1.6845  1.2506
 7506SOL     OW33976   1.291   3.893   3.695 -0.2263  0.2276 -0.3658
 7506SOL    HW133977   1.377   3.904   3.654  0.2347  1.3590  0.9447
 7506SOL    HW233978   1.275   3.798   3.691 -0.3168  0.2335 -0.1273
 7507SOL     OW33979   4.328   2.595  11.283  0.5435  0.7755  0.6829
 7507SOL    HW133980   4.402   2.583  11.223  1.2287 -0.2835  1.7481
 7507SOL    HW233981   4.263   2.629  11.222  0.2232 -0.5314  0.2950
 7508SOL     OW33982   2.292   1.577  12.193 -0.2603 -0.2884  0.2279
 7508SOL    HW133983   2.332   1.582  12.107 -2.9000 -1.7439 -1.0994
 7508SOL    HW233984   2.303   1.666  12.227 -2.4352  0.2077 -0.3761
 7509SOL     OW33985   2.542   2.926   7.171 -0.6632 -0.3676 -0.4952
 7509SOL    HW133986   2.462   2.917   7.223  0.6361  0.9554  1.7628
 7509SOL    HW233987   2.605   2.893   7.236 -0.4525  2.3687  0.6884
 7510SOL     OW33988   2.737   0.911  14.540 -0.8931 -0.4215  0.0308
 7510SOL    HW133989   2.699   0.935  14.456 -0.2247 -1.1719 -0.4934
 7510SOL    HW233990   2.661   0.890  14.594 -1.7897  0.0027 -1.0880
 7511SOL     OW33991   0.664   3.476   4.078 -0.4261 -0.2250 -0.3431
 7511SOL    HW133992   0.626   3.464   4.164 -0.3834  3.1720  0.1693
 7511SOL    HW233993   0.584   3.483   4.025 -2.7199  0.4950  3.2702
 7512SOL     OW33994   3.032   4.122  17.493 -0.5450  0.5400 -0.5052
 7512SOL    HW133995   2.971   4.123  17.419 -0.8364  2.5855 -0.2492
 7512SOL    HW233996   3.030   4.216  17.513  0.9601 -0.1184  2.8048
 7513SOL     OW33997   2.940   1.428  15.953  0.2366 -0.1568 -0.8843
 7513SOL    HW133998   3.016   1.486  15.950 -0.6012  0.9761 -0.1148
 7513SOL    HW233999   2.871   1.493  15.938  0.3956 -0.2982 -2.2654
 7514SOL     OW34000   0.774   1.281   7.505 -0.2166 -0.1165 -0.6157
 7514SOL    HW134001   0.813   1.227   7.437  0.7099  0.6092 -0.6613
 7514SOL    HW234002   0.685   1.298   7.473 -0.6644 -3.3661 -1.0148
 7515SOL     OW34003   4.462   0.682  14.451  0.4153 -0.0540 -0.0152
 7515SOL    HW134004   4.452   0.625  14.374 -1.0792  1.3776 -0.8972
 7515SOL    HW234005   4.445   0.765  14.406 -1.5509 -0.8084 -0.6559
 7516SOL     OW34006   2.932   4.129   3.463 -0.4421  0.2038 -0.0695
 7516SOL    HW134007   2.839   4.130   3.442 -0.6993 -3.0676  0.7926
 7516SOL    HW234008   2.925   4.154   3.555  0.9696  0.7286 -0.1035
 7517SOL     OW34009   4.002   4.625  13.899  0.0695 -0.6405 -0.3095
 7517SOL    HW134010   3.987   4.700  13.958 -2.1647  0.7328 -2.6041
 7517SOL    HW234011   4.092   4.637  13.869 -0.1527 -0.2736 -0.8265
 7518SOL     OW34012   2.099   2.649   2.833 -0.3470  0.0231 -0.0060
 7518SOL    HW134013   2.031   2.651   2.765  0.7890  2.3040 -1.0701
 7518SOL    HW234014   2.177   2.688   2.794 -0.5877 -0.2354 -0.7549
 7519SOL     OW34015   2.167   3.537   0.489  0.2213  0.2113  0.3502
 7519SOL    HW134016   2.185   3.603   0.422  0.9735 -0.2835  0.0641
 7519SOL    HW234017   2.222   3.577   0.557  1.4075 -1.0460  0.1426
 7520SOL     OW34018   0.772   3.040  11.448 -0.2029  0.1115  0.1208
 7520SOL    HW134019   0.772   3.072  11.358 -1.6052 -0.1159  0.0329
 7520SOL    HW234020   0.827   2.962  11.437  0.6679  0.7052  0.2709
 7521SOL     OW34021   0.122   1.042  10.665 -0.7316 -0.4764  0.3038
 7521SOL    HW134022   0.198   0.995  10.699  0.8322  1.4516 -0.5866
 7521SOL    HW234023   0.151   1.054  10.575 -2.3379  0.7425 -0.0500
 7522SOL     OW34024   0.713   3.722   3.255 -0.2200  0.1003  0.2296
 7522SOL    HW134025   0.797   3.684   3.230  0.5819  0.7877  1.8271
 7522SOL    HW234026   0.651   3.655   3.226  0.5128 -0.6907  0.4781
 7523SOL     OW34027   4.360   1.599   6.845  0.7594  0.4493 -0.0754
 7523SOL    HW134028   4.283   1.569   6.894  0.1276  1.5766 -0.3727
 7523SOL    HW234029   4.319   1.620   6.761  0.7630 -0.2584 -0.2598
 7524SOL     OW34030   4.627   0.378   6.871  0.0537  0.2971  0.2379
 7524SOL    HW134031   4.708   0.395   6.919  0.7699 -0.8812 -0.5477
 7524SOL    HW234032   4.567   0.438   6.914  1.9180  2.5480 -0.2731
 7525SOL     OW34033   0.238   2.850  15.297 -0.6666 -0.1803  0.0898
 7525SOL    HW134034   0.315   2.895  15.332  0.8835 -0.1425 -3.4558
 7525SOL    HW234035   0.175   2.921  15.291 -0.6995  0.1509  4.1673
 7526SOL     OW34036   0.212   4.691   7.895 -0.1308 -0.0155  0.3073
 7526SOL    HW134037   0.301   4.701   7.927  0.7618  0.9073 -2.4225
 7526SOL    HW234038   0.228   4.647   7.811  1.8660  2.5573 -0.6378
 7527SOL     OW34039   2.472   4.594   6.599  0.2381  0.7064  0.0471
 7527SOL    HW134040   2.435   4.655   6.663  2.2335  2.1187 -0.1282
 7527SOL    HW234041   2.561   4.630   6.598  0.2537  0.6884  0.8306
 7528SOL     OW34042   1.577   4.063   5.607 -0.5731 -0.2208  0.0921
 7528SOL    HW134043   1.578   4.093   5.516 -1.0085  1.0044  0.4894
 7528SOL    HW234044   1.516   3.988   5.606 -0.3394 -0.4428  2.0756
 7529SOL     OW34045   0.199   0.369  11.541  0.0737  0.1539 -0.0780
 7529SOL    HW134046   0.269   0.412  11.493  0.3790 -0.8374 -0.5237
 7529SOL    HW234047   0.131   0.371  11.473  1.3432  1.3709 -1.3106
 7530SOL     OW34048   2.262   1.129   7.853 -0.1011 -0.4552 -0.0064
 7530SOL    HW134049   2.201   1.175   7.794  0.9352 -0.7780 -1.3378
 7530SOL    HW234050   2.340   1.185   7.847 -0.2805 -0.2967 -0.8664
 7531SOL     OW34051   0.564   3.338   8.206 -0.3951 -0.0939 -0.6470
 7531SOL    HW134052   0.524   3.415   8.165 -1.2536  0.1808  0.7109
 7531SOL    HW234053   0.641   3.385   8.238  0.4619 -0.9276 -1.4826
 7532SOL     OW34054   0.128   3.054   9.552  0.3527 -0.7598  0.0218
 7532SOL    HW134055   0.154   3.102   9.474  1.1357 -1.6042 -0.2404
 7532SOL    HW234056   0.048   3.101   9.577  0.3703 -1.2932  1.0912
 7533SOL     OW34057   1.648   1.912   9.038 -0.6164 -0.3023  0.9010
 7533SOL    HW134058   1.648   1.968   8.960  0.0409 -1.6881 -0.0879
 7533SOL    HW234059   1.713   1.845   9.018 -0.2018  0.5916 -0.7331
 7534SOL     OW34060   4.374   0.908   8.264 -0.0414 -0.2629 -0.3717
 7534SOL    HW134061   4.398   0.818   8.242  2.3293 -0.1652  1.8617
 7534SOL    HW234062   4.441   0.937   8.326 -0.8363 -2.7677  1.6545
 7535SOL     OW34063   1.210   1.992   2.977  0.0939  0.0092  0.8506
 7535SOL    HW134064   1.130   1.944   2.956 -0.2626  1.7288 -1.7368
 7535SOL    HW234065   1.251   1.935   3.042  3.3664  0.9221 -0.4034
 7536SOL     OW34066   4.682   2.898   2.732 -0.0970 -0.5519  0.0247
 7536SOL    HW134067   0.004   2.934   2.656 -0.0168 -2.8233 -1.0017
 7536SOL    HW234068   4.632   2.827   2.692 -0.8732  1.1221 -2.0019
 7537SOL     OW34069   3.271   4.576   1.963 -0.1687 -0.1276 -0.3126
 7537SOL    HW134070   3.307   4.586   1.875  0.4029 -4.4460 -0.5558
 7537SOL    HW234071   3.206   4.507   1.951 -0.8129  0.5760 -0.8165
 7538SOL     OW34072   3.271   3.409   0.707 -0.4090 -0.1746 -0.0344
 7538SOL    HW134073   3.207   3.368   0.765 -1.0110  1.5881  0.5448
 7538SOL    HW234074   3.250   3.502   0.719  1.6260  0.0688  1.7329
 7539SOL     OW34075   0.850   0.468   1.031 -0.0542 -0.0464  0.1148
 7539SOL    HW134076   0.778   0.420   0.990 -1.3828  1.5631  0.5857
 7539SOL    HW234077   0.907   0.499   0.960  0.5893  2.1217  1.5769
 7540SOL     OW34078   2.339   0.041   4.996  0.3240 -0.8346 -0.2566
 7540SOL    HW134079   2.348   4.695   4.931 -0.2182 -1.7206  0.6111
 7540SOL    HW234080   2.275   0.093   4.948 -0.1089 -2.1415 -1.0970
 7541SOL     OW34081   2.164   2.928  10.381 -0.3933 -0.4226 -0.3682
 7541SOL    HW134082   2.097   2.861  10.389 -0.7783 -0.2605 -2.0911
 7541SOL    HW234083   2.242   2.879  10.408 -0.5226 -1.0550 -1.1337
 7542SOL     OW34084   2.666   0.681  16.878 -0.5108 -0.0642 -0.2812
 7542SOL    HW134085   2.574   0.677  16.901 -0.7444  1.1818 -1.0002
 7542SOL    HW234086   2.687   0.592  16.906 -3.6298 -0.2201  1.5760
 7543SOL     OW34087   2.340   3.717   8.656 -0.5818  0.2096  0.0222
 7543SOL    HW134088   2.371   3.671   8.734  1.7728  0.9628 -0.4909
 7543SOL    HW234089   2.415   3.694   8.601 -0.4419  1.4423 -0.3004
 7544SOL     OW34090   2.185   1.675   9.564  0.4708  0.0454  0.3944
 7544SOL    HW134091   2.190   1.676   9.659  0.7058 -1.1291  0.3922
 7544SOL    HW234092   2.163   1.582   9.564 -1.0459  0.4128  1.9073
 7545SOL     OW34093   2.637   1.446   9.635  0.0383  0.1458  0.1189
 7545SOL    HW134094   2.574   1.427   9.565  0.1236  0.9663 -0.1796
 7545SOL    HW234095   2.579   1.415   9.705 -0.1952  1.8405  0.6776
 7546SOL     OW34096   2.638   0.046  10.628  0.5456  0.8532 -0.7041
 7546SOL    HW134097   2.679   0.066  10.712  1.5580 -0.4554 -0.8724
 7546SOL    HW234098   2.702   0.087  10.570 -1.0392 -0.9008 -3.6980
 7547SOL     OW34099   1.224   1.944   7.581 -0.3199  0.0032  0.8823
 7547SOL    HW134100   1.247   1.865   7.631 -2.1117  0.4643  2.4175
 7547SOL    HW234101   1.130   1.930   7.568  0.0552 -0.2288 -1.6051
 7548SOL     OW34102   4.721   3.960   8.239 -0.9224  0.0141  0.2045
 7548SOL    HW134103   0.074   3.954   8.182 -1.6857 -1.8843 -0.6493
 7548SOL    HW234104   0.017   3.891   8.302  0.1945  0.1541  0.0039
 7549SOL     OW34105   1.462   4.462   0.835 -0.2802 -0.1921  0.0531
 7549SOL    HW134106   1.389   4.514   0.802  0.7197  0.3128 -1.3763
 7549SOL    HW234107   1.469   4.399   0.764  2.8994 -0.1323  0.2730
 7550SOL     OW34108   0.731   1.099  12.037  0.1200 -0.2973 -0.1739
 7550SOL    HW134109   0.652   1.139  12.072 -1.2533 -2.4860 -0.8254
 7550SOL    HW234110   0.709   1.105  11.944 -0.4060  1.3614  0.0592
 7551SOL     OW34111   3.266   3.958  15.038 -0.4367 -0.1477 -0.5497
 7551SOL    HW134112   3.238   3.980  14.949 -0.0894 -1.2085 -0.9231
 7551SOL    HW234113   3.183   3.932  15.077 -0.2334 -0.3323 -0.2380
 7552SOL     OW34114   1.009   3.337   7.981  0.4029 -0.5120  0.6066
 7552SOL    HW134115   1.092   3.373   8.014  0.3027  2.9400 -2.8605
 7552SOL    HW234116   0.944   3.407   7.972  2.0870  1.1534  1.2886
 7553SOL     OW34117   1.929   0.417   6.979  0.0455  0.3421 -0.0968
 7553SOL    HW134118   1.935   0.483   6.909  0.7732 -1.7319 -1.9991
 7553SOL    HW234119   1.999   0.358   6.951 -0.2483 -2.5012  5.2906
 7554SOL     OW34120   4.038   2.722   3.379  0.1442  0.4499  0.7530
 7554SOL    HW134121   4.065   2.812   3.360  0.2229  0.1624 -0.4853
 7554SOL    HW234122   4.021   2.700   3.288 -0.2453  0.2338  0.8784
 7555SOL     OW34123   1.273   4.525   2.592  0.0606  0.2557  0.4433
 7555SOL    HW134124   1.295   4.500   2.682  0.0536  1.6101  0.8070
 7555SOL    HW234125   1.310   4.463   2.529 -2.7013 -0.1278 -0.7937
 7556SOL     OW34126   1.506   2.543   8.481 -0.2849  0.1856 -0.7176
 7556SOL    HW134127   1.534   2.611   8.420 -1.5408  1.9635  0.6696
 7556SOL    HW234128   1.584   2.540   8.537 -1.3289 -3.1110  0.5399
 7557SOL     OW34129   4.504   2.598   9.546 -0.6930  0.5314  0.1319
 7557SOL    HW134130   4.557   2.529   9.505 -2.0213 -1.9600  2.6152
 7557SOL    HW234131   4.498   2.566   9.636 -0.2571 -1.8027 -0.6638
 7558SOL     OW34132   0.014   2.996  15.564  0.7606 -0.1314 -0.1692
 7558SOL    HW134133   0.086   2.942  15.597 -0.0913 -0.7099  0.7458
 7558SOL    HW234134   0.025   3.076  15.616 -1.3343  1.3347 -1.9894
 7559SOL     OW34135   4.212   1.138   9.481 -0.3897  0.0777 -0.4046
 7559SOL    HW134136   4.198   1.094   9.398  0.1396 -0.0325 -0.4360
 7559SOL    HW234137   4.285   1.194   9.456  1.3748 -2.2786 -0.5505
 7560SOL     OW34138   1.458   0.332   4.288  0.3828 -0.2716 -0.6977
 7560SOL    HW134139   1.430   0.241   4.284  1.5659 -0.7556  2.3739
 7560SOL    HW234140   1.527   0.319   4.223 -0.6720  1.3889 -2.1608
 7561SOL     OW34141   2.191   0.837   6.537 -0.2901  0.3478 -0.0975
 7561SOL    HW134142   2.096   0.836   6.552 -0.6402  2.1282 -2.2376
 7561SOL    HW234143   2.190   0.890   6.457 -1.2936  1.8695  0.9233
 7562SOL     OW34144   4.178   3.812   0.986 -0.2580  0.1917 -0.3620
 7562SOL    HW134145   4.248   3.813   0.921 -0.7587 -0.7285 -0.9046
 7562SOL    HW234146   4.230   3.769   1.053 -0.5254 -0.6029 -0.6621
 7563SOL     OW34147   2.515   2.004   4.859  0.6377  0.4259  0.5101
 7563SOL    HW134148   2.591   1.974   4.810  1.6198 -0.0688  2.3147
 7563SOL    HW234149   2.445   2.015   4.794  1.9232  0.5042 -0.8605
 7564SOL     OW34150   1.035   2.202   7.671  0.5259  0.0448  0.4735
 7564SOL    HW134151   0.950   2.169   7.701  0.7281 -0.0566  0.9328
 7564SOL    HW234152   1.083   2.124   7.644  0.4652  0.6785 -1.4334
 7565SOL     OW34153   2.620   2.663   5.782  0.1257  0.3702 -0.3771
 7565SOL    HW134154   2.571   2.729   5.732 -1.1479  0.8653  1.4962
 7565SOL    HW234155   2.678   2.623   5.717 -0.2067  0.3361 -0.6578
 7566SOL     OW34156   3.510   2.776   0.666  0.5540  0.4547  0.0329
 7566SOL    HW134157   3.499   2.769   0.572  0.8334  0.0548  0.0257
 7566SOL    HW234158   3.569   2.851   0.669  1.8193 -0.5762  1.0495
 7567SOL     OW34159   3.898   1.818   7.554  0.3876  0.5773 -0.4871
 7567SOL    HW134160   3.963   1.878   7.590 -0.6001  1.6135 -0.4142
 7567SOL    HW234161   3.838   1.826   7.628  1.1113  1.9904 -0.0552
 7568SOL     OW34162   2.785   2.887  13.426 -0.1884  0.0375 -0.4502
 7568SOL    HW134163   2.792   2.850  13.514  1.6638 -0.3919 -0.7798
 7568SOL    HW234164   2.760   2.978  13.444 -2.4778 -0.8247  0.7385
 7569SOL     OW34165   2.272   3.951  12.796  0.0599  0.0269 -0.0264
 7569SOL    HW134166   2.355   3.999  12.795  0.6001 -0.9152 -0.3145
 7569SOL    HW234167   2.276   3.916  12.707  0.3298  2.1937 -0.8811
 7570SOL     OW34168   2.068   3.899   0.470 -0.2939  0.3349 -0.4957
 7570SOL    HW134169   2.072   3.993   0.489  0.1931  0.1019  0.5381
 7570SOL    HW234170   2.155   3.885   0.431  0.0333 -2.7103  1.2773
 7571SOL     OW34171   4.448   2.299   1.035 -0.6126  0.1650 -0.1249
 7571SOL    HW134172   4.407   2.348   0.964 -2.0611  1.7475  1.8383
 7571SOL    HW234173   4.465   2.216   0.989 -0.4080 -0.4465  1.0506
 7572SOL     OW34174   2.051   3.550   0.862  0.0187 -0.2348  0.4681
 7572SOL    HW134175   1.989   3.569   0.792  1.5656 -0.1764 -0.8821
 7572SOL    HW234176   2.137   3.570   0.825 -0.5665 -2.1302 -1.9259
 7573SOL     OW34177   2.370   2.766  12.101  0.7401 -0.2485  0.1413
 7573SOL    HW134178   2.403   2.736  12.017 -0.7728  0.1742 -0.6101
 7573SOL    HW234179   2.284   2.798  12.074  0.9828  0.1261 -0.1815
 7574SOL     OW34180   2.066   4.155   0.513  0.4405 -0.3143  0.0934
 7574SOL    HW134181   2.111   4.177   0.594  0.1546 -1.0888  0.4567
 7574SOL    HW234182   2.012   4.233   0.497  0.6978 -0.0510  0.5179
 7575SOL     OW34183   3.862   3.397   5.202 -0.5032 -0.1397  0.5930
 7575SOL    HW134184   3.879   3.484   5.166  0.0635  0.0970  1.4308
 7575SOL    HW234185   3.773   3.378   5.172  0.3789  0.0568 -2.1098
 7576SOL     OW34186   1.351   0.783   9.985  0.5152  0.5011  0.5178
 7576SOL    HW134187   1.338   0.792  10.080 -1.2470  0.8928  0.2456
 7576SOL    HW234188   1.443   0.759   9.992  0.2230 -0.5929  0.6225
 7577SOL     OW34189   3.819   2.057  14.406  0.4502  0.2713  0.8734
 7577SOL    HW134190   3.860   2.130  14.359  1.1031 -1.5493 -1.4110
 7577SOL    HW234191   3.763   2.104  14.467  1.0198  0.9594  0.8697
 7578SOL     OW34192   0.272   2.026   4.994  0.2468  0.2230 -0.4988
 7578SOL    HW134193   0.344   1.966   5.014 -2.2449 -1.8349  2.1109
 7578SOL    HW234194   0.312   2.108   5.025  0.1802 -0.0759  0.3533
 7579SOL     OW34195   4.607   2.218   5.202 -0.2015 -0.2135 -0.3997
 7579SOL    HW134196   4.543   2.197   5.269  3.2632 -2.1747  2.3131
 7579SOL    HW234197   4.682   2.188   5.254 -0.6801 -1.5380 -0.4785
 7580SOL     OW34198   0.501   3.894  11.854 -0.8742 -0.5120 -1.1818
 7580SOL    HW134199   0.557   3.915  11.929 -1.7493  1.8673 -1.1803
 7580SOL    HW234200   0.560   3.912  11.780 -1.8807  1.5864 -1.4805
 7581SOL     OW34201   2.324   2.950   2.248  0.1313  0.1021  0.0714
 7581SOL    HW134202   2.323   2.891   2.173  2.0598  0.6488 -0.3876
 7581SOL    HW234203   2.366   3.032   2.221 -2.7383  1.9920  1.3973
 7582SOL     OW34204   3.367   2.800  10.201 -0.1469  0.3631  0.3009
 7582SOL    HW134205   3.314   2.721  10.215 -0.1958  0.3158 -0.1523
 7582SOL    HW234206   3.398   2.818  10.289  0.4898 -0.2137  0.1881
 7583SOL     OW34207   3.947   4.339   2.441  0.4962 -0.0988 -0.7502
 7583SOL    HW134208   3.967   4.315   2.532  1.6932  1.2768 -0.6414
 7583SOL    HW234209   3.973   4.431   2.439 -2.0365  0.6655  1.1273
 7584SOL     OW34210   4.316   0.981   7.667 -0.0103 -1.1568  0.1362
 7584SOL    HW134211   4.407   0.953   7.679  0.0102 -0.3922  1.8039
 7584SOL    HW234212   4.281   0.958   7.753 -2.7794 -2.4535 -1.3373
 7585SOL     OW34213   3.127   0.674   7.886 -0.0702  0.3132  0.3293
 7585SOL    HW134214   3.082   0.633   7.960 -0.0071 -0.5991 -0.1290
 7585SOL    HW234215   3.213   0.676   7.927  0.3954  0.3140 -0.6614
 7586SOL     OW34216   1.507   4.489   3.428  1.1415  0.3594 -0.2064
 7586SOL    HW134217   1.471   4.577   3.417  2.5316  0.9620  0.1637
 7586SOL    HW234218   1.496   4.442   3.345 -1.1077 -0.6006  0.6432
 7587SOL     OW34219   0.982   4.625   8.524 -0.6037  0.1570  0.0211
 7587SOL    HW134220   0.943   4.578   8.598 -0.4023  1.8387  1.2004
 7587SOL    HW234221   1.072   4.601   8.548 -0.9240  0.3985  1.4763
 7588SOL     OW34222   0.237   2.846   2.555 -0.0591  0.1357  0.0532
 7588SOL    HW134223   0.173   2.914   2.534 -0.2191  0.2926  1.0519
 7588SOL    HW234224   0.175   2.786   2.597  0.5259 -1.4647 -1.3645
 7589SOL     OW34225   4.316   3.199   7.856 -0.5211  0.0588  0.1222
 7589SOL    HW134226   4.291   3.255   7.930 -0.7608  0.3708 -0.1959
 7589SOL    HW234227   4.317   3.112   7.895 -1.1577  0.0389  0.0913
 7590SOL     OW34228   4.630   4.498   3.545 -0.3066 -0.4611 -0.0503
 7590SOL    HW134229   4.569   4.440   3.590 -0.6490 -0.0813 -0.0225
 7590SOL    HW234230   4.578   4.577   3.529 -0.7874 -0.4450  1.6616
 7591SOL     OW34231   1.845   0.841   3.173 -0.3183 -0.3863  0.0326
 7591SOL    HW134232   1.755   0.871   3.163  0.0714  1.3359  1.7519
 7591SOL    HW234233   1.847   0.769   3.109 -0.6491 -0.3777  0.0166
 7592SOL     OW34234   1.955   4.220   3.604 -0.3995 -0.9798  0.6094
 7592SOL    HW134235   1.911   4.305   3.609  1.6304  0.2688 -2.1129
 7592SOL    HW234236   1.887   4.160   3.574  0.4067 -1.9238  0.6358
 7593SOL     OW34237   3.398   2.694   6.537 -0.2489  0.0734  0.3919
 7593SOL    HW134238   3.358   2.616   6.499  0.7732 -0.0447 -0.4311
 7593SOL    HW234239   3.412   2.744   6.457  2.6587 -0.4735  0.5429
 7594SOL     OW34240   2.670   2.547   4.786 -0.5396 -0.1824  0.5097
 7594SOL    HW134241   2.600   2.536   4.722 -1.7621  0.6999  1.7059
 7594SOL    HW234242   2.734   2.478   4.767  1.2312  1.8987 -1.0669
 7595SOL     OW34243   0.944   0.818  10.394 -0.0291  0.5379  0.3121
 7595SOL    HW134244   1.002   0.820  10.318  0.0981 -2.7184  0.3352
 7595SOL    HW234245   0.936   0.912  10.413 -3.7546  0.3960 -0.5751
 7596SOL     OW34246   1.520   2.195   0.453  0.3108 -0.0280  0.2690
 7596SOL    HW134247   1.510   2.249   0.375 -1.4581 -0.9014 -0.1088
 7596SOL    HW234248   1.580   2.248   0.504  2.0047 -1.5606 -0.1008
 7597SOL     OW34249   0.117   0.952   4.796 -0.7976 -0.0661  0.2687
 7597SOL    HW134250   0.176   0.881   4.770 -0.5693  0.4337 -0.5808
 7597SOL    HW234251   0.152   1.025   4.745  0.5908 -0.1293  1.1471
 7598SOL     OW34252   3.456   0.592  10.475 -0.7376  0.6980 -0.5577
 7598SOL    HW134253   3.468   0.670  10.421 -0.8091  0.4786 -0.8889
 7598SOL    HW234254   3.389   0.543  10.428 -0.2203  0.2207 -0.8027
 7599SOL     OW34255   2.344   0.545   8.195 -0.5950  0.2741 -0.1942
 7599SOL    HW134256   2.317   0.609   8.129  0.2492 -0.5181 -1.3225
 7599SOL    HW234257   2.404   0.504   8.133 -0.6658  1.6616 -1.1806
 7600SOL     OW34258   0.320   3.116   3.567 -0.3011 -0.7218  0.3878
 7600SOL    HW134259   0.336   3.074   3.483 -1.3140 -0.1257 -0.0994
 7600SOL    HW234260   0.225   3.127   3.571 -0.0829  0.9534  0.8184
 7601SOL     OW34261   0.270   2.646   5.828 -0.5104  0.2010 -0.0140
 7601SOL    HW134262   0.291   2.664   5.920  0.0703 -1.2771  0.1320
 7601SOL    HW234263   0.354   2.628   5.786  0.9363 -0.3993  3.1212
 7602SOL     OW34264   4.333   1.089   3.604 -0.5693  0.3748 -0.0417
 7602SOL    HW134265   4.300   1.006   3.571  0.1372  1.0543 -2.4576
 7602SOL    HW234266   4.330   1.080   3.699 -1.3680 -0.4512 -0.1522
 7603SOL     OW34267   2.361   2.926   7.708 -0.3381  0.1634  1.0415
 7603SOL    HW134268   2.431   2.875   7.748  0.5359  0.1865 -0.4677
 7603SOL    HW234269   2.355   2.882   7.623 -1.9878 -1.5805  2.0493
 7604SOL     OW34270   3.498   0.912   4.612  0.6800  0.1579  0.5365
 7604SOL    HW134271   3.539   0.828   4.635 -0.6347 -0.3272  1.0818
 7604SOL    HW234272   3.463   0.932   4.699  0.5310 -1.1686  0.7867
 7605SOL     OW34273   3.962   3.416   3.697 -0.3758 -0.9850 -0.1465
 7605SOL    HW134274   3.932   3.376   3.779 -1.3176  0.9183  0.4458
 7605SOL    HW234275   3.922   3.503   3.693 -0.3498 -0.9729 -0.1437
 7606SOL     OW34276   0.568   2.452   5.977  0.2871  0.0254 -0.7060
 7606SOL    HW134277   0.570   2.476   5.884 -0.5186 -2.9373 -1.4832
 7606SOL    HW234278   0.517   2.372   5.965 -2.6524  1.7931 -0.1989
 7607SOL     OW34279   0.201   0.940   3.291  0.7424  0.2635 -0.2623
 7607SOL    HW134280   0.255   0.891   3.229  1.0200 -0.0771  0.2483
 7607SOL    HW234281   0.234   0.897   3.371  1.5409 -1.0480 -1.2908
 7608SOL     OW34282   1.153   1.490  10.861 -0.0949  0.0711 -0.4277
 7608SOL    HW134283   1.168   1.506  10.768  1.6554 -0.5165 -0.2466
 7608SOL    HW234284   1.204   1.412  10.884  0.8324  1.0201  0.7652
 7609SOL     OW34285   3.955   4.413   4.168 -0.5206  0.0368  0.1115
 7609SOL    HW134286   3.989   4.420   4.257  0.2401  1.6470 -0.3002
 7609SOL    HW234287   4.009   4.464   4.108 -0.2011 -0.3251  0.0907
 7610SOL     OW34288   0.413   1.741   7.522  0.1040 -0.0151 -0.0130
 7610SOL    HW134289   0.318   1.756   7.524  0.1429  0.5583 -2.1174
 7610SOL    HW234290   0.455   1.824   7.497  0.3082  0.2763  1.2724
 7611SOL     OW34291   4.125   2.214   6.293  0.0385 -0.0070  0.4138
 7611SOL    HW134292   4.218   2.204   6.315  0.2214  0.1927 -0.2603
 7611SOL    HW234293   4.097   2.138   6.344 -0.4649  0.2246  0.4849
 7612SOL     OW34294   0.502   2.386  12.560 -0.0745  0.0988  0.4845
 7612SOL    HW134295   0.593   2.408  12.577 -0.2267  1.6531 -0.6854
 7612SOL    HW234296   0.457   2.470  12.573  0.1023  0.3882 -0.7746
 7613SOL     OW34297   1.293   2.841   9.886 -0.1104  0.1986 -0.3433
 7613SOL    HW134298   1.273   2.749   9.901 -2.5548  0.9151  0.7952
 7613SOL    HW234299   1.351   2.830   9.811  2.7611 -0.1740  1.9345
 7614SOL     OW34300   2.510   2.785   8.872 -0.5337  0.1335 -0.1463
 7614SOL    HW134301   2.462   2.830   8.941  1.1986 -1.6365  2.2022
 7614SOL    HW234302   2.443   2.776   8.804  0.9550  0.0727 -1.6365
 7615SOL     OW34303   0.925   3.938   4.315 -0.2831 -0.3558  0.1897
 7615SOL    HW134304   0.958   4.019   4.353 -1.6173  0.3217 -0.0927
 7615SOL    HW234305   0.855   3.973   4.261  1.3317  1.5101 -0.6527
 7616SOL     OW34306   3.164   0.250   9.125 -0.0142 -0.0175  0.4273
 7616SOL    HW134307   3.135   0.306   9.196 -0.6971 -0.9565  0.8748
 7616SOL    HW234308   3.259   0.241   9.140 -0.0659 -0.4263  0.5040
 7617SOL     OW34309   4.194   1.910  12.192 -0.0554  0.4693  0.0625
 7617SOL    HW134310   4.255   1.959  12.246  1.2510 -0.9709 -0.0999
 7617SOL    HW234311   4.147   1.859  12.258 -0.2467 -0.5068 -0.8269
 7618SOL     OW34312   0.567   2.434   5.464  0.4681  0.2655  0.4881
 7618SOL    HW134313   0.626   2.469   5.397 -1.4517 -0.2890 -1.4623
 7618SOL    HW234314   0.503   2.389   5.409  2.0794  0.2732 -1.3960
 7619SOL     OW34315   4.545   3.492   3.047  0.4627 -0.0196  0.1204
 7619SOL    HW134316   4.559   3.467   2.955  0.6894  2.3950 -0.5037
 7619SOL    HW234317   4.551   3.588   3.047 -2.3281  0.1586  0.1114
 7620SOL     OW34318   2.689   4.179  14.927 -0.3720 -0.6325 -0.1337
 7620SOL    HW134319   2.735   4.234  14.991  0.5593  0.1729 -1.4961
 7620SOL    HW234320   2.719   4.223  14.848 -0.7568 -0.0128  0.0629
 7621SOL     OW34321   0.964   3.686   4.398  0.2256 -0.4920  0.0723
 7621SOL    HW134322   1.056   3.710   4.388 -0.6265  2.0704 -1.5794
 7621SOL    HW234323   0.913   3.762   4.371 -0.2255 -0.5378  0.7972
 7622SOL     OW34324   1.358   2.794  12.382 -0.0206  0.1045 -0.2202
 7622SOL    HW134325   1.434   2.851  12.372  0.4230 -0.3392  0.6557
 7622SOL    HW234326   1.388   2.725  12.441  0.7290  0.7961  0.2026
 7623SOL     OW34327   0.299   0.546   8.532 -0.0203 -0.2774  0.0486
 7623SOL    HW134328   0.229   0.514   8.476  0.3008  1.0144 -1.0794
 7623SOL    HW234329   0.317   0.478   8.597 -1.0933  1.2989  2.0043
 7624SOL     OW34330   1.221   2.460   6.401  0.1098  0.1941  0.0074
 7624SOL    HW134331   1.158   2.450   6.330  1.5775  0.9781 -1.4002
 7624SOL    HW234332   1.302   2.457   6.350  0.2192  1.1076  0.1250
 7625SOL     OW34333   0.847   1.507   9.523 -0.2635  0.4463  0.0972
 7625SOL    HW134334   0.923   1.533   9.574  0.5770  0.5764 -1.2411
 7625SOL    HW234335   0.819   1.598   9.517 -0.1741  0.5084  0.5757
 7626SOL     OW34336   2.309   1.661  17.030  0.0972 -0.4883  0.1126
 7626SOL    HW134337   2.253   1.585  17.014 -0.2231  0.0536 -1.3103
 7626SOL    HW234338   2.282   1.690  17.117 -0.0337  0.2045 -0.1632
 7627SOL     OW34339   3.901   2.360   6.429  0.2945 -0.1667 -0.0837
 7627SOL    HW134340   3.837   2.289   6.424 -0.7626  0.6856  1.1070
 7627SOL    HW234341   3.976   2.321   6.384 -0.8017 -0.3830 -1.7169
 7628SOL     OW34342   1.787   3.818  12.787  0.3579  0.1000 -0.0251
 7628SOL    HW134343   1.834   3.817  12.870  0.5495 -0.5209 -0.1397
 7628SOL    HW234344   1.837   3.765  12.725  0.3554  0.1731 -0.0903
 7629SOL     OW34345   0.399   1.833   5.810 -0.4063 -0.0987  0.7314
 7629SOL    HW134346   0.430   1.808   5.722  0.2043 -1.9257  1.4652
 7629SOL    HW234347   0.370   1.749   5.846 -0.2775  0.0059  1.0787
 7630SOL     OW34348   4.343   2.905   9.797 -0.2445 -0.2497  0.3470
 7630SOL    HW134349   4.286   2.970   9.838 -2.1193  0.6093 -3.6439
 7630SOL    HW234350   4.310   2.822   9.831 -2.2737 -0.9658 -3.3910
 7631SOL     OW34351   3.294   3.919   8.160  0.1313  0.0170  0.3044
 7631SOL    HW134352   3.348   3.995   8.182 -1.3700  1.2003 -0.1425
 7631SOL    HW234353   3.324   3.911   8.070  0.5069  1.6236  0.2977
 7632SOL     OW34354   3.012   2.118   4.543  0.1806  0.1379  0.0411
 7632SOL    HW134355   2.958   2.168   4.482  1.6388  0.5959 -0.8749
 7632SOL    HW234356   3.093   2.116   4.491  1.4556  2.4171  1.9545
 7633SOL     OW34357   4.527   3.674  10.963 -0.9430  0.1233 -0.3952
 7633SOL    HW134358   4.533   3.673  10.868 -1.0118  2.1745 -0.4123
 7633SOL    HW234359   4.620   3.686  10.981 -0.8656  0.1378 -0.8113
 7634SOL     OW34360   4.617   0.139   4.720  0.3465 -0.1475 -0.3283
 7634SOL    HW134361   4.620   0.166   4.628 -1.6395 -0.5521 -0.5028
 7634SOL    HW234362   4.576   0.214   4.764 -0.0654 -0.2008 -0.6213
 7635SOL     OW34363   1.484   3.148  10.409  0.0336  0.3220 -0.4181
 7635SOL    HW134364   1.531   3.226  10.378  2.3356 -0.5129  0.9298
 7635SOL    HW234365   1.415   3.136  10.343 -0.7906 -0.3865  0.5848
 7636SOL     OW34366   1.076   0.884   0.898  0.3395  0.1308 -0.0707
 7636SOL    HW134367   1.132   0.872   0.821  1.1039  2.3578  0.1548
 7636SOL    HW234368   1.112   0.817   0.956 -1.4276 -0.6702  0.0979
 7637SOL     OW34369   1.719   1.084   8.338 -0.3871  0.6027  0.2781
 7637SOL    HW134370   1.812   1.106   8.344 -0.5664  1.7594 -1.1802
 7637SOL    HW234371   1.713   0.989   8.336 -1.3989  0.6680  0.0164
 7638SOL     OW34372   2.959   4.228  14.003 -0.1534 -0.7329 -0.0032
 7638SOL    HW134373   2.920   4.141  14.009 -3.8519  0.8107 -1.9306
 7638SOL    HW234374   2.965   4.227  13.908 -0.7967 -2.2089 -0.0305
 7639SOL     OW34375   2.774   3.933   2.297 -0.2075 -0.6142 -0.1882
 7639SOL    HW134376   2.799   4.014   2.253 -0.7549 -0.6061 -0.4826
 7639SOL    HW234377   2.758   3.967   2.385  1.8141  0.1770 -0.1329
 7640SOL     OW34378   2.577   0.629   1.921 -0.2234 -0.2140  0.0225
 7640SOL    HW134379   2.493   0.587   1.905 -0.6886 -0.2217  2.4237
 7640SOL    HW234380   2.628   0.567   1.870 -0.5795 -1.5854  1.3477
 7641SOL     OW34381   0.360   1.130   6.059  0.2098  0.1158 -0.4048
 7641SOL    HW134382   0.390   1.041   6.038 -0.3860  0.7192 -3.9188
 7641SOL    HW234383   0.373   1.181   5.979 -0.9157  0.0716 -0.6152
 7642SOL     OW34384   0.985   4.146   8.709  0.1426  0.4451 -0.3311
 7642SOL    HW134385   0.922   4.075   8.726  0.8056 -0.2288 -0.7052
 7642SOL    HW234386   0.960   4.218   8.767  0.5402  2.4334 -2.6520
 7643SOL     OW34387   0.196   2.031   5.797  0.2797  0.1998  0.1740
 7643SOL    HW134388   0.240   2.092   5.739  0.0068 -0.1056 -0.3526
 7643SOL    HW234389   0.266   1.974   5.829  1.7312  0.9511 -1.7045
 7644SOL     OW34390   1.153   3.642   3.258  0.0216 -0.3891 -0.3273
 7644SOL    HW134391   1.090   3.617   3.326  2.2668  0.2782  1.9853
 7644SOL    HW234392   1.086   3.659   3.191  0.3058  1.6623 -0.0924
 7645SOL     OW34393   3.511   2.838   0.944  0.3545 -0.4764  0.0726
 7645SOL    HW134394   3.527   2.765   0.884  1.1027 -0.6319  0.4626
 7645SOL    HW234395   3.415   2.834   0.943  0.4453 -2.4746  2.0067
 7646SOL     OW34396   1.606   3.812  17.117 -0.5690  0.0712 -0.2877
 7646SOL    HW134397   1.646   3.891  17.081  1.5391 -0.6714  0.4287
 7646SOL    HW234398   1.599   3.756  17.040 -0.5768  2.1421 -1.7859
 7647SOL     OW34399   0.941   0.832   7.430  0.6364  0.1451  0.1745
 7647SOL    HW134400   0.870   0.853   7.491 -0.0370 -1.8244  0.0629
 7647SOL    HW234401   1.011   0.887   7.463  1.1289  1.7004 -3.3979
 7648SOL     OW34402   2.824   3.128   1.750  0.1070 -0.4878  0.4242
 7648SOL    HW134403   2.897   3.072   1.722  0.0832  0.0466 -0.7178
 7648SOL    HW234404   2.855   3.166   1.832  1.4180  0.2306 -0.4088
 7649SOL     OW34405   3.982   3.197   4.890  0.2181 -0.4735 -0.0832
 7649SOL    HW134406   3.993   3.189   4.796 -0.2803  0.5952 -0.2285
 7649SOL    HW234407   3.945   3.285   4.894 -1.4186 -1.0647 -2.6100
 7650SOL     OW34408   1.562   3.974   2.410  0.0234  0.5270  0.0722
 7650SOL    HW134409   1.595   3.902   2.463 -2.2905  0.0988  0.9173
 7650SOL    HW234410   1.487   4.003   2.463 -0.9663 -0.1763 -0.9463
 7651SOL     OW34411   1.037   0.411   4.191  0.2087 -0.2848 -0.3039
 7651SOL    HW134412   0.957   0.358   4.192 -0.1934  0.3269 -0.3118
 7651SOL    HW234413   1.103   0.350   4.158  1.3868  0.7706  0.1216
 7652SOL     OW34414   0.123   3.736   4.384 -0.1773  0.3890 -0.0704
 7652SOL    HW134415   0.072   3.816   4.392  2.0552  1.8669 -0.6296
 7652SOL    HW234416   0.167   3.754   4.300  0.8634 -1.2699  0.1232
 7653SOL     OW34417   2.332   3.991   8.389  0.0627 -0.1339 -0.1060
 7653SOL    HW134418   2.245   3.957   8.370 -0.2802  0.2943  0.7000
 7653SOL    HW234419   2.335   3.981   8.485 -0.0275 -0.4362 -0.1323
 7654SOL     OW34420   4.516   1.447  15.100 -0.4956 -0.2267  0.6497
 7654SOL    HW134421   4.440   1.481  15.052  0.7491 -0.2969 -1.4096
 7654SOL    HW234422   4.537   1.533  15.137 -1.9578  0.7747 -0.8437
 7655SOL     OW34423   4.591   2.933   9.976  0.3532 -0.2911 -0.2757
 7655SOL    HW134424   4.551   2.867  10.032 -1.1809  1.3720  0.5673
 7655SOL    HW234425   4.542   2.920   9.895  0.7403 -2.1401 -0.2156
 7656SOL     OW34426   3.664   2.191  14.147  0.5415  0.4710  0.6579
 7656SOL    HW134427   3.720   2.262  14.116 -1.3924  1.6483 -0.2016
 7656SOL    HW234428   3.699   2.107  14.117 -1.9385 -1.2419  2.5778
 7657SOL     OW34429   0.439   4.087   6.448  0.3023  1.0002 -0.6741
 7657SOL    HW134430   0.522   4.079   6.495 -1.4376 -1.5142  1.9292
 7657SOL    HW234431   0.461   4.050   6.362 -2.8619  0.5864 -1.3141
 7658SOL     OW34432   0.877   1.968  11.659 -0.0231  0.0715 -0.1368
 7658SOL    HW134433   0.893   2.059  11.633 -3.1270  0.2571 -1.4130
 7658SOL    HW234434   0.871   1.973  11.754 -3.3520  2.5422 -0.4893
 7659SOL     OW34435   2.677   1.737   5.030  0.3410  0.6762 -0.8840
 7659SOL    HW134436   2.733   1.814   5.026 -0.5652  1.2868 -1.8587
 7659SOL    HW234437   2.681   1.709   4.938  0.1335 -3.0327  0.2359
 7660SOL     OW34438   2.161   1.450   3.048 -0.3627  0.2171  0.0469
 7660SOL    HW134439   2.139   1.361   3.076 -0.8176 -0.5448 -2.8114
 7660SOL    HW234440   2.184   1.496   3.129 -0.8255 -0.9555  0.8646
 7661SOL     OW34441   1.366   2.675   5.630  0.3431 -0.0932 -0.2229
 7661SOL    HW134442   1.369   2.662   5.535  0.4985 -1.7782  0.0112
 7661SOL    HW234443   1.454   2.710   5.644  0.6237 -0.2524 -1.5319
 7662SOL     OW34444   3.653   1.304   5.012  0.6459  1.0714 -0.4430
 7662SOL    HW134445   3.575   1.253   5.031  1.8888 -0.4483  0.6008
 7662SOL    HW234446   3.675   1.323   5.104 -2.3904  0.5247  0.4030
 7663SOL     OW34447   2.919   3.530  16.012  0.1250  0.9820  0.5330
 7663SOL    HW134448   2.903   3.458  15.950  1.1737  1.8720 -0.7599
 7663SOL    HW234449   2.960   3.591  15.951 -0.4333  1.3886  0.5649
 7664SOL     OW34450   2.634   1.832   1.754 -0.4473  0.1763 -0.0723
 7664SOL    HW134451   2.614   1.925   1.750  1.7388  0.6840  0.6757
 7664SOL    HW234452   2.564   1.791   1.702  0.1083  0.1690 -0.8255
 7665SOL     OW34453   2.522   3.948   3.554 -0.2572  0.4619  0.8119
 7665SOL    HW134454   2.561   3.988   3.632  0.5802 -1.8586  1.5675
 7665SOL    HW234455   2.468   4.024   3.533 -0.5764  0.1189  0.3923
 7666SOL     OW34456   2.669   1.870   7.528 -0.7169 -0.0340  0.5748
 7666SOL    HW134457   2.602   1.834   7.471 -0.3375 -1.4466  1.0367
 7666SOL    HW234458   2.665   1.813   7.605  1.2088 -0.5226  0.3248
 7667SOL     OW34459   3.733   3.375   7.349 -0.4176  0.5843 -0.6104
 7667SOL    HW134460   3.721   3.307   7.283  1.4964  1.8204 -2.2393
 7667SOL    HW234461   3.816   3.348   7.389 -1.3525  1.1575  1.7739
 7668SOL     OW34462   0.675   1.526   5.544 -0.8881  0.2137  0.3122
 7668SOL    HW134463   0.707   1.610   5.577  0.3664  0.4927 -1.6572
 7668SOL    HW234464   0.594   1.557   5.504 -0.9958 -0.7287 -0.2192
 7669SOL     OW34465   4.329   4.110   0.858 -0.1954  0.0646 -0.0221
 7669SOL    HW134466   4.334   4.102   0.953  0.8239 -3.2372 -0.3283
 7669SOL    HW234467   4.406   4.166   0.846 -0.2078 -0.1528 -1.1696
 7670SOL     OW34468   0.437   1.062   3.902  0.5976 -0.2337  0.5547
 7670SOL    HW134469   0.483   1.128   3.955 -0.5266  0.9042  0.1225
 7670SOL    HW234470   0.356   1.050   3.951 -0.4095  0.4940 -0.9132
 7671SOL     OW34471   1.303   2.163  14.431  0.3843  0.7329 -0.5254
 7671SOL    HW134472   1.287   2.071  14.413  0.2065  0.2164  2.2447
 7671SOL    HW234473   1.395   2.154  14.453  0.2503 -3.9841 -1.8916
 7672SOL     OW34474   2.012   0.405  17.464 -0.6219 -0.2420  0.6965
 7672SOL    HW134475   2.013   0.358  17.381 -0.7607  0.5070  0.2625
 7672SOL    HW234476   1.921   0.435  17.461  0.1366  2.2732  2.6054
 7673SOL     OW34477   3.507   1.199   1.047  0.7334 -0.6669  0.1001
 7673SOL    HW134478   3.481   1.214   1.138  0.5911 -0.5238  0.0367
 7673SOL    HW234479   3.603   1.199   1.044  0.7396  1.3039  0.4814
 7674SOL     OW34480   3.748   3.554  17.585  0.7787 -0.1683 -0.2489
 7674SOL    HW134481   3.743   3.524  17.676  0.1682 -0.5711 -0.4147
 7674SOL    HW234482   3.680   3.622  17.584 -0.5214 -1.4851 -0.9302
 7675SOL     OW34483   1.328   0.297   6.832  0.2442  0.4651 -0.5465
 7675SOL    HW134484   1.261   0.240   6.871  0.1073  0.9445 -0.0724
 7675SOL    HW234485   1.291   0.383   6.813  1.3859  0.7269 -1.5512
 7676SOL     OW34486   2.118   1.307  10.815 -0.1339 -0.3555 -0.3440
 7676SOL    HW134487   2.034   1.338  10.850 -0.1386 -1.0247  0.2484
 7676SOL    HW234488   2.145   1.389  10.776 -2.0457  0.1839 -0.5627
 7677SOL     OW34489   1.898   0.421   2.538 -0.2267  0.0708 -0.3634
 7677SOL    HW134490   1.869   0.369   2.613  1.1889 -1.1221 -0.6458
 7677SOL    HW234491   1.896   0.513   2.564 -0.2426  0.3034 -1.1818
 7678SOL     OW34492   0.923   2.208  15.726 -0.1812  0.6321 -0.3054
 7678SOL    HW134493   0.905   2.114  15.716 -0.0200  0.6193 -0.4660
 7678SOL    HW234494   0.853   2.247  15.673 -0.0986 -1.8642 -2.2403
 7679SOL     OW34495   2.635   2.841  10.408  0.1894 -0.1620 -0.1373
 7679SOL    HW134496   2.706   2.861  10.347 -0.0809  1.4632  0.0667
 7679SOL    HW234497   2.678   2.867  10.490 -0.4061 -1.3503  0.5499
 7680SOL     OW34498   0.795   2.424  15.987 -0.3921  0.0824  0.0046
 7680SOL    HW134499   0.757   2.501  15.943  0.5181  1.4569  1.6281
 7680SOL    HW234500   0.888   2.446  15.990 -0.3107 -0.2601  0.0030
 7681SOL     OW34501   0.778   3.663   7.543 -0.1016  0.8513  0.1736
 7681SOL    HW134502   0.806   3.594   7.604  0.0948 -0.2573 -1.1898
 7681SOL    HW234503   0.788   3.741   7.599  0.4339  0.5575  0.4888
 7682SOL     OW34504   4.027   1.552   8.701 -0.0888  0.1917  0.0061
 7682SOL    HW134505   3.977   1.492   8.646  1.0238  0.2090 -1.0288
 7682SOL    HW234506   3.976   1.549   8.782 -1.2791  0.4817 -0.7371
 7683SOL     OW34507   3.181   2.783   2.541 -0.1130  0.2856 -1.2597
 7683SOL    HW134508   3.143   2.869   2.523 -1.4285 -0.4481 -1.9569
 7683SOL    HW234509   3.187   2.752   2.451  3.1457 -0.1477 -0.8996
 7684SOL     OW34510   2.879   2.489  12.859  0.5644 -0.4885  0.4069
 7684SOL    HW134511   2.923   2.540  12.927 -0.7542  1.1542  0.0212
 7684SOL    HW234512   2.879   2.560  12.796 -1.5613 -0.2794  0.6327
 7685SOL     OW34513   4.004   0.231   5.346  0.1535 -0.3369  0.1371
 7685SOL    HW134514   4.089   0.206   5.381  0.6271 -0.3903 -1.0564
 7685SOL    HW234515   3.962   0.152   5.379  2.3609 -2.4085 -1.9957
 7686SOL     OW34516   4.706   3.314  11.210  0.2543  0.9972  0.2465
 7686SOL    HW134517   4.701   3.361  11.127  2.6272  0.1797 -0.3594
 7686SOL    HW234518   4.629   3.257  11.206  0.3075  0.8906  0.8374
 7687SOL     OW34519   0.880   4.518   7.325 -0.3532  0.1321 -0.0874
 7687SOL    HW134520   0.821   4.462   7.274  1.3788 -0.5854 -1.3024
 7687SOL    HW234521   0.959   4.509   7.272  0.1205 -1.7715  0.9451
 7688SOL     OW34522   3.152   3.372  12.872  0.3320  0.2952 -0.2950
 7688SOL    HW134523   3.087   3.439  12.894 -0.2632 -0.6916  0.9589
 7688SOL    HW234524   3.180   3.340  12.958 -0.6930 -1.7060 -0.6994
 7689SOL     OW34525   3.573   2.488   2.232  0.0782  0.1092 -0.2095
 7689SOL    HW134526   3.612   2.401   2.238 -1.3626 -0.4131  1.4423
 7689SOL    HW234527   3.486   2.470   2.197 -1.0961 -0.4299  3.0424
 7690SOL     OW34528   3.713   3.488   4.126  0.1318  0.1575 -0.1927
 7690SOL    HW134529   3.692   3.549   4.055  1.5263 -0.0108 -0.7544
 7690SOL    HW234530   3.636   3.493   4.182  2.1803  0.4133  2.6173
 7691SOL     OW34531   3.893   3.011   5.745 -0.1845  0.3498 -0.1940
 7691SOL    HW134532   3.953   3.025   5.672 -0.3509  0.0596 -0.3867
 7691SOL    HW234533   3.917   2.921   5.769 -0.5673 -0.0130 -1.1610
 7692SOL     OW34534   0.157   3.934   5.218 -0.3661 -0.3144  0.9058
 7692SOL    HW134535   0.065   3.922   5.194 -0.1716  1.9796 -0.9335
 7692SOL    HW234536   0.193   3.902   5.135 -2.4886 -3.0187  1.0011
 7693SOL     OW34537   0.485   2.460   2.230 -0.3371 -0.0891  0.1779
 7693SOL    HW134538   0.484   2.553   2.209 -0.0832 -0.4769 -1.5532
 7693SOL    HW234539   0.442   2.423   2.153 -2.7316  1.4587  0.8025
 7694SOL     OW34540   2.459   3.249   1.663 -0.3999  0.3655 -0.3094
 7694SOL    HW134541   2.500   3.271   1.746 -0.8916 -2.5141  0.6989
 7694SOL    HW234542   2.520   3.194   1.614  0.3999 -1.0472  2.3103
 7695SOL     OW34543   4.397   4.361   4.010 -0.1312 -0.2719  0.3545
 7695SOL    HW134544   4.476   4.414   4.018 -0.3145 -0.0440  0.6389
 7695SOL    HW234545   4.363   4.380   4.097 -1.1096 -1.0939  0.1574
 7696SOL     OW34546   1.010   1.162  12.120 -0.3278  0.0952  0.0122
 7696SOL    HW134547   0.918   1.136  12.110  0.8742 -2.9286 -3.2460
 7696SOL    HW234548   1.007   1.199  12.208 -0.6454 -2.6654  1.1759
 7697SOL     OW34549   2.074   1.528   5.542  0.3197 -0.1086 -0.1393
 7697SOL    HW134550   2.157   1.489   5.515  1.0581  0.8089  0.7742
 7697SOL    HW234551   2.102   1.550   5.631 -0.7715 -1.3041  0.4991
 7698SOL     OW34552   4.149   3.845  13.487  0.4975  0.0876  0.3516
 7698SOL    HW134553   4.190   3.932  13.491 -0.1477  0.5984 -4.1751
 7698SOL    HW234554   4.097   3.845  13.568  0.8623 -0.4073  0.5819
 7699SOL     OW34555   4.359   1.013   6.914 -0.4977  0.1162  0.2318
 7699SOL    HW134556   4.453   1.028   6.918 -0.4042 -1.1249  2.3686
 7699SOL    HW234557   4.354   0.924   6.946  0.8264 -0.8778 -2.3068
 7700SOL     OW34558   2.367   0.146   6.221 -0.7142  0.8794  0.3546
 7700SOL    HW134559   2.404   0.173   6.305  3.4623 -2.8143 -0.2829
 7700SOL    HW234560   2.419   0.067   6.206  0.0802  1.7468 -1.4063
 7701SOL     OW34561   2.980   2.175   1.727  0.0953  0.1122 -1.0176
 7701SOL    HW134562   2.912   2.133   1.673 -0.8184  2.3619 -1.5904
 7701SOL    HW234563   2.971   2.266   1.700 -1.0331  0.0708 -0.7995
 7702SOL     OW34564   1.584   3.670   7.897 -0.0852  0.2143 -0.0441
 7702SOL    HW134565   1.676   3.686   7.914 -0.4951  0.8058  1.5664
 7702SOL    HW234566   1.548   3.751   7.932 -1.9948 -0.0732 -1.3210
 7703SOL     OW34567   2.053   3.858   4.216  0.0912 -0.1218  0.2248
 7703SOL    HW134568   2.080   3.774   4.253 -0.1203 -0.7473 -1.0695
 7703SOL    HW234569   2.136   3.906   4.218 -0.7385  1.3370 -0.5709
 7704SOL     OW34570   2.311   0.701   3.081 -0.0643  0.5038  0.2745
 7704SOL    HW134571   2.322   0.685   3.175 -1.3894 -3.7699 -0.2897
 7704SOL    HW234572   2.261   0.626   3.049 -2.4263  2.3894 -0.5067
 7705SOL     OW34573   1.487   1.647   7.954  0.6465  0.0357 -0.6313
 7705SOL    HW134574   1.394   1.631   7.974  0.4424  1.3252 -0.5399
 7705SOL    HW234575   1.534   1.568   7.980  0.8557  0.2901 -0.2439
 7706SOL     OW34576   3.816   1.510   5.924 -0.0243  0.3979  0.4028
 7706SOL    HW134577   3.834   1.421   5.956  0.2534  0.5699  0.7235
 7706SOL    HW234578   3.871   1.566   5.979 -1.6154  1.4660  0.9356
 7707SOL     OW34579   2.056   2.607   7.169  0.1212 -0.2491  0.0396
 7707SOL    HW134580   2.010   2.688   7.149  0.6211 -0.0764 -0.3850
 7707SOL    HW234581   2.014   2.545   7.109 -1.6545  1.7942 -0.8054
 7708SOL     OW34582   2.583   2.207   5.051 -0.1990 -0.0813  0.9387
 7708SOL    HW134583   2.583   2.128   5.105  0.3243 -2.2234 -2.1787
 7708SOL    HW234584   2.550   2.170   4.970  3.0938 -0.0437 -0.4219
 7709SOL     OW34585   2.509   4.586  10.474 -0.1305  0.0957  0.2553
 7709SOL    HW134586   2.423   4.593  10.517  0.4610  1.1496  1.2736
 7709SOL    HW234587   2.555   4.643  10.536 -2.0939  2.1298 -0.1578
 7710SOL     OW34588   0.883   1.958   2.696  0.4612  0.3186 -0.5583
 7710SOL    HW134589   0.920   1.916   2.618  1.5579  0.4693 -0.1136
 7710SOL    HW234590   0.850   2.042   2.663  0.6870 -0.3981 -2.6655
 7711SOL     OW34591   3.929   2.073   4.043 -0.0080  0.1670 -0.1953
 7711SOL    HW134592   3.963   1.987   4.016 -0.0585  0.5600 -1.5128
 7711SOL    HW234593   3.837   2.057   4.060 -0.4194  0.2361 -2.2633
 7712SOL     OW34594   3.035   3.208  12.685  0.6183 -0.4210  0.0506
 7712SOL    HW134595   3.102   3.270  12.716 -0.5748  0.5605  0.6738
 7712SOL    HW234596   2.955   3.250  12.717  1.7863  1.4977  0.4575
 7713SOL     OW34597   3.002   1.818  12.624  0.4106  0.6538  1.1935
 7713SOL    HW134598   2.915   1.782  12.604  0.0633  3.1720 -1.8628
 7713SOL    HW234599   2.987   1.845  12.715  0.5152 -0.2514  1.4767
 7714SOL     OW34600   0.586   4.085   7.041  0.2537 -0.0025  0.0843
 7714SOL    HW134601   0.511   4.037   7.075  0.3105  0.9814  1.5632
 7714SOL    HW234602   0.573   4.083   6.946 -1.9251 -0.5985  0.3961
 7715SOL     OW34603   4.526   4.616   0.069  0.4923  0.1444  0.1697
 7715SOL    HW134604   4.549   4.534   0.113  0.9892 -0.6595 -1.5765
 7715SOL    HW234605   4.580   4.609  17.688 -0.7262  0.6677 -0.6999
 7716SOL     OW34606   2.212   3.985   2.450  0.6613 -0.0478  0.1307
 7716SOL    HW134607   2.263   3.934   2.388  0.8138  2.0545 -1.4883
 7716SOL    HW234608   2.271   3.974   2.525 -1.0245  0.1230  1.4996
 7717SOL     OW34609   3.729   3.951   5.203  0.6632 -0.4076 -0.2999
 7717SOL    HW134610   3.804   4.000   5.236  0.7392 -1.0509  0.4728
 7717SOL    HW234611   3.702   3.998   5.124  0.3499  1.6722  1.0489
 7718SOL     OW34612   0.908   3.947   6.354 -0.0140  0.5587 -0.1193
 7718SOL    HW134613   0.874   3.955   6.265  1.6154  1.1515 -0.6827
 7718SOL    HW234614   0.945   4.033   6.375 -1.2767  1.3914 -1.3297
 7719SOL     OW34615   1.908   2.661  15.047 -0.0871  0.4546  0.5432
 7719SOL    HW134616   1.975   2.726  15.066 -0.0886  0.3231  0.9828
 7719SOL    HW234617   1.828   2.707  15.023 -0.3349 -0.5057 -0.4541
 7720SOL     OW34618   0.335   0.669   8.972 -0.0890  0.3791  0.0690
 7720SOL    HW134619   0.260   0.626   9.013  0.6629  0.2273  1.2761
 7720SOL    HW234620   0.366   0.727   9.042  4.1667  0.0868 -1.5713
 7721SOL     OW34621   3.464   3.923   2.135  0.0557 -0.2301 -0.8778
 7721SOL    HW134622   3.408   3.846   2.134 -0.5739  0.2086  0.3467
 7721SOL    HW234623   3.531   3.908   2.202  0.6428 -0.6785 -1.5735
 7722SOL     OW34624   1.816   3.951   5.915  0.3413 -0.8019  0.0649
 7722SOL    HW134625   1.866   4.033   5.909 -0.1691 -0.4378  0.7239
 7722SOL    HW234626   1.811   3.939   5.821 -0.6310 -3.2068  0.4165
 7723SOL     OW34627   0.525   1.986   1.418 -0.2028 -0.6271 -0.2923
 7723SOL    HW134628   0.476   1.935   1.483 -2.3444  1.1273 -0.5628
 7723SOL    HW234629   0.466   2.060   1.407 -0.4917 -1.0895 -1.8744
 7724SOL     OW34630   1.400   0.723   2.517  0.2460 -0.6865  0.7676
 7724SOL    HW134631   1.456   0.658   2.476 -1.3570 -1.3413 -0.4027
 7724SOL    HW234632   1.443   0.802   2.484  0.0607 -0.8492  0.1351
 7725SOL     OW34633   0.706   0.722   8.140 -1.2974  0.2131  0.1158
 7725SOL    HW134634   0.689   0.772   8.061 -0.2026  2.9013  1.5678
 7725SOL    HW234635   0.692   0.788   8.208  0.5614  0.9554 -0.2383
 7726SOL     OW34636   4.499   1.059   5.159  0.0812  0.0152 -0.1447
 7726SOL    HW134637   4.582   1.060   5.111 -2.1615 -0.9410 -4.0581
 7726SOL    HW234638   4.517   1.029   5.248  3.9139 -1.3478 -1.3908
 7727SOL     OW34639   1.668   4.128   9.086 -0.1428 -0.5218 -0.4843
 7727SOL    HW134640   1.574   4.146   9.079  0.4656  2.1741 -1.6163
 7727SOL    HW234641   1.688   4.163   9.173  1.0110 -0.6584 -0.7018
 7728SOL     OW34642   2.007   0.889   9.891 -0.4860  0.0157  0.1198
 7728SOL    HW134643   1.943   0.833   9.846  0.2059 -0.0805 -0.7395
 7728SOL    HW234644   2.082   0.887   9.832 -0.8122  0.8610 -0.3390
 7729SOL     OW34645   1.880   3.925  10.530  0.1115  0.1501  1.0360
 7729SOL    HW134646   1.807   3.954  10.476  1.4786  0.2415 -0.7747
 7729SOL    HW234647   1.844   3.927  10.618 -2.6264  2.7137 -0.1416
 7730SOL     OW34648   2.296   2.908   4.568 -0.2450 -0.4988 -0.0377
 7730SOL    HW134649   2.211   2.911   4.524  0.8311  1.7563 -1.9726
 7730SOL    HW234650   2.303   2.828   4.619  0.6778  0.2846  1.0581
 7731SOL     OW34651   0.933   4.226  12.942 -0.0043  0.4510  0.0185
 7731SOL    HW134652   1.020   4.220  12.902 -0.0304  0.9463 -0.1118
 7731SOL    HW234653   0.884   4.230  12.860  0.5634  0.8702 -0.3022
 7732SOL     OW34654   1.970   1.044   1.509 -0.0850  0.0250 -0.2416
 7732SOL    HW134655   1.982   1.104   1.582 -1.3597  0.7577 -0.6353
 7732SOL    HW234656   1.916   0.982   1.557  1.4339 -0.2975  1.0351
 7733SOL     OW34657   1.437   3.859   0.169 -0.3136 -0.1575 -0.1221
 7733SOL    HW134658   1.394   3.775   0.186 -1.5822  0.6306  0.6222
 7733SOL    HW234659   1.459   3.853   0.076  0.3838 -0.5602  0.0703
 7734SOL     OW34660   2.045   1.436  15.059 -0.0261  0.0188  0.6487
 7734SOL    HW134661   2.041   1.520  15.014  0.7508 -1.0204 -1.3630
 7734SOL    HW234662   1.960   1.400  15.033  0.4160 -0.2948 -0.3836
 7735SOL     OW34663   4.650   4.417   6.582  0.6241 -0.7161 -0.3308
 7735SOL    HW134664   4.621   4.464   6.660  2.3837  2.8327 -1.8235
 7735SOL    HW234665   4.581   4.430   6.517  0.1879  0.2097  0.3236
 7736SOL     OW34666   3.135   3.723   5.452  0.0945  0.5582  0.6075
 7736SOL    HW134667   3.114   3.815   5.435  1.5317  1.1043  1.8232
 7736SOL    HW234668   3.117   3.703   5.544  0.7906 -2.1341  0.1385
 7737SOL     OW34669   3.532   1.913   4.344  0.0506  0.0175 -0.0267
 7737SOL    HW134670   3.470   1.840   4.341  0.0277  0.0030  0.8517
 7737SOL    HW234671   3.579   1.897   4.426  1.2324 -0.7340 -0.8559
 7738SOL     OW34672   0.249   3.184   1.582  0.2449  0.1078 -0.0742
 7738SOL    HW134673   0.187   3.148   1.519 -0.4628  0.9383  0.1551
 7738SOL    HW234674   0.331   3.149   1.548 -1.3335 -1.7550 -1.9769
 7739SOL     OW34675   4.457   4.067   6.523  0.2032  0.3455 -0.6273
 7739SOL    HW134676   4.378   4.102   6.482 -1.3282 -1.4610  0.7278
 7739SOL    HW234677   4.468   4.144   6.579 -2.3504 -0.5440  1.1483
 7740SOL     OW34678   2.885   3.815   8.002  0.1363 -0.6916  0.3701
 7740SOL    HW134679   2.979   3.798   7.995  0.6842  0.8350  3.7922
 7740SOL    HW234680   2.845   3.731   8.023  0.2172 -1.0817 -1.0943
 7741SOL     OW34681   1.713   2.967   5.723 -0.4377  0.5850 -0.5389
 7741SOL    HW134682   1.764   2.921   5.789 -1.2368 -2.1999 -1.8685
 7741SOL    HW234683   1.730   2.923   5.639 -0.5259  2.2500 -1.4280
 7742SOL     OW34684   1.223   3.519   0.831  0.4386  0.6279  0.6455
 7742SOL    HW134685   1.242   3.426   0.817  0.0017  0.6600 -0.0924
 7742SOL    HW234686   1.213   3.514   0.926 -3.1065 -0.0678  0.2100
 7743SOL     OW34687   0.428   1.077   3.607 -0.0968 -0.0006 -0.0525
 7743SOL    HW134688   0.415   1.172   3.610 -2.2395 -0.2360 -1.3205
 7743SOL    HW234689   0.454   1.056   3.696  1.2366  1.9922  0.0327
 7744SOL     OW34690   3.728   0.684   7.436  0.2257 -0.1810  0.4926
 7744SOL    HW134691   3.790   0.756   7.437 -1.2030  1.0583  0.1113
 7744SOL    HW234692   3.728   0.669   7.531 -1.5611  0.5184  0.5984
 7745SOL     OW34693   1.305   1.017   8.759  0.0614  0.0398  0.0990
 7745SOL    HW134694   1.360   1.018   8.680 -0.9139 -0.2027 -0.5832
 7745SOL    HW234695   1.356   1.052   8.832 -1.9787  0.8655  1.1174
 7746SOL     OW34696   0.015   0.010   1.680 -0.0878  0.2956  0.3951
 7746SOL    HW134697   0.031   0.098   1.645 -0.8209  0.8231  1.3902
 7746SOL    HW234698   0.047   4.688   1.602 -2.3904 -0.9474  0.1645
 7747SOL     OW34699   2.224   3.754   5.603 -0.0040 -0.0268 -0.0103
 7747SOL    HW134700   2.147   3.698   5.618  0.0517  0.3888  1.7772
 7747SOL    HW234701   2.244   3.736   5.511 -0.0346  3.0039 -0.5986
 7748SOL     OW34702   2.988   4.422   2.943 -0.1131  0.6502 -0.5021
 7748SOL    HW134703   2.956   4.345   2.991 -0.3619  0.1356 -1.5047
 7748SOL    HW234704   3.073   4.441   2.983 -0.2173  0.0657 -0.0117
 7749SOL     OW34705   0.078   3.213   3.675  0.4816 -0.3588  0.9037
 7749SOL    HW134706   0.009   3.185   3.615  1.6195 -1.0657 -0.0525
 7749SOL    HW234707   0.020   3.256   3.738 -0.8315  0.4345 -0.8417
 7750SOL     OW34708   3.346   3.243   5.444 -1.3286 -0.1617  0.3675
 7750SOL    HW134709   3.355   3.264   5.351  1.8106  0.6977  0.8665
 7750SOL    HW234710   3.349   3.148   5.453 -2.5491 -0.2930 -0.6669
 7751SOL     OW34711   1.558   1.857  13.539 -0.0205 -0.4542  0.4249
 7751SOL    HW134712   1.520   1.779  13.580 -0.3455 -0.5909 -0.1317
 7751SOL    HW234713   1.492   1.864  13.470 -1.6476 -2.2289  1.7632
 7752SOL     OW34714   4.242   1.563   3.897 -0.4916 -0.0451  0.5354
 7752SOL    HW134715   4.219   1.636   3.840  0.5101 -0.7901 -0.8276
 7752SOL    HW234716   4.298   1.518   3.833 -0.1384  0.6824  0.3405
 7753SOL     OW34717   2.166   2.640   2.154 -0.1564 -0.0650  0.3283
 7753SOL    HW134718   2.129   2.568   2.103  0.8569 -0.3823  0.0330
 7753SOL    HW234719   2.202   2.695   2.085  1.4288 -1.6505 -0.1001
 7754SOL     OW34720   0.888   2.983   5.449 -0.4502  0.0577  0.5276
 7754SOL    HW134721   0.930   3.054   5.497 -1.6066  1.6254 -0.7928
 7754SOL    HW234722   0.801   3.000   5.485  0.2613  2.3528  1.1425
 7755SOL     OW34723   4.141   0.635   8.042  0.5980  0.0174 -0.1328
 7755SOL    HW134724   4.108   0.548   8.018 -0.9002  0.3731  0.6843
 7755SOL    HW234725   4.185   0.610   8.124  0.2826 -1.4558 -0.4185
 7756SOL     OW34726   3.639   0.624  14.748 -0.1266 -0.0575  0.3584
 7756SOL    HW134727   3.701   0.574  14.801  1.1424  0.7529 -0.3779
 7756SOL    HW234728   3.685   0.705  14.729  0.2651 -0.1464  0.9348
 7757SOL     OW34729   0.929   4.281   4.707  0.2747 -0.1574  1.0455
 7757SOL    HW134730   0.892   4.339   4.640  2.3332  1.5661  1.4070
 7757SOL    HW234731   1.000   4.335   4.741  0.0850  0.7902 -0.0879
 7758SOL     OW34732   1.010   0.238  15.025 -0.3641  0.4471  0.3341
 7758SOL    HW134733   1.095   0.213  15.062  0.6109 -0.5941 -2.5783
 7758SOL    HW234734   1.046   0.290  14.953 -1.1257  1.0661  0.4050
 7759SOL     OW34735   3.020   4.287   2.392  0.8674 -0.9221  0.1520
 7759SOL    HW134736   3.100   4.321   2.353  1.3525 -1.8906  0.2941
 7759SOL    HW234737   3.059   4.204   2.420 -2.3598 -2.3360  0.4995
 7760SOL     OW34738   1.773   3.130   3.492 -0.0265 -0.1513  0.1290
 7760SOL    HW134739   1.719   3.074   3.436 -2.5440  2.5543 -0.1288
 7760SOL    HW234740   1.856   3.124   3.444 -0.2805  2.1776 -0.6061
 7761SOL     OW34741   0.949   4.412  13.147 -0.2116 -0.1859 -0.8540
 7761SOL    HW134742   0.882   4.355  13.185  0.0817  1.1866  1.7396
 7761SOL    HW234743   0.970   4.357  13.072 -2.5678 -1.5598 -0.5094
 7762SOL     OW34744   4.600   4.063  12.958  0.7745  0.3194 -0.4004
 7762SOL    HW134745   4.546   4.040  13.033  0.3210  2.1645 -0.1644
 7762SOL    HW234746   4.608   3.978  12.914 -1.5293  0.7867 -1.7621
 7763SOL     OW34747   2.339   1.347   6.974  0.3067 -0.7309 -0.6927
 7763SOL    HW134748   2.246   1.345   6.997  0.2550  1.8946 -0.6283
 7763SOL    HW234749   2.389   1.314   7.050 -3.3305 -1.3451  1.4293
 7764SOL     OW34750   1.792   3.472  17.453 -0.0083  0.5871  0.0089
 7764SOL    HW134751   1.816   3.537  17.387  0.5650  1.5461  1.1859
 7764SOL    HW234752   1.773   3.531  17.526  2.0098 -0.6689  1.5446
 7765SOL     OW34753   3.774   3.641   1.970  0.4725 -0.3482  0.6924
 7765SOL    HW134754   3.747   3.713   1.913  1.1787 -0.5146  0.1545
 7765SOL    HW234755   3.684   3.609   1.985  0.4292 -1.5351 -2.1340
 7766SOL     OW34756   0.154   2.353   6.533 -0.2917  0.1361  0.7114
 7766SOL    HW134757   0.106   2.409   6.593 -0.6419 -0.6317  1.1555
 7766SOL    HW234758   0.224   2.417   6.522 -0.0964 -0.5103 -1.8945
 7767SOL     OW34759   0.940   1.292   8.538 -0.5519  0.0595  0.4023
 7767SOL    HW134760   1.001   1.241   8.484  1.3277  1.8239  0.8685
 7767SOL    HW234761   0.869   1.298   8.475  0.1465 -0.5408 -0.4417
 7768SOL     OW34762   3.371   4.186   8.212 -0.2796 -0.2098  0.1438
 7768SOL    HW134763   3.361   4.242   8.135 -2.0394 -1.8701 -0.8368
 7768SOL    HW234764   3.465   4.182   8.226 -0.3871  1.5704  1.3393
 7769SOL     OW34765   2.301   0.817  12.519 -0.0803  0.2989  0.2001
 7769SOL    HW134766   2.378   0.762  12.506 -0.1638 -0.9617  5.0115
 7769SOL    HW234767   2.335   0.904  12.499  1.2567 -0.2893 -0.0994
 7770SOL     OW34768   1.592   3.852   7.122 -0.0784 -0.0160 -0.1196
 7770SOL    HW134769   1.604   3.943   7.149 -0.9125 -0.6604  2.4283
 7770SOL    HW234770   1.513   3.874   7.071  0.4482 -1.2270 -1.4554
 7771SOL     OW34771   2.326   1.298   4.747  0.4979  0.3370 -0.0280
 7771SOL    HW134772   2.272   1.227   4.712  1.7390 -0.4383 -0.3360
 7771SOL    HW234773   2.280   1.314   4.830 -1.5703  0.5237 -1.2038
 7772SOL     OW34774   1.717   2.742   2.422 -0.0954  0.3312 -0.1570
 7772SOL    HW134775   1.734   2.706   2.334  0.5729  0.6486 -0.1556
 7772SOL    HW234776   1.631   2.780   2.409 -1.7535 -1.9886  4.0809
 7773SOL     OW34777   4.614   0.928   0.638 -0.1177  0.2777  0.5616
 7773SOL    HW134778   4.569   0.844   0.640  2.3547 -1.0847 -1.2612
 7773SOL    HW234779   4.545   0.989   0.664  0.4382  0.3335  1.8827
 7774SOL     OW34780   2.750   2.129   2.793  0.1467 -0.2112  0.4734
 7774SOL    HW134781   2.780   2.209   2.749 -0.3283 -1.0486 -1.3738
 7774SOL    HW234782   2.688   2.087   2.733  0.8284 -0.1283 -0.2922
 7775SOL     OW34783   1.507   1.678   6.190  0.1565 -0.6620  0.0191
 7775SOL    HW134784   1.460   1.686   6.107 -1.3822  4.0001  1.3523
 7775SOL    HW234785   1.472   1.598   6.228 -2.0983  0.4585  0.2590
 7776SOL     OW34786   3.106   2.139   6.707  0.3062  0.8833  0.0816
 7776SOL    HW134787   3.070   2.057   6.741 -1.3943  1.0076 -1.4434
 7776SOL    HW234788   3.199   2.122   6.693 -0.0227 -1.6814  1.1152
 7777SOL     OW34789   4.342   3.956   0.425 -0.5722  0.1082 -0.6781
 7777SOL    HW134790   4.351   4.028   0.488 -0.8065  0.5033 -1.0882
 7777SOL    HW234791   4.355   4.003   0.342 -0.3168  0.3367 -0.5089
 7778SOL     OW34792   4.292   0.624   1.828 -0.3059 -0.0161 -0.5691
 7778SOL    HW134793   4.310   0.712   1.862 -0.0223  0.6749 -2.5150
 7778SOL    HW234794   4.260   0.571   1.901  0.4049  1.1889  0.6270
 7779SOL     OW34795   1.157   3.028   7.746  0.3672 -0.5337  0.1364
 7779SOL    HW134796   1.218   3.101   7.760  0.4517  0.1411 -3.7248
 7779SOL    HW234797   1.087   3.051   7.808  1.0033 -0.3553  0.7976
 7780SOL     OW34798   2.036   2.184  17.476  0.5809 -0.2943 -0.4181
 7780SOL    HW134799   2.061   2.245  17.546 -1.7296 -0.2568  0.3425
 7780SOL    HW234800   1.948   2.166  17.507  0.2787  1.7025 -0.1272
 7781SOL     OW34801   3.446   1.270   7.509 -0.3905 -0.4376  0.2791
 7781SOL    HW134802   3.460   1.194   7.565 -0.3600 -0.9303 -0.4040
 7781SOL    HW234803   3.434   1.248   7.417 -2.7279  0.1000  0.4350
 7782SOL     OW34804   0.501   4.312   6.755 -0.5111  0.4767 -0.1631
 7782SOL    HW134805   0.506   4.330   6.661 -1.0337 -0.0806 -0.2983
 7782SOL    HW234806   0.443   4.382   6.783 -0.0333  0.6503  0.3906
 7783SOL     OW34807   3.841   0.234   3.524 -0.0506  0.2262 -0.2552
 7783SOL    HW134808   3.823   0.251   3.616 -0.8183 -2.7833  0.1427
 7783SOL    HW234809   3.825   0.322   3.491  2.2732  0.8907  0.4368
 7784SOL     OW34810   0.296   3.609  10.566 -0.6195  1.0543  0.3493
 7784SOL    HW134811   0.315   3.688  10.616  3.7050  1.5066 -1.9996
 7784SOL    HW234812   0.386   3.577  10.558 -0.9708 -0.0992  0.9813
 7785SOL     OW34813   4.383   1.436   6.564 -0.2286  0.1735 -0.0094
 7785SOL    HW134814   4.426   1.405   6.644  0.1857  0.6538 -0.0430
 7785SOL    HW234815   4.445   1.384   6.514  1.0471  1.0313  0.6655
 7786SOL     OW34816   0.510   1.610   0.387 -0.4394 -0.4167  0.0721
 7786SOL    HW134817   0.462   1.527   0.386 -2.4681  0.7286  1.0539
 7786SOL    HW234818   0.458   1.652   0.319 -0.5404 -0.0420  0.3778
 7787SOL     OW34819   0.576   0.346   1.169  0.0719 -0.2980  0.0273
 7787SOL    HW134820   0.510   0.401   1.127 -1.4659 -0.3579  2.3740
 7787SOL    HW234821   0.545   0.262   1.138 -0.1896 -1.2880  2.9388
 7788SOL     OW34822   1.991   2.957   8.023  0.2455 -0.1042  0.6461
 7788SOL    HW134823   2.073   2.909   8.035  1.2396  1.7717  1.3801
 7788SOL    HW234824   2.024   3.046   8.012  1.4701 -0.6002  0.3240
 7789SOL     OW34825   3.260   1.195   4.809 -0.3942  0.2185  0.1483
 7789SOL    HW134826   3.351   1.183   4.834 -0.4626 -0.7902 -0.1108
 7789SOL    HW234827   3.262   1.286   4.778  0.4451 -0.0210 -0.4751
 7790SOL     OW34828   1.715   1.833   7.643  0.1325 -0.4735  0.3881
 7790SOL    HW134829   1.634   1.881   7.623  0.4173 -0.8994 -1.8519
 7790SOL    HW234830   1.758   1.901   7.695  0.3017 -1.9140  2.1094
 7791SOL     OW34831   2.210   2.215   8.151  0.5457 -0.0843  0.5027
 7791SOL    HW134832   2.266   2.254   8.218  0.7250  1.0174 -0.2809
 7791SOL    HW234833   2.219   2.120   8.159 -3.7313 -0.6234 -1.4170
 7792SOL     OW34834   1.853   4.494  16.501  0.1521  0.2636 -0.6579
 7792SOL    HW134835   1.926   4.507  16.441  1.2132  1.4623  0.8869
 7792SOL    HW234836   1.780   4.524  16.446  0.2149 -0.4072 -1.1008
 7793SOL     OW34837   3.604   3.136   2.660  0.1266 -0.3894 -0.1052
 7793SOL    HW134838   3.595   3.170   2.571 -1.4211  0.8132  0.4990
 7793SOL    HW234839   3.524   3.084   2.657  0.1213 -0.3366 -0.9205
 7794SOL     OW34840   4.344   2.738   5.305 -0.2165  0.1708 -0.4927
 7794SOL    HW134841   4.325   2.827   5.277 -0.5968  1.5444  4.0668
 7794SOL    HW234842   4.418   2.724   5.247  0.7932 -0.6030  0.9669
 7795SOL     OW34843   1.060   1.331   6.092  0.0961  0.6056  0.3148
 7795SOL    HW134844   1.012   1.257   6.057 -0.1762 -0.1073  2.2128
 7795SOL    HW234845   1.016   1.326   6.177 -1.2612 -1.2772 -0.5183
 7796SOL     OW34846   0.020   0.944  10.202 -0.4042  0.0819 -0.2756
 7796SOL    HW134847   0.061   0.981  10.280  3.1408 -0.8486 -1.7010
 7796SOL    HW234848   4.715   1.026  10.163 -1.0825  0.3151  0.7246
 7797SOL     OW34849   1.167   0.535   7.569 -0.3450 -0.6629  0.5001
 7797SOL    HW134850   1.238   0.476   7.593 -1.3975 -1.2097  2.2636
 7797SOL    HW234851   1.203   0.597   7.506 -0.6726 -3.5639 -2.5335
 7798SOL     OW34852   3.016   2.308   7.442  0.1330 -0.4634  0.1926
 7798SOL    HW134853   3.035   2.218   7.417 -0.8875 -1.2387  2.1909
 7798SOL    HW234854   2.934   2.289   7.489 -0.1995 -0.8522 -0.5389
 7799SOL     OW34855   0.967   1.992  11.948 -0.2367 -0.2190 -0.1462
 7799SOL    HW134856   0.978   2.057  12.016 -4.7444 -0.6452  1.0184
 7799SOL    HW234857   1.048   2.008  11.900  1.0204  0.3625  2.1817
 7800SOL     OW34858   3.606   1.264   8.847  0.2719  0.6406  0.3260
 7800SOL    HW134859   3.558   1.346   8.836  2.0395  1.4510 -1.1892
 7800SOL    HW234860   3.630   1.267   8.940  1.4673 -0.1269  0.0445
 7801SOL     OW34861   2.032   2.385   8.335  0.9907  0.0439 -0.7398
 7801SOL    HW134862   2.104   2.433   8.377 -1.0711  0.6097  2.1324
 7801SOL    HW234863   2.066   2.298   8.358  1.0504  0.1030 -0.5998
 7802SOL     OW34864   4.215   2.337   7.429 -0.6001  0.2747 -0.1804
 7802SOL    HW134865   4.140   2.311   7.481 -0.2557  0.6847  0.5217
 7802SOL    HW234866   4.267   2.388   7.491 -2.6063  4.0585 -1.6407
 7803SOL     OW34867   2.819   0.317  15.331  0.0063  0.0920 -0.1442
 7803SOL    HW134868   2.848   0.360  15.412 -0.8076  1.6122 -0.6700
 7803SOL    HW234869   2.727   0.343  15.332 -0.4267 -1.4705  0.3135
 7804SOL     OW34870   4.229   3.124   3.921 -0.2817  0.0615  0.2489
 7804SOL    HW134871   4.214   3.050   3.864 -1.0941  1.4060 -1.2864
 7804SOL    HW234872   4.198   3.077   3.998  0.9730  1.4640  1.6163
 7805SOL     OW34873   4.130   0.005  13.315 -0.4976 -0.2582 -0.8405
 7805SOL    HW134874   4.127   4.666  13.388  0.9323  1.0043  0.3216
 7805SOL    HW234875   4.118   0.092  13.354  2.0251 -0.1491 -0.2899
 7806SOL     OW34876   0.715   3.397   8.698  0.5801  0.4097 -0.6574
 7806SOL    HW134877   0.739   3.334   8.766  0.1860  0.1567 -0.7535
 7806SOL    HW234878   0.799   3.393   8.653  1.3212 -1.7378  0.9330
 7807SOL     OW34879   2.951   0.312   3.976 -0.8091  0.0610  0.5865
 7807SOL    HW134880   2.877   0.366   4.003 -0.2638  2.1430 -2.0007
 7807SOL    HW234881   3.030   0.363   3.998 -0.4304  1.1714 -3.2597
 7808SOL     OW34882   1.874   2.097   1.882  0.0336  0.3043 -0.8951
 7808SOL    HW134883   1.779   2.100   1.895  0.1615 -2.7237  0.8077
 7808SOL    HW234884   1.885   2.002   1.888  0.8864  0.4336 -0.3872
 7809SOL     OW34885   0.017   0.964   2.468 -0.1499  0.0977 -0.7460
 7809SOL    HW134886   0.062   1.046   2.446 -0.2823  0.7678  1.4846
 7809SOL    HW234887   0.080   0.893   2.453  1.6298  1.1764  1.5307
 7810SOL     OW34888   3.258   0.841   9.146 -1.0034  0.0030  0.0149
 7810SOL    HW134889   3.200   0.907   9.184 -0.0413  0.8565  0.0113
 7810SOL    HW234890   3.278   0.887   9.064  0.4819 -0.4665  0.1165
 7811SOL     OW34891   4.464   4.681   3.424  0.0877  0.1216  0.4461
 7811SOL    HW134892   4.397   4.648   3.364  0.4064 -0.3160  0.3270
 7811SOL    HW234893   4.499   0.036   3.385  1.0913  0.4299  1.9737
 7812SOL     OW34894   1.074   0.123   6.681  0.2013 -0.5367 -0.1824
 7812SOL    HW134895   1.066   0.212   6.715  0.8452 -0.8611  0.8009
 7812SOL    HW234896   1.113   0.085   6.759 -0.2757  0.0515  0.3395
 7813SOL     OW34897   0.373   0.497   4.140  0.3419 -0.0050 -0.5526
 7813SOL    HW134898   0.434   0.493   4.066  0.4872  1.0162 -0.4830
 7813SOL    HW234899   0.321   0.418   4.122  1.0156 -0.2291 -1.5263
 7814SOL     OW34900   4.625   0.156  14.818 -0.2030  0.1048  0.4462
 7814SOL    HW134901   4.616   0.098  14.742 -0.2378 -1.0449  1.3286
 7814SOL    HW234902   4.544   0.195  14.850 -0.0130  0.6787  0.2268
 7815SOL     OW34903   2.999   1.472   5.069 -0.3778 -0.3417  0.4450
 7815SOL    HW134904   3.089   1.439   5.071 -1.0961 -2.1785  1.7846
 7815SOL    HW234905   2.996   1.503   4.978 -1.7556  0.7316  0.8655
 7816SOL     OW34906   2.725   3.528   6.029 -0.5178 -0.0079 -0.5414
 7816SOL    HW134907   2.715   3.597   6.095  1.4678 -1.3887  1.2081
 7816SOL    HW234908   2.646   3.523   5.975 -1.3360 -0.1452  0.6914
 7817SOL     OW34909   3.551   2.511   6.132  0.2488 -0.4341 -0.1047
 7817SOL    HW134910   3.534   2.600   6.101  0.9633  0.0744  0.9777
 7817SOL    HW234911   3.646   2.511   6.140  0.1563 -2.1769  0.9621
 7818SOL     OW34912   0.996   0.231   9.598 -0.0448  0.1647 -0.1460
 7818SOL    HW134913   1.037   0.295   9.540 -2.9201  2.3011  0.1915
 7818SOL    HW234914   0.956   0.179   9.529  0.6289 -0.2539 -0.2209
 7819SOL     OW34915   3.583   1.839  13.843  0.3195 -0.5094  0.1794
 7819SOL    HW134916   3.539   1.828  13.758 -1.4294 -1.1909  1.1736
 7819SOL    HW234917   3.514   1.850  13.909 -0.1318 -1.3620 -0.1414
 7820SOL     OW34918   2.571   2.572   0.702  0.1201  0.2158 -0.1893
 7820SOL    HW134919   2.627   2.496   0.683 -1.7887 -1.5848  1.3291
 7820SOL    HW234920   2.491   2.550   0.655  0.5625 -3.1836  0.6123
 7821SOL     OW34921   1.329   0.953   2.164  0.4729  0.1971 -0.0758
 7821SOL    HW134922   1.327   1.030   2.108 -1.2358  0.2100  0.0083
 7821SOL    HW234923   1.419   0.920   2.162 -0.2335 -1.7661  0.3660
 7822SOL     OW34924   2.397   2.997   0.617  0.4883 -0.4542  0.5598
 7822SOL    HW134925   2.354   3.026   0.536  0.9770 -2.8520 -0.5364
 7822SOL    HW234926   2.342   3.037   0.684 -2.1232 -2.3479 -0.4765
 7823SOL     OW34927   1.810   3.127  10.105 -0.9198 -0.2745 -0.4283
 7823SOL    HW134928   1.782   3.073  10.179  1.2814  1.1159  1.4315
 7823SOL    HW234929   1.807   3.214  10.145  0.5686  1.0259 -3.1498
 7824SOL     OW34930   0.168   3.536   2.887 -0.2501  0.5502 -0.6141
 7824SOL    HW134931   0.255   3.572   2.869  0.9163 -3.0338 -2.0741
 7824SOL    HW234932   0.154   3.579   2.971 -1.4935  0.0766 -0.5826
 7825SOL     OW34933   2.952   2.176   3.960  0.3030 -0.2359 -0.5139
 7825SOL    HW134934   2.987   2.134   4.038  0.0469 -1.4560 -1.0470
 7825SOL    HW234935   3.026   2.228   3.932  0.8935  0.1725  1.8205
 7826SOL     OW34936   3.319   0.779   6.719  0.4516  0.1012  0.6504
 7826SOL    HW134937   3.337   0.705   6.662 -0.8105 -0.5878  1.1383
 7826SOL    HW234938   3.389   0.771   6.784  0.9207  0.0497  0.1392
 7827SOL     OW34939   3.402   0.318   3.377  0.1582 -0.4523 -0.0513
 7827SOL    HW134940   3.417   0.408   3.405  2.2481 -0.4693 -1.1407
 7827SOL    HW234941   3.308   0.314   3.394 -0.2360  0.6816 -1.9935
 7828SOL     OW34942   4.396   4.559   6.717 -0.2731  0.2053 -0.1058
 7828SOL    HW134943   4.418   4.634   6.772 -2.0084 -1.1300  2.4413
 7828SOL    HW234944   4.371   4.598   6.633  0.5772 -0.9090 -0.8753
 7829SOL     OW34945   0.318   2.478  10.814 -0.5304 -0.5160  0.5957
 7829SOL    HW134946   0.248   2.442  10.760 -1.5787  3.9204 -0.9392
 7829SOL    HW234947   0.318   2.420  10.890 -3.3733  0.1191  1.0644
 7830SOL     OW34948   0.460   3.810   7.838 -0.2348  0.0592  0.8339
 7830SOL    HW134949   0.375   3.773   7.813  0.6913 -0.2726 -1.8980
 7830SOL    HW234950   0.498   3.726   7.864 -1.5065 -0.1497  2.0041
 7831SOL     OW34951   2.515   1.381  13.655 -0.5665  0.8593  0.4883
 7831SOL    HW134952   2.511   1.475  13.672 -3.2477  0.4883  2.0030
 7831SOL    HW234953   2.424   1.366  13.682 -0.8702  0.5854 -0.7147
 7832SOL     OW34954   3.623   3.835   7.654  0.1795 -0.6576 -0.1019
 7832SOL    HW134955   3.608   3.781   7.577  0.4079  0.0998 -0.6741
 7832SOL    HW234956   3.658   3.760   7.703  0.7097 -1.0097 -1.0100
 7833SOL     OW34957   4.000   3.440   8.638  0.1546 -0.0862 -0.0805
 7833SOL    HW134958   3.989   3.460   8.545  0.5257  0.6805  0.0425
 7833SOL    HW234959   3.916   3.440   8.685 -0.3522 -0.5916 -0.9847
 7834SOL     OW34960   1.187   3.694   8.828  0.2428 -0.2738 -0.2825
 7834SOL    HW134961   1.244   3.723   8.757  0.9866  0.7064  0.7241
 7834SOL    HW234962   1.142   3.621   8.786  1.8344 -1.5319  0.2303
 7835SOL     OW34963   4.616   0.013   8.857  0.5685 -0.1150 -0.5694
 7835SOL    HW134964   4.522   0.018   8.869  0.3244  1.5158 -3.0814
 7835SOL    HW234965   4.625   0.081   8.790  2.5347  0.0897 -0.1008
 7836SOL     OW34966   0.970   3.662   5.484  0.0912 -0.0695  0.0058
 7836SOL    HW134967   0.896   3.708   5.526 -0.7897 -3.0246  1.6748
 7836SOL    HW234968   0.977   3.596   5.553  0.6298  0.3100  0.3113
 7837SOL     OW34969   4.240   3.774   7.195 -0.3771 -0.2221  0.4967
 7837SOL    HW134970   4.328   3.756   7.164  0.2484  2.2685  0.8324
 7837SOL    HW234971   4.225   3.699   7.253 -0.7796  0.5093  1.3330
 7838SOL     OW34972   4.106   2.005   9.302  0.0429  0.6379  0.0550
 7838SOL    HW134973   4.077   2.084   9.258  0.0856  0.6903  0.1212
 7838SOL    HW234974   4.199   2.027   9.299 -0.3048  2.0587 -0.0280
 7839SOL     OW34975   0.650   4.500   8.746  0.7022 -0.0944  0.1395
 7839SOL    HW134976   0.661   4.593   8.766  1.3580 -0.1909  0.2285
 7839SOL    HW234977   0.609   4.507   8.660 -0.3802 -3.2314  0.4193
 7840SOL     OW34978   2.573   3.452   5.028 -0.1638  0.3821 -0.1783
 7840SOL    HW134979   2.479   3.466   5.020 -0.3228 -0.3702  0.2927
 7840SOL    HW234980   2.575   3.356   5.018 -0.7769  0.3673 -0.1340
 7841SOL     OW34981   3.303   3.945   4.135  0.2095  0.5245  0.6030
 7841SOL    HW134982   3.364   3.874   4.118  2.9232  2.8264  0.7627
 7841SOL    HW234983   3.275   3.928   4.225 -1.4089 -3.7079 -0.6957
 7842SOL     OW34984   0.302   4.377   3.183 -0.1875 -0.5140 -0.1316
 7842SOL    HW134985   0.270   4.381   3.273 -0.7128  0.3636 -0.3572
 7842SOL    HW234986   0.285   4.468   3.157 -0.5277 -0.6262 -0.3056
 7843SOL     OW34987   3.556   0.686   7.702 -0.5411  0.3670  0.3841
 7843SOL    HW134988   3.530   0.758   7.760 -1.9178  0.2898 -0.1522
 7843SOL    HW234989   3.651   0.703   7.704 -0.7577  1.4541  1.7581
 7844SOL     OW34990   1.921   0.572  16.992  0.2448 -0.7921  0.5318
 7844SOL    HW134991   1.880   0.599  17.074 -0.5293 -1.3307  0.3298
 7844SOL    HW234992   1.979   0.648  16.988  0.4804 -0.9832  0.2491
 7845SOL     OW34993   1.814   1.970  13.438 -0.1342  0.1458  0.2681
 7845SOL    HW134994   1.850   2.038  13.495  0.7570  0.4319 -0.6310
 7845SOL    HW234995   1.734   1.942  13.483  1.6186 -2.0299  1.9980
 7846SOL     OW34996   3.135   3.206   4.808  0.0216  0.6139 -0.3856
 7846SOL    HW134997   3.133   3.292   4.850  0.1230  0.2779  0.3079
 7846SOL    HW234998   3.174   3.146   4.871  0.2233  0.1505 -0.9481
 7847SOL     OW34999   3.039   0.620   8.488  0.1212  0.0132 -0.0226
 7847SOL    HW135000   2.978   0.578   8.549  1.6321 -0.1699  1.3519
 7847SOL    HW235001   3.087   0.689   8.533 -2.8784  1.4500  0.9726
 7848SOL     OW35002   1.345   0.053   6.169  0.5317 -0.2970  0.4165
 7848SOL    HW135003   1.358   0.042   6.074 -1.4518  0.2599  0.0766
 7848SOL    HW235004   1.367   4.687   6.193 -0.6428 -0.5804  0.4168
 7849SOL     OW35005   1.227   0.937  11.980  0.5524  0.2042  0.0169
 7849SOL    HW135006   1.181   1.003  12.032  1.9581 -0.3789  2.0267
 7849SOL    HW235007   1.217   0.855  12.030  1.0851  0.5078  0.6111
 7850SOL     OW35008   1.250   0.764  10.936  0.5219 -0.0340  0.0116
 7850SOL    HW135009   1.238   0.833  10.870  1.7099 -0.9696 -1.1740
 7850SOL    HW235010   1.169   0.714  10.943  1.0496 -0.8703  0.0827
 7851SOL     OW35011   3.269   2.268   2.646  0.0823 -0.0035 -0.2447
 7851SOL    HW135012   3.194   2.213   2.668 -1.9713  2.1065 -2.0017
 7851SOL    HW235013   3.275   2.254   2.552 -1.6020 -0.1621 -0.3320
 7852SOL     OW35014   3.446   3.307   2.970  0.2974  0.1442  0.3421
 7852SOL    HW135015   3.428   3.223   2.929 -3.9984  1.0673  0.3647
 7852SOL    HW235016   3.415   3.302   3.060  0.6192  0.8959  0.4983
 7853SOL     OW35017   1.970   0.586   4.395 -1.2281 -0.1617  0.7169
 7853SOL    HW135018   2.014   0.511   4.435 -0.3517  0.6524  1.2825
 7853SOL    HW235019   2.035   0.655   4.390 -2.2122  0.9067  2.7342
 7854SOL     OW35020   1.467   2.739  11.786 -0.1666  0.6750  0.1545
 7854SOL    HW135021   1.527   2.786  11.844 -1.2951  2.3377 -0.0410
 7854SOL    HW235022   1.528   2.689  11.732  0.1029  0.3659  0.7389
 7855SOL     OW35023   3.302   0.232   7.654  0.4157  0.2345  0.1910
 7855SOL    HW135024   3.251   0.285   7.714  0.6363 -0.5889  1.1154
 7855SOL    HW235025   3.334   0.159   7.708  2.7119 -0.5400 -2.2088
 7856SOL     OW35026   4.603   4.029   4.911 -0.1105  0.4335 -0.3344
 7856SOL    HW135027   4.696   4.013   4.895 -0.3315 -0.9864 -0.2027
 7856SOL    HW235028   4.585   4.073   4.828  0.3200  2.5963  0.6959
 7857SOL     OW35029   1.694   3.118   1.475  0.3154 -0.0730 -0.2115
 7857SOL    HW135030   1.741   3.144   1.554 -0.0039 -1.3411  0.3948
 7857SOL    HW235031   1.624   3.067   1.515  1.6683 -1.5918  0.2238
 7858SOL     OW35032   1.362   2.193  14.146  0.8140  0.2860  0.2013
 7858SOL    HW135033   1.327   2.154  14.226 -0.0400  0.6149 -0.0040
 7858SOL    HW235034   1.310   2.152  14.077 -0.0726  0.1772  0.9254
 7859SOL     OW35035   2.734   3.394   6.797 -0.1382 -0.1471  0.8120
 7859SOL    HW135036   2.787   3.315   6.804 -0.6018 -0.3611  1.8376
 7859SOL    HW235037   2.652   3.346   6.781  0.3922 -1.4022  1.8350
 7860SOL     OW35038   0.659   4.396   1.640 -0.1048 -0.6869 -0.4125
 7860SOL    HW135039   0.579   4.388   1.693 -0.7841 -2.2798 -1.6829
 7860SOL    HW235040   0.722   4.440   1.697 -1.6223  1.4981 -0.4407
 7861SOL     OW35041   1.776   0.261   3.768 -0.0493 -0.5985 -0.3194
 7861SOL    HW135042   1.772   0.237   3.861 -0.5762 -2.1697 -0.7385
 7861SOL    HW235043   1.778   0.356   3.766  0.4226 -0.5140  3.2691
 7862SOL     OW35044   2.257   3.768   1.457 -0.3466 -0.7920  0.4319
 7862SOL    HW135045   2.259   3.863   1.472 -0.2256 -0.4956 -1.5698
 7862SOL    HW235046   2.285   3.759   1.366 -0.0115  0.8978  0.3678
 7863SOL     OW35047   1.511   2.779   3.833 -0.0492  0.0139  0.0950
 7863SOL    HW135048   1.598   2.791   3.795 -0.5523 -1.2686 -1.4773
 7863SOL    HW235049   1.467   2.861   3.811  0.1537 -0.1844 -1.0533
 7864SOL     OW35050   0.721   1.606   9.792  0.2931  0.2414 -0.0847
 7864SOL    HW135051   0.707   1.639   9.703 -2.5364 -0.1514  0.2186
 7864SOL    HW235052   0.816   1.600   9.793  0.3598  0.9727 -1.6744
 7865SOL     OW35053   2.954   4.061   6.692  0.1219 -0.0425  0.0389
 7865SOL    HW135054   3.033   4.114   6.684  0.5827 -0.5723  1.0253
 7865SOL    HW235055   2.904   4.122   6.746 -2.2919  0.1914 -2.4658
 7866SOL     OW35056   2.715   1.323  14.199  0.4242  0.0665  0.1866
 7866SOL    HW135057   2.713   1.257  14.130  0.0471 -1.3896  1.5837
 7866SOL    HW235058   2.805   1.312  14.232 -0.4024 -0.1569  2.3911
 7867SOL     OW35059   0.765   1.826   3.483 -0.1549 -0.2503  0.3303
 7867SOL    HW135060   0.757   1.867   3.569  0.7792 -1.4418  0.9903
 7867SOL    HW235061   0.781   1.894   3.418  0.1787  1.5142  2.2530
 7868SOL     OW35062   4.697   4.564   3.831 -0.9927 -0.2617 -0.0137
 7868SOL    HW135063   4.672   4.596   3.744 -2.6039  0.4548  0.7175
 7868SOL    HW235064   4.710   4.642   3.884  1.7645  1.2938 -2.9560
 7869SOL     OW35065   4.298   4.359   2.929 -0.2620 -0.3391 -0.3804
 7869SOL    HW135066   4.235   4.411   2.978  0.2906 -0.3032  0.2862
 7869SOL    HW235067   4.242   4.291   2.893 -1.5285  0.0881  0.7919
 7870SOL     OW35068   0.369   3.791   3.250 -0.1743 -0.3032 -0.0763
 7870SOL    HW135069   0.331   3.877   3.234 -1.8040 -1.0849 -0.3983
 7870SOL    HW235070   0.400   3.804   3.340  0.5389 -1.2498 -0.1860
 7871SOL     OW35071   0.363   1.814   2.822  0.0530 -0.1061  0.3803
 7871SOL    HW135072   0.308   1.838   2.747  1.2927  2.4544  0.2755
 7871SOL    HW235073   0.445   1.793   2.777 -0.1758 -0.8066  0.2856
 7872SOL     OW35074   4.686   2.030   2.946 -0.5214  0.1001 -0.4486
 7872SOL    HW135075   4.667   2.059   2.857 -0.3278 -0.5844 -0.7168
 7872SOL    HW235076   0.033   2.092   2.958 -0.2796 -0.1081 -0.8102
 7873SOL     OW35077   4.542   1.644   2.044  0.0279  0.2687  0.0202
 7873SOL    HW135078   4.467   1.591   2.070 -0.5334  1.9925  1.9119
 7873SOL    HW235079   4.518   1.648   1.952 -0.3994  0.8082  0.1612
 7874SOL     OW35080   3.775   0.925  11.946 -0.2918 -0.5050 -0.4509
 7874SOL    HW135081   3.722   0.875  12.008  0.8318 -1.0962  0.0234
 7874SOL    HW235082   3.795   1.004  11.995  0.0160 -0.4433 -0.6743
 7875SOL     OW35083   1.766   2.869   7.364  0.1874  0.0456 -0.7647
 7875SOL    HW135084   1.695   2.844   7.424 -0.2108  1.2323 -0.7532
 7875SOL    HW235085   1.837   2.847   7.424  0.1772  2.1025 -0.0027
 7876SOL     OW35086   1.380   3.258  13.641 -0.1416  0.4042 -0.0460
 7876SOL    HW135087   1.425   3.173  13.644  1.2608  1.1507 -0.2084
 7876SOL    HW235088   1.358   3.263  13.548 -0.5610 -1.1597 -0.0423
 7877SOL     OW35089   2.689   2.137   3.819  0.1268 -0.0188  0.4438
 7877SOL    HW135090   2.782   2.131   3.839  0.7737  0.2118 -2.4447
 7877SOL    HW235091   2.701   2.141   3.724 -3.1050  3.2747  0.1703
 7878SOL     OW35092   4.364   2.937  16.347  0.3770  0.1902 -0.0447
 7878SOL    HW135093   4.278   2.895  16.348 -0.3495  1.6698 -1.4356
 7878SOL    HW235094   4.361   2.977  16.434  0.4262 -0.7032  0.3680
 7879SOL     OW35095   0.909   4.180   8.039  0.5411  0.2937  0.5585
 7879SOL    HW135096   0.867   4.226   7.966 -0.9423 -0.4897  0.8939
 7879SOL    HW235097   0.999   4.205   8.022  0.6460 -0.6628 -0.2736
 7880SOL     OW35098   3.545   4.284  12.571  0.6164  0.0106 -0.5699
 7880SOL    HW135099   3.604   4.330  12.511  1.5781 -1.3297 -0.6320
 7880SOL    HW235100   3.583   4.198  12.586 -0.8719 -0.7052 -0.8493
 7881SOL     OW35101   1.923   0.881   2.864  0.6606  0.3535 -0.0381
 7881SOL    HW135102   2.011   0.906   2.838  0.4673  1.2244  0.1430
 7881SOL    HW235103   1.935   0.792   2.896  0.3963 -0.4328 -2.0882
 7882SOL     OW35104   2.578   4.114   5.898 -0.1471  0.5280  0.2986
 7882SOL    HW135105   2.577   4.127   5.993  3.0553 -1.7629  0.6302
 7882SOL    HW235106   2.580   4.018   5.892  0.0941  0.5836 -0.5019
 7883SOL     OW35107   2.774   3.841   8.405 -0.2193  0.0855  0.2457
 7883SOL    HW135108   2.824   3.765   8.375 -0.2669  1.0880 -2.3183
 7883SOL    HW235109   2.807   3.916   8.354 -2.5009  0.9713  0.0903
 7884SOL     OW35110   1.482   1.467   6.800 -0.2337  0.3042 -0.2781
 7884SOL    HW135111   1.480   1.462   6.895 -0.3813  0.1786 -0.2895
 7884SOL    HW235112   1.429   1.546   6.790  1.3763  1.1904 -1.9267
 7885SOL     OW35113   4.201   1.937   6.664 -0.5475  0.0132  0.1571
 7885SOL    HW135114   4.255   2.000   6.617 -2.9583  1.7162 -0.3464
 7885SOL    HW235115   4.255   1.859   6.662  0.6005  0.8493 -1.1984
 7886SOL     OW35116   3.237   3.664   4.264  0.0700  0.1402  0.1990
 7886SOL    HW135117   3.252   3.690   4.173  1.7719  1.6612  0.9104
 7886SOL    HW235118   3.147   3.692   4.280 -0.3183  0.8693 -3.1789
 7887SOL     OW35119   1.794   4.478   6.699  0.7195  0.2931 -0.2961
 7887SOL    HW135120   1.730   4.548   6.689  1.2265  0.3461 -3.0995
 7887SOL    HW235121   1.769   4.427   6.776 -1.1565  0.2383 -0.9329
 7888SOL     OW35122   1.454   1.466  10.690  0.0857 -0.2508 -0.2549
 7888SOL    HW135123   1.370   1.510  10.678 -0.1218  0.1501  2.5502
 7888SOL    HW235124   1.516   1.531  10.657  2.0586 -2.7128 -1.3371
 7889SOL     OW35125   0.463   0.429  14.031  1.0771 -0.1521 -0.4709
 7889SOL    HW135126   0.498   0.372  13.962  1.1114  0.0230 -0.5997
 7889SOL    HW235127   0.548   0.470  14.050  0.8217  0.1133  0.0810
 7890SOL     OW35128   0.081   4.623   1.393 -0.6013 -0.2130  0.2376
 7890SOL    HW135129   0.027   4.616   1.314  1.2554  0.9724 -1.1366
 7890SOL    HW235130   0.163   4.648   1.350 -0.9875 -1.6301 -1.3565
 7891SOL     OW35131   0.538   3.116   4.012  0.4548  0.1468  0.3172
 7891SOL    HW135132   0.614   3.135   4.068  0.1007  0.3552  0.7337
 7891SOL    HW235133   0.555   3.022   4.013 -1.3055 -0.1790 -1.1942
 7892SOL     OW35134   0.667   2.684  10.616  0.5600  0.1097 -0.6103
 7892SOL    HW135135   0.583   2.688  10.661  0.0834 -3.1964 -1.2144
 7892SOL    HW235136   0.716   2.627  10.675  1.4939  0.0859 -1.3935
 7893SOL     OW35137   3.713   0.740   2.658 -0.2311  0.1336 -0.2930
 7893SOL    HW135138   3.715   0.694   2.574  1.6192  1.1749 -0.7921
 7893SOL    HW235139   3.804   0.726   2.685 -0.2553  1.1172  0.3174
 7894SOL     OW35140   0.634   3.062   5.513  0.5917 -0.2607 -0.0706
 7894SOL    HW135141   0.598   3.130   5.457  2.7280  0.6936 -0.2822
 7894SOL    HW235142   0.631   3.107   5.598  0.3501 -0.0576 -0.1866
 7895SOL     OW35143   3.876   2.264   5.177 -0.0866 -0.3750 -0.1440
 7895SOL    HW135144   3.789   2.293   5.150 -0.0861  1.4413  1.8392
 7895SOL    HW235145   3.937   2.327   5.137 -0.1475  1.1943  2.2431
 7896SOL     OW35146   2.304   3.987   8.650  0.6842 -0.4979 -0.2831
 7896SOL    HW135147   2.306   3.892   8.659  1.9924 -0.5820 -1.4308
 7896SOL    HW235148   2.381   4.013   8.700  0.9246 -1.6356 -0.0645
 7897SOL     OW35149   1.644   4.542  16.319 -0.2687  0.2085 -0.3466
 7897SOL    HW135150   1.680   4.624  16.287  1.8141 -0.9656 -0.9983
 7897SOL    HW235151   1.627   4.499  16.235  0.1076  1.0686 -0.8570
 7898SOL     OW35152   4.007   2.754  11.255 -0.1101 -0.5709 -0.1133
 7898SOL    HW135153   4.080   2.780  11.311  0.6352 -0.9899 -0.9028
 7898SOL    HW235154   3.947   2.711  11.316  1.3943 -2.9844 -0.3153
 7899SOL     OW35155   3.535   0.892   6.377  0.1214  0.2895 -0.1325
 7899SOL    HW135156   3.573   0.854   6.456  0.4465  1.8166  0.4512
 7899SOL    HW235157   3.477   0.819   6.355  2.1304 -1.7827  1.4916
 7900SOL     OW35158   0.827   2.650   6.394  0.1795 -0.1258  0.7618
 7900SOL    HW135159   0.906   2.659   6.342 -0.0155  3.4046  1.0814
 7900SOL    HW235160   0.820   2.739   6.429  1.0127 -1.3149  3.9094
 7901SOL     OW35161   0.061   3.098   1.388 -0.2378  0.0384  0.2537
 7901SOL    HW135162   0.046   3.013   1.348  3.2066  0.9514 -2.9763
 7901SOL    HW235163   4.697   3.126   1.413  0.0296  1.1349 -0.0095
 7902SOL     OW35164   2.475   0.343   3.183 -0.1056  1.3414 -0.0493
 7902SOL    HW135165   2.515   0.413   3.132 -0.3876  1.7109  0.2393
 7902SOL    HW235166   2.515   0.268   3.138  0.8549  1.1064  1.1742
 7903SOL     OW35167   0.774   4.673   5.126 -0.1120  0.4160 -0.1035
 7903SOL    HW135168   0.842   4.666   5.059 -0.0504  2.1920 -0.2407
 7903SOL    HW235169   0.757   4.584   5.155 -3.1957  0.9536 -0.2328
 7904SOL     OW35170   4.421   4.708   2.925 -0.5544  0.2750 -0.3661
 7904SOL    HW135171   4.467   4.625   2.939 -0.8198 -0.2893 -2.8384
 7904SOL    HW235172   4.462   0.024   2.848  5.5734  0.1436  2.8236
 7905SOL     OW35173   2.266   0.996   4.903  0.1053 -0.7621  0.1544
 7905SOL    HW135174   2.317   0.930   4.855  2.3963 -0.6871  2.4813
 7905SOL    HW235175   2.196   1.003   4.838  0.8154 -0.7368 -0.6127
 7906SOL     OW35176   1.729   0.072   9.077  0.4903 -0.2611 -0.5514
 7906SOL    HW135177   1.751   0.005   9.142 -0.8669 -0.5814 -0.4215
 7906SOL    HW235178   1.791   0.137   9.111 -0.6074 -0.8580  2.5460
 7907SOL     OW35179   0.506   4.548   7.615 -0.4795  1.0184  0.6523
 7907SOL    HW135180   0.564   4.594   7.676  1.5653 -0.4210 -0.2139
 7907SOL    HW235181   0.414   4.556   7.641  0.3013  0.7279  3.5799
 7908SOL     OW35182   1.378   3.967   3.948 -0.8269 -0.2122  0.2511
 7908SOL    HW135183   1.342   3.900   3.890 -0.5392  0.9468 -1.2865
 7908SOL    HW235184   1.329   4.047   3.924 -1.1204 -0.0691  1.3387
 7909SOL     OW35185   3.176   2.571   7.934 -1.2219  0.6173  0.3950
 7909SOL    HW135186   3.246   2.629   7.906  0.5663 -1.4990  0.4681
 7909SOL    HW235187   3.191   2.567   8.029 -1.2150 -0.2554  0.3540
 7910SOL     OW35188   2.764   2.366   8.153 -0.0414  0.0922  0.2909
 7910SOL    HW135189   2.824   2.319   8.095 -0.4887 -0.4790  0.2944
 7910SOL    HW235190   2.830   2.431   8.179 -1.1850  0.2844  2.6773
 7911SOL     OW35191   1.676   1.035   8.056  0.5007 -0.5074 -0.0139
 7911SOL    HW135192   1.692   1.042   8.150  0.1239  0.2358 -0.0090
 7911SOL    HW235193   1.739   0.965   8.034  0.3385 -0.6764  0.0634
 7912SOL     OW35194   4.378   4.185   3.560  0.2608 -0.0232  0.5993
 7912SOL    HW135195   4.399   4.246   3.630  0.5919 -0.3580  0.7917
 7912SOL    HW235196   4.283   4.184   3.576  0.2998  0.9845  0.8878
 7913SOL     OW35197   1.531   2.671   5.971  0.2544  0.0873  0.3554
 7913SOL    HW135198   1.445   2.705   5.949  0.1636  0.1880  0.8778
 7913SOL    HW235199   1.522   2.670   6.066  1.7956 -0.9420  0.5039
 7914SOL     OW35200   1.884   0.129   6.880  0.4001 -0.1529  0.0924
 7914SOL    HW135201   1.939   0.082   6.817  0.3055  0.7283 -0.6340
 7914SOL    HW235202   1.866   0.208   6.830 -1.0895 -0.3846  0.2606
 7915SOL     OW35203   4.047   0.780   5.558  0.2257  0.1255  0.0594
 7915SOL    HW135204   4.122   0.771   5.499 -1.0636 -0.5494 -1.4572
 7915SOL    HW235205   3.984   0.717   5.525  1.8198  0.1259 -2.9575
 7916SOL     OW35206   3.005   1.630   2.947 -0.6791 -0.1589 -0.1528
 7916SOL    HW135207   3.092   1.630   2.987  0.2428  1.9650 -2.1513
 7916SOL    HW235208   3.006   1.716   2.905 -0.8948 -0.6593 -1.1922
 7917SOL     OW35209   4.443   2.778   6.005  0.0963 -0.2044  0.0572
 7917SOL    HW135210   4.465   2.724   6.080 -0.5265  2.7764  2.3765
 7917SOL    HW235211   4.355   2.745   5.985  0.2892 -0.2982 -0.6272
 7918SOL     OW35212   2.690   2.321   4.022 -0.1635 -0.2267 -0.7467
 7918SOL    HW135213   2.782   2.337   3.999 -0.5848  1.0923 -1.5520
 7918SOL    HW235214   2.678   2.231   3.992  0.4594 -1.3531  2.3696
 7919SOL     OW35215   1.480   3.808   5.640  0.3622 -0.1916 -0.1558
 7919SOL    HW135216   1.385   3.793   5.640  0.3171  0.0223  2.1506
 7919SOL    HW235217   1.502   3.773   5.727  1.4481 -0.0928 -0.3990
 7920SOL     OW35218   0.944   0.093   3.744 -0.3254  0.0232 -0.4943
 7920SOL    HW135219   0.912   0.133   3.663  0.6126  1.0126 -0.3886
 7920SOL    HW235220   0.909   0.006   3.726  0.4843 -0.1864 -1.0943
 7921SOL     OW35221   1.918   1.715   5.338 -0.1338  0.3150 -0.4362
 7921SOL    HW135222   1.842   1.761   5.374  0.4654  0.9654 -0.0152
 7921SOL    HW235223   1.934   1.639   5.394  0.8944  0.1531 -0.9443
 7922SOL     OW35224   3.501   3.728   9.968  0.0040 -0.0145 -0.4029
 7922SOL    HW135225   3.464   3.679   9.895  0.1881 -1.1620  0.2668
 7922SOL    HW235226   3.584   3.680   9.977  0.2762  0.7077  0.9173
 7923SOL     OW35227   1.584   0.735   5.988 -0.5327 -0.3828 -0.2512
 7923SOL    HW135228   1.540   0.662   6.032 -1.5575  0.6381  0.4315
 7923SOL    HW235229   1.663   0.691   5.957 -0.5448  1.1068 -2.3802
 7924SOL     OW35230   3.392   2.670   0.052  0.0018  0.3882 -0.8063
 7924SOL    HW135231   3.468   2.705   0.007  0.2021 -0.9149 -1.4565
 7924SOL    HW235232   3.362   2.754   0.086  0.3371 -0.6795  2.1347
 7925SOL     OW35233   3.061   1.482   1.811  0.5385 -0.1290  0.0505
 7925SOL    HW135234   3.080   1.453   1.900  0.5244 -0.0485  0.0789
 7925SOL    HW235235   2.977   1.527   1.820  0.9686  1.0188 -1.6829
 7926SOL     OW35236   1.732   4.327   1.438  0.5574 -0.3773 -0.5754
 7926SOL    HW135237   1.762   4.243   1.471  0.5884 -0.2107 -0.1686
 7926SOL    HW235238   1.769   4.326   1.350 -1.5770 -2.2271 -1.4429
 7927SOL     OW35239   3.511   0.382   2.842 -0.0371 -0.3305  0.0700
 7927SOL    HW135240   3.514   0.477   2.851  1.1916 -0.1244 -2.5778
 7927SOL    HW235241   3.443   0.372   2.775 -0.2041  0.8102  0.0720
 7928SOL     OW35242   2.160   2.873   5.994  0.7301 -0.5375 -0.5249
 7928SOL    HW135243   2.169   2.917   6.079 -2.0654  1.4551 -1.2473
 7928SOL    HW235244   2.132   2.786   6.024  0.4465  0.6381  2.6782
 7929SOL     OW35245   1.594   3.406   8.107 -0.6512 -0.0152 -0.5023
 7929SOL    HW135246   1.522   3.424   8.168 -0.2966  0.8757 -0.3460
 7929SOL    HW235247   1.613   3.318   8.138 -0.4163 -0.5583 -2.1785
 7930SOL     OW35248   3.526   2.505   4.052 -0.8622 -0.3106  0.4191
 7930SOL    HW135249   3.571   2.479   4.132 -0.3692  0.8777  0.5344
 7930SOL    HW235250   3.600   2.515   3.992 -0.4020 -0.3643  0.9863
 7931SOL     OW35251   4.108   3.631   0.416  0.0158  0.6014  0.1243
 7931SOL    HW135252   4.026   3.596   0.451 -0.0978 -0.0177 -0.7513
 7931SOL    HW235253   4.168   3.566   0.454 -1.0336 -0.7548 -0.5167
 7932SOL     OW35254   2.715   0.726   6.501 -0.3616 -0.1031  0.6592
 7932SOL    HW135255   2.708   0.803   6.557 -0.1521 -0.8619  1.7127
 7932SOL    HW235256   2.624   0.719   6.473  0.5181 -0.4482 -2.1590
 7933SOL     OW35257   0.228   2.601  15.142  0.1776  0.2230 -0.3148
 7933SOL    HW135258   0.294   2.594  15.073  0.5765 -0.0394  0.0918
 7933SOL    HW235259   0.258   2.671  15.199 -2.8869  0.5671  0.8648
 7934SOL     OW35260   0.709   4.394   5.973  1.3284 -0.5598 -0.2541
 7934SOL    HW135261   0.725   4.306   6.006 -1.0454 -1.0264 -0.3666
 7934SOL    HW235262   0.617   4.389   5.947  1.7634 -3.0898 -1.2521
 7935SOL     OW35263   0.167   2.837   8.142  0.1667 -0.3972 -0.4942
 7935SOL    HW135264   0.080   2.875   8.152 -0.0440 -1.2630  0.8486
 7935SOL    HW235265   0.222   2.901   8.097 -0.3355 -0.3820 -1.0901
 7936SOL     OW35266   0.046   2.565  11.791 -0.0708 -0.9307 -0.0618
 7936SOL    HW135267   0.126   2.513  11.791  0.4910 -0.0612 -1.9558
 7936SOL    HW235268   4.719   2.537  11.715  3.6358 -1.4852 -2.2974
 7937SOL     OW35269   3.400   1.896  13.087  0.0293 -0.5216 -0.1456
 7937SOL    HW135270   3.483   1.940  13.105 -0.5368 -0.0559  1.3578
 7937SOL    HW235271   3.363   1.954  13.021 -0.8345 -0.3595  0.4756
 7938SOL     OW35272   2.112   1.698  14.040  0.1088 -0.1031 -0.0347
 7938SOL    HW135273   2.192   1.747  14.060 -1.2746  1.5550  1.4507
 7938SOL    HW235274   2.054   1.727  14.111 -1.5082 -0.0485 -1.3983
 7939SOL     OW35275   2.736   2.775   5.284  0.7250 -0.2505  0.0131
 7939SOL    HW135276   2.762   2.684   5.300 -0.5632 -0.9535 -1.9049
 7939SOL    HW235277   2.723   2.808   5.373  0.1037 -1.6281  0.4400
 7940SOL     OW35278   1.984   0.524  13.910  0.3485  0.1795  0.2515
 7940SOL    HW135279   1.937   0.495  13.831  1.6615  2.2639 -1.3042
 7940SOL    HW235280   1.913   0.576  13.947 -0.1208  2.2663 -3.6350
 7941SOL     OW35281   4.059   3.005   1.458  1.0359 -0.9036  0.0346
 7941SOL    HW135282   3.999   2.948   1.506  0.4759 -0.6348 -0.3501
 7941SOL    HW235283   4.008   3.071   1.412 -1.9031 -2.3284  1.2713
 7942SOL     OW35284   1.990   2.309  10.131  0.5106  0.4095  0.0295
 7942SOL    HW135285   1.928   2.342  10.197  0.1236 -2.1114  0.9250
 7942SOL    HW235286   1.939   2.256  10.070  0.1613  0.0539  0.6262
 7943SOL     OW35287   0.798   0.525   3.263 -0.1684  0.1043 -0.5056
 7943SOL    HW135288   0.738   0.460   3.226  2.6344 -1.5789 -2.0604
 7943SOL    HW235289   0.855   0.555   3.193  0.9599  2.2672  1.3292
 7944SOL     OW35290   3.348   2.326  16.034 -0.1406  1.2135  0.0970
 7944SOL    HW135291   3.381   2.389  15.970  2.0774  0.5002  0.5654
 7944SOL    HW235292   3.269   2.368  16.070 -1.9989 -0.6524 -1.8582
 7945SOL     OW35293   4.054   0.819  13.880  0.5297 -0.7554  0.1158
 7945SOL    HW135294   4.054   0.793  13.788 -1.7617  0.3251 -0.2053
 7945SOL    HW235295   3.966   0.859  13.884  1.1510  0.2672  4.0334
 7946SOL     OW35296   3.772   4.243   4.752  0.1143 -0.1501 -0.5525
 7946SOL    HW135297   3.753   4.199   4.669 -0.6586  1.3378 -1.1642
 7946SOL    HW235298   3.818   4.175   4.802  0.6684 -0.4264 -1.4312
 7947SOL     OW35299   3.097   0.434   9.332 -0.0780 -0.5004 -0.0679
 7947SOL    HW135300   3.129   0.392   9.412 -0.6772  2.2237  1.6369
 7947SOL    HW235301   3.006   0.444   9.360  0.0607  1.0990 -0.1791
 7948SOL     OW35302   0.666   2.295   6.664 -0.3154 -0.4474  0.1335
 7948SOL    HW135303   0.686   2.259   6.577 -0.6734 -0.7150  0.1635
 7948SOL    HW235304   0.576   2.262   6.673 -0.5159  0.0968  0.1238
 7949SOL     OW35305   0.809   1.538   3.898  0.1661  1.0376 -1.2140
 7949SOL    HW135306   0.744   1.539   3.968 -0.3353  2.9923 -1.6895
 7949SOL    HW235307   0.753   1.534   3.820  1.5842  0.0835 -2.1648
 7950SOL     OW35308   2.269   4.446   5.838 -0.5905  1.1562 -0.0149
 7950SOL    HW135309   2.363   4.457   5.852 -0.4152  0.5439 -0.7062
 7950SOL    HW235310   2.241   4.492   5.917  1.0704  1.3530  0.4772
 7951SOL     OW35311   1.422   2.142   3.447 -0.2831  0.1027 -0.0113
 7951SOL    HW135312   1.461   2.222   3.411 -1.0442  1.6470  2.6252
 7951SOL    HW235313   1.444   2.145   3.540 -0.7791 -0.3147  0.1204
 7952SOL     OW35314   3.341   0.280   2.600  0.2449  0.0196  0.1400
 7952SOL    HW135315   3.382   0.253   2.518 -0.1464 -0.7892  0.2210
 7952SOL    HW235316   3.300   0.199   2.628 -1.0873  0.5408 -0.3147
 7953SOL     OW35317   1.158   2.232   2.731  0.1137 -0.1637 -0.0450
 7953SOL    HW135318   1.158   2.255   2.824 -2.3538 -1.5425  0.2801
 7953SOL    HW235319   1.239   2.280   2.712  0.0287 -0.3801 -0.9915
 7954SOL     OW35320   0.152   2.247   3.014  0.2398 -0.0557 -0.3274
 7954SOL    HW135321   0.203   2.318   3.053  1.5355 -1.1805  0.0080
 7954SOL    HW235322   0.200   2.171   3.046 -0.5323 -0.1836  0.5036
 7955SOL     OW35323   3.540   1.341   9.360  0.2539  0.4216  0.8659
 7955SOL    HW135324   3.518   1.276   9.427  3.0052 -0.8824  0.5059
 7955SOL    HW235325   3.547   1.417   9.418  1.5370 -0.6074  2.0598
 7956SOL     OW35326   4.459   3.288   6.946  0.0089 -0.5146 -1.1369
 7956SOL    HW135327   4.369   3.291   6.979  0.3811 -0.6940 -0.1127
 7956SOL    HW235328   4.495   3.377   6.940  0.0937 -0.3649  1.7200
 7957SOL     OW35329   2.664   4.688   4.342 -0.8549 -0.6043 -0.1591
 7957SOL    HW135330   2.677   0.047   4.296  1.4396 -0.8514  0.0191
 7957SOL    HW235331   2.636   4.632   4.269 -1.8230 -0.1210 -0.1530
 7958SOL     OW35332   2.978   0.785   8.799  0.0695 -0.2288  0.0935
 7958SOL    HW135333   2.958   0.793   8.892 -0.3314 -2.5660  0.2075
 7958SOL    HW235334   2.915   0.844   8.758 -0.8903  0.0505  1.9681
 7959SOL     OW35335   3.290   3.088   8.322 -0.8510  0.5014  0.1005
 7959SOL    HW135336   3.213   3.071   8.375 -0.8932  1.8232  0.4668
 7959SOL    HW235337   3.278   3.024   8.252  0.6939  0.5662 -0.2198
 7960SOL     OW35338   3.271   2.629   7.156 -0.5251  0.3946 -0.6444
 7960SOL    HW135339   3.289   2.544   7.197 -1.1194  0.1827 -0.8168
 7960SOL    HW235340   3.176   2.626   7.143 -0.7034  1.7959  0.3254
 7961SOL     OW35341   0.114   2.501  11.483  0.0550  0.1395 -0.2749
 7961SOL    HW135342   0.120   2.406  11.475 -3.7941 -0.1792  0.6194
 7961SOL    HW235343   0.026   2.511  11.518 -0.9899 -2.3707 -2.1728
 7962SOL     OW35344   1.259   4.467   4.612  0.2727 -0.0242 -0.0910
 7962SOL    HW135345   1.232   4.422   4.692 -1.4179  0.3169 -0.4631
 7962SOL    HW235346   1.346   4.491   4.643  0.0971  2.7469 -1.7116
 7963SOL     OW35347   1.183   1.247   7.544  0.0967  0.0456  0.0406
 7963SOL    HW135348   1.268   1.285   7.565  0.0484  0.7686 -1.0363
 7963SOL    HW235349   1.132   1.295   7.609 -0.4675  0.1350 -0.4691
 7964SOL     OW35350   4.427   2.642   6.240  0.1907  0.4314  0.2857
 7964SOL    HW135351   4.487   2.594   6.297 -1.2586 -0.4425  1.0607
 7964SOL    HW235352   4.359   2.576   6.229  0.8595 -0.3648  0.8638
 7965SOL     OW35353   3.524   4.149   4.565  0.5964 -0.3780  0.1539
 7965SOL    HW135354   3.534   4.243   4.583 -1.5789 -0.6278  2.6160
 7965SOL    HW235355   3.431   4.154   4.545  0.1534 -2.4378  1.7766
 7966SOL     OW35356   3.553   3.282  10.607 -0.6258 -0.5644 -0.5384
 7966SOL    HW135357   3.635   3.327  10.628 -0.7649 -0.6409  0.1444
 7966SOL    HW235358   3.557   3.204  10.662 -3.0622 -1.0941 -1.1284
 7967SOL     OW35359   1.491   3.545   4.191 -0.1396  0.2151  0.2081
 7967SOL    HW135360   1.488   3.561   4.285  0.3794  0.9500  0.1039
 7967SOL    HW235361   1.562   3.480   4.190  0.2388  0.6374 -1.1027
 7968SOL     OW35362   4.477   2.670  16.271 -0.3934 -0.0433 -0.0411
 7968SOL    HW135363   4.442   2.717  16.195 -1.4281  0.6894  0.8761
 7968SOL    HW235364   4.428   2.588  16.266  0.7001 -0.8084  1.8291
 7969SOL     OW35365   3.419   2.451   3.461 -0.1728  0.5625  0.2397
 7969SOL    HW135366   3.512   2.429   3.456 -0.0983  0.5820  1.5444
 7969SOL    HW235367   3.383   2.382   3.404  0.0353 -0.2890  1.1360
 7970SOL     OW35368   3.305   4.541   3.316 -0.3167 -0.2273  0.0336
 7970SOL    HW135369   3.370   4.612   3.308  1.0648 -1.6544 -1.3799
 7970SOL    HW235370   3.259   4.574   3.393 -2.1043 -0.2522 -1.0342
 7971SOL     OW35371   3.912   4.356   8.660 -0.2254 -0.1051  0.1287
 7971SOL    HW135372   3.859   4.295   8.609  1.5211 -1.3527 -0.2068
 7971SOL    HW235373   3.988   4.299   8.649  0.7386  1.2407 -0.3336
 7972SOL     OW35374   2.413   2.637   4.493  0.0387  0.4626 -0.0314
 7972SOL    HW135375   2.407   2.693   4.416 -1.7162  0.0412 -0.1971
 7972SOL    HW235376   2.502   2.653   4.524  0.7324 -0.8652 -1.3358
 7973SOL     OW35377   2.544   1.177  10.000 -0.7550  1.1182 -0.3281
 7973SOL    HW135378   2.511   1.253   9.953  1.5899  1.9792 -0.5667
 7973SOL    HW235379   2.507   1.111   9.941  0.7250 -1.2133  1.3630
 7974SOL     OW35380   0.185   2.199   7.536 -0.1799  0.3558  0.3933
 7974SOL    HW135381   0.107   2.177   7.588 -1.4796 -1.2396 -2.2489
 7974SOL    HW235382   0.148   2.239   7.458 -0.2352  0.6101  0.5501
 7975SOL     OW35383   0.580   1.792  14.411  0.0626  0.2398 -0.1774
 7975SOL    HW135384   0.529   1.784  14.491  1.2925 -0.9709  0.4744
 7975SOL    HW235385   0.609   1.702  14.399  0.1448  0.2265  0.1221
 7976SOL     OW35386   0.951   1.736   3.102 -0.0907  0.1411 -0.3359
 7976SOL    HW135387   0.997   1.768   3.180  0.7470  0.3487 -0.9247
 7976SOL    HW235388   0.913   1.816   3.065 -1.5781 -0.2450  0.3388
 7977SOL     OW35389   0.343   1.737   8.004  0.2707 -0.5636  0.4490
 7977SOL    HW135390   0.351   1.678   8.079  0.0929 -0.8781  0.2210
 7977SOL    HW235391   0.388   1.815   8.037  0.9080 -1.5866  2.0226
 7978SOL     OW35392   3.746   4.688  13.537 -0.0268  0.2162  0.1513
 7978SOL    HW135393   3.826   4.637  13.550 -0.6123 -0.0119  2.8464
 7978SOL    HW235394   3.766   0.048  13.577 -1.4249  0.3464  0.5633
 7979SOL     OW35395   2.271   3.443  12.379 -0.3679 -0.3065 -0.6686
 7979SOL    HW135396   2.319   3.361  12.392 -0.1214  0.1388  1.2155
 7979SOL    HW235397   2.287   3.463  12.287  3.4212  0.9935  0.2856
 7980SOL     OW35398   3.306   0.446  12.718  0.5936 -0.8014  0.4854
 7980SOL    HW135399   3.327   0.379  12.653  0.0615  0.5266 -1.0597
 7980SOL    HW235400   3.291   0.401  12.801 -1.4131  0.2172  0.6639
 7981SOL     OW35401   4.196   4.705   5.063  0.4024  0.4396 -0.7228
 7981SOL    HW135402   4.163   4.630   5.112  3.3054  1.1043  2.2277
 7981SOL    HW235403   4.143   4.710   4.983 -0.2991 -0.6517 -0.3221
 7982SOL     OW35404   2.784   2.593   9.222  0.3122 -0.1958 -0.0658
 7982SOL    HW135405   2.824   2.677   9.245 -0.8990  0.2871  0.2268
 7982SOL    HW235406   2.766   2.596   9.128  0.3910  0.3685 -0.0673
 7983SOL     OW35407   1.473   2.400   8.132 -0.4936  0.3345 -0.2160
 7983SOL    HW135408   1.440   2.310   8.136  0.6308 -0.1188 -0.8629
 7983SOL    HW235409   1.536   2.397   8.204 -1.3259 -1.8176  0.4327
 7984SOL     OW35410   0.958   1.943   7.499 -0.9641  0.2833 -0.0887
 7984SOL    HW135411   0.903   1.983   7.432 -1.0113  0.0676 -0.1808
 7984SOL    HW235412   0.899   1.922   7.571  0.1690  0.1725  0.8086
 7985SOL     OW35413   3.201   1.438   0.042  0.3197 -0.5787 -0.7676
 7985SOL    HW135414   3.215   1.440   0.136  0.1621  0.1395 -0.7650
 7985SOL    HW235415   3.237   1.349   0.031 -0.1619 -1.0397  1.5061
 7986SOL     OW35416   0.013   3.254   7.282  1.1742  0.4385 -0.5780
 7986SOL    HW135417   4.675   3.195   7.325  0.5270 -0.3095 -2.5101
 7986SOL    HW235418   0.004   3.226   7.191  0.7162 -0.0695 -0.3731
 7987SOL     OW35419   3.033   3.277   0.790  0.2356  0.4472 -0.3048
 7987SOL    HW135420   3.029   3.349   0.852 -1.2918 -1.1343  1.4574
 7987SOL    HW235421   2.939   3.281   0.771 -0.4276  0.5710  2.9378
 7988SOL     OW35422   1.240   3.220   7.456 -0.2958 -0.8979 -0.4844
 7988SOL    HW135423   1.182   3.269   7.399 -2.0793 -1.7954  0.5712
 7988SOL    HW235424   1.222   3.266   7.538 -0.8155 -0.7986 -0.6540
 7989SOL     OW35425   3.150   1.026   7.326 -0.3954  0.0174  0.5737
 7989SOL    HW135426   3.086   1.018   7.255 -0.4281  0.4378  0.5541
 7989SOL    HW235427   3.223   1.063   7.276 -0.4863  1.4511  1.4980
 7990SOL     OW35428   1.452   3.245   9.190  0.4587  0.4830 -0.2548
 7990SOL    HW135429   1.395   3.192   9.134 -0.9938  1.0883  0.6657
 7990SOL    HW235430   1.393   3.317   9.211 -1.2677 -0.7456 -0.8781
 7991SOL     OW35431   2.193   3.212   1.890 -0.3237 -0.2184  0.0233
 7991SOL    HW135432   2.231   3.136   1.846  1.0866 -1.6296  3.6075
 7991SOL    HW235433   2.270   3.268   1.896 -1.2922  1.0486  0.6474
 7992SOL     OW35434   4.531   1.175   6.147  0.1604  0.0536  0.1481
 7992SOL    HW135435   4.489   1.091   6.127  1.7351 -0.6825 -0.0479
 7992SOL    HW235436   4.605   1.177   6.085  2.2039  0.5276  2.6241
 7993SOL     OW35437   2.971   4.097  15.312 -0.0344 -0.6207 -0.3209
 7993SOL    HW135438   2.992   4.126  15.400 -1.3045  0.0979 -0.2516
 7993SOL    HW235439   3.051   4.124  15.267 -0.6360 -0.7403 -1.4647
 7994SOL     OW35440   2.398   3.383  17.266  0.6617  0.0606  0.2379
 7994SOL    HW135441   2.424   3.302  17.221 -1.0493 -0.2847 -0.1059
 7994SOL    HW235442   2.465   3.387  17.335 -0.0674  2.9398  0.7800
 7995SOL     OW35443   1.473   1.681   9.080  0.2408 -0.3091  0.0374
 7995SOL    HW135444   1.428   1.659   8.999 -1.4410  0.9354  0.6555
 7995SOL    HW235445   1.516   1.761   9.051 -1.1871  1.4256  2.7171
 7996SOL     OW35446   3.157   0.495  14.999  0.3074  0.3909 -0.6401
 7996SOL    HW135447   3.236   0.505  14.946 -0.0556  2.9433 -0.6903
 7996SOL    HW235448   3.093   0.461  14.936  0.8148 -0.7696 -0.5368
 7997SOL     OW35449   4.130   4.466   8.257 -0.1192 -0.1362 -0.3672
 7997SOL    HW135450   4.102   4.498   8.343  3.1877 -0.2956  0.7888
 7997SOL    HW235451   4.190   4.395   8.280  0.7349  0.8086  0.3175
 7998SOL     OW35452   1.585   1.914  10.217 -0.1796 -0.0326  0.0500
 7998SOL    HW135453   1.629   1.869  10.145  0.1031 -0.3995  0.4595
 7998SOL    HW235454   1.520   1.846  10.232 -0.7629  0.1782 -1.5162
 7999SOL     OW35455   0.611   1.213   4.081  0.0237  0.1046  0.3430
 7999SOL    HW135456   0.612   1.167   4.165 -0.0938 -0.8299 -0.1542
 7999SOL    HW235457   0.691   1.184   4.036  0.6426  1.1116  0.8094
 8000SOL     OW35458   3.823   3.529  14.498 -0.0035 -0.7420 -0.6015
 8000SOL    HW135459   3.894   3.480  14.457  0.5399 -1.3295  1.0445
 8000SOL    HW235460   3.882   3.557  14.567 -1.8777  1.1291  0.2207
 8001SOL     OW35461   0.473   3.718   3.794 -0.5077 -0.3376  0.1968
 8001SOL    HW135462   0.473   3.631   3.834  0.8698 -0.1487  0.6301
 8001SOL    HW235463   0.385   3.713   3.758 -0.6161  0.7936  0.2809
 8002SOL     OW35464   0.121   3.238   5.612 -0.1370  0.6282  0.1263
 8002SOL    HW135465   0.178   3.206   5.681 -0.8093  0.5123  0.6288
 8002SOL    HW235466   0.037   3.261   5.652  0.3006 -0.1613  1.5007
 8003SOL     OW35467   1.224   3.160   8.929  0.2736  0.4947 -0.3623
 8003SOL    HW135468   1.143   3.135   8.973 -1.3655  0.5024 -3.3502
 8003SOL    HW235469   1.278   3.087   8.957 -3.3146 -1.9836  0.1507
 8004SOL     OW35470   4.541   3.189  13.111 -0.2868 -0.2217 -0.0625
 8004SOL    HW135471   4.621   3.241  13.123  0.2247 -0.7684 -1.1672
 8004SOL    HW235472   4.478   3.261  13.105  1.5526  1.3854 -0.3392
 8005SOL     OW35473   4.580   1.234  12.130  0.7712 -0.4034 -0.2826
 8005SOL    HW135474   4.529   1.258  12.207 -0.2894 -1.1177 -0.7520
 8005SOL    HW235475   4.603   1.316  12.087 -0.6199  0.3454  0.4197
 8006SOL     OW35476   2.095   3.814  17.289 -0.5647  0.1255 -0.0535
 8006SOL    HW135477   2.165   3.754  17.314 -0.8437 -0.0178  0.3914
 8006SOL    HW235478   2.120   3.834  17.199 -0.3739 -0.1039 -0.0509
 8007SOL     OW35479   3.959   2.533   6.604  0.1315  0.7693 -0.2733
 8007SOL    HW135480   4.055   2.522   6.605  0.0396  0.1519  1.4145
 8007SOL    HW235481   3.934   2.475   6.532 -0.6296  0.4086  0.2880
 8008SOL     OW35482   3.205   1.635   6.741 -0.3858 -0.2939  0.4195
 8008SOL    HW135483   3.187   1.680   6.823 -1.0011  0.9772 -0.4149
 8008SOL    HW235484   3.253   1.559   6.775  1.2312 -0.2620 -1.7776
 8009SOL     OW35485   1.397   0.328   8.247 -0.3525  0.9713  0.4729
 8009SOL    HW135486   1.391   0.407   8.193  1.5047 -1.1183 -2.7934
 8009SOL    HW235487   1.314   0.285   8.226 -0.0369  0.3825  0.4428
 8010SOL     OW35488   2.420   2.630   0.954 -0.0506 -0.6462 -0.0743
 8010SOL    HW135489   2.467   2.626   0.871  1.8948  1.1286  0.9484
 8010SOL    HW235490   2.343   2.682   0.931  0.6087 -1.0748 -3.2094
 8011SOL     OW35491   1.589   4.573   5.089  0.0284 -0.2584 -0.1370
 8011SOL    HW135492   1.647   4.516   5.140 -0.2662 -1.7452 -1.4608
 8011SOL    HW235493   1.646   4.625   5.032 -2.1117  0.6246 -1.4733
 8012SOL     OW35494   0.996   0.811  15.941 -0.6520 -0.1156  0.3639
 8012SOL    HW135495   0.992   0.900  15.905 -0.9212  0.4480  1.7775
 8012SOL    HW235496   0.927   0.764  15.894 -1.2599  0.5324  0.5954
 8013SOL     OW35497   3.130   0.410  12.424 -0.2569 -0.4194 -0.2887
 8013SOL    HW135498   3.081   0.429  12.504 -2.0626 -0.9097 -1.2814
 8013SOL    HW235499   3.203   0.361  12.460  0.7987  1.9543  0.8414
 8014SOL     OW35500   2.905   3.021   2.239  0.3962 -0.5106 -0.8225
 8014SOL    HW135501   2.874   3.111   2.244  0.7015 -0.4346 -0.3113
 8014SOL    HW235502   2.866   3.008   2.152 -1.1108  0.0796 -0.2342
 8015SOL     OW35503   2.020   1.127  13.661 -0.0098  0.6286 -0.6095
 8015SOL    HW135504   1.926   1.108  13.664  0.1764 -0.3801 -1.2477
 8015SOL    HW235505   2.034   1.140  13.567  1.0094  3.0683 -0.1086
 8016SOL     OW35506   1.675   2.281  12.953  0.6430 -0.2797 -0.4188
 8016SOL    HW135507   1.746   2.300  12.892  0.2485 -1.0978 -1.1230
 8016SOL    HW235508   1.706   2.215  13.014  0.8808  0.4559  0.2622
 8017SOL     OW35509   2.271   2.899   7.269  0.2954  0.1959 -0.7112
 8017SOL    HW135510   2.228   2.980   7.298 -0.9237 -0.0779 -1.7448
 8017SOL    HW235511   2.223   2.841   7.328  2.7209 -0.2648  0.8265
 8018SOL     OW35512   3.870   2.857   3.621  0.4640 -0.0714  0.1178
 8018SOL    HW135513   3.916   2.938   3.643  1.8544 -0.8898  0.2087
 8018SOL    HW235514   3.941   2.803   3.586 -0.4957 -1.2961  0.0610
 8019SOL     OW35515   3.190   3.549   9.102 -0.5948 -0.0992  0.2698
 8019SOL    HW135516   3.119   3.611   9.119 -0.2917  0.0372  1.0111
 8019SOL    HW235517   3.146   3.469   9.131 -2.1328  1.0916  1.2262
 8020SOL     OW35518   2.707   1.932   2.024 -0.3572 -0.1138  0.2367
 8020SOL    HW135519   2.624   1.928   2.070 -0.7189  1.6323 -0.2776
 8020SOL    HW235520   2.698   1.864   1.957  1.7334  0.4634 -0.6485
 8021SOL     OW35521   3.240   2.789   0.911  0.2731  0.6224  0.3280
 8021SOL    HW135522   3.160   2.812   0.958 -1.1075  0.6564 -2.0750
 8021SOL    HW235523   3.238   2.854   0.841  0.8390 -1.8774 -2.0128
 8022SOL     OW35524   2.669   4.490  13.469  0.0620  0.1195 -0.1267
 8022SOL    HW135525   2.760   4.463  13.456 -0.8121 -1.8416 -2.2845
 8022SOL    HW235526   2.657   4.458  13.559 -1.5320 -0.8274 -0.6597
 8023SOL     OW35527   0.574   0.192   9.508 -0.0062  0.4738  0.4558
 8023SOL    HW135528   0.653   0.158   9.466 -2.2654 -2.2381 -1.6336
 8023SOL    HW235529   0.610   0.262   9.562 -1.6741  1.5415  0.1876
 8024SOL     OW35530   1.050   1.743   3.635  0.1964 -0.1818  0.2326
 8024SOL    HW135531   1.059   1.658   3.679  1.0206 -1.3958 -2.2924
 8024SOL    HW235532   0.955   1.742   3.621  0.2292  3.2537 -0.1937
 8025SOL     OW35533   0.212   0.590  12.877 -0.3047  0.0295 -0.1828
 8025SOL    HW135534   0.149   0.650  12.838  0.8149  0.5562 -1.1765
 8025SOL    HW235535   0.288   0.621  12.828  0.9683 -2.4783  0.1959
 8026SOL     OW35536   3.321   4.357   9.194  0.3941 -0.5123  0.6146
 8026SOL    HW135537   3.373   4.298   9.248  0.3326 -0.8240  0.3252
 8026SOL    HW235538   3.382   4.382   9.125 -1.4437  0.5801 -0.6239
 8027SOL     OW35539   0.302   4.052   4.614 -0.4690 -0.3982 -0.0450
 8027SOL    HW135540   0.303   4.141   4.648  1.5383 -0.0685 -0.9909
 8027SOL    HW235541   0.328   4.003   4.693  2.3993  0.8780 -0.1765
 8028SOL     OW35542   1.213   2.274   8.178 -0.6679  0.4271 -0.4135
 8028SOL    HW135543   1.217   2.353   8.124 -0.2664  0.1512 -0.7851
 8028SOL    HW235544   1.278   2.215   8.142 -0.4745 -0.5288  1.5045
 8029SOL     OW35545   0.715   4.083   5.514 -0.0810 -0.2103 -0.2225
 8029SOL    HW135546   0.745   4.038   5.435  3.1391  0.0274  0.8585
 8029SOL    HW235547   0.672   4.156   5.470  0.1597  0.9581  1.4980
 8030SOL     OW35548   3.599   3.019   6.858 -0.2756  0.0603 -0.0474
 8030SOL    HW135549   3.568   3.109   6.872 -0.8915 -0.2701  0.6790
 8030SOL    HW235550   3.524   2.964   6.877 -0.5047 -0.2288 -1.7663
 8031SOL     OW35551   2.856   3.117   8.435  0.1829 -0.0701 -0.1160
 8031SOL    HW135552   2.857   3.091   8.527  1.3528  1.7971  0.4015
 8031SOL    HW235553   2.880   3.035   8.391 -0.6516 -0.1179 -0.4752
 8032SOL     OW35554   1.716   1.169   0.956  0.6541  0.0799  0.2110
 8032SOL    HW135555   1.686   1.253   0.923  0.0617  0.9097  2.8385
 8032SOL    HW235556   1.802   1.173   0.914  1.3338  0.4414  1.6423
 8033SOL     OW35557   1.773   3.901   4.194  0.1375 -0.1702 -0.0431
 8033SOL    HW135558   1.828   3.828   4.165 -0.4757 -0.8550  0.4913
 8033SOL    HW235559   1.837   3.971   4.182 -1.8026  1.8580  1.3831
 8034SOL     OW35560   4.042   3.960  12.316 -0.2088 -0.7520 -0.5830
 8034SOL    HW135561   4.071   4.011  12.240 -0.3088  0.6922  0.3432
 8034SOL    HW235562   4.100   3.884  12.308 -0.2921 -0.9838  1.1219
 8035SOL     OW35563   0.542   3.523   3.219  0.4453  0.6927 -0.0009
 8035SOL    HW135564   0.525   3.476   3.137  0.7899 -0.0569  0.3528
 8035SOL    HW235565   0.483   3.598   3.219  0.8222  0.9884 -0.5083
 8036SOL     OW35566   0.318   1.719   3.135  0.0176 -0.1152  0.1826
 8036SOL    HW135567   0.227   1.733   3.110 -0.0334  1.8188  1.4352
 8036SOL    HW235568   0.365   1.759   3.062  1.0296 -0.6967  0.5027
 8037SOL     OW35569   1.756   2.884   3.802  0.5846  0.2245  0.2533
 8037SOL    HW135570   1.791   2.971   3.821 -1.4143  1.4958 -1.9130
 8037SOL    HW235571   1.794   2.871   3.715  0.4652  0.5416  0.1528
 8038SOL     OW35572   3.145   2.048   3.292 -0.2004 -0.2505 -0.3489
 8038SOL    HW135573   3.113   2.104   3.362 -3.6105 -0.7554 -1.5355
 8038SOL    HW235574   3.139   1.957   3.322 -1.0151 -0.0976 -0.0621
 8039SOL     OW35575   3.210   2.783   7.520 -0.2041 -0.1073  0.4630
 8039SOL    HW135576   3.126   2.830   7.519  0.6080  1.3311  0.0449
 8039SOL    HW235577   3.179   2.694   7.505  2.2596 -1.1009  1.2336
 8040SOL     OW35578   4.006   2.410   9.907 -0.4421 -0.0403  0.6159
 8040SOL    HW135579   4.095   2.431   9.935 -0.1905  0.0985 -0.2966
 8040SOL    HW235580   3.969   2.388   9.992  1.8158  0.6920  1.7829
 8041SOL     OW35581   0.072   2.172  11.812  0.1481  0.0046 -0.4959
 8041SOL    HW135582   0.053   2.179  11.718 -2.6710  2.8546  0.3335
 8041SOL    HW235583   0.152   2.223  11.825 -0.7089  0.7623  1.6747
 8042SOL     OW35584   3.409   4.394   4.610  0.0506  0.2763 -0.1296
 8042SOL    HW135585   3.414   4.481   4.570 -1.0353 -0.1517 -1.1949
 8042SOL    HW235586   3.411   4.428   4.700  0.2385  2.3585 -0.8986
 8043SOL     OW35587   2.434   3.634   7.029  0.1556  0.3014  0.1892
 8043SOL    HW135588   2.438   3.667   6.939  1.6387  1.0479  0.5295
 8043SOL    HW235589   2.343   3.603   7.026  0.0159  0.7742 -0.4514
 8044SOL     OW35590   0.504   2.763   5.258  0.0495  0.0042  0.0132
 8044SOL    HW135591   0.563   2.688   5.257 -1.0720 -0.8674  0.4365
 8044SOL    HW235592   0.512   2.793   5.349 -0.5513  0.0561  0.0451
 8045SOL     OW35593   4.611   2.049   3.658 -0.0391  0.4057  0.6777
 8045SOL    HW135594   4.535   2.081   3.609  1.4922  1.1273 -1.2146
 8045SOL    HW235595   4.640   2.128   3.702 -1.2559  1.7231 -0.8701
 8046SOL     OW35596   1.253   4.104   5.478  0.9405 -0.1400  0.4893
 8046SOL    HW135597   1.267   4.038   5.411  0.2978 -1.7678  1.9715
 8046SOL    HW235598   1.335   4.153   5.486  0.3944  1.1420 -1.8844
 8047SOL     OW35599   1.651   3.270  12.329  0.1603  0.6789  0.5373
 8047SOL    HW135600   1.608   3.317  12.257  0.2004  0.3114  0.2745
 8047SOL    HW235601   1.726   3.237  12.280  0.8806  1.2657  1.2499
 8048SOL     OW35602   4.451   0.692   4.286  0.2493  0.5423  0.7182
 8048SOL    HW135603   4.379   0.733   4.335 -1.7954 -2.1126 -0.1085
 8048SOL    HW235604   4.506   0.650   4.351 -0.0728  1.6736  1.7276
 8049SOL     OW35605   4.616   4.209   0.419  0.1302 -0.4288  0.4741
 8049SOL    HW135606   4.555   4.276   0.449 -0.1043 -0.5209  0.2010
 8049SOL    HW235607   4.616   4.151   0.495 -0.9162 -1.4978 -0.3365
 8050SOL     OW35608   1.729   3.433   7.662 -0.3604 -0.4596 -0.3621
 8050SOL    HW135609   1.665   3.434   7.591 -0.4789  1.5620 -0.2382
 8050SOL    HW235610   1.775   3.516   7.654 -2.9004  1.0324  0.5016
 8051SOL     OW35611   4.580   2.533  11.588  0.0010 -0.1745 -0.1823
 8051SOL    HW135612   4.508   2.473  11.607 -1.2924  1.1365 -0.9598
 8051SOL    HW235613   4.544   2.620  11.602 -0.9329 -0.5213 -0.4388
 8052SOL     OW35614   3.679   2.038   4.087  0.0559  0.9005  0.5547
 8052SOL    HW135615   3.647   2.026   4.176  1.4777  2.9550  1.3273
 8052SOL    HW235616   3.597   2.032   4.036 -0.6359 -1.8252  1.9690
 8053SOL     OW35617   0.856   4.565   3.648  0.5268  0.4494 -0.7877
 8053SOL    HW135618   0.817   4.633   3.593 -0.0189  2.2012  1.7030
 8053SOL    HW235619   0.876   4.493   3.590 -0.3777  1.4498 -2.3330
 8054SOL     OW35620   1.764   4.135   2.363  0.3099 -0.6088 -0.0412
 8054SOL    HW135621   1.696   4.072   2.385 -0.2567  0.5207  1.4814
 8054SOL    HW235622   1.720   4.213   2.397  1.0536 -0.8375  1.4752
 8055SOL     OW35623   0.095   3.031   8.601  0.2980 -0.1462 -0.0065
 8055SOL    HW135624   0.075   3.081   8.522  0.6888 -1.5479 -0.9926
 8055SOL    HW235625   0.092   3.100   8.667  2.6742 -2.5657  2.6249
 8056SOL     OW35626   3.605   0.139   4.856 -0.3988 -0.0089  0.6275
 8056SOL    HW135627   3.680   0.196   4.841 -0.5820 -0.6808 -2.9627
 8056SOL    HW235628   3.570   0.170   4.940  1.8782 -1.2326  2.0231
 8057SOL     OW35629   3.422   1.115  17.415  0.0666  0.7110 -0.3141
 8057SOL    HW135630   3.403   1.072  17.331 -0.0841  1.0527 -0.4540
 8057SOL    HW235631   3.511   1.144  17.398 -0.3259  1.6099 -0.8479
 8058SOL     OW35632   2.251   3.573  11.847  0.4301  0.1672  0.5172
 8058SOL    HW135633   2.288   3.650  11.891 -1.6609  1.1234  0.5926
 8058SOL    HW235634   2.267   3.598  11.757 -0.5263  1.4140  0.6992
 8059SOL     OW35635   0.904   3.416   4.438  0.7113 -0.5917 -0.0820
 8059SOL    HW135636   0.967   3.370   4.494 -1.3944 -1.3314  1.6689
 8059SOL    HW235637   0.942   3.502   4.421 -0.5860  0.2051  1.0366
 8060SOL     OW35638   3.245   0.793   5.562 -0.7174  0.0476 -0.5938
 8060SOL    HW135639   3.269   0.821   5.650  0.8074  0.2061 -1.0739
 8060SOL    HW235640   3.178   0.860   5.547 -0.8747 -0.3286 -1.5801
 8061SOL     OW35641   4.417   1.065  10.616 -0.1407 -0.6327  0.0855
 8061SOL    HW135642   4.425   1.119  10.537 -2.3499 -0.8083 -0.2735
 8061SOL    HW235643   4.499   1.016  10.611 -0.4188 -0.8702 -2.6227
 8062SOL     OW35644   3.604   3.844   2.942 -0.3776  0.6817 -0.0462
 8062SOL    HW135645   3.633   3.767   2.992  2.0827  2.7605  1.7636
 8062SOL    HW235646   3.619   3.795   2.861 -2.1897  1.7296 -0.9981
 8063SOL     OW35647   2.885   2.496  15.366 -0.7355 -0.1139 -0.0402
 8063SOL    HW135648   2.946   2.568  15.349  1.1550 -1.3062  1.6195
 8063SOL    HW235649   2.826   2.542  15.425  1.7504 -0.3756  2.6730
 8064SOL     OW35650   0.595   4.438   4.021 -0.2305  0.0381  0.4134
 8064SOL    HW135651   0.686   4.421   4.045 -0.2395 -2.4844 -1.3321
 8064SOL    HW235652   0.547   4.448   4.104 -1.1610 -0.5139 -0.0622
 8065SOL     OW35653   4.139   1.649   9.115 -0.0376  0.1159 -0.2530
 8065SOL    HW135654   4.212   1.691   9.161  0.1812 -1.5593  0.9431
 8065SOL    HW235655   4.156   1.555   9.122  0.8692  0.2288 -0.9089
 8066SOL     OW35656   0.976   1.871   8.194  0.1876  0.4000 -0.8500
 8066SOL    HW135657   0.999   1.957   8.230 -2.0991 -0.4585  2.6891
 8066SOL    HW235658   0.962   1.893   8.102  0.7535  0.6684 -0.8721
 8067SOL     OW35659   1.360   1.229   3.698 -0.3313  0.6075 -0.4259
 8067SOL    HW135660   1.310   1.236   3.616 -2.0664  1.3116  0.6938
 8067SOL    HW235661   1.426   1.164   3.674 -2.4311 -1.8747  0.4212
 8068SOL     OW35662   2.030   3.573   5.688  0.2670  0.3120 -0.4175
 8068SOL    HW135663   1.949   3.534   5.657 -0.2023  0.7977  0.2078
 8068SOL    HW235664   2.012   3.572   5.782  0.4597 -2.8701 -0.4202
 8069SOL     OW35665   0.180   3.426   3.508  0.1731  0.0785  0.5770
 8069SOL    HW135666   0.145   3.346   3.548 -2.6609  0.0932 -1.8881
 8069SOL    HW235667   0.167   3.394   3.419  2.5842  1.7549 -0.3495
 8070SOL     OW35668   1.098   2.881   2.763  0.3509 -0.0460  0.0994
 8070SOL    HW135669   1.038   2.933   2.709  0.0274  0.3010  0.7994
 8070SOL    HW235670   1.189   2.889   2.732  0.5277 -0.7720  0.4315
 8071SOL     OW35671   1.829   1.610   2.689 -0.1277  0.5621 -0.9672
 8071SOL    HW135672   1.828   1.602   2.594 -1.0115  0.6447 -0.9635
 8071SOL    HW235673   1.922   1.597   2.709 -0.5962 -0.5101  0.5501
 8072SOL     OW35674   0.716   3.140   3.717 -0.2216  0.2219  0.3182
 8072SOL    HW135675   0.647   3.074   3.723 -0.2917  0.1335 -1.5837
 8072SOL    HW235676   0.791   3.099   3.761  0.8270 -0.3534 -2.0174
 8073SOL     OW35677   1.976   4.158   4.189 -0.0677 -0.2123  0.0747
 8073SOL    HW135678   1.986   4.250   4.164 -0.6099 -0.8016 -2.2505
 8073SOL    HW235679   2.054   4.115   4.155 -0.4575  0.6000 -1.8249
 8074SOL     OW35680   1.207   0.717   4.833  0.8045 -0.1004  0.2824
 8074SOL    HW135681   1.169   0.802   4.855  0.4903  0.1217 -1.0897
 8074SOL    HW235682   1.122   0.678   4.809  1.1865 -1.5427  1.2477
 8075SOL     OW35683   2.453   3.117  17.189 -0.1298  0.4857  0.7010
 8075SOL    HW135684   2.363   3.089  17.206 -0.8958  2.7856  0.2955
 8075SOL    HW235685   2.505   3.039  17.210 -0.7610 -0.1314 -0.0466
 8076SOL     OW35686   2.028   0.414  13.297 -0.0134  0.0395 -0.1481
 8076SOL    HW135687   2.085   0.397  13.372 -2.2363  0.8204  1.7229
 8076SOL    HW235688   2.088   0.423  13.223  0.6865  0.0578  0.4131
 8077SOL     OW35689   2.653   3.082  16.906  0.1131  0.2004  0.0016
 8077SOL    HW135690   2.725   3.022  16.925  0.2634  0.5337  0.5018
 8077SOL    HW235691   2.580   3.041  16.952  1.0309 -2.3256 -0.7805
 8078SOL     OW35692   4.346   2.462  16.880 -0.4857 -0.2538 -0.2121
 8078SOL    HW135693   4.360   2.423  16.794 -0.3598  1.1413 -0.8163
 8078SOL    HW235694   4.427   2.441  16.928  0.3136  0.8654 -1.0735
 8079SOL     OW35695   2.410   0.903  10.133  0.1517 -0.0214 -0.3467
 8079SOL    HW135696   2.504   0.918  10.145  0.0431 -0.3903  0.9403
 8079SOL    HW235697   2.408   0.924  10.040  0.0784 -0.3848 -0.4253
 8080SOL     OW35698   2.714   0.739  16.627  0.1985 -0.6553 -0.0680
 8080SOL    HW135699   2.705   0.696  16.712 -1.7120  2.9401  1.5457
 8080SOL    HW235700   2.749   0.820  16.663 -1.7838 -0.0286  0.4199
 8081SOL     OW35701   1.146   1.413   1.044 -0.2961  0.0124  0.9149
 8081SOL    HW135702   1.233   1.391   1.079  0.3551  1.1652  0.0148
 8081SOL    HW235703   1.125   1.331   0.999  0.7595  1.4934 -2.2710
 8082SOL     OW35704   1.532   0.259   1.190  0.0607  0.0764  0.0065
 8082SOL    HW135705   1.456   0.295   1.144  1.6263 -1.5047 -3.8570
 8082SOL    HW235706   1.518   0.165   1.177  0.2718  0.4066 -2.7085
 8083SOL     OW35707   2.360   2.431   8.796  0.0184 -0.7037  0.1218
 8083SOL    HW135708   2.274   2.447   8.756 -0.2170 -1.2933  0.3890
 8083SOL    HW235709   2.341   2.362   8.859 -0.6329  1.1094  1.8976
 8084SOL     OW35710   4.331   4.484  12.913  0.3253  0.7707 -0.3959
 8084SOL    HW135711   4.310   4.485  13.007  1.1139  2.5774 -0.2285
 8084SOL    HW235712   4.403   4.422  12.915 -1.1030 -0.8958 -1.2389
 8085SOL     OW35713   0.679   4.674   7.769  0.1103 -0.1856  0.2604
 8085SOL    HW135714   0.711   0.033   7.805  1.7702 -1.1900  1.0994
 8085SOL    HW235715   0.748   4.662   7.704  1.3329 -1.0076  1.6985
 8086SOL     OW35716   2.891   2.650   6.860 -0.5887 -0.0156  0.7368
 8086SOL    HW135717   2.813   2.705   6.863  0.7984  1.9954 -0.5684
 8086SOL    HW235718   2.909   2.643   6.767 -1.1865 -1.5770  0.7355
 8087SOL     OW35719   1.399   1.160  16.981  0.0858  0.2519  0.1805
 8087SOL    HW135720   1.345   1.237  16.961 -0.2195 -0.1878 -0.6745
 8087SOL    HW235721   1.458   1.197  17.047 -0.2744  1.3974 -0.1434
 8088SOL     OW35722   3.874   4.700   3.403 -0.5377  0.2432  0.1886
 8088SOL    HW135723   3.855   0.063   3.438  0.5931  0.9251 -0.8977
 8088SOL    HW235724   3.795   4.679   3.353 -1.0852  0.6420  0.8874
 8089SOL     OW35725   2.921   1.628   4.134 -0.0470 -0.0552  0.3620
 8089SOL    HW135726   2.856   1.619   4.064  1.2303  1.3556 -0.9854
 8089SOL    HW235727   2.977   1.552   4.115 -0.8557 -0.9508  1.4840
 8090SOL     OW35728   4.313   0.304  11.268 -0.0040 -0.5516 -0.2021
 8090SOL    HW135729   4.222   0.275  11.273  0.0591 -0.1364  3.1131
 8090SOL    HW235730   4.359   0.221  11.263 -1.0326 -1.0746 -0.9458
 8091SOL     OW35731   3.691   1.310   2.411  0.1649  0.0190 -0.0050
 8091SOL    HW135732   3.727   1.258   2.340  2.8980  0.7753  0.8127
 8091SOL    HW235733   3.596   1.308   2.400  0.2910  1.5287 -1.3301
 8092SOL     OW35734   0.723   1.369   3.667 -0.0060  0.4273 -0.7751
 8092SOL    HW135735   0.640   1.366   3.714  0.3559 -1.8403 -0.2659
 8092SOL    HW235736   0.738   1.275   3.667  1.1207  0.6128  0.1911
 8093SOL     OW35737   2.361   1.679  16.536  0.1016  0.2647  0.3861
 8093SOL    HW135738   2.372   1.601  16.591  2.6494 -0.2541 -0.8512
 8093SOL    HW235739   2.364   1.753  16.597 -1.7007 -2.4666  3.8057
 8094SOL     OW35740   0.333   0.557   5.497 -0.1708  0.6995 -0.7524
 8094SOL    HW135741   0.345   0.591   5.409 -4.8717 -0.1758 -1.7043
 8094SOL    HW235742   0.300   0.470   5.476  0.6124  1.2709 -4.2674
 8095SOL     OW35743   1.556   4.484  13.203  0.2901 -0.0826 -0.1357
 8095SOL    HW135744   1.532   4.413  13.143 -1.6953  0.4060  0.0873
 8095SOL    HW235745   1.510   4.455  13.281 -2.2110 -1.4210 -2.1202
 8096SOL     OW35746   2.544   3.811  17.335  0.6707  0.1748 -0.7836
 8096SOL    HW135747   2.574   3.728  17.372  1.8438  0.1064 -1.8975
 8096SOL    HW235748   2.612   3.864  17.375 -1.0296  0.9425  1.1007
 8097SOL     OW35749   2.458   2.747   7.505 -0.0439 -0.5548  0.4539
 8097SOL    HW135750   2.534   2.692   7.523 -0.2944 -0.9184  0.4080
 8097SOL    HW235751   2.409   2.687   7.448  2.4754 -1.2014 -1.0073
 8098SOL     OW35752   1.766   4.109   3.427  0.5798 -0.0488  0.3141
 8098SOL    HW135753   1.681   4.099   3.385 -0.2871 -0.9388  2.2584
 8098SOL    HW235754   1.806   4.186   3.388 -0.4179 -0.4249 -1.4104
 8099SOL     OW35755   1.252   0.359   5.836  0.1461  0.6412 -0.5750
 8099SOL    HW135756   1.316   0.392   5.772 -0.9598  1.8996 -1.0313
 8099SOL    HW235757   1.241   0.267   5.814 -0.5698  0.2040  1.6109
 8100SOL     OW35758   4.393   0.506  15.669  0.1173  0.2982  0.5268
 8100SOL    HW135759   4.442   0.425  15.657  1.7823  1.2398  1.0551
 8100SOL    HW235760   4.328   0.497  15.599  0.2270 -1.0505  0.5980
 8101SOL     OW35761   0.126   1.790  12.187  0.6693  0.0060  0.4646
 8101SOL    HW135762   0.179   1.717  12.155  1.3157 -0.5335  2.7738
 8101SOL    HW235763   0.130   1.839  12.105 -0.1682 -1.0683 -0.2160
 8102SOL     OW35764   3.677   3.355   9.083  0.0697  0.0842 -0.2804
 8102SOL    HW135765   3.745   3.312   9.031  0.1850 -1.9571  1.5701
 8102SOL    HW235766   3.718   3.436   9.111 -0.8382  0.1565  0.8168
 8103SOL     OW35767   4.528   0.213   2.337  0.1762 -0.1393 -0.0721
 8103SOL    HW135768   4.471   0.137   2.321 -0.2048  0.0539  0.3838
 8103SOL    HW235769   4.598   0.194   2.275  1.2778  2.7968  0.2820
 8104SOL     OW35770   0.781   3.131  15.887  0.2736 -0.4093 -0.8983
 8104SOL    HW135771   0.855   3.191  15.879 -0.0405  0.2107  0.8261
 8104SOL    HW235772   0.781   3.122  15.792 -0.9629  1.0295 -1.0592
 8105SOL     OW35773   1.735   1.460   8.503 -0.0157 -0.4725  0.0610
 8105SOL    HW135774   1.814   1.444   8.451 -0.5010 -0.9249 -0.5330
 8105SOL    HW235775   1.762   1.540   8.549  1.6030  0.5992 -2.7636
 8106SOL     OW35776   0.368   2.001   4.287 -0.0005  0.0541 -0.2043
 8106SOL    HW135777   0.406   1.983   4.373 -4.0870 -3.7452  0.7651
 8106SOL    HW235778   0.443   1.994   4.228  0.8216  1.6506  0.6468
 8107SOL     OW35779   2.771   2.492   0.258 -0.2743  0.4344 -0.1438
 8107SOL    HW135780   2.866   2.497   0.247  0.0300 -2.5142  1.0006
 8107SOL    HW235781   2.751   2.585   0.247 -1.8845 -0.0776 -1.4144
 8108SOL     OW35782   2.231   4.692   0.295  0.0117 -0.0417 -0.1351
 8108SOL    HW135783   2.230   0.059   0.267  0.0268  0.5463  1.8067
 8108SOL    HW235784   2.153   4.693   0.350  1.0203  1.7279  1.2641
 8109SOL     OW35785   1.575   3.333  17.365 -0.3748 -0.0686  0.6083
 8109SOL    HW135786   1.666   3.354  17.385 -0.5532  1.3734 -0.0808
 8109SOL    HW235787   1.524   3.391  17.422 -1.6157  0.6613 -1.2421
 8110SOL     OW35788   1.184   1.784   9.668 -0.1614  0.1925 -0.1884
 8110SOL    HW135789   1.168   1.856   9.728 -1.4122  0.1627 -0.4927
 8110SOL    HW235790   1.207   1.712   9.727 -1.2929 -0.5906 -0.7095
 8111SOL     OW35791   4.497   0.793   4.593  0.0006  0.0107  0.2701
 8111SOL    HW135792   4.436   0.867   4.599 -0.4070 -0.5468  2.6426
 8111SOL    HW235793   4.565   0.831   4.537 -1.1536  1.6366 -0.0410
 8112SOL     OW35794   2.271   0.244   8.206  0.1907  0.3053 -0.0362
 8112SOL    HW135795   2.356   0.288   8.214 -0.2951  1.4806 -1.3292
 8112SOL    HW235796   2.246   0.286   8.124 -1.4491 -0.4518  0.0713
 8113SOL     OW35797   2.391   4.632   1.483  0.3553 -0.1841 -0.0321
 8113SOL    HW135798   2.475   4.673   1.502 -0.0287  0.4543  0.2799
 8113SOL    HW235799   2.339   4.701   1.524 -1.4362 -1.1221 -0.6964
 8114SOL     OW35800   2.278   3.181  11.649 -0.0254 -0.8311 -0.2102
 8114SOL    HW135801   2.270   3.162  11.743  0.4737 -1.2456 -0.2509
 8114SOL    HW235802   2.184   3.182  11.632  0.2852 -0.0842 -1.9043
 8115SOL     OW35803   1.516   4.135   1.525 -0.7011 -0.1912 -0.2355
 8115SOL    HW135804   1.428   4.113   1.555  0.1356 -3.2879 -0.0516
 8115SOL    HW235805   1.534   4.059   1.470 -0.0579 -0.1261 -0.1117
 8116SOL     OW35806   3.860   2.100   4.744 -0.2784 -0.0711 -0.1973
 8116SOL    HW135807   3.858   2.029   4.808 -2.6250 -0.8289 -1.0855
 8116SOL    HW235808   3.908   2.058   4.673  0.4537 -0.3185  0.4504
 8117SOL     OW35809   3.290   0.930   8.316  0.0047 -0.2531  0.3806
 8117SOL    HW135810   3.220   0.914   8.379 -0.8563  0.0983 -0.4948
 8117SOL    HW235811   3.361   0.892   8.368 -1.6051 -3.1941  0.4399
 8118SOL     OW35812   2.217   2.535  11.807  0.0240 -0.1830  0.1478
 8118SOL    HW135813   2.175   2.609  11.853 -2.5173 -0.8561 -1.0764
 8118SOL    HW235814   2.154   2.516  11.738 -0.8677 -0.5485  1.0615
 8119SOL     OW35815   4.038   0.239   7.636 -0.1449  0.5195  0.0002
 8119SOL    HW135816   4.095   0.303   7.592  0.2805  0.6107  0.6916
 8119SOL    HW235817   4.100   0.198   7.696 -0.9414 -1.4099 -0.5185
 8120SOL     OW35818   1.038   1.672   1.954  0.4660  0.1277 -0.4866
 8120SOL    HW135819   1.129   1.642   1.951  1.0672  1.7706  1.2858
 8120SOL    HW235820   1.038   1.726   1.875 -1.5330  0.7551 -0.0600
 8121SOL     OW35821   1.554   4.356   2.961  0.5385 -0.0636 -0.4206
 8121SOL    HW135822   1.582   4.443   2.988  0.5164  0.2475 -1.3768
 8121SOL    HW235823   1.495   4.324   3.029 -0.4587  2.5266 -0.0829
 8122SOL     OW35824   0.778   4.578  11.369  0.3467 -0.0628 -0.2354
 8122SOL    HW135825   0.862   4.557  11.409  0.2232 -1.2113 -0.5692
 8122SOL    HW235826   0.719   4.563  11.443  0.9188  0.6342  0.3518
 8123SOL     OW35827   4.329   1.376   6.234  0.1984  0.2814 -0.2172
 8123SOL    HW135828   4.348   1.285   6.215 -1.9288 -0.0755 -0.7102
 8123SOL    HW235829   4.417   1.412   6.232  0.8205 -1.2413 -0.1117
 8124SOL     OW35830   0.995   4.528   3.913 -0.0600  0.5085 -0.5758
 8124SOL    HW135831   0.975   4.436   3.897  1.7271 -0.0190  0.2361
 8124SOL    HW235832   0.975   4.557   3.824 -1.2670  1.3946 -0.0265
 8125SOL     OW35833   4.331   1.327  13.643 -0.3446  0.0722  0.1889
 8125SOL    HW135834   4.414   1.355  13.681 -0.0843  0.2582 -0.5190
 8125SOL    HW235835   4.326   1.368  13.557 -1.8589  2.2194  1.3122
 8126SOL     OW35836   0.293   3.098   7.159 -0.6660  0.3023 -0.7749
 8126SOL    HW135837   0.328   3.094   7.071 -1.1034  0.2479 -0.9475
 8126SOL    HW235838   0.294   3.192   7.176 -0.2751  0.1598  0.0018
 8127SOL     OW35839   4.706   1.813  14.775 -0.7392  0.1875  0.1221
 8127SOL    HW135840   4.619   1.791  14.741  0.1313 -1.5892 -0.9144
 8127SOL    HW235841   4.670   1.880  14.834 -0.5890 -0.1907  0.6448
 8128SOL     OW35842   1.469   0.295  11.706 -0.0857  0.6295  0.0336
 8128SOL    HW135843   1.377   0.270  11.694  0.0548  0.2438 -0.2327
 8128SOL    HW235844   1.502   0.253  11.627 -1.9686 -1.1522  0.1990
 8129SOL     OW35845   3.706   2.734   0.253  0.3370 -0.2875  0.3261
 8129SOL    HW135846   3.760   2.673   0.303 -0.4358 -2.5372 -1.5733
 8129SOL    HW235847   3.767   2.808   0.244 -0.5900  0.4588  0.1620
 8130SOL     OW35848   3.968   3.537   6.037 -0.2149  0.1256 -0.1436
 8130SOL    HW135849   4.000   3.448   6.053  0.3324  0.1212 -1.2954
 8130SOL    HW235850   3.880   3.532   6.075 -0.1240 -0.3296  0.0127
 8131SOL     OW35851   4.046   2.481   4.543 -0.0775 -0.8572  0.3245
 8131SOL    HW135852   4.116   2.472   4.608  0.1500 -0.8771  0.0728
 8131SOL    HW235853   3.974   2.438   4.589  0.0591 -2.2301 -0.7501
 8132SOL     OW35854   1.528   1.335   7.879 -0.2989 -0.1623 -0.0846
 8132SOL    HW135855   1.483   1.363   7.959 -0.2578  2.9373 -1.1316
 8132SOL    HW235856   1.618   1.365   7.890 -0.2320  0.4035 -2.1802
 8133SOL     OW35857   0.461   2.843   0.960 -0.2803 -0.0528 -0.5833
 8133SOL    HW135858   0.439   2.809   1.047  0.2431  0.2468 -0.3369
 8133SOL    HW235859   0.374   2.879   0.942  0.0900  0.9712 -0.2863
 8134SOL     OW35860   2.475   4.453   7.451  0.1746 -0.5741  0.3469
 8134SOL    HW135861   2.416   4.380   7.432 -0.3616 -0.2451  0.7464
 8134SOL    HW235862   2.451   4.462   7.544 -0.2262  0.1345  0.1746
 8135SOL     OW35863   2.777   1.365   5.144  0.8310 -0.5820 -0.2301
 8135SOL    HW135864   2.860   1.396   5.108  0.4983 -1.1226 -1.4656
 8135SOL    HW235865   2.752   1.451   5.176  0.1843 -1.3556  1.3880
 8136SOL     OW35866   3.132   3.529   0.246 -0.3871  0.9584  0.6965
 8136SOL    HW135867   3.139   3.471   0.321  1.1172  0.4152  0.1378
 8136SOL    HW235868   3.071   3.594   0.281 -1.1442 -1.7295  4.3890
 8137SOL     OW35869   3.341   2.321   4.075  0.5552 -0.5528 -0.5001
 8137SOL    HW135870   3.285   2.355   4.006 -1.4769  0.7113  1.7749
 8137SOL    HW235871   3.415   2.380   4.060 -0.9898  1.4350 -0.2211
 8138SOL     OW35872   3.896   1.054   0.861 -0.0755 -0.0279  0.5911
 8138SOL    HW135873   3.860   1.080   0.946  0.8717  0.1991  0.9193
 8138SOL    HW235874   3.990   1.053   0.878 -0.4210  2.0444  2.6104
 8139SOL     OW35875   3.073   1.545   6.190  0.9831  0.3351  0.4754
 8139SOL    HW135876   3.092   1.492   6.267  0.3748 -2.1070 -1.0294
 8139SOL    HW235877   3.158   1.584   6.171  1.3236 -1.2840 -1.2861
 8140SOL     OW35878   3.645   0.037   7.239  0.0169  0.2937  0.2420
 8140SOL    HW135879   3.572   0.088   7.274  1.0687  2.5001 -0.7843
 8140SOL    HW235880   3.716   0.066   7.296  0.1142 -0.9723  0.7848
 8141SOL     OW35881   4.015   1.083   9.689 -0.0774  0.0846  0.1465
 8141SOL    HW135882   4.029   1.140   9.764  0.0387  0.8975 -0.4898
 8141SOL    HW235883   4.075   1.120   9.625  0.7082 -0.6843  0.4348
 8142SOL     OW35884   1.687   3.673   2.264 -0.0188  0.1756 -0.1627
 8142SOL    HW135885   1.597   3.704   2.260 -0.3599 -0.7894 -0.1104
 8142SOL    HW235886   1.709   3.706   2.351 -1.7736 -2.0814  1.1387
 8143SOL     OW35887   1.775   4.447   3.563 -0.5116 -0.0465 -0.1740
 8143SOL    HW135888   1.680   4.459   3.562 -0.1294  2.9284  0.5876
 8143SOL    HW235889   1.787   4.442   3.468  0.9747  1.4177 -0.0610
 8144SOL     OW35890   1.588   0.799   4.287 -0.0605  0.3159 -0.1753
 8144SOL    HW135891   1.646   0.725   4.271 -0.3879 -0.3017  1.4632
 8144SOL    HW235892   1.641   0.878   4.275 -0.9325  0.5701 -2.2701
 8145SOL     OW35893   3.327   1.730   5.005  0.0054 -0.3584  0.6761
 8145SOL    HW135894   3.355   1.802   4.948 -2.2296  0.8827  1.1635
 8145SOL    HW235895   3.386   1.656   4.987  0.6856  0.4949 -0.6021
 8146SOL     OW35896   1.333   2.509   4.844  0.6032  0.0616  0.0762
 8146SOL    HW135897   1.403   2.480   4.784 -1.2894 -0.3454 -1.9465
 8146SOL    HW235898   1.300   2.575   4.783 -3.2418 -0.3185  1.7490
 8147SOL     OW35899   4.680   3.625   3.775 -0.0036 -0.1609  0.0254
 8147SOL    HW135900   4.700   3.709   3.816 -0.9421  0.6583 -1.2051
 8147SOL    HW235901   4.593   3.644   3.739  0.6845 -3.7083 -3.4927
 8148SOL     OW35902   2.846   0.138   3.304  0.6391 -0.0389  0.1777
 8148SOL    HW135903   2.892   0.078   3.245 -1.4266  0.0539 -1.5019
 8148SOL    HW235904   2.757   0.126   3.272  0.8887 -2.4102  0.3345
 8149SOL     OW35905   2.991   2.428   5.649 -0.4222  0.0300  0.5536
 8149SOL    HW135906   3.086   2.437   5.655 -0.3402  1.1444 -2.1770
 8149SOL    HW235907   2.973   2.476   5.730  0.7110  0.6015  0.4758
 8150SOL     OW35908   1.618   4.637   5.666 -0.7297  0.4392  0.0400
 8150SOL    HW135909   1.557   4.567   5.690  0.4794 -0.9664 -1.0053
 8150SOL    HW235910   1.692   4.591   5.626  0.3673 -0.0717  2.6739
 8151SOL     OW35911   1.296   0.304   1.072  0.6316  0.4451  0.7504
 8151SOL    HW135912   1.236   0.255   1.015  0.6855  1.8950 -0.5544
 8151SOL    HW235913   1.236   0.372   1.100  0.0191  0.0033  0.5076
 8152SOL     OW35914   2.877   3.803   6.660 -0.4668 -0.4062 -0.0314
 8152SOL    HW135915   2.883   3.795   6.564  2.4994  0.0233  0.1066
 8152SOL    HW235916   2.915   3.890   6.666 -1.3746 -0.0239  0.1654
 8153SOL     OW35917   0.386   1.482   7.853 -0.1644 -0.4422 -0.7266
 8153SOL    HW135918   0.407   1.561   7.903  1.4514 -0.8066 -0.8297
 8153SOL    HW235919   0.336   1.438   7.922 -0.2148 -0.1782 -0.5961
 8154SOL     OW35920   0.314   4.325   0.706  0.0173  0.2768 -0.3404
 8154SOL    HW135921   0.231   4.347   0.664  0.6897  1.1996 -1.1953
 8154SOL    HW235922   0.340   4.410   0.741 -1.6372  0.6648 -0.0575
 8155SOL     OW35923   3.315   4.468   9.578 -0.1035 -0.0390  0.2567
 8155SOL    HW135924   3.258   4.393   9.561  0.2274 -0.6191  1.7807
 8155SOL    HW235925   3.307   4.508   9.491 -0.8170 -1.4000 -0.3079
 8156SOL     OW35926   2.779   3.564   8.056 -0.2078 -0.3015 -0.3403
 8156SOL    HW135927   2.721   3.573   7.981 -0.7130 -2.9413 -0.2832
 8156SOL    HW235928   2.736   3.495   8.107 -0.3272 -0.5656 -0.8006
 8157SOL     OW35929   2.112   0.351  16.963 -0.5193 -0.3730  0.1346
 8157SOL    HW135930   2.070   0.306  16.889  0.2742  0.5473 -0.8723
 8157SOL    HW235931   2.038   0.395  17.006  0.2308  1.2321 -0.2033
 8158SOL     OW35932   3.007   1.590   2.271  0.5580 -0.4776 -0.2941
 8158SOL    HW135933   3.015   1.684   2.253  1.0828 -0.1444  1.6939
 8158SOL    HW235934   3.072   1.585   2.342  0.6538 -2.3528 -0.5075
 8159SOL     OW35935   0.786   2.575   4.607  0.4471 -0.1252 -0.4076
 8159SOL    HW135936   0.709   2.528   4.638  0.0323 -0.3109 -1.7435
 8159SOL    HW235937   0.786   2.655   4.659 -2.8710  0.9763 -2.1476
 8160SOL     OW35938   0.487   0.047   2.219 -0.0780  0.0544 -0.5577
 8160SOL    HW135939   0.492   0.006   2.132 -1.2199 -0.3948 -0.4203
 8160SOL    HW235940   0.564   0.010   2.261  0.1184  1.0446 -0.0549
 8161SOL     OW35941   1.504   1.819   7.024 -0.1158 -0.0332 -0.4470
 8161SOL    HW135942   1.439   1.833   7.093 -0.9724 -0.3546 -1.1830
 8161SOL    HW235943   1.456   1.765   6.960 -1.6256 -0.1389  0.7674
 8162SOL     OW35944   4.173   1.481   6.996  0.4415  0.6363 -0.2751
 8162SOL    HW135945   4.215   1.395   7.006 -3.0313 -0.9102  0.9309
 8162SOL    HW235946   4.102   1.455   6.938  0.9402  1.0633 -1.0775
 8163SOL     OW35947   4.379   0.458  13.249  0.1019 -0.0105 -0.1222
 8163SOL    HW135948   4.395   0.467  13.343 -2.8456  0.5534  0.3091
 8163SOL    HW235949   4.466   0.482  13.217  0.7002 -0.1105  1.4484
 8164SOL     OW35950   0.716   4.121   4.729  0.4402 -0.4276  0.1021
 8164SOL    HW135951   0.777   4.050   4.750  2.5982  1.0479 -1.2386
 8164SOL    HW235952   0.779   4.182   4.693 -1.1215  2.6753  2.6330
 8165SOL     OW35953   0.003   2.184   2.457 -0.6076  0.4372 -0.7366
 8165SOL    HW135954   0.037   2.139   2.381  1.2475  1.1153 -0.2996
 8165SOL    HW235955   4.646   2.226   2.427 -0.1250  0.6484 -1.7167
 8166SOL     OW35956   0.536   0.609   2.750 -0.0954  0.2713 -0.1656
 8166SOL    HW135957   0.608   0.626   2.688  0.7893 -2.6624  0.0648
 8166SOL    HW235958   0.501   0.521   2.737 -0.7514  0.3505  1.0748
 8167SOL     OW35959   4.439   3.269   4.107 -0.3235 -0.3210 -0.1322
 8167SOL    HW135960   4.360   3.249   4.157 -0.0464 -0.9843  0.0413
 8167SOL    HW235961   4.501   3.215   4.155 -1.3085 -0.5948  0.8282
 8168SOL     OW35962   4.201   2.073  16.232 -0.2548 -0.1878  0.2264
 8168SOL    HW135963   4.126   2.131  16.247  1.1950  1.3628  1.4312
 8168SOL    HW235964   4.183   2.011  16.302  1.1230 -2.2285 -1.2228
 8169SOL     OW35965   0.816   1.505  15.362 -0.5816 -0.0365  0.1498
 8169SOL    HW135966   0.813   1.483  15.455 -2.7160 -0.4111 -0.0121
 8169SOL    HW235967   0.784   1.595  15.363  0.7526  0.4248  1.4109
 8170SOL     OW35968   3.863   2.776   2.246  0.0010  0.2528  0.0118
 8170SOL    HW135969   3.840   2.811   2.160  0.5351 -2.1940 -1.1553
 8170SOL    HW235970   3.820   2.690   2.237  0.5012  0.1334 -1.2632
 8171SOL     OW35971   3.002   1.093   1.271 -0.0343  0.1465 -0.2912
 8171SOL    HW135972   3.069   1.125   1.211 -0.5335 -1.1652 -1.5720
 8171SOL    HW235973   3.050   1.019   1.309 -0.9843 -0.0350  0.5547
 8172SOL     OW35974   0.218   4.309   4.628  0.2920 -0.3595 -0.0126
 8172SOL    HW135975   0.149   4.339   4.687 -0.4142 -0.9364 -0.5488
 8172SOL    HW235976   0.284   4.375   4.646 -2.1264  1.5232  1.8532
 8173SOL     OW35977   1.766   2.302   5.343 -0.1215  0.7207  0.2855
 8173SOL    HW135978   1.702   2.346   5.288 -2.0089 -2.1773  0.1759
 8173SOL    HW235979   1.735   2.332   5.428  0.2751 -2.2257  1.4528
 8174SOL     OW35980   2.638   2.388   8.786 -0.2245  0.3996 -0.3456
 8174SOL    HW135981   2.544   2.402   8.794  0.0183  0.9554  1.5323
 8174SOL    HW235982   2.661   2.395   8.693  2.4359  1.0609  0.3618
 8175SOL     OW35983   3.185   2.765  11.733  0.2492  0.1122  0.2897
 8175SOL    HW135984   3.265   2.818  11.742 -0.4928  0.8235  2.6425
 8175SOL    HW235985   3.116   2.824  11.706 -0.5420  0.6674  3.5303
 8176SOL     OW35986   4.119   2.502  10.485 -0.4602  0.0139  0.5733
 8176SOL    HW135987   4.038   2.488  10.534 -0.2912  1.5608  1.3100
 8176SOL    HW235988   4.083   2.520  10.398 -0.6861  1.1997  0.9127
 8177SOL     OW35989   2.238   3.816   8.000 -0.3026 -0.3384 -0.0098
 8177SOL    HW135990   2.248   3.791   8.092 -0.9218  1.2680  0.4943
 8177SOL    HW235991   2.308   3.881   7.994  0.7839 -1.3688  1.5510
 8178SOL     OW35992   4.661   1.646   9.320 -0.3321  0.4487 -0.1168
 8178SOL    HW135993   4.605   1.687   9.386  0.5973 -2.2704  2.3564
 8178SOL    HW235994   4.594   1.590   9.283  0.2563  0.4541 -1.1814
 8179SOL     OW35995   1.858   0.719  17.198 -0.0052 -0.1847  0.0785
 8179SOL    HW135996   1.801   0.777  17.248  1.0290  1.7623 -0.9973
 8179SOL    HW235997   1.943   0.763  17.206  1.0910 -2.2896  0.0106
 8180SOL     OW35998   4.246   2.873   3.511  0.0264  0.3852  0.2425
 8180SOL    HW135999   4.180   2.935   3.481 -0.8264  0.5370  2.4704
 8180SOL    HW236000   4.266   2.820   3.433  1.0395  2.4783 -0.9251
 8181SOL     OW36001   0.271   3.785   5.034  0.2788 -0.1401 -0.1738
 8181SOL    HW136002   0.349   3.757   5.082  0.7636  3.4435  1.1318
 8181SOL    HW236003   0.232   3.699   5.044  1.6551 -0.4106  2.9542
 8182SOL     OW36004   2.055   3.285   2.939  0.0109 -0.2400  0.6580
 8182SOL    HW136005   2.090   3.367   2.975  1.2623 -0.3272 -0.3347
 8182SOL    HW236006   1.997   3.317   2.870  0.9400 -2.5242 -1.1900
 8183SOL     OW36007   0.113   1.948  11.962 -0.0034  0.3258 -0.1172
 8183SOL    HW136008   0.180   1.889  11.929  0.9285  1.2115  0.1602
 8183SOL    HW236009   0.115   2.021  11.900 -0.0956  1.5948  1.3573
 8184SOL     OW36010   1.856   2.231   8.121  0.0930  0.0590 -0.3460
 8184SOL    HW136011   1.925   2.291   8.148  0.0445 -0.6560  1.4104
 8184SOL    HW236012   1.794   2.225   8.194 -0.3551 -1.7860 -0.8749
 8185SOL     OW36013   1.133   2.862   6.617 -0.2709 -0.5395 -0.2036
 8185SOL    HW136014   1.208   2.830   6.667  0.6948  0.0419 -1.3002
 8185SOL    HW236015   1.069   2.794   6.638  1.0600 -1.5604  0.5188
 8186SOL     OW36016   4.144   4.354   2.161  0.3745 -0.2185 -0.6734
 8186SOL    HW136017   4.129   4.441   2.123 -1.5713 -0.3854 -0.2598
 8186SOL    HW236018   4.080   4.304   2.111  1.1067 -1.4469 -0.3840
 8187SOL     OW36019   0.083   2.222   6.216  0.1350 -0.2331  0.2199
 8187SOL    HW136020   0.110   2.311   6.237 -1.1924  0.3823 -0.7283
 8187SOL    HW236021   0.167   2.198   6.177 -0.3938  0.9451 -1.5982
 8188SOL     OW36022   1.263   3.640   3.648  0.1625  0.3919 -0.2836
 8188SOL    HW136023   1.251   3.567   3.708 -0.3648  0.6283 -0.0976
 8188SOL    HW236024   1.179   3.643   3.604 -0.0008  0.0152  0.0015
 8189SOL     OW36025   1.134   2.927   5.088  0.1220  0.2574 -0.0603
 8189SOL    HW136026   1.214   2.877   5.069 -0.4690 -0.9249  0.5630
 8189SOL    HW236027   1.158   2.965   5.173  1.9225  0.3733 -0.6205
 8190SOL     OW36028   3.836   3.921   7.197  0.3780 -0.0064  0.1010
 8190SOL    HW136029   3.823   3.832   7.232 -1.3405  1.1061  2.2956
 8190SOL    HW236030   3.915   3.906   7.144  0.8391  1.1505  0.4603
 8191SOL     OW36031   0.123   0.527   7.364  0.0335 -0.2585 -0.2064
 8191SOL    HW136032   0.068   0.486   7.431 -0.3356  0.5744 -0.0029
 8191SOL    HW236033   0.192   0.569   7.415 -0.2192 -1.1653  0.8631
 8192SOL     OW36034   2.433   0.794   3.645 -0.0104 -0.5662  0.0516
 8192SOL    HW136035   2.442   0.705   3.612  0.4777 -0.6115  0.3140
 8192SOL    HW236036   2.439   0.849   3.567  1.3691 -1.9953 -0.8464
 8193SOL     OW36037   0.007   3.905   7.149  0.5983  0.3456 -0.5263
 8193SOL    HW136038   4.696   3.987   7.184 -1.0420  0.4522 -2.4320
 8193SOL    HW236039   0.083   3.932   7.097 -0.3840  0.8760 -1.6839
 8194SOL     OW36040   1.321   1.177   5.561 -0.5100 -0.4196  0.0175
 8194SOL    HW136041   1.314   1.202   5.469  2.2189 -0.0264 -0.0823
 8194SOL    HW236042   1.347   1.261   5.597 -1.0619 -0.8965  1.5379
 8195SOL     OW36043   1.402   2.012   4.691 -0.1408 -0.1882  0.1653
 8195SOL    HW136044   1.496   2.008   4.709 -0.2748  0.3363  0.9964
 8195SOL    HW236045   1.403   1.987   4.599 -0.4449 -0.1905  0.1639
 8196SOL     OW36046   0.553   3.290   0.886  0.3801  0.0141 -0.0433
 8196SOL    HW136047   0.607   3.251   0.817 -0.2855  0.8494 -1.0240
 8196SOL    HW236048   0.611   3.263   0.957  0.6148  0.4125 -0.0850
 8197SOL     OW36049   2.929   0.945   9.302  0.7303  0.3114  0.2342
 8197SOL    HW136050   2.943   1.034   9.333 -1.2405 -0.1228  2.3690
 8197SOL    HW236051   2.984   0.897   9.364 -1.1293  1.9331  3.1848
 8198SOL     OW36052   0.023   2.228   5.433 -0.1865  0.2612  0.3308
 8198SOL    HW136053   4.681   2.170   5.471  0.3243 -0.2294  0.4715
 8198SOL    HW236054   0.048   2.287   5.504 -0.3215  0.9727 -0.2130
 8199SOL     OW36055   1.454   0.235   6.338  0.2027 -0.1071 -0.0401
 8199SOL    HW136056   1.372   0.270   6.374  1.6980  3.8167 -0.4865
 8199SOL    HW236057   1.418   0.172   6.275  1.8372 -1.0006 -0.0680
 8200SOL     OW36058   1.140   3.497  12.759  0.1381 -0.2570 -0.0581
 8200SOL    HW136059   1.051   3.461  12.755  0.1785 -0.3509 -0.1039
 8200SOL    HW236060   1.130   3.572  12.701 -1.6929 -0.5668 -0.1309
 8201SOL     OW36061   2.634   1.117  11.101  0.0869 -0.0847  0.0946
 8201SOL    HW136062   2.635   1.170  11.180 -0.4045 -2.5218  1.7456
 8201SOL    HW236063   2.570   1.170  11.054  0.0737 -2.9558 -3.1562
 8202SOL     OW36064   4.079   3.635   3.190 -0.0958  0.4142  0.4097
 8202SOL    HW136065   4.054   3.585   3.112  1.1646  0.5984 -0.0985
 8202SOL    HW236066   4.028   3.715   3.180  0.5656  0.8617  0.6233
 8203SOL     OW36067   2.748   4.029  12.957  0.5189  0.1372 -0.0010
 8203SOL    HW136068   2.695   3.951  12.943 -0.4502  0.8272 -0.1639
 8203SOL    HW236069   2.807   3.991  13.022 -0.3681  0.1331  0.8075
 8204SOL     OW36070   0.243   1.848  12.585  0.3522 -0.8694  0.2215
 8204SOL    HW136071   0.162   1.811  12.550  1.0625 -0.6596 -1.6558
 8204SOL    HW236072   0.302   1.843  12.510  0.1172  1.5865 -0.1038
 8205SOL     OW36073   0.994   0.760   8.164 -0.4185 -0.3735 -0.2758
 8205SOL    HW136074   0.992   0.688   8.226 -1.5495 -0.9346 -0.9675
 8205SOL    HW236075   0.903   0.754   8.136 -0.7946  3.6251 -0.0142
 8206SOL     OW36076   3.810   0.015   0.406  0.3143 -0.0142 -0.0312
 8206SOL    HW136077   3.844   4.676   0.469  0.5517  0.3443  0.1986
 8206SOL    HW236078   3.805   0.093   0.461  1.6721 -1.0203  1.4974
 8207SOL     OW36079   4.071   4.090   3.411  0.0972  0.9258 -0.0807
 8207SOL    HW136080   4.015   4.141   3.354  0.2315 -1.7375 -2.6075
 8207SOL    HW236081   4.156   4.086   3.366 -0.0658  1.9915 -0.4764
 8208SOL     OW36082   1.681   4.334   5.957 -0.2767 -0.1547  0.5003
 8208SOL    HW136083   1.715   4.309   5.871  0.6642  2.5075  0.1016
 8208SOL    HW236084   1.761   4.359   6.002  1.6916 -2.1212 -1.9007
 8209SOL     OW36085   0.691   3.339   4.872 -0.6256 -0.0234 -0.4167
 8209SOL    HW136086   0.759   3.308   4.813  0.6591 -1.8859  2.0598
 8209SOL    HW236087   0.746   3.354   4.948 -1.2351  0.3380 -0.0452
 8210SOL     OW36088   2.939   4.035  10.416  0.6445 -0.1035  0.3122
 8210SOL    HW136089   3.016   4.002  10.369  0.1678 -0.5665 -0.1494
 8210SOL    HW236090   2.954   4.128  10.433  1.4794 -0.4676  1.5727
 8211SOL     OW36091   1.491   1.904   9.863  0.4237  0.2792  0.0087
 8211SOL    HW136092   1.565   1.908   9.925 -1.1119 -2.0242  1.9720
 8211SOL    HW236093   1.523   1.954   9.788  0.6630  1.8246  1.1252
 8212SOL     OW36094   1.009   2.921  12.463  0.0257 -0.2727  0.3558
 8212SOL    HW136095   1.050   2.835  12.461 -2.9426 -1.6608 -0.5885
 8212SOL    HW236096   0.936   2.900  12.521  0.8989  0.4259  1.7172
 8213SOL     OW36097   2.996   2.574   7.098  0.3750  0.0099  0.8808
 8213SOL    HW136098   2.981   2.483   7.073  3.2500 -0.4801  0.8905
 8213SOL    HW236099   2.982   2.616   7.014 -1.5046  1.8694  2.1264
 8214SOL     OW36100   3.451   3.305   2.270 -0.4290 -0.2398 -0.2492
 8214SOL    HW136101   3.449   3.213   2.244  0.0538 -0.9129  2.1316
 8214SOL    HW236102   3.480   3.312   2.361  0.7637 -0.4684 -0.6060
 8215SOL     OW36103   3.039   2.602   3.802  0.0234  0.1295 -0.3045
 8215SOL    HW136104   2.949   2.570   3.791 -0.0315  0.3283 -0.4290
 8215SOL    HW236105   3.032   2.676   3.742 -3.1104  1.1899  1.4203
 8216SOL     OW36106   1.856   0.513   3.450 -0.1604  0.0237  0.0327
 8216SOL    HW136107   1.796   0.494   3.522  0.2754  0.6282  0.5476
 8216SOL    HW236108   1.860   0.606   3.471 -0.3715 -0.0029  0.1814
 8217SOL     OW36109   0.993   0.613   6.612 -0.1237  0.6967  0.3499
 8217SOL    HW136110   0.959   0.689   6.660 -1.6870  0.3928 -0.2866
 8217SOL    HW236111   0.930   0.614   6.540  1.4123  2.1723 -0.9771
 8218SOL     OW36112   2.406   4.585   4.814  0.0669 -0.2055  0.1612
 8218SOL    HW136113   2.387   4.493   4.830 -1.2300  0.8695  4.6121
 8218SOL    HW236114   2.477   4.578   4.750 -0.7957  1.9792 -1.0681
 8219SOL     OW36115   1.029   3.227  10.852 -0.0554 -0.4062 -0.4069
 8219SOL    HW136116   1.036   3.172  10.930 -0.0039  1.3142  0.8071
 8219SOL    HW236117   1.073   3.302  10.894  1.6454 -2.5397  1.5814
 8220SOL     OW36118   3.926   2.954  15.726  0.2522  0.5531 -0.0058
 8220SOL    HW136119   3.998   2.914  15.776 -0.6727 -0.1191  0.7977
 8220SOL    HW236120   3.961   2.946  15.637 -0.1775  0.3291 -0.1561
 8221SOL     OW36121   4.287   4.592   3.236  0.4963 -0.1321  0.1420
 8221SOL    HW136122   4.250   4.638   3.160 -0.2910 -1.3292 -0.1978
 8221SOL    HW236123   4.208   4.546   3.263 -0.1375 -0.3117 -1.9688
 8222SOL     OW36124   4.264   0.517   3.932 -0.0565  0.3124 -0.2379
 8222SOL    HW136125   4.196   0.584   3.923  0.9935  1.6084  1.5307
 8222SOL    HW236126   4.343   0.557   3.896 -0.5374 -1.9135 -3.7946
 8223SOL     OW36127   0.761   4.011  11.949  0.1078 -0.1787  0.7919
 8223SOL    HW136128   0.761   4.100  11.915  1.6593 -1.2711 -2.1406
 8223SOL    HW236129   0.822   3.968  11.888 -0.9319 -0.8026  0.1843
 8224SOL     OW36130   3.056   4.599   0.943 -0.0524 -0.3801  0.1157
 8224SOL    HW136131   3.039   4.609   1.037 -2.4354  0.1554 -0.3749
 8224SOL    HW236132   2.976   4.643   0.917  2.0369  2.8367 -0.9252
 8225SOL     OW36133   0.184   2.567   5.547 -0.0200 -0.2360  0.0504
 8225SOL    HW136134   0.151   2.631   5.484  0.8548  0.0286 -0.1459
 8225SOL    HW236135   0.157   2.602   5.632 -1.3218 -0.0007 -0.4533
 8226SOL     OW36136   1.443   1.192   5.917  0.4409 -0.7769  0.7727
 8226SOL    HW136137   1.349   1.173   5.910  0.1759 -0.0279  2.3558
 8226SOL    HW236138   1.475   1.106   5.945 -0.1152 -1.0934  0.4346
 8227SOL     OW36139   4.005   3.935   5.540  0.3842 -0.4281 -0.5695
 8227SOL    HW136140   4.029   3.979   5.458 -2.2338  0.0914 -1.0549
 8227SOL    HW236141   3.928   3.986   5.567 -0.8412 -2.2485 -0.6572
 8228SOL     OW36142   1.303   3.161   5.591 -0.1544  0.2083  0.3651
 8228SOL    HW136143   1.287   3.082   5.644  1.4381 -1.3182 -1.4497
 8228SOL    HW236144   1.394   3.184   5.609 -0.2810  2.4974 -1.9221
 8229SOL     OW36145   3.981   4.478  12.966 -0.1550 -0.0893  0.5500
 8229SOL    HW136146   4.027   4.404  13.005 -1.9265 -0.8966  1.0911
 8229SOL    HW236147   4.037   4.556  12.966  2.0252 -1.6695 -0.2484
 8230SOL     OW36148   4.670   3.339  10.675 -0.5758  0.5561 -0.4347
 8230SOL    HW136149   0.033   3.316  10.645  0.6442  2.6073  1.5404
 8230SOL    HW236150   4.658   3.427  10.639 -0.8115 -0.0397 -1.8094
 8231SOL     OW36151   2.966   2.263   2.024 -0.8830 -0.1669 -0.4407
 8231SOL    HW136152   2.991   2.243   1.934 -0.4975 -0.2463 -0.3184
 8231SOL    HW236153   3.028   2.331   2.050  0.2546 -1.4556  0.2605
 8232SOL     OW36154   1.119   3.494  13.254  0.3252 -0.2506 -0.0019
 8232SOL    HW136155   1.138   3.580  13.217  0.7121  0.7651  2.5602
 8232SOL    HW236156   1.065   3.459  13.183 -0.8732  0.8891  0.3258
 8233SOL     OW36157   3.271   3.483   6.137  0.2257  0.1834 -0.5382
 8233SOL    HW136158   3.222   3.532   6.071  0.5386  1.5571  0.2602
 8233SOL    HW236159   3.212   3.409   6.151  0.4169 -0.3890 -2.6978
 8234SOL     OW36160   0.695   0.140  10.256  0.4342 -0.1342  0.3677
 8234SOL    HW136161   0.643   0.064  10.231 -0.2605 -0.0138  1.4777
 8234SOL    HW236162   0.764   0.147  10.189  0.2162 -0.2592  0.1288
 8235SOL     OW36163   2.266   0.789   6.137  0.4813 -0.0131 -0.3731
 8235SOL    HW136164   2.335   0.811   6.073  0.7327  1.0560  0.2691
 8235SOL    HW236165   2.241   0.698   6.121 -0.9562  0.4906 -0.9494
 8236SOL     OW36166   0.695   0.106   5.908 -0.0772  1.0423  0.0630
 8236SOL    HW136167   0.642   0.166   5.855 -0.0400  0.2271 -0.8900
 8236SOL    HW236168   0.781   0.142   5.888  0.5048  1.4007  3.1160
 8237SOL     OW36169   4.657   0.521   6.338  0.0367  0.1650 -0.0539
 8237SOL    HW136170   4.602   0.599   6.330 -0.4619 -0.2953 -1.1122
 8237SOL    HW236171   4.681   0.516   6.430  2.8838  0.2590 -0.7809
 8238SOL     OW36172   1.665   4.632   0.865 -0.4117 -0.6360  0.3574
 8238SOL    HW136173   1.741   4.580   0.840 -1.3981 -2.4767  1.1654
 8238SOL    HW236174   1.591   4.572   0.869 -0.5780 -0.5684 -1.7440
 8239SOL     OW36175   1.934   1.790   0.877 -0.0342  0.5084 -0.6159
 8239SOL    HW136176   1.872   1.824   0.813 -1.9529  1.5521  1.8082
 8239SOL    HW236177   1.917   1.856   0.944  0.6600  0.3777 -0.3115
 8240SOL     OW36178   0.337   1.142   2.874 -0.0165 -0.2233 -0.0119
 8240SOL    HW136179   0.383   1.170   2.794 -0.3039  0.5488  0.0895
 8240SOL    HW236180   0.421   1.116   2.912  0.9527 -0.4816 -2.2875
 8241SOL     OW36181   2.986   4.351   7.413 -0.1169 -0.4867  0.3708
 8241SOL    HW136182   2.975   4.298   7.492 -0.0674 -2.0962 -0.7247
 8241SOL    HW236183   2.911   4.407   7.434  1.3036  0.5522  2.7398
 8242SOL     OW36184   2.505   1.870   1.320 -0.3124 -1.0658 -0.0294
 8242SOL    HW136185   2.440   1.895   1.255  0.3352  0.3147 -0.1550
 8242SOL    HW236186   2.526   1.960   1.344 -1.2390 -0.6818 -0.6489
 8243SOL     OW36187   3.198   3.499  14.131 -0.0051  0.0596  0.1936
 8243SOL    HW136188   3.189   3.499  14.226  1.3137  0.3128  0.3052
 8243SOL    HW236189   3.105   3.479  14.113 -0.4373  1.3944  0.9932
 8244SOL     OW36190   3.342   1.240   1.275 -0.5538  0.4365  0.1800
 8244SOL    HW136191   3.289   1.220   1.197 -0.1678  1.9012 -0.4504
 8244SOL    HW236192   3.272   1.257   1.338 -0.6155 -1.4847  0.6314
 8245SOL     OW36193   4.113   1.325   6.652  0.6495 -0.3521  0.3348
 8245SOL    HW136194   4.195   1.372   6.634  0.5741 -0.0248  0.8480
 8245SOL    HW236195   4.111   1.258   6.584 -0.3658  0.3338 -0.3019
 8246SOL     OW36196   3.639   3.851   0.359 -0.0714 -0.4408  0.3576
 8246SOL    HW136197   3.678   3.928   0.316 -0.4479 -0.4777 -0.0423
 8246SOL    HW236198   3.682   3.856   0.444 -2.3040 -0.7601  1.4917
 8247SOL     OW36199   1.278   0.275  13.645 -0.3963 -0.2599  0.0595
 8247SOL    HW136200   1.251   0.188  13.618  0.3877 -0.0671 -1.3598
 8247SOL    HW236201   1.321   0.258  13.729 -0.3492  0.8896  0.2751
 8248SOL     OW36202   4.460   0.347   4.816 -0.1516 -0.2574 -0.4068
 8248SOL    HW136203   4.370   0.316   4.810 -0.3327 -0.1097  1.3955
 8248SOL    HW236204   4.446   0.440   4.837  2.0614 -0.3588  1.5686
 8249SOL     OW36205   1.287   3.023   6.427 -0.3992  0.3303 -0.0618
 8249SOL    HW136206   1.232   2.961   6.475  1.1650 -0.2937  0.9418
 8249SOL    HW236207   1.264   2.996   6.338 -2.2086 -2.6256  1.3136
 8250SOL     OW36208   0.119   2.649   1.566 -0.1307 -0.3617 -0.0345
 8250SOL    HW136209   0.145   2.734   1.600  1.1838 -1.2509  1.1504
 8250SOL    HW236210   0.097   2.603   1.647  2.1339  1.1923  1.4510
 8251SOL     OW36211   1.111   3.593   5.001  0.4139  0.0001 -0.6220
 8251SOL    HW136212   1.179   3.660   5.001 -0.6533  1.0710 -1.1793
 8251SOL    HW236213   1.152   3.508   5.017 -0.9228 -0.7744 -1.2710
 8252SOL     OW36214   0.644   1.245   7.910  0.2117 -0.3495 -0.1945
 8252SOL    HW136215   0.632   1.173   7.848  0.6546 -0.8763  0.3278
 8252SOL    HW236216   0.654   1.184   7.983  2.2748  0.6070  0.3395
 8253SOL     OW36217   0.111   2.124   4.312 -0.3655  0.0607 -0.1306
 8253SOL    HW136218   0.192   2.087   4.277  1.0152  0.1254  3.0366
 8253SOL    HW236219   0.142   2.198   4.364 -4.3992  0.6478  1.4626
 8254SOL     OW36220   3.290   3.899  17.048  0.0475 -0.0224  0.0254
 8254SOL    HW136221   3.229   3.863  16.983 -0.0324  0.1808 -0.0112
 8254SOL    HW236222   3.224   3.924  17.112 -0.1091  1.4956 -0.7203
 8255SOL     OW36223   2.379   2.741  10.401 -1.0935  0.3425 -0.2308
 8255SOL    HW136224   2.380   2.650  10.429 -2.4379  0.2273 -0.5365
 8255SOL    HW236225   2.470   2.771  10.408 -0.7732 -0.4498 -1.1144
 8256SOL     OW36226   4.196   1.771  16.865  0.7456  0.1496  0.3984
 8256SOL    HW136227   4.106   1.786  16.893  1.3597  2.1116  1.3852
 8256SOL    HW236228   4.184   1.701  16.802  0.6353  0.3251  0.2235
 8257SOL     OW36229   3.251   0.341   7.161  0.2578 -0.4064  0.6510
 8257SOL    HW136230   3.338   0.363   7.127 -0.5909  0.6128 -0.8565
 8257SOL    HW236231   3.282   0.264   7.209 -2.6899 -2.2649 -0.4611
 8258SOL     OW36232   0.497   2.830   8.542  0.1714  0.6701  0.1924
 8258SOL    HW136233   0.472   2.810   8.632  0.2378 -1.6434 -0.3122
 8258SOL    HW236234   0.410   2.818   8.504 -0.8266  1.6225  2.1474
 8259SOL     OW36235   2.473   2.517   3.637 -0.3272  0.0727 -0.2412
 8259SOL    HW136236   2.455   2.500   3.729 -0.2815  1.8174  0.0940
 8259SOL    HW236237   2.455   2.428   3.607 -0.8377  0.1592 -0.2055
 8260SOL     OW36238   1.169   4.446  10.461 -0.5638 -0.1665 -0.7198
 8260SOL    HW136239   1.144   4.520  10.517 -0.5300 -1.0245  0.4306
 8260SOL    HW236240   1.184   4.495  10.380 -2.3101  2.5235  0.5694
 8261SOL     OW36241   0.801   3.441   8.290 -0.2591  0.2267  0.3255
 8261SOL    HW136242   0.828   3.367   8.344  0.3880 -1.0049 -1.6940
 8261SOL    HW236243   0.893   3.466   8.279 -0.0643 -1.0395 -0.8838
 8262SOL     OW36244   2.840   0.220   7.464 -0.1040 -0.0956 -0.3957
 8262SOL    HW136245   2.933   0.209   7.485 -0.1056  0.7595  0.0624
 8262SOL    HW236246   2.832   0.306   7.422  1.2015 -0.2455 -0.9634
 8263SOL     OW36247   3.036   0.900   7.761  0.4489 -0.6995 -0.1251
 8263SOL    HW136248   3.084   0.982   7.771 -1.7657  0.6305 -0.4798
 8263SOL    HW236249   3.090   0.842   7.815  0.3437 -1.2574 -0.6262
 8264SOL     OW36250   3.958   2.993   7.676 -0.1486 -0.1302 -0.1681
 8264SOL    HW136251   3.955   2.912   7.727 -1.5340  0.1445  0.1877
 8264SOL    HW236252   3.873   3.033   7.693  0.2773  1.8005 -2.4953
 8265SOL     OW36253   1.325   1.970   8.960  0.4355 -0.1662  0.1089
 8265SOL    HW136254   1.270   1.892   8.974 -1.3019  1.1587  0.7585
 8265SOL    HW236255   1.323   2.018   9.043 -1.5227 -0.5694  0.3061
 8266SOL     OW36256   1.474   2.929   2.402 -0.1291 -0.2359  0.8367
 8266SOL    HW136257   1.471   2.946   2.308 -2.0130 -1.9748  0.5802
 8266SOL    HW236258   1.497   3.018   2.428 -1.5162  0.5698 -0.7599
 8267SOL     OW36259   1.994   2.803   8.789 -0.2990  0.2273 -0.4185
 8267SOL    HW136260   1.926   2.782   8.853 -0.7426 -0.8704 -1.2413
 8267SOL    HW236261   1.994   2.899   8.783 -0.8639  0.2482 -0.0765
 8268SOL     OW36262   3.176   1.705  16.589 -0.0523  0.5141  0.0629
 8268SOL    HW136263   3.165   1.698  16.684 -0.5191  0.7414  0.0259
 8268SOL    HW236264   3.272   1.710  16.584  0.0864 -2.0407  0.4765
 8269SOL     OW36265   0.327   1.042   7.179  0.0296  0.5627 -0.6795
 8269SOL    HW136266   0.329   0.955   7.220 -1.3905  1.5589  1.4656
 8269SOL    HW236267   0.375   1.024   7.098  2.1070 -2.3949  1.1954
 8270SOL     OW36268   1.816   1.363   8.818 -0.2358 -0.0316  0.6462
 8270SOL    HW136269   1.856   1.410   8.745 -0.6296 -2.9341 -1.4116
 8270SOL    HW236270   1.726   1.370   8.786 -0.7695 -1.1330  1.9264
 8271SOL     OW36271   3.235   2.418  15.442  0.4345 -0.2671 -0.7723
 8271SOL    HW136272   3.221   2.348  15.506 -1.8087 -0.0567 -1.0447
 8271SOL    HW236273   3.228   2.379  15.354 -0.3611  1.5998 -1.5292
 8272SOL     OW36274   1.899   0.359   4.123 -0.5044  0.5216  0.1078
 8272SOL    HW136275   1.946   0.284   4.158 -2.3642 -1.3215 -1.3172
 8272SOL    HW236276   1.970   0.412   4.087 -0.5684  0.0797 -0.6834
 8273SOL     OW36277   1.476   3.109   9.863 -0.0458 -0.3849 -0.1905
 8273SOL    HW136278   1.483   3.055   9.942  0.2917 -0.1798 -0.0768
 8273SOL    HW236279   1.427   3.186   9.893  0.0973 -0.2435 -0.3235
 8274SOL     OW36280   1.291   4.153   6.156 -0.4737 -0.2776 -0.5797
 8274SOL    HW136281   1.364   4.183   6.102 -0.0572 -0.4021 -0.0865
 8274SOL    HW236282   1.336   4.122   6.235 -1.3941  1.0853  0.4893
 8275SOL     OW36283   2.178   3.860   6.880 -0.2175  0.6883  0.2359
 8275SOL    HW136284   2.169   3.845   6.974  0.2750 -0.0651  0.1610
 8275SOL    HW236285   2.183   3.955   6.870  2.4176  0.7755  2.3619
 8276SOL     OW36286   4.660   2.317  13.498 -0.2212 -0.1974  0.6957
 8276SOL    HW136287   4.610   2.312  13.579  0.4596 -1.1089  1.0597
 8276SOL    HW236288   0.026   2.310  13.530  0.1095 -1.4980 -0.4914
 8277SOL     OW36289   2.063   2.190  12.533  0.6860 -0.1180 -0.0180
 8277SOL    HW136290   1.994   2.152  12.588 -0.7362  1.1390 -0.9367
 8277SOL    HW236291   2.034   2.172  12.443  0.0047 -1.1890  0.4128
 8278SOL     OW36292   4.212   1.926   2.996 -0.2968 -0.0915 -0.1894
 8278SOL    HW136293   4.120   1.906   2.981 -0.3709 -1.4731  2.2002
 8278SOL    HW236294   4.228   1.853   3.055  1.2812  0.2461 -0.1944
 8279SOL     OW36295   1.284   3.641   0.247 -0.1317 -0.6697 -0.1391
 8279SOL    HW136296   1.290   3.612   0.338 -0.4732 -2.6227 -0.7345
 8279SOL    HW236297   1.193   3.620   0.226 -0.2426 -0.4715  0.1495
 8280SOL     OW36298   3.859   1.782  14.283 -0.3231 -0.5410  0.2856
 8280SOL    HW136299   3.847   1.840  14.358  1.1681 -0.3437  0.3726
 8280SOL    HW236300   3.815   1.838  14.218  0.8617  0.3536  0.2717
 8281SOL     OW36301   3.257   1.733   0.735 -0.3436  0.2819  0.0519
 8281SOL    HW136302   3.303   1.655   0.705 -0.5480 -0.5337  1.8396
 8281SOL    HW236303   3.214   1.696   0.812  0.4768 -3.2405 -1.1874
 8282SOL     OW36304   0.546   3.535   5.406 -0.2720  0.1279  0.1157
 8282SOL    HW136305   0.455   3.552   5.427 -0.7446 -1.9990 -0.2076
 8282SOL    HW236306   0.581   3.624   5.409 -0.4943  0.0878  3.1157
 8283SOL     OW36307   0.157   3.931   6.917  0.0523  0.4483  0.7160
 8283SOL    HW136308   0.161   4.009   6.861 -0.3741  0.3135  0.4978
 8283SOL    HW236309   0.114   3.872   6.855  0.3420  1.3707 -0.3798
 8284SOL     OW36310   4.469   2.458   6.686  0.0299  0.1014  0.1354
 8284SOL    HW136311   4.436   2.504   6.764  3.7639 -0.7160  2.1914
 8284SOL    HW236312   4.483   2.369   6.716 -0.4488 -0.0578 -0.1002
 8285SOL     OW36313   4.056   0.817   8.727 -0.9667 -0.3740  0.0846
 8285SOL    HW136314   4.050   0.815   8.631  0.6158 -0.6316 -0.0078
 8285SOL    HW236315   3.979   0.763   8.745 -1.4053 -1.4756 -5.0724
 8286SOL     OW36316   2.280   4.269   8.396  0.3438 -0.8275 -0.2512
 8286SOL    HW136317   2.275   4.173   8.404 -0.0310 -0.6176  2.1872
 8286SOL    HW236318   2.283   4.302   8.486 -0.2048  3.4601 -1.8410
 8287SOL     OW36319   3.664   2.896   9.446 -0.1654 -0.2009 -0.0021
 8287SOL    HW136320   3.757   2.886   9.464 -0.2861  2.0214  1.9416
 8287SOL    HW236321   3.644   2.981   9.406 -0.5762 -0.5188 -0.4767
 8288SOL     OW36322   1.454   2.021   5.357 -0.4565  0.4243 -0.3097
 8288SOL    HW136323   1.481   1.948   5.413  0.8338  1.3690  0.3040
 8288SOL    HW236324   1.520   2.011   5.288  0.9091 -0.2693  1.0790
 8289SOL     OW36325   2.762   2.078  16.679  0.3733 -0.4546 -0.5191
 8289SOL    HW136326   2.692   2.014  16.693 -0.5428  1.1459  2.1782
 8289SOL    HW236327   2.711   2.160  16.682  1.7052  0.2953  1.4904
 8290SOL     OW36328   4.223   2.285   4.983 -0.3318  0.1989 -0.1409
 8290SOL    HW136329   4.156   2.344   5.016 -1.2981 -0.6647 -0.5487
 8290SOL    HW236330   4.304   2.316   5.025 -0.2939 -0.5052  0.3117
 8291SOL     OW36331   1.625   1.908   8.008  0.1143  0.3156 -0.0950
 8291SOL    HW136332   1.577   1.834   7.970 -1.5561  1.8425 -0.9800
 8291SOL    HW236333   1.569   1.986   8.008 -1.0777 -0.5465 -1.3538
 8292SOL     OW36334   2.872   0.529   3.364  0.1654  0.1923 -0.6433
 8292SOL    HW136335   2.898   0.577   3.442  0.3816 -1.7893  0.5086
 8292SOL    HW236336   2.874   0.607   3.308 -0.0724  0.2756 -0.5350
 8293SOL     OW36337   3.504   0.289   6.121 -0.1087  0.5616  0.0725
 8293SOL    HW136338   3.417   0.251   6.109  1.5707 -3.7129  1.4123
 8293SOL    HW236339   3.503   0.366   6.063  1.1000  0.5775  0.0783
 8294SOL     OW36340   4.214   1.391   4.874  0.2795 -0.7086  0.4651
 8294SOL    HW136341   4.226   1.464   4.936  2.4719 -0.7654  0.0870
 8294SOL    HW236342   4.222   1.317   4.934 -1.0132 -0.7379  0.6097
 8295SOL     OW36343   3.716   3.621   3.037 -0.8408  0.0112 -0.0763
 8295SOL    HW136344   3.744   3.530   3.025  0.3298  0.2023  1.2109
 8295SOL    HW236345   3.646   3.612   3.101 -1.7191 -1.1201 -1.1951
 8296SOL     OW36346   2.046   2.187   3.348  0.0594  0.7102  0.2044
 8296SOL    HW136347   2.022   2.168   3.439 -0.3524 -2.5504 -0.5604
 8296SOL    HW236348   2.139   2.164   3.347 -0.3447 -1.0176  1.4300
 8297SOL     OW36349   1.690   0.361   9.529  0.4688  0.1491 -0.8263
 8297SOL    HW136350   1.763   0.339   9.472  2.2573  1.1213  1.1079
 8297SOL    HW236351   1.614   0.325   9.483  0.6181 -1.4140  0.1308
 8298SOL     OW36352   0.783   2.784   7.940  0.3996 -0.2234 -0.3106
 8298SOL    HW136353   0.839   2.764   8.015  0.7078  0.3007 -0.4037
 8298SOL    HW236354   0.701   2.775   7.989 -0.2066  0.5759 -1.1790
 8299SOL     OW36355   2.989   1.292   5.777  0.5307 -0.0326  0.6186
 8299SOL    HW136356   3.043   1.337   5.712  0.8875  0.0764  0.9935
 8299SOL    HW236357   3.065   1.250   5.816  0.9811 -0.6567 -0.9472
 8300SOL     OW36358   1.818   3.890   6.746 -0.2460 -0.0494  0.2453
 8300SOL    HW136359   1.859   3.946   6.679 -1.9746 -1.2272 -1.8080
 8300SOL    HW236360   1.815   3.954   6.816 -1.8006  0.0093  0.1230
 8301SOL     OW36361   1.938   0.804   6.347 -0.2301  0.6337 -0.1830
 8301SOL    HW136362   2.028   0.791   6.319  0.6790 -0.7355  3.4285
 8301SOL    HW236363   1.914   0.878   6.291 -1.1350 -0.0093 -0.6419
 8302SOL     OW36364   0.093   3.785  10.206 -0.6610  0.3968  0.3198
 8302SOL    HW136365   0.066   3.821  10.121 -1.9077 -1.1722  0.0477
 8302SOL    HW236366   0.028   3.813  10.272 -0.3872 -1.9087  1.5598
 8303SOL     OW36367   2.390   0.421   1.876  0.1072 -0.6416 -0.3728
 8303SOL    HW136368   2.449   0.386   1.943 -0.3494 -2.2523 -0.8199
 8303SOL    HW236369   2.310   0.374   1.900 -0.1974  0.9591  1.8618
 8304SOL     OW36370   1.342   3.904   1.080 -0.0971 -0.6598 -0.1472
 8304SOL    HW136371   1.295   3.838   1.132  2.1789 -2.3239 -0.1775
 8304SOL    HW236372   1.391   3.847   1.020 -0.0956 -0.4767 -0.3160
 8305SOL     OW36373   2.924   2.417  11.205 -0.8289  0.1818  0.1875
 8305SOL    HW136374   2.966   2.332  11.222  1.1720  0.9822 -0.7401
 8305SOL    HW236375   2.873   2.397  11.127 -2.0115 -0.8906  1.2324
 8306SOL     OW36376   4.266   3.200   4.608 -0.4302  0.5005  0.0927
 8306SOL    HW136377   4.173   3.193   4.588 -0.3404 -0.7063  0.0705
 8306SOL    HW236378   4.285   3.114   4.571  0.7222  0.0576  1.6833
 8307SOL     OW36379   2.284   3.657  14.795  0.0503  0.0614 -0.0547
 8307SOL    HW136380   2.229   3.640  14.871  0.1629  0.5813  0.1415
 8307SOL    HW236381   2.243   3.740  14.770 -0.2743  0.4553  1.7815
 8308SOL     OW36382   4.176   4.642   8.030  0.2092 -0.1135 -0.2278
 8308SOL    HW136383   4.096   4.689   8.009  0.2901  0.0671 -0.1320
 8308SOL    HW236384   4.148   4.597   8.110  1.3666  1.1336  0.8790
 8309SOL     OW36385   4.653   4.277   5.753 -0.5121 -0.3962 -0.2373
 8309SOL    HW136386   4.567   4.282   5.795 -0.0233 -0.6966  0.7958
 8309SOL    HW236387   4.634   4.312   5.666 -1.9310  1.0302  0.6599
 8310SOL     OW36388   0.870   2.144   4.596 -0.1945 -0.1126 -0.7282
 8310SOL    HW136389   0.960   2.124   4.572  0.0422  0.8948 -0.6945
 8310SOL    HW236390   0.896   2.223   4.643 -1.8406  0.9077 -1.5239
 8311SOL     OW36391   4.323   3.852   3.812 -0.6433 -0.0834  0.0484
 8311SOL    HW136392   4.370   3.781   3.768  1.8869  2.3448 -1.2023
 8311SOL    HW236393   4.275   3.889   3.738 -1.3434 -0.3036  0.3909
 8312SOL     OW36394   0.261   2.988   6.337 -0.0536 -0.1805  0.1217
 8312SOL    HW136395   0.212   2.978   6.255  1.5329 -1.1782 -0.7120
 8312SOL    HW236396   0.272   3.083   6.332  1.3190 -0.3827 -0.8963
 8313SOL     OW36397   2.179   1.795   4.112 -0.0571 -0.4034 -0.7376
 8313SOL    HW136398   2.132   1.742   4.176 -2.7155  1.4494 -1.1599
 8313SOL    HW236399   2.267   1.783   4.149  0.2006  0.3325 -1.1104
 8314SOL     OW36400   2.578   1.610  11.648  0.3771  0.4044  0.2906
 8314SOL    HW136401   2.558   1.643  11.736  2.9080 -0.1617  1.0598
 8314SOL    HW236402   2.668   1.644  11.641 -1.0055  3.4122 -3.3605
 8315SOL     OW36403   2.946   0.759   3.588 -0.0018 -0.0789 -0.1480
 8315SOL    HW136404   2.944   0.832   3.650  0.1637 -1.8264  1.9419
 8315SOL    HW236405   2.950   0.817   3.512  0.6372  0.2932  0.1606
 8316SOL     OW36406   0.941   4.420  10.726 -0.2515 -0.5246 -0.2894
 8316SOL    HW136407   0.959   4.330  10.752 -1.2572 -0.8280 -0.6464
 8316SOL    HW236408   1.021   4.458  10.690 -0.1459  0.0215  0.5181
 8317SOL     OW36409   0.749   3.673  13.454 -0.9444 -0.3092 -0.4178
 8317SOL    HW136410   0.831   3.627  13.470 -0.0183  1.5009  0.0196
 8317SOL    HW236411   0.741   3.724  13.535 -1.5976 -1.5939  0.3248
 8318SOL     OW36412   4.713   0.108   3.934  0.1680  0.2771 -0.2454
 8318SOL    HW136413   4.655   0.143   4.001 -0.7294 -1.6780 -0.0111
 8318SOL    HW236414   4.685   0.145   3.850  1.3222 -0.8846 -1.1417
 8319SOL     OW36415   4.371   0.063   6.146 -0.0505 -0.0634 -0.0353
 8319SOL    HW136416   4.418   4.705   6.136 -0.0867  0.1337 -1.8090
 8319SOL    HW236417   4.448   0.118   6.162 -0.5004  0.3429  0.7563
 8320SOL     OW36418   0.386   3.842  15.959 -0.1050  0.1983 -0.7183
 8320SOL    HW136419   0.410   3.811  16.046  2.2248  1.5407 -0.8547
 8320SOL    HW236420   0.358   3.933  15.972 -0.0266 -0.0466  1.1255
 8321SOL     OW36421   2.055   1.911   2.851 -0.1006 -0.0261  0.1077
 8321SOL    HW136422   2.062   1.816   2.862 -1.0984  0.4000  4.3834
 8321SOL    HW236423   1.959   1.916   2.854 -0.1864 -3.3506  3.3735
 8322SOL     OW36424   4.716   2.914   7.806 -0.5755  0.4163 -0.0350
 8322SOL    HW136425   0.047   2.988   7.781 -3.1493  1.8268 -1.4098
 8322SOL    HW236426   4.649   2.951   7.863 -0.5899 -0.1324  0.3089
 8323SOL     OW36427   4.141   4.634   5.407  0.5443  0.2523 -0.2823
 8323SOL    HW136428   4.115   4.581   5.332 -0.3823  0.6260 -0.2230
 8323SOL    HW236429   4.226   4.665   5.378  0.4472  0.6373 -0.1518
 8324SOL     OW36430   2.865   3.280   4.871  0.0362 -0.6910 -0.0504
 8324SOL    HW136431   2.928   3.271   4.942 -1.3090 -2.0615  0.9836
 8324SOL    HW236432   2.906   3.345   4.814 -0.2816 -0.7025 -0.2899
 8325SOL     OW36433   4.542   2.192   4.261 -0.1482  0.1741 -0.1449
 8325SOL    HW136434   4.550   2.251   4.186  1.6076  0.5639  0.3462
 8325SOL    HW236435   4.615   2.130   4.252  0.8436  1.5624 -1.6450
 8326SOL     OW36436   0.424   4.468   8.570  0.0240  0.5165 -0.7112
 8326SOL    HW136437   0.406   4.397   8.631  0.5205  1.3107  0.3665
 8326SOL    HW236438   0.368   4.539   8.604 -1.4737 -1.3054  0.5915
 8327SOL     OW36439   0.710   1.655  11.448 -0.0547  0.1331  0.3451
 8327SOL    HW136440   0.639   1.703  11.406 -0.2843 -0.6708 -0.2037
 8327SOL    HW236441   0.766   1.646  11.371  1.2681 -1.2383  1.4579
 8328SOL     OW36442   0.369   2.425  13.594 -0.9525 -0.5754  0.1518
 8328SOL    HW136443   0.391   2.439  13.686 -0.1099  1.8654 -0.4160
 8328SOL    HW236444   0.328   2.338  13.591  2.4177 -2.1931  1.6621
 8329SOL     OW36445   2.625   0.285  17.330  0.5571  0.1873  0.5341
 8329SOL    HW136446   2.710   0.265  17.371  0.8464  2.8025  1.2518
 8329SOL    HW236447   2.571   0.315  17.404  0.0545  0.2695  0.1302
 8330SOL     OW36448   2.466   4.283   3.714  0.5394  0.1936  0.6966
 8330SOL    HW136449   2.419   4.365   3.702 -0.0278 -0.1022  0.9124
 8330SOL    HW236450   2.407   4.235   3.772 -0.3249  0.4945  0.0497
 8331SOL     OW36451   0.967   0.526   9.221 -0.1233 -0.0750 -0.1180
 8331SOL    HW136452   1.025   0.597   9.248 -1.2232  1.0900 -0.8405
 8331SOL    HW236453   1.005   0.514   9.134 -0.5844  0.2669 -0.3646
 8332SOL     OW36454   0.274   1.598  17.149 -0.1825  0.5535 -0.0554
 8332SOL    HW136455   0.312   1.642  17.074  0.3037  1.6294  0.8223
 8332SOL    HW236456   0.353   1.579  17.199 -2.4233 -1.9929  2.5625
 8333SOL     OW36457   3.938   1.077   6.779  0.5412 -0.1987  0.6856
 8333SOL    HW136458   3.974   0.995   6.814 -0.6390 -0.8564  0.3535
 8333SOL    HW236459   3.991   1.075   6.699 -3.1841  0.4103 -1.7709
 8334SOL     OW36460   3.993   3.835  15.359  0.2099 -0.3088  0.2605
 8334SOL    HW136461   4.052   3.832  15.284 -1.2372  0.9083 -0.9482
 8334SOL    HW236462   4.040   3.767  15.407 -1.3719 -1.7035 -0.1590
 8335SOL     OW36463   4.344   2.427   8.846  0.0100 -0.3840 -0.2455
 8335SOL    HW136464   4.426   2.427   8.895  0.6112 -1.8225 -1.2496
 8335SOL    HW236465   4.289   2.475   8.909 -0.2511 -0.0115 -0.7634
 8336SOL     OW36466   4.618   0.740   2.891 -0.7185  0.3665  0.4377
 8336SOL    HW136467   4.627   0.809   2.825  1.0779  0.2485  0.5465
 8336SOL    HW236468   4.708   0.708   2.902 -0.3267  1.1099 -0.5815
 8337SOL     OW36469   3.918   4.577  15.048  0.0324 -0.1823 -0.2710
 8337SOL    HW136470   3.843   4.621  15.087  0.7219  1.0362 -0.3273
 8337SOL    HW236471   3.902   4.571  14.953  1.7050 -0.1013 -0.5592
 8338SOL     OW36472   3.966   2.790  17.296  0.2524  0.5321  0.4443
 8338SOL    HW136473   4.038   2.789  17.359 -0.1454  2.5437  0.9287
 8338SOL    HW236474   4.010   2.828  17.219  2.2942  0.2261  1.4784
 8339SOL     OW36475   4.135   2.576   2.205  0.0628  0.1545 -0.2553
 8339SOL    HW136476   4.093   2.516   2.266  0.0991  1.4509  1.0401
 8339SOL    HW236477   4.075   2.569   2.130  1.7190 -1.1919 -1.4623
 8340SOL     OW36478   4.222   0.296   8.983 -0.0602  0.5727 -0.0589
 8340SOL    HW136479   4.185   0.376   9.021 -3.4483 -1.5599  1.1527
 8340SOL    HW236480   4.156   0.233   9.011 -0.5425 -0.3657 -3.3519
 8341SOL     OW36481   1.438   1.315  11.364  0.4257 -0.1811  1.0995
 8341SOL    HW136482   1.397   1.240  11.407 -0.7290  0.0784  0.4690
 8341SOL    HW236483   1.465   1.272  11.283  1.3450  0.7524  0.9141
 8342SOL     OW36484   2.924   0.478  16.046 -0.0481 -0.0346 -0.6967
 8342SOL    HW136485   3.012   0.460  16.012 -0.6175 -5.0314  0.4898
 8342SOL    HW236486   2.871   0.441  15.976 -1.6132  2.2322 -0.7096
 8343SOL     OW36487   3.924   3.760   2.144  0.0689  0.3924 -0.2131
 8343SOL    HW136488   3.890   3.699   2.078  1.1239 -1.5490  1.0340
 8343SOL    HW236489   3.848   3.809   2.175 -0.0941 -0.6977  1.1196
 8344SOL     OW36490   2.122   1.088   8.073  0.2089 -0.5191 -0.2181
 8344SOL    HW136491   2.035   1.096   8.034  1.4122  1.5553 -2.5456
 8344SOL    HW236492   2.170   1.096   7.990  0.2546  0.1724 -0.1295
 8345SOL     OW36493   4.364   2.515   3.559 -0.1798 -0.4156  0.5816
 8345SOL    HW136494   4.404   2.526   3.473  1.1972 -1.3106  1.0900
 8345SOL    HW236495   4.381   2.421   3.570  2.3205 -0.0165  0.2214
 8346SOL     OW36496   4.167   1.391   9.226 -0.3368  0.2300  0.0537
 8346SOL    HW136497   4.141   1.346   9.145 -0.2401 -0.5441  0.4520
 8346SOL    HW236498   4.198   1.315   9.275  1.1253 -0.0865 -1.3961
 8347SOL     OW36499   4.209   0.129  16.325  0.1163 -0.2371  0.3874
 8347SOL    HW136500   4.213   0.213  16.372 -5.1557  0.0346  0.3459
 8347SOL    HW236501   4.115   0.115  16.321  0.2574 -1.2576  0.6187
 8348SOL     OW36502   2.380   2.093   4.383 -0.1394  0.9727  0.8201
 8348SOL    HW136503   2.315   2.141   4.332  0.3481 -1.6881 -2.3143
 8348SOL    HW236504   2.451   2.074   4.322 -0.2767  0.8221  0.7098
 8349SOL     OW36505   0.480   1.644   6.018 -0.0288  0.0322 -0.1085
 8349SOL    HW136506   0.444   1.574   6.073 -0.1771  1.1573  1.2368
 8349SOL    HW236507   0.430   1.723   6.040 -0.4446 -1.1911  3.4140
 8350SOL     OW36508   4.057   4.367  13.975 -0.3086 -0.0283 -0.2239
 8350SOL    HW136509   3.998   4.352  14.049 -0.2093  0.6650 -0.0046
 8350SOL    HW236510   4.028   4.457  13.962  0.3702  0.1221 -0.7163
 8351SOL     OW36511   0.931   1.816   2.451  0.8634 -0.4708 -0.0639
 8351SOL    HW136512   0.865   1.747   2.457  3.3200 -2.5868  2.5470
 8351SOL    HW236513   0.875   1.886   2.417 -0.8170 -0.1454  3.3191
 8352SOL     OW36514   0.098   0.715   5.606 -0.3915 -0.4099 -0.6426
 8352SOL    HW136515   0.041   0.648   5.567  0.3393 -2.9318  2.6431
 8352SOL    HW236516   0.176   0.688   5.557  0.1297  0.0728 -0.0616
 8353SOL     OW36517   3.167   4.081   8.408  0.1281 -0.4501 -0.5089
 8353SOL    HW136518   3.179   3.987   8.412 -1.2088 -0.6513 -1.4124
 8353SOL    HW236519   3.248   4.122   8.376  0.4061  0.0766  0.8540
 8354SOL     OW36520   0.490   0.620   6.622 -0.4465 -0.0656 -0.2094
 8354SOL    HW136521   0.523   0.558   6.686 -2.6357 -0.5660  0.4231
 8354SOL    HW236522   0.532   0.574   6.550 -1.3875  0.3145 -1.0027
 8355SOL     OW36523   4.641   4.719   8.317  0.3636 -0.8169 -0.4317
 8355SOL    HW136524   4.604   4.632   8.300 -3.2354  0.3986  1.2064
 8355SOL    HW236525   0.012   4.707   8.324  0.1236 -1.1318  2.2487
 8356SOL     OW36526   2.839   1.409   8.334 -0.3496 -0.1040  0.2408
 8356SOL    HW136527   2.875   1.480   8.387 -1.8984 -0.2885  1.5549
 8356SOL    HW236528   2.880   1.329   8.368 -0.3380  0.2812  1.1434
 8357SOL     OW36529   0.906   0.146   2.331 -0.4742 -0.2193  0.2119
 8357SOL    HW136530   0.922   0.196   2.411  0.8028  0.2213 -0.3199
 8357SOL    HW236531   0.942   0.060   2.352  0.4378  0.0443 -0.2977
 8358SOL     OW36532   3.780   0.918   2.911 -0.1714  0.4017 -0.5003
 8358SOL    HW136533   3.840   0.932   2.838 -0.5997 -1.0164 -1.1303
 8358SOL    HW236534   3.778   0.824   2.927  0.8871  0.4173 -0.2677
 8359SOL     OW36535   1.953   0.462   4.690 -0.1653  0.0047  0.0358
 8359SOL    HW136536   1.939   0.474   4.596  0.4503 -0.2241 -0.0876
 8359SOL    HW236537   1.876   0.498   4.733 -0.4672 -0.9897  0.3280
 8360SOL     OW36538   1.659   0.734   5.495  0.1397 -1.0396  0.1917
 8360SOL    HW136539   1.604   0.812   5.489  0.5047 -0.8818 -1.2104
 8360SOL    HW236540   1.739   0.778   5.526 -1.6959  1.5127  1.3378
 8361SOL     OW36541   4.058   1.066   5.557  1.0193  0.1116 -0.0856
 8361SOL    HW136542   4.103   1.077   5.473  1.4627  2.1535  0.4169
 8361SOL    HW236543   4.048   0.971   5.562  0.0859  0.1475 -1.1668
 8362SOL     OW36544   0.040   2.742   5.997 -0.2441  0.2456 -0.3463
 8362SOL    HW136545   0.112   2.740   5.934  0.1994  0.2027  0.1523
 8362SOL    HW236546   4.688   2.746   5.941 -2.4354  4.3057  2.9819
 8363SOL     OW36547   0.890   4.545   8.167  0.5996 -0.8940  0.4230
 8363SOL    HW136548   0.965   4.487   8.177 -0.1155 -1.6683  1.2632
 8363SOL    HW236549   0.910   4.607   8.237  1.2867  2.5784 -2.8215
 8364SOL     OW36550   4.416   0.683   5.651  0.3902  0.1659 -0.0788
 8364SOL    HW136551   4.474   0.656   5.722 -0.6990 -2.5631 -0.2319
 8364SOL    HW236552   4.489   0.701   5.592 -0.7223  0.4524 -1.3909
 8365SOL     OW36553   3.326   0.809  13.468  0.1534 -0.5710 -0.1521
 8365SOL    HW136554   3.362   0.728  13.506  1.5710 -0.1617 -0.6169
 8365SOL    HW236555   3.250   0.774  13.421 -0.8794  0.4559  0.7506
 8366SOL     OW36556   2.616   3.699   5.427 -0.0369  0.3264  0.2764
 8366SOL    HW136557   2.608   3.616   5.380 -1.2450  0.8884 -0.5289
 8366SOL    HW236558   2.614   3.665   5.516  1.0968  0.8398  0.4907
 8367SOL     OW36559   1.165   4.276   3.040 -0.2328  0.2000  0.2417
 8367SOL    HW136560   1.242   4.230   3.007 -0.9963  0.1642 -1.5114
 8367SOL    HW236561   1.095   4.211   3.038  0.3049 -0.3562 -0.5042
 8368SOL     OW36562   3.549   0.867   1.535  0.3271 -0.5803 -0.2941
 8368SOL    HW136563   3.591   0.781   1.532 -0.5551 -1.1199  2.7378
 8368SOL    HW236564   3.494   0.867   1.457 -1.2994 -0.4193  0.8420
 8369SOL     OW36565   3.262   1.376   5.147 -0.7287  0.1078 -0.4338
 8369SOL    HW136566   3.293   1.286   5.156  0.0245  0.2923 -1.1229
 8369SOL    HW236567   3.246   1.413   5.234  1.4457  0.2981 -0.1137
 8370SOL     OW36568   1.905   2.544   3.850  0.0606 -0.5181 -0.0195
 8370SOL    HW136569   1.970   2.526   3.782  0.3476  1.7072 -0.3477
 8370SOL    HW236570   1.828   2.505   3.807  0.3454 -1.1052  0.0063
 8371SOL     OW36571   4.692   2.912   8.915  0.1560  0.4135  0.3000
 8371SOL    HW136572   4.686   2.996   8.869 -0.4543  0.2898  0.1558
 8371SOL    HW236573   0.042   2.928   8.973  1.1675  0.0837 -0.8891
 8372SOL     OW36574   4.548   0.293   5.522  0.1991  0.4725  0.2129
 8372SOL    HW136575   4.530   0.257   5.608  3.1892  0.6940  0.9268
 8372SOL    HW236576   4.534   0.223   5.458 -0.5526 -1.6676  2.7371
 8373SOL     OW36577   2.835   0.024  14.636  0.4361  0.2500 -0.0641
 8373SOL    HW136578   2.875   0.088  14.576  0.0441  0.2074 -0.3759
 8373SOL    HW236579   2.780   4.699  14.575  1.0615  0.0016 -0.4297
 8374SOL     OW36580   4.452   0.969   8.843  0.0123  0.4517 -0.6896
 8374SOL    HW136581   4.457   0.951   8.937  0.1944 -1.6674 -1.1209
 8374SOL    HW236582   4.544   0.988   8.826  0.4161 -1.6252 -0.8354
 8375SOL     OW36583   1.182   3.305   9.667  0.2134 -0.1280 -0.0543
 8375SOL    HW136584   1.173   3.214   9.695 -1.0265 -0.4739 -1.5206
 8375SOL    HW236585   1.268   3.316   9.705 -0.0460  0.2807  0.4135
 8376SOL     OW36586   3.908   2.082   3.660  0.5268  0.0603  0.4720
 8376SOL    HW136587   3.919   2.166   3.615  0.4671  0.7552  1.7501
 8376SOL    HW236588   3.818   2.091   3.692  0.3985 -1.4908  0.5206
 8377SOL     OW36589   1.370   0.768   5.108 -0.7165 -0.0974  0.2112
 8377SOL    HW136590   1.325   0.788   5.026  1.8413 -0.6360 -1.3175
 8377SOL    HW236591   1.327   0.839   5.155 -1.2649  0.0543 -0.5276
 8378SOL     OW36592   1.249   1.950   1.901  0.1751 -0.5741 -0.7190
 8378SOL    HW136593   1.332   1.906   1.880  0.5876 -1.1072  2.0133
 8378SOL    HW236594   1.208   1.879   1.950 -3.1642  0.8133 -1.5199
 8379SOL     OW36595   3.823   4.510   5.140  0.0559 -0.7870  0.3292
 8379SOL    HW136596   3.776   4.501   5.057 -0.0483 -0.9436  0.4043
 8379SOL    HW236597   3.818   4.423   5.179  0.8409  1.2005  4.8379
 8380SOL     OW36598   4.613   3.554   5.495 -0.0976  0.7822  0.4588
 8380SOL    HW136599   4.553   3.560   5.421  1.1684  1.8222 -0.4719
 8380SOL    HW236600   4.580   3.474   5.536 -1.2938  1.0385 -0.0216
 8381SOL     OW36601   2.708   4.379  17.616  0.0405  0.1009  0.1920
 8381SOL    HW136602   2.801   4.378  17.637 -0.0909 -0.3779  0.7500
 8381SOL    HW236603   2.676   4.289  17.622 -1.5163  0.5961 -0.4860
 8382SOL     OW36604   1.705   3.604   3.295  0.1162  0.8730 -0.4994
 8382SOL    HW136605   1.643   3.657   3.245  2.2956  0.3428 -3.8160
 8382SOL    HW236606   1.647   3.529   3.309  0.7182  0.2168 -1.5466
 8383SOL     OW36607   4.421   0.040   8.055  0.0362 -0.1422  0.0226
 8383SOL    HW136608   4.396   0.125   8.092 -1.6047 -0.9814  0.8649
 8383SOL    HW236609   4.340   4.714   8.056 -0.4451  0.6198 -0.9906
 8384SOL     OW36610   4.696   0.020   6.632  0.5183 -0.7927 -0.2529
 8384SOL    HW136611   4.697   4.651   6.654 -2.5964 -0.9208 -0.5460
 8384SOL    HW236612   4.698   0.025   6.537  0.7655 -0.7240 -0.2437
 8385SOL     OW36613   0.135   2.455  16.378  0.3087 -0.4252 -0.5559
 8385SOL    HW136614   0.108   2.369  16.409  0.2521  0.6873  2.5020
 8385SOL    HW236615   0.177   2.419  16.300 -0.9198 -0.5213 -1.1668
 8386SOL     OW36616   4.658   3.594   7.951 -0.0049  0.5645  0.0632
 8386SOL    HW136617   0.011   3.651   7.954  1.1292 -1.0617  1.7407
 8386SOL    HW236618   4.604   3.629   8.022 -0.7549  1.9683 -1.1966
 8387SOL     OW36619   1.143   0.008   3.376 -0.2176 -0.7004 -0.6309
 8387SOL    HW136620   1.231   0.016   3.340 -0.4022 -1.4111 -1.2512
 8387SOL    HW236621   1.153   0.010   3.471 -0.1550 -1.7679 -0.6182
 8388SOL     OW36622   1.030   3.883   8.575  0.4501 -0.5006 -0.0573
 8388SOL    HW136623   1.028   3.978   8.589 -1.7691 -0.4445 -0.6464
 8388SOL    HW236624   0.940   3.873   8.543  0.5446 -0.7922 -0.2248
 8389SOL     OW36625   2.557   1.472  15.668 -0.2261  0.2083  0.5704
 8389SOL    HW136626   2.514   1.541  15.618  0.6255 -0.1188 -0.6117
 8389SOL    HW236627   2.571   1.402  15.604  3.2599  3.2268 -1.9781
 8390SOL     OW36628   4.077   4.583   8.511 -0.0569 -0.1827 -0.2736
 8390SOL    HW136629   4.096   4.616   8.598  0.8919  0.6725 -0.8166
 8390SOL    HW236630   3.986   4.558   8.525 -0.2468  0.3644 -0.5194
 8391SOL     OW36631   2.394   3.896  17.595 -0.0038 -0.5271 -0.1564
 8391SOL    HW136632   2.484   3.883  17.564 -0.2694 -0.2099 -1.0729
 8391SOL    HW236633   2.356   3.812  17.621 -0.2493  0.2598  1.9636
 8392SOL     OW36634   0.745   3.978   3.500 -0.0848 -0.2496 -0.5794
 8392SOL    HW136635   0.762   3.920   3.426  2.0811 -1.9503  1.2608
 8392SOL    HW236636   0.830   3.972   3.545 -1.1428 -1.7217  1.2195
 8393SOL     OW36637   0.667   4.694   3.143  0.0645 -0.1214  0.4792
 8393SOL    HW136638   0.758   4.686   3.113 -0.0491 -1.2519  0.4405
 8393SOL    HW236639   0.661   0.063   3.164 -0.6387  0.0671 -0.5294
 8394SOL     OW36640   1.198   2.904  17.135 -0.7725  0.2685  0.2818
 8394SOL    HW136641   1.240   2.978  17.090 -1.6123 -0.1385 -1.1809
 8394SOL    HW236642   1.185   2.949  17.219 -0.3900 -2.2475  1.6796
 8395SOL     OW36643   0.515   3.400   8.531  0.3175 -0.6550 -0.2115
 8395SOL    HW136644   0.524   3.306   8.516 -1.1001 -0.9447  0.7391
 8395SOL    HW236645   0.571   3.417   8.607 -1.8338 -1.3180  1.5527
 8396SOL     OW36646   0.832   0.220   3.525  0.1531  0.7055  0.3964
 8396SOL    HW136647   0.768   0.291   3.514  0.1212  0.6007 -0.0875
 8396SOL    HW236648   0.796   0.154   3.466  2.6738  1.2635 -1.7910
 8397SOL     OW36649   3.303   1.082   8.049 -0.2198 -0.3869 -0.6209
 8397SOL    HW136650   3.293   1.113   8.139  0.8079 -0.0484 -0.6255
 8397SOL    HW236651   3.369   1.145   8.022  0.3007 -0.2649  0.9055
 8398SOL     OW36652   0.631   1.715   3.209  0.0592 -0.0593  0.2118
 8398SOL    HW136653   0.637   1.640   3.150 -3.6885  0.7220 -1.1751
 8398SOL    HW236654   0.690   1.680   3.276 -0.4790 -3.0557 -0.9047
 8399SOL     OW36655   3.561   1.506   8.099 -0.3676 -0.5507 -0.2601
 8399SOL    HW136656   3.490   1.497   8.163  1.1478  0.2547  1.5215
 8399SOL    HW236657   3.549   1.426   8.048  0.6181 -1.4234  0.8917
 8400SOL     OW36658   0.877   4.625   5.597  0.5615 -0.0705 -0.1408
 8400SOL    HW136659   0.929   4.650   5.521 -0.7803  0.2815 -0.9365
 8400SOL    HW236660   0.937   4.630   5.672 -0.1812 -1.6168  0.5495
 8401SOL     OW36661   3.510   1.431   6.541 -0.7114 -0.3681 -0.3647
 8401SOL    HW136662   3.523   1.521   6.511 -1.5062  0.6758  2.4262
 8401SOL    HW236663   3.601   1.413   6.563 -0.1209  1.9739 -0.9038
 8402SOL     OW36664   4.319   2.647  14.677 -0.1942 -0.1602  0.1771
 8402SOL    HW136665   4.358   2.733  14.661 -1.6471  0.4061 -0.2580
 8402SOL    HW236666   4.228   2.672  14.660  1.0716  4.2171 -0.1917
 8403SOL     OW36667   1.498   3.623   6.581  0.1934 -0.8513  0.0550
 8403SOL    HW136668   1.551   3.607   6.659  2.0845 -0.9065 -1.2328
 8403SOL    HW236669   1.431   3.679   6.621  1.1843 -0.3302  0.9830
 8404SOL     OW36670   4.359   1.047   4.553  0.4158  0.3472 -0.1449
 8404SOL    HW136671   4.272   1.069   4.520  0.7407 -0.7178 -1.6936
 8404SOL    HW236672   4.405   1.129   4.535 -0.3477  0.5259 -1.2211
 8405SOL     OW36673   4.105   1.495   6.329  0.0543  0.0870  0.0009
 8405SOL    HW136674   4.186   1.459   6.294 -1.3413 -1.8261 -1.2761
 8405SOL    HW236675   4.091   1.438   6.404  0.5046 -0.9777 -0.7217
 8406SOL     OW36676   3.653   1.773   2.956 -0.6451 -0.0242 -0.0446
 8406SOL    HW136677   3.705   1.850   2.937  2.0624 -1.4356  1.5683
 8406SOL    HW236678   3.649   1.767   3.052 -3.2219  0.3609 -0.1251
 8407SOL     OW36679   3.599   0.828  12.128 -0.7921  0.2016 -0.3107
 8407SOL    HW136680   3.654   0.769  12.179  0.0899 -0.0039 -1.4952
 8407SOL    HW236681   3.519   0.776  12.121 -0.0072 -0.8417 -1.4937
 8408SOL     OW36682   2.367   2.907   9.083  0.6608  0.0010 -0.5463
 8408SOL    HW136683   2.297   2.844   9.065 -0.6006  1.1831  0.2337
 8408SOL    HW236684   2.383   2.885   9.175  2.1915  2.5589 -0.2045
 8409SOL     OW36685   3.809   2.717  14.270  0.2435 -0.3774  0.8144
 8409SOL    HW136686   3.882   2.705  14.209  0.8385 -0.8220  1.6142
 8409SOL    HW236687   3.733   2.681  14.224  0.5890 -0.6464  0.4573
 8410SOL     OW36688   3.362   1.289   4.532  0.2869  0.6615 -0.2643
 8410SOL    HW136689   3.364   1.384   4.545 -0.5944  0.8845 -1.8034
 8410SOL    HW236690   3.315   1.282   4.449 -0.9291  1.6828  0.3321
 8411SOL     OW36691   3.991   1.811   2.901  0.1909 -0.4715  0.3278
 8411SOL    HW136692   3.991   1.765   2.818  1.2510  1.4149 -0.7155
 8411SOL    HW236693   3.944   1.890   2.875  0.7023  0.0443  0.9578
 8412SOL     OW36694   3.765   1.833   6.089  0.0139  0.2968  0.1300
 8412SOL    HW136695   3.812   1.763   6.135  1.9207  1.5864  0.1182
 8412SOL    HW236696   3.729   1.884   6.161  1.2087  2.7259 -0.9940
 8413SOL     OW36697   4.289   1.010   5.740  0.3088  0.3869  0.2229
 8413SOL    HW136698   4.204   1.045   5.713  0.0269  0.3963  1.1317
 8413SOL    HW236699   4.255   0.946   5.802 -2.3281 -0.2626 -1.9039
 8414SOL     OW36700   1.627   3.198   2.052 -0.5871  1.0493 -0.2916
 8414SOL    HW136701   1.637   3.261   2.124  2.9194 -1.1298  1.1771
 8414SOL    HW236702   1.599   3.118   2.097  2.5899 -0.8978 -1.7776
 8415SOL     OW36703   2.253   2.620   3.063  0.1970  0.2921 -0.0416
 8415SOL    HW136704   2.196   2.622   2.986  0.9171 -0.6256 -0.5902
 8415SOL    HW236705   2.319   2.684   3.037 -0.1079  0.5945 -0.0683
 8416SOL     OW36706   0.170   2.196  11.507  1.1435  0.2902  0.3394
 8416SOL    HW136707   0.181   2.144  11.427  0.5712  2.2752 -1.0658
 8416SOL    HW236708   0.254   2.186  11.552  1.3510  0.7571  0.0618
 8417SOL     OW36709   0.340   3.719   8.807 -0.3139 -0.4113  0.4480
 8417SOL    HW136710   0.394   3.754   8.877  1.6999 -1.7136 -0.4479
 8417SOL    HW236711   0.274   3.675   8.860 -1.4608  0.5543 -0.1742
 8418SOL     OW36712   2.328   0.247  10.954  0.6448  0.3557  0.1227
 8418SOL    HW136713   2.316   0.155  10.932 -0.2561  0.4788  0.0879
 8418SOL    HW236714   2.384   0.257  11.030  0.6703  2.1429 -0.1270
 8419SOL     OW36715   1.900   2.245   1.673  0.0809  0.0009 -0.4385
 8419SOL    HW136716   1.994   2.248   1.660  0.2499 -0.7645  0.5533
 8419SOL    HW236717   1.885   2.183   1.745 -0.4664  1.3783  0.6506
 8420SOL     OW36718   2.066   1.520   9.288 -0.4119  0.0781  0.3819
 8420SOL    HW136719   2.043   1.486   9.202  0.3027 -2.8684  1.3548
 8420SOL    HW236720   2.141   1.576   9.266 -0.0970 -0.0024  1.2340
 8421SOL     OW36721   2.468   2.594   5.368  0.1738  0.2679  0.4498
 8421SOL    HW136722   2.517   2.532   5.315  2.3451  0.3440  2.3832
 8421SOL    HW236723   2.406   2.538   5.417 -2.4592  1.3440 -1.6340
 8422SOL     OW36724   1.398   2.815   3.182  0.0983 -0.1387 -0.6486
 8422SOL    HW136725   1.380   2.788   3.092  1.1714  0.5044 -1.0586
 8422SOL    HW236726   1.314   2.855   3.203 -0.8312 -1.7176 -1.3235
 8423SOL     OW36727   2.624   3.544  15.584  0.5498  0.1375 -0.1753
 8423SOL    HW136728   2.569   3.542  15.663  0.5593  1.1053 -0.1483
 8423SOL    HW236729   2.606   3.456  15.549  1.9926  0.5359 -1.8899
 8424SOL     OW36730   0.937   3.366  15.840 -0.1755 -0.1613  0.2382
 8424SOL    HW136731   0.856   3.416  15.827  2.5479  4.1975 -0.0402
 8424SOL    HW236732   0.980   3.369  15.754 -1.8308  0.5381 -0.5684
 8425SOL     OW36733   3.008   2.596   7.396  0.0957  0.1072  0.3400
 8425SOL    HW136734   3.002   2.504   7.421  0.9166  0.2130  0.9270
 8425SOL    HW236735   2.998   2.588   7.301  0.2085  0.4478  0.3013
 8426SOL     OW36736   3.841   4.042   9.342 -0.6696  0.5091 -0.2844
 8426SOL    HW136737   3.841   3.949   9.365 -1.1831  0.4558 -0.4984
 8426SOL    HW236738   3.868   4.079   9.426  1.7988 -0.0780 -0.8440
 8427SOL     OW36739   3.340   3.676   2.611  0.1648  0.3970 -0.1324
 8427SOL    HW136740   3.262   3.622   2.627 -0.2708  1.4454  1.2977
 8427SOL    HW236741   3.408   3.626   2.655 -0.4421  0.4007  0.8391
 8428SOL     OW36742   2.961   3.839   7.509 -0.1992 -0.2041  0.0524
 8428SOL    HW136743   2.867   3.853   7.521  0.0538 -1.3124  3.3555
 8428SOL    HW236744   2.999   3.884   7.585 -0.0550  0.5471 -0.4652
 8429SOL     OW36745   1.422   1.412   4.815  0.1074  0.4466  0.1223
 8429SOL    HW136746   1.333   1.412   4.780 -0.9639  0.1050  2.7785
 8429SOL    HW236747   1.427   1.503   4.846 -1.0104 -0.4045  2.7891
 8430SOL     OW36748   1.676   1.951   5.868  0.4224 -0.0179 -0.4966
 8430SOL    HW136749   1.582   1.948   5.886  0.8860 -1.0276  1.7507
 8430SOL    HW236750   1.679   1.961   5.772 -1.8285 -1.0582 -0.6889
 8431SOL     OW36751   1.039   0.939  10.824  0.0855  0.2668 -0.3603
 8431SOL    HW136752   1.083   1.012  10.781 -1.0542 -0.3846 -2.6088
 8431SOL    HW236753   0.970   0.975  10.880 -1.1343 -0.2726 -1.5012
 8432SOL     OW36754   3.730   3.480   9.702  0.7116  0.2504  0.3511
 8432SOL    HW136755   3.777   3.413   9.752 -1.8413 -2.0161 -0.2704
 8432SOL    HW236756   3.699   3.520   9.783  0.2722  1.2181 -0.2940
 8433SOL     OW36757   0.872   1.468   5.784 -0.5841  0.0208  0.2836
 8433SOL    HW136758   0.820   1.498   5.858 -0.2621  0.3811  0.3633
 8433SOL    HW236759   0.819   1.494   5.708  0.6165  1.9195  0.0849
 8434SOL     OW36760   2.011   3.953  15.855 -0.1911  0.2395  0.0782
 8434SOL    HW136761   2.096   3.961  15.899 -0.0795 -0.7762  0.0480
 8434SOL    HW236762   1.989   3.863  15.880  0.8542  0.7866  2.9349
 8435SOL     OW36763   4.445   1.321   1.249 -0.1600 -0.2628  0.2291
 8435SOL    HW136764   4.476   1.409   1.229 -1.4762  0.0230 -0.5540
 8435SOL    HW236765   4.409   1.290   1.166 -2.5348  3.0777  0.0101
 8436SOL     OW36766   1.227   2.551   8.713  0.4913 -0.3835  0.1766
 8436SOL    HW136767   1.228   2.572   8.806  0.1837  0.6164 -0.0435
 8436SOL    HW236768   1.287   2.477   8.727  1.7466  0.7517  0.8479
 8437SOL     OW36769   1.592   3.823   8.792 -0.4474 -0.0653  0.4403
 8437SOL    HW136770   1.639   3.839   8.874 -0.0194  0.9107  0.0024
 8437SOL    HW236771   1.667   3.833   8.735 -0.3868 -0.7255  0.3997
 8438SOL     OW36772   1.156   2.498  16.673  0.5411 -0.0418 -0.0071
 8438SOL    HW136773   1.159   2.405  16.695 -2.6906  0.1831  1.4109
 8438SOL    HW236774   1.125   2.538  16.754  0.9544 -0.2940  0.2799
 8439SOL     OW36775   3.944   4.139   7.423  0.1379 -0.0080  0.0744
 8439SOL    HW136776   3.869   4.140   7.483 -1.3546 -0.9482 -1.7678
 8439SOL    HW236777   3.879   4.140   7.352  0.0356  0.7237  0.1750
 8440SOL     OW36778   3.998   2.383   5.594 -0.1164  0.1372 -0.9015
 8440SOL    HW136779   3.944   2.415   5.667  1.7730  0.5619  0.3074
 8440SOL    HW236780   4.043   2.312   5.640  1.3927  0.5900 -1.6948
 8441SOL     OW36781   3.877   0.918   7.583 -0.2183  0.1288  0.0915
 8441SOL    HW136782   3.842   1.006   7.593 -3.0287 -0.7967 -1.6322
 8441SOL    HW236783   3.851   0.872   7.663 -2.2802  0.6174 -0.3056
 8442SOL     OW36784   3.268   1.840   6.964 -0.3689 -0.3685  0.7278
 8442SOL    HW136785   3.292   1.859   7.055 -1.4189  1.5300  0.6106
 8442SOL    HW236786   3.344   1.878   6.920 -0.6165  0.2816  0.8515
 8443SOL     OW36787   4.131   1.867   5.749 -0.4696  0.3454  0.5513
 8443SOL    HW136788   4.088   1.819   5.677 -0.1580  1.4768 -0.3926
 8443SOL    HW236789   4.058   1.901   5.800 -0.0952 -0.2619  1.4780
 8444SOL     OW36790   1.172   2.007   5.288  0.1000 -0.3457  0.4318
 8444SOL    HW136791   1.146   1.916   5.271 -3.1900  0.6515  0.0149
 8444SOL    HW236792   1.267   2.015   5.300 -0.1695  3.1229  0.3120
 8445SOL     OW36793   1.125   4.386   5.163  0.0119  0.5849  0.3599
 8445SOL    HW136794   1.134   4.479   5.184  1.8845  0.1588  1.5024
 8445SOL    HW236795   1.047   4.355   5.207 -1.5847  2.9740 -0.8070
 8446SOL     OW36796   4.685   1.794   7.518 -0.6830 -0.3199 -0.0661
 8446SOL    HW136797   0.029   1.843   7.564 -1.7724 -0.0249  1.2686
 8446SOL    HW236798   0.003   1.782   7.433 -2.2059  3.0231 -1.3086
 8447SOL     OW36799   4.087   1.841  10.747 -0.2008  0.6318 -1.0611
 8447SOL    HW136800   4.100   1.749  10.771 -0.4790  1.4439  2.0760
 8447SOL    HW236801   4.136   1.885  10.817 -2.2088  0.6265  0.3276
 8448SOL     OW36802   2.019   3.653   6.766  0.4985 -0.1933  0.3131
 8448SOL    HW136803   1.936   3.698   6.783  1.7591  1.8495  1.0366
 8448SOL    HW236804   2.080   3.726   6.778 -0.7206  0.7164  1.0204
 8449SOL     OW36805   2.857   0.764  13.370  0.5254 -0.2003 -0.6764
 8449SOL    HW136806   2.900   0.726  13.294  0.7245 -2.1958  0.4351
 8449SOL    HW236807   2.917   0.727  13.434  0.4851  2.3687  0.8636
 8450SOL     OW36808   1.137   2.641  12.378  0.4275 -0.2239 -0.4130
 8450SOL    HW136809   1.217   2.686  12.354 -0.2840  0.8526 -0.7421
 8450SOL    HW236810   1.094   2.665  12.296  0.7717 -1.0061 -0.8269
 8451SOL     OW36811   1.056   0.695  10.682  0.6299 -0.0129 -0.1661
 8451SOL    HW136812   1.124   0.750  10.642 -1.3864  1.4181 -1.6268
 8451SOL    HW236813   1.011   0.765  10.730  3.1044  1.0971  0.5322
 8452SOL     OW36814   0.407   3.958   4.850 -0.2609  0.5189 -0.3225
 8452SOL    HW136815   0.414   3.901   4.926  2.7211  0.2500 -0.7899
 8452SOL    HW236816   0.500   3.965   4.829 -0.1737 -2.6875 -1.0580
 8453SOL     OW36817   4.368   3.641   2.806  0.4378 -0.3433 -0.2289
 8453SOL    HW136818   4.299   3.696   2.845 -0.7961 -2.3969  0.4936
 8453SOL    HW236819   4.450   3.660   2.851 -0.4037  1.9535  0.3480
 8454SOL     OW36820   2.608   3.217   8.346 -0.0105 -0.3488  0.0450
 8454SOL    HW136821   2.701   3.201   8.361  0.1564  0.8912  0.3832
 8454SOL    HW236822   2.574   3.143   8.395 -0.4236  0.0213  0.3261
 8455SOL     OW36823   3.872   1.480  10.398  0.0075 -0.3505 -0.2617
 8455SOL    HW136824   3.920   1.468  10.481  1.2501  1.6463 -0.6690
 8455SOL    HW236825   3.791   1.527  10.419 -0.9955 -2.2151  0.0434
 8456SOL     OW36826   2.874   0.305   8.435  0.3312 -0.2744  0.5067
 8456SOL    HW136827   2.956   0.294   8.484  0.3003  1.9196  1.0330
 8456SOL    HW236828   2.838   0.376   8.487  1.0047 -0.3999  1.1542
 8457SOL     OW36829   2.031   1.258   5.688 -0.1775 -0.3652 -0.3062
 8457SOL    HW136830   1.939   1.234   5.684 -0.3351 -0.4782  3.5774
 8457SOL    HW236831   2.073   1.231   5.607  1.4628  0.9821  0.0899
 8458SOL     OW36832   2.250   1.155  12.106 -0.4354  0.1780 -0.0919
 8458SOL    HW136833   2.296   1.229  12.145  1.1209 -0.9877  0.3219
 8458SOL    HW236834   2.319   1.133  12.043 -1.3147 -1.8480 -0.3602
 8459SOL     OW36835   3.536   3.755   8.777 -0.2524 -0.6091  0.3949
 8459SOL    HW136836   3.474   3.828   8.776 -1.1599 -1.4028 -0.0533
 8459SOL    HW236837   3.487   3.695   8.833  0.4139 -1.2090  0.3354
 8460SOL     OW36838   2.589   0.053   1.607 -0.8818  0.6676 -0.5970
 8460SOL    HW136839   2.536   0.048   1.686  0.2476  1.5839  0.2219
 8460SOL    HW236840   2.594   0.148   1.599  3.4547  0.2807 -2.3818
 8461SOL     OW36841   1.915   0.238  17.261 -0.2729  0.4974  0.1533
 8461SOL    HW136842   1.825   0.264  17.238  0.1037 -0.4418 -2.3725
 8461SOL    HW236843   1.901   0.144  17.251 -0.3470  0.4879  0.3439
 8462SOL     OW36844   4.032   4.506   3.351  0.2395  0.2701  0.0414
 8462SOL    HW136845   3.981   4.582   3.380 -2.3539 -1.3133 -0.4714
 8462SOL    HW236846   3.981   4.430   3.376  0.8936 -0.5287 -1.0179
 8463SOL     OW36847   4.043   3.356  11.957 -0.2632 -0.2472 -0.0568
 8463SOL    HW136848   4.002   3.419  11.897  0.1963 -0.0618 -0.1753
 8463SOL    HW236849   4.133   3.387  11.958 -0.1834 -0.3820 -2.2758
 8464SOL     OW36850   2.527   2.715   8.306  0.3486  0.0220  0.2658
 8464SOL    HW136851   2.544   2.642   8.365  2.2616  0.4994  0.2774
 8464SOL    HW236852   2.534   2.665   8.224 -0.8370  0.4992 -0.1264
 8465SOL     OW36853   3.269   3.419   8.842  0.1356 -0.1186  0.1472
 8465SOL    HW136854   3.329   3.344   8.846  1.3483  0.9251  1.3905
 8465SOL    HW236855   3.277   3.460   8.928  0.7797 -0.8077  0.4223
 8466SOL     OW36856   2.642   0.682   9.083  0.1379 -0.0983 -0.3047
 8466SOL    HW136857   2.567   0.663   9.139  0.9225 -0.1804  0.7159
 8466SOL    HW236858   2.598   0.685   8.998 -0.1478  0.0682 -0.1498
 8467SOL     OW36859   3.971   1.982  15.350  0.0849 -0.3842  0.4187
 8467SOL    HW136860   3.907   2.035  15.303  0.8594  0.2959  0.1240
 8467SOL    HW236861   3.927   1.931  15.418  0.4664 -4.3309 -2.2355
 8468SOL     OW36862   3.694   1.755   8.913  0.5352 -0.3120  0.4246
 8468SOL    HW136863   3.712   1.805   8.834 -1.7586  1.4116  0.9864
 8468SOL    HW236864   3.773   1.761   8.967  0.8104 -1.3463  0.1352
 8469SOL     OW36865   0.770   2.688  14.308  0.0251 -0.2801  0.4724
 8469SOL    HW136866   0.817   2.711  14.228 -1.6002  5.0685  1.0325
 8469SOL    HW236867   0.780   2.769  14.358  2.0513  0.1315 -0.6066
 8470SOL     OW36868   1.153   1.548   8.325  0.0237 -0.3482  0.0589
 8470SOL    HW136869   1.063   1.547   8.291 -0.7323 -0.6680  2.0561
 8470SOL    HW236870   1.193   1.464   8.305 -0.8271 -1.4935  3.1194
 8471SOL     OW36871   2.779   0.918   2.173 -0.1237  0.0551  0.0220
 8471SOL    HW136872   2.795   0.824   2.170  3.3537  0.7236 -1.5714
 8471SOL    HW236873   2.867   0.944   2.199 -0.4509  0.5981  0.5864
 8472SOL     OW36874   0.324   4.425   1.275 -0.6951 -0.5476 -0.5305
 8472SOL    HW136875   0.311   4.508   1.230 -0.6452 -0.0504  0.3966
 8472SOL    HW236876   0.297   4.448   1.363 -0.8042 -0.7759 -0.5038
 8473SOL     OW36877   2.502   2.397   4.585  0.0104  0.3060 -0.0772
 8473SOL    HW136878   2.441   2.466   4.559  1.1675  1.6509  0.7245
 8473SOL    HW236879   2.429   2.341   4.609  0.0332  0.1976 -0.2591
 8474SOL     OW36880   0.654   3.076  16.613  0.2678  0.4826  0.0941
 8474SOL    HW136881   0.573   3.081  16.563  0.3441 -1.0153 -0.1749
 8474SOL    HW236882   0.631   3.001  16.668  1.6385 -0.8731 -1.2171
 8475SOL     OW36883   2.490   1.268   3.145 -0.6320  0.1032  0.1799
 8475SOL    HW136884   2.403   1.249   3.111 -0.0998 -1.4391 -0.3263
 8475SOL    HW236885   2.488   1.211   3.223 -1.0427  1.0146  0.8310
 8476SOL     OW36886   3.743   3.182   9.312 -0.1762 -0.4020  0.3231
 8476SOL    HW136887   3.815   3.167   9.250 -0.1087  1.2159  0.0086
 8476SOL    HW236888   3.683   3.230   9.255  0.7907 -0.6770 -0.9478
 8477SOL     OW36889   0.662   2.659   9.294 -0.2651  0.1412 -0.1653
 8477SOL    HW136890   0.597   2.719   9.256 -0.6880  1.2607  2.3213
 8477SOL    HW236891   0.746   2.706   9.296 -0.2750  0.1475  0.1074
 8478SOL     OW36892   4.707   4.481  13.925 -0.1247  0.2488  0.8505
 8478SOL    HW136893   0.066   4.516  13.955 -0.2593 -0.6589  2.2750
 8478SOL    HW236894   4.723   4.388  13.945 -1.3754 -0.1123  0.2116
 8479SOL     OW36895   1.524   4.429   8.574 -0.0862  0.1779  0.0715
 8479SOL    HW136896   1.523   4.473   8.489  3.3622 -0.0538 -0.0950
 8479SOL    HW236897   1.514   4.507   8.629  1.4868  1.5732 -1.6213
 8480SOL     OW36898   2.518   4.321   8.266 -0.4472 -0.2320  0.5869
 8480SOL    HW136899   2.436   4.330   8.315 -0.8278  0.9441 -0.2604
 8480SOL    HW236900   2.558   4.252   8.319  0.5785  1.1676  1.6248
 8481SOL     OW36901   1.565   0.364   7.923 -0.2145 -0.2919 -0.2631
 8481SOL    HW136902   1.562   0.269   7.910 -2.7643 -0.3797  0.8718
 8481SOL    HW236903   1.646   0.385   7.877  0.3063 -2.1008 -0.1558
 8482SOL     OW36904   2.915   0.424   7.732 -0.1389  0.5303  0.1012
 8482SOL    HW136905   2.924   0.342   7.682  1.2423  0.0485  1.1327
 8482SOL    HW236906   2.860   0.392   7.804  0.0957 -1.1799 -0.4734
 8483SOL     OW36907   3.273   3.333   4.287 -0.5590 -0.0070  0.7070
 8483SOL    HW136908   3.192   3.314   4.241  0.9846 -4.0435 -0.2812
 8483SOL    HW236909   3.244   3.361   4.374  3.2405 -2.9280  2.9382
 8484SOL     OW36910   0.582   1.255  17.027 -0.3524 -0.4032 -0.1259
 8484SOL    HW136911   0.661   1.250  17.080 -0.6609 -1.3256  0.2537
 8484SOL    HW236912   0.533   1.327  17.065  0.7018  0.2908 -0.0786
 8485SOL     OW36913   0.870   1.635   8.818 -0.2035 -0.1754  0.7509
 8485SOL    HW136914   0.808   1.578   8.774 -1.5572  0.6488  1.6156
 8485SOL    HW236915   0.929   1.575   8.864  0.2566  0.0548  0.4742
 8486SOL     OW36916   2.336   4.446   0.274  0.2291 -0.2894 -0.5612
 8486SOL    HW136917   2.291   4.529   0.262  1.2141  0.1669 -1.1107
 8486SOL    HW236918   2.393   4.458   0.198 -2.3849  1.1172 -2.2944
 8487SOL     OW36919   4.478   2.032   7.267  0.0994  0.2130 -0.1430
 8487SOL    HW136920   4.534   2.094   7.220 -0.6844  0.6370 -0.5020
 8487SOL    HW236921   4.527   1.951   7.254  1.9236  1.3858 -0.5611
 8488SOL     OW36922   3.098   2.895  11.404 -0.3925  0.5814 -0.1216
 8488SOL    HW136923   3.071   2.861  11.489 -1.0744 -1.5422 -1.1616
 8488SOL    HW236924   3.132   2.815  11.364 -1.9769  0.3961 -1.1026
 8489SOL     OW36925   1.215   1.599   7.960 -0.4592 -0.3208 -0.2065
 8489SOL    HW136926   1.154   1.555   8.020 -0.0839 -0.8449 -0.2154
 8489SOL    HW236927   1.195   1.556   7.877  0.0399  0.1476 -0.5719
 8490SOL     OW36928   1.076   0.797   4.228  0.1795  0.2119  0.4392
 8490SOL    HW136929   1.117   0.764   4.308  0.9980 -0.4986 -0.2797
 8490SOL    HW236930   1.155   0.824   4.181  1.4739 -1.8123  1.4426
 8491SOL     OW36931   1.145   3.442   8.989  0.3160 -0.0776 -0.5503
 8491SOL    HW136932   1.148   3.400   9.075 -1.5049  0.6410 -0.1421
 8491SOL    HW236933   1.198   3.377   8.943  1.6484  0.6592 -0.0517
 8492SOL     OW36934   1.515   4.385   3.822  0.0660 -0.3156 -0.4177
 8492SOL    HW136935   1.467   4.456   3.778  0.1688  1.1817  1.8875
 8492SOL    HW236936   1.446   4.366   3.886  1.2804 -3.2878  0.0055
 8493SOL     OW36937   1.470   3.820   4.679 -0.0710 -0.3936  0.0176
 8493SOL    HW136938   1.385   3.777   4.676  0.4366 -1.4304  0.3422
 8493SOL    HW236939   1.514   3.738   4.657 -1.0358 -0.4196 -1.8360
 8494SOL     OW36940   0.878   4.023   5.734  0.2607 -0.1798 -0.5471
 8494SOL    HW136941   0.827   4.055   5.659 -0.8269  1.1549  0.7551
 8494SOL    HW236942   0.941   4.095   5.740 -2.3529  2.1115 -0.3763
 8495SOL     OW36943   0.348   1.535   4.890  0.2443 -0.2909 -0.2821
 8495SOL    HW136944   0.334   1.508   4.799  1.7333 -1.6302 -0.1083
 8495SOL    HW236945   0.418   1.474   4.910  1.8100  1.4237 -0.5755
 8496SOL     OW36946   0.885   0.868   9.693 -0.4036 -0.2060 -0.5587
 8496SOL    HW136947   0.825   0.909   9.755  2.2836  2.2882  0.4042
 8496SOL    HW236948   0.926   0.800   9.746 -0.1503  1.4521  1.3495
 8497SOL     OW36949   2.104   4.558   4.886 -0.0981  0.1860 -0.3209
 8497SOL    HW136950   2.077   4.617   4.957 -1.2995  1.2181 -1.6405
 8497SOL    HW236951   2.034   4.496   4.904  0.2523  0.3169  1.5884
 8498SOL     OW36952   1.649   2.195   4.105  0.1890  0.3582  0.1795
 8498SOL    HW136953   1.561   2.233   4.110 -0.4314 -0.9516 -0.9218
 8498SOL    HW236954   1.692   2.248   4.171 -2.4921  2.4009  0.3202
 8499SOL     OW36955   2.459   3.947   6.516  0.0281  0.2279  0.1935
 8499SOL    HW136956   2.507   3.864   6.508  0.5939  0.4877  0.8906
 8499SOL    HW236957   2.440   3.957   6.422  0.5946  0.5792  0.1085
 8500SOL     OW36958   4.228   0.101   2.596 -0.2179 -0.1183 -0.6751
 8500SOL    HW136959   4.226   0.137   2.685  1.0901 -0.0763 -0.6721
 8500SOL    HW236960   4.315   0.062   2.594 -0.0489  0.1701  0.8008
 8501SOL     OW36961   0.173   4.548  16.210 -0.2946 -0.4498  0.2795
 8501SOL    HW136962   0.244   4.498  16.170 -1.6693 -0.1124 -2.5727
 8501SOL    HW236963   0.155   4.626  16.158  0.3232  1.8129  3.4520
 8502SOL     OW36964   0.298   1.245   9.912 -0.5173 -0.3657  0.6041
 8502SOL    HW136965   0.252   1.246   9.996  0.2649  2.8633  0.9821
 8502SOL    HW236966   0.338   1.332   9.913  2.8128 -1.8794  1.2577
 8503SOL     OW36967   3.051   3.385   5.781 -0.1899  0.2496 -0.3488
 8503SOL    HW136968   3.131   3.333   5.772  0.0061  0.3779  0.6746
 8503SOL    HW236969   3.002   3.334   5.846  0.3456  0.5014  0.2472
 8504SOL     OW36970   3.962   1.661   3.159  0.1079  0.4966  0.3575
 8504SOL    HW136971   3.934   1.729   3.097 -0.9967  0.7904  1.1837
 8504SOL    HW236972   4.013   1.611   3.095 -2.3936 -0.2510 -1.0499
 8505SOL     OW36973   0.126   2.766   4.428  0.1119  0.4380  0.1866
 8505SOL    HW136974   0.154   2.791   4.515 -1.6001 -0.3838  0.9889
 8505SOL    HW236975   0.172   2.683   4.417  2.7379  1.9515 -0.1177
 8506SOL     OW36976   1.780   3.626  16.220  0.1174  0.0922  0.2959
 8506SOL    HW136977   1.819   3.639  16.133 -0.1086 -0.5299  0.0974
 8506SOL    HW236978   1.693   3.595  16.195 -0.8992  3.2773 -0.1597
 8507SOL     OW36979   2.675   2.942   0.320 -0.5075 -0.1310 -0.4358
 8507SOL    HW136980   2.656   2.867   0.377  1.2811 -0.2434  0.0143
 8507SOL    HW236981   2.711   3.005   0.382 -1.3899 -1.3325  1.2965
 8508SOL     OW36982   2.973   0.221   8.018  0.3215 -0.3418  0.0930
 8508SOL    HW136983   3.036   0.161   7.978 -0.8851 -1.2091 -0.5120
 8508SOL    HW236984   3.016   0.235   8.102 -0.2518  0.5682  0.2316
 8509SOL     OW36985   0.140   1.218   5.080  0.5216  0.0238 -0.5396
 8509SOL    HW136986   0.075   1.149   5.063 -0.8307  1.5849 -1.7177
 8509SOL    HW236987   0.217   1.176   5.042  0.0885 -2.4781  1.3237
 8510SOL     OW36988   1.445   1.204   2.344  0.0706 -0.5176  0.5145
 8510SOL    HW136989   1.383   1.216   2.271  1.5933  1.2883 -0.4837
 8510SOL    HW236990   1.529   1.218   2.299 -1.1834 -0.0669 -1.7172
 8511SOL     OW36991   0.590   0.444  15.606  0.1565  0.6711  0.0242
 8511SOL    HW136992   0.628   0.476  15.688 -0.3009  0.5134  0.2974
 8511SOL    HW236993   0.601   0.520  15.549  2.2377 -1.0051 -1.8238
 8512SOL     OW36994   2.548   1.079   3.316 -0.6035  0.0036 -0.5338
 8512SOL    HW136995   2.468   1.035   3.345 -1.3612  1.7258 -0.0272
 8512SOL    HW236996   2.592   1.076   3.400  1.2699  1.2656 -1.4675
 8513SOL     OW36997   1.137   4.267   8.522  0.0703  0.1713 -0.2351
 8513SOL    HW136998   1.094   4.231   8.600 -0.0756  0.6928 -0.0750
 8513SOL    HW236999   1.082   4.243   8.447 -1.9949  1.1639  0.9724
 8514SOL     OW37000   2.630   3.382  15.106 -0.2454 -0.2196 -0.1170
 8514SOL    HW137001   2.724   3.370  15.090  0.0065  1.0492  0.3865
 8514SOL    HW237002   2.594   3.427  15.029  1.1308  1.6513  0.3381
 8515SOL     OW37003   1.940   4.488   4.508 -0.3256  0.2482 -0.2023
 8515SOL    HW137004   1.943   4.395   4.531  4.7237  0.4872  0.1052
 8515SOL    HW237005   2.028   4.519   4.533 -0.2118 -1.2236  1.2131
 8516SOL     OW37006   1.962   1.350   2.487 -0.5034  0.1084  0.1996
 8516SOL    HW137007   2.006   1.424   2.528  1.2879 -1.9222  1.9149
 8516SOL    HW237008   1.954   1.301   2.569  0.3523  0.5436  0.5405
 8517SOL     OW37009   2.368   3.930   0.199  0.6662 -0.3212 -0.2883
 8517SOL    HW137010   2.405   3.926   0.111  0.4605  2.2459 -0.4828
 8517SOL    HW237011   2.275   3.944   0.180  0.8121 -0.7400 -1.2980
 8518SOL     OW37012   2.047   2.805   6.868 -0.3781 -0.5956 -0.7356
 8518SOL    HW137013   2.010   2.847   6.945 -0.5842  1.1160 -1.7665
 8518SOL    HW237014   2.139   2.829   6.867 -0.0985 -1.6462 -0.3691
 8519SOL     OW37015   2.844   2.358   4.702 -0.1526  0.2859  0.2530
 8519SOL    HW137016   2.929   2.370   4.661  0.1573  0.5996  0.9831
 8519SOL    HW237017   2.869   2.306   4.778  0.4251 -1.5469 -1.1934
 8520SOL     OW37018   2.734   2.243   0.372  0.3760 -0.2623 -0.6390
 8520SOL    HW137019   2.727   2.331   0.334 -0.7285 -1.4210 -3.1298
 8520SOL    HW237020   2.801   2.203   0.317 -0.5725 -0.4598 -1.6319
 8521SOL     OW37021   4.104   4.452   6.770 -0.4205 -0.3153 -0.0208
 8521SOL    HW137022   4.050   4.426   6.845  1.6162  1.1811  1.9435
 8521SOL    HW237023   4.138   4.535   6.803  1.6920 -1.9325  1.8472
 8522SOL     OW37024   0.712   4.088   3.949 -0.4264  0.0360  0.3942
 8522SOL    HW137025   0.730   4.010   3.896 -0.1126 -0.8815  1.8394
 8522SOL    HW237026   0.712   4.037   4.030  1.1121 -0.7291 -0.0904
 8523SOL     OW37027   2.675   3.479   0.995  0.0655 -0.1184  0.2074
 8523SOL    HW137028   2.602   3.477   1.056 -0.4306 -2.6234 -0.4681
 8523SOL    HW237029   2.701   3.387   0.998 -1.6489 -0.7004 -2.4060
 8524SOL     OW37030   3.312   3.337   3.728  0.0673 -0.0390  0.3451
 8524SOL    HW137031   3.307   3.408   3.793 -0.7430 -0.2851  0.5454
 8524SOL    HW237032   3.404   3.330   3.702 -0.6219 -3.3527 -1.1117
 8525SOL     OW37033   3.085   0.824   6.540  0.3387 -0.3240 -0.4606
 8525SOL    HW137034   3.146   0.793   6.606 -2.0172 -0.8280  1.4863
 8525SOL    HW237035   3.024   0.861   6.604 -0.0483  0.6736 -1.3938
 8526SOL     OW37036   4.067   3.205  16.630 -0.2176 -0.4914  0.3801
 8526SOL    HW137037   4.078   3.110  16.636  1.1494 -0.2080  2.3365
 8526SOL    HW237038   4.144   3.217  16.574  0.5835 -0.1251  1.5796
 8527SOL     OW37039   3.404   0.761  13.191  0.0962 -0.2040  0.2146
 8527SOL    HW137040   3.428   0.733  13.279  2.0898 -1.9206 -0.8662
 8527SOL    HW237041   3.385   0.854  13.205 -2.3099 -1.0859  2.9293
 8528SOL     OW37042   1.338   1.647   5.580 -0.0855  0.3194 -0.2050
 8528SOL    HW137043   1.283   1.614   5.651  0.1755  1.0815  0.3514
 8528SOL    HW237044   1.422   1.613   5.615  0.1381  0.8374 -0.2468
 8529SOL     OW37045   1.824   0.170   6.085  0.0048 -0.0895 -0.4833
 8529SOL    HW137046   1.739   0.199   6.050  0.1634  1.3286  0.2890
 8529SOL    HW237047   1.890   0.178   6.016  0.2679 -2.5978 -0.5008
 8530SOL     OW37048   3.129   4.481  15.004 -0.4913 -0.2348 -0.4491
 8530SOL    HW137049   3.122   4.534  14.925 -0.4559  1.0228  0.3881
 8530SOL    HW237050   3.054   4.505  15.059  2.3271 -0.0901  3.2930
 8531SOL     OW37051   3.318   4.117   7.822  0.5535  0.5599  0.1481
 8531SOL    HW137052   3.283   4.180   7.886  1.4136 -0.3005  1.4805
 8531SOL    HW237053   3.400   4.158   7.797  1.0978  0.7764  2.2400
 8532SOL     OW37054   2.393   1.267  10.459 -0.1268  0.1185  0.2704
 8532SOL    HW137055   2.423   1.202  10.396  1.2357 -0.4256  1.4589
 8532SOL    HW237056   2.443   1.242  10.537 -0.6625  0.8513  0.8554
 8533SOL     OW37057   4.453   0.208  16.579  0.0119  0.0202  0.4423
 8533SOL    HW137058   4.528   0.155  16.606  1.3521  1.5154 -0.3281
 8533SOL    HW237059   4.389   0.143  16.550  0.7854 -0.2322 -0.7415
 8534SOL     OW37060   1.747   3.523   2.920  0.2085  0.8057  0.4242
 8534SOL    HW137061   1.786   3.531   3.007 -1.0195  1.8399  0.8837
 8534SOL    HW237062   1.663   3.480   2.934  0.0203  0.5047 -1.5812
 8535SOL     OW37063   1.243   0.835   3.087 -0.0085 -0.2948 -0.8992
 8535SOL    HW137064   1.327   0.798   3.115 -0.0195  0.0201 -0.4690
 8535SOL    HW237065   1.193   0.759   3.055 -0.8724  0.3542 -1.0678
 8536SOL     OW37066   4.088   3.346  11.627 -0.5169  0.2264  0.0510
 8536SOL    HW137067   4.033   3.376  11.554 -0.6806  0.0865  0.1161
 8536SOL    HW237068   4.022   3.316  11.690 -1.3324  1.8802 -0.0056
 8537SOL     OW37069   1.099   1.198  11.855  0.2256 -0.1455  1.0776
 8537SOL    HW137070   1.069   1.214  11.944 -1.1607  0.6513  0.4756
 8537SOL    HW237071   1.073   1.106  11.854  0.9483 -0.3255 -1.0277
 8538SOL     OW37072   0.653   2.078   9.804  0.4089 -0.0835 -0.5579
 8538SOL    HW137073   0.733   2.034   9.835  1.1031  1.8294  0.3677
 8538SOL    HW237074   0.699   2.146   9.754 -0.9184  1.6258  0.5835
 8539SOL     OW37075   4.634   4.028   3.113 -0.4177 -0.0368  0.0483
 8539SOL    HW137076   4.571   4.062   3.177 -0.4554  0.6262 -0.3407
 8539SOL    HW237077   4.655   4.099   3.052  0.5685 -2.4534 -2.4496
 8540SOL     OW37078   4.207   2.664   9.816  0.1359 -0.2139  0.4471
 8540SOL    HW137079   4.252   2.593   9.769 -2.9164 -0.9576 -1.3190
 8540SOL    HW237080   4.194   2.609   9.894 -3.2463  1.6712  1.1848
 8541SOL     OW37081   4.636   0.033  11.323 -0.2294  0.5367  0.1995
 8541SOL    HW137082   4.540   0.043  11.321 -0.2629  0.1448 -0.0199
 8541SOL    HW237083   4.648   4.668  11.355 -3.7682 -0.5367 -1.4780
 8542SOL     OW37084   1.966   0.575  12.949 -0.0603 -0.7943 -0.0727
 8542SOL    HW137085   1.898   0.630  12.988  0.8213 -0.3200  0.8017
 8542SOL    HW237086   1.995   0.617  12.868 -0.3217  0.7734  0.6492
 8543SOL     OW37087   1.672   0.456   4.810 -0.0322  0.1163 -0.2404
 8543SOL    HW137088   1.707   0.467   4.899  0.3994 -0.2919 -0.3593
 8543SOL    HW237089   1.584   0.491   4.817  0.4941  1.5522 -0.7830
 8544SOL     OW37090   2.700   1.846  14.612 -0.4912 -0.0924  0.1429
 8544SOL    HW137091   2.735   1.863  14.524  1.1698 -2.0623  0.4169
 8544SOL    HW237092   2.754   1.772  14.640 -0.4142  0.1547  0.6515
 8545SOL     OW37093   4.396   2.283   5.660  0.4756 -0.3509  0.1749
 8545SOL    HW137094   4.479   2.268   5.706 -0.5219 -1.8426  1.4556
 8545SOL    HW237095   4.383   2.205   5.607 -1.0224 -0.6443  0.9679
 8546SOL     OW37096   1.176   3.254   2.509 -0.0103  0.1535 -0.4570
 8546SOL    HW137097   1.189   3.331   2.455  3.9699 -0.7490 -0.7401
 8546SOL    HW237098   1.138   3.201   2.439  0.2992  0.7729 -1.0926
 8547SOL     OW37099   3.707   2.289   8.846  0.0589  0.0055  0.1697
 8547SOL    HW137100   3.736   2.375   8.818  0.9611 -0.9736 -1.9492
 8547SOL    HW237101   3.781   2.234   8.871  0.5344  1.1963  1.3270
 8548SOL     OW37102   3.255   2.203  14.088  0.3382 -0.4527 -0.2617
 8548SOL    HW137103   3.310   2.263  14.038  0.4594  0.3453  0.8357
 8548SOL    HW237104   3.252   2.236  14.178  0.0829  0.0048 -0.4405
 8549SOL     OW37105   1.896   2.747   2.630 -0.6190  0.1708 -0.9003
 8549SOL    HW137106   1.834   2.728   2.560 -2.7993  1.8345  0.5811
 8549SOL    HW237107   1.859   2.827   2.667  0.7743 -0.0851  1.0592
 8550SOL     OW37108   2.251   2.748  11.420  0.1764  0.0644  0.0615
 8550SOL    HW137109   2.254   2.654  11.405  0.0644  0.3758 -1.8598
 8550SOL    HW237110   2.263   2.752  11.515  0.8015  1.2263 -0.0577
 8551SOL     OW37111   0.558   4.287   7.735 -0.0783 -0.4195 -0.2997
 8551SOL    HW137112   0.567   4.321   7.646 -0.9402  0.0396 -0.2114
 8551SOL    HW237113   0.517   4.201   7.731  0.1377 -0.4945 -0.9332
 8552SOL     OW37114   2.405   0.394   5.145  0.2861  0.3361  0.2002
 8552SOL    HW137115   2.462   0.401   5.222  0.3912 -1.3512  0.2719
 8552SOL    HW237116   2.371   0.306   5.161  0.4775 -0.1254 -1.8402
 8553SOL     OW37117   1.074   0.751   8.567 -0.3308 -0.4925  0.3253
 8553SOL    HW137118   1.041   0.680   8.512  2.2134 -0.4960 -1.1791
 8553SOL    HW237119   1.103   0.812   8.499 -2.3924  1.3853  1.1477
 8554SOL     OW37120   2.838   1.168   3.241  0.2982  0.0627  0.7743
 8554SOL    HW137121   2.838   1.176   3.145 -0.9799 -0.2553  0.7545
 8554SOL    HW237122   2.745   1.154   3.255 -0.3538  3.3429 -0.4714
 8555SOL     OW37123   1.219   2.990   4.232  0.2516 -0.3867 -0.2636
 8555SOL    HW137124   1.197   3.048   4.306 -0.4856  1.9449 -2.3128
 8555SOL    HW237125   1.213   3.045   4.154  0.5616 -1.4759 -1.0531
 8556SOL     OW37126   1.435   3.494   1.636  0.1905 -0.4223 -0.6320
 8556SOL    HW137127   1.505   3.438   1.600 -0.0519  0.0932 -1.9135
 8556SOL    HW237128   1.436   3.562   1.568  0.4363 -0.3322 -0.5404
 8557SOL     OW37129   2.078   2.531   5.921 -0.4100  0.0953 -0.3576
 8557SOL    HW137130   2.153   2.521   5.979  0.4583 -1.4923 -1.7506
 8557SOL    HW237131   2.057   2.438   5.909 -0.5787  0.0211  0.5080
 8558SOL     OW37132   2.343   4.350   1.553 -0.2373  0.1998  0.1563
 8558SOL    HW137133   2.356   4.413   1.482  0.1029  0.4645  0.4504
 8558SOL    HW237134   2.335   4.407   1.629 -1.3831 -3.2640  2.6415
 8559SOL     OW37135   3.553   1.680   6.800  0.0803 -0.4064  0.1562
 8559SOL    HW137136   3.469   1.660   6.841  0.1216 -2.4815 -0.7803
 8559SOL    HW237137   3.602   1.608   6.840  1.5420 -0.3794 -1.5562
 8560SOL     OW37138   1.462   2.325   9.525  0.4803  0.4124  0.0675
 8560SOL    HW137139   1.438   2.392   9.589 -0.0447 -1.8114  2.2091
 8560SOL    HW237140   1.384   2.308   9.473 -0.8149  1.5377  1.6552
 8561SOL     OW37141   0.917   1.369   5.214 -0.0773  0.1102  0.1752
 8561SOL    HW137142   0.935   1.445   5.159 -0.0051 -0.1358 -0.1403
 8561SOL    HW237143   0.966   1.402   5.289 -1.1200  0.3673  0.7416
 8562SOL     OW37144   0.775   1.963  15.670  0.3165  0.3940  0.4945
 8562SOL    HW137145   0.747   2.015  15.595  0.2268  1.6559  1.3984
 8562SOL    HW237146   0.686   1.966  15.705  0.9783 -3.0125  2.4597
 8563SOL     OW37147   1.999   3.968   9.034 -0.0824 -0.2030 -0.2587
 8563SOL    HW137148   1.943   3.891   9.037  0.4180 -0.5492  0.0525
 8563SOL    HW237149   1.952   4.031   8.978 -0.3476  0.2030  0.4285
 8564SOL     OW37150   1.693   3.650  16.900 -0.2067 -0.2511  0.1219
 8564SOL    HW137151   1.712   3.612  16.814 -0.3757  0.0826 -0.0610
 8564SOL    HW237152   1.778   3.687  16.924 -0.2687 -0.2949  0.4135
 8565SOL     OW37153   4.056   3.905   6.272  0.2665  0.1246 -0.1617
 8565SOL    HW137154   4.106   3.981   6.243  2.1463 -1.0299  0.0936
 8565SOL    HW237155   4.035   3.862   6.189 -0.4275 -0.2562  0.2045
 8566SOL     OW37156   3.993   2.229  14.273  0.7055 -0.2863 -0.4910
 8566SOL    HW137157   4.041   2.308  14.247  1.0276 -0.4955 -0.5413
 8566SOL    HW237158   4.043   2.167  14.220  1.0583 -0.4925  0.0809
 8567SOL     OW37159   2.493   3.142   4.387 -0.6661  0.1229 -0.1023
 8567SOL    HW137160   2.517   3.090   4.464  0.6852 -0.4365 -0.9035
 8567SOL    HW237161   2.529   3.229   4.404  0.3306 -0.2880 -0.1013
 8568SOL     OW37162   0.570   1.975   3.146 -0.1932  0.6125 -0.2015
 8568SOL    HW137163   0.647   1.977   3.089 -0.5496  3.7516 -0.5815
 8568SOL    HW237164   0.582   1.886   3.178  0.2114  0.5255 -0.5826
 8569SOL     OW37165   1.496   3.484   4.815  0.1367  0.2986 -0.5884
 8569SOL    HW137166   1.584   3.520   4.828  0.8921 -1.7236 -0.0403
 8569SOL    HW237167   1.453   3.482   4.901  1.3690 -2.3504 -0.0209
 8570SOL     OW37168   2.648   4.031   7.052  0.3882  0.0532 -0.3739
 8570SOL    HW137169   2.610   4.054   6.967  0.0783  0.2447 -0.1835
 8570SOL    HW237170   2.717   3.973   7.020  1.1208 -0.2889  1.8240
 8571SOL     OW37171   0.383   0.570   2.409  0.4467 -0.8344  0.5190
 8571SOL    HW137172   0.477   0.588   2.405  0.2717  0.0888  0.5833
 8571SOL    HW237173   0.395   0.483   2.370 -2.7944 -0.3339 -1.6577
 8572SOL     OW37174   0.250   2.790   3.769  0.5908  0.3235  0.1071
 8572SOL    HW137175   0.243   2.744   3.852  0.4711  2.3923  1.2364
 8572SOL    HW237176   0.207   2.874   3.783 -0.4275  0.0399 -1.2781
 8573SOL     OW37177   4.517   0.568   3.845  0.1133  0.2541 -0.2659
 8573SOL    HW137178   4.489   0.581   3.754 -3.3020  1.4392  0.9546
 8573SOL    HW237179   4.551   0.657   3.854 -1.0078  0.4698  1.7771
 8574SOL     OW37180   0.226   3.244  11.925  0.5680  0.3601  0.1453
 8574SOL    HW137181   0.297   3.246  11.989  0.6056 -0.3060  0.1204
 8574SOL    HW237182   0.171   3.170  11.950  0.6517  0.0770 -0.5023
 8575SOL     OW37183   1.084   3.835   7.427  0.1904 -0.0288 -0.2167
 8575SOL    HW137184   1.052   3.849   7.516  1.0331 -0.4757  0.1493
 8575SOL    HW237185   1.080   3.740   7.412 -0.2244  0.1201 -1.0515
 8576SOL     OW37186   2.621   0.679   5.672  0.7044 -0.5473  0.0700
 8576SOL    HW137187   2.597   0.711   5.585  0.1217  0.1442  0.4829
 8576SOL    HW237188   2.559   0.611   5.698 -2.9862  2.4241 -0.9064
 8577SOL     OW37189   4.140   0.482   5.640  0.3142 -0.2274  0.9231
 8577SOL    HW137190   4.151   0.405   5.584  2.5196 -0.2016  1.3140
 8577SOL    HW237191   4.224   0.524   5.621  0.0479  0.9328  2.3363
 8578SOL     OW37192   1.516   2.319   2.998 -0.8621 -0.2647  0.0119
 8578SOL    HW137193   1.602   2.362   2.994 -0.7761 -0.4886 -0.6253
 8578SOL    HW237194   1.531   2.227   2.976 -0.8926 -0.8542  2.4658
 8579SOL     OW37195   3.078   2.273   7.032  0.5016 -0.0855  0.1594
 8579SOL    HW137196   3.050   2.184   7.012  0.1704  0.6549 -2.7053
 8579SOL    HW237197   3.058   2.268   7.125 -0.3219 -0.5259 -0.0416
 8580SOL     OW37198   1.284   3.878   3.106  0.2475  0.0348 -0.6585
 8580SOL    HW137199   1.332   3.815   3.160 -0.1515  1.3475  1.2242
 8580SOL    HW237200   1.199   3.881   3.151 -0.3300  1.7034 -1.8904
 8581SOL     OW37201   4.455   4.485   8.483  0.5273 -0.0562  0.3255
 8581SOL    HW137202   4.421   4.398   8.502 -1.3560  0.7316  0.5680
 8581SOL    HW237203   4.429   4.501   8.392  0.5435 -1.5095  0.0727
 8582SOL     OW37204   0.627   0.767  10.036 -0.4632 -0.0787  0.2252
 8582SOL    HW137205   0.676   0.847  10.015  0.5278 -1.2100 -1.7030
 8582SOL    HW237206   0.540   0.799  10.059 -0.5894 -0.3530  0.1196
 8583SOL     OW37207   0.937   3.280  10.121  0.1438  0.6874 -0.0347
 8583SOL    HW137208   0.994   3.282  10.044  1.7892  1.6876  1.1999
 8583SOL    HW237209   0.995   3.266  10.196  0.0323  2.0390  0.3092
 8584SOL     OW37210   1.141   0.913   3.635 -0.6385  0.2254 -0.0591
 8584SOL    HW137211   1.098   0.963   3.566 -2.2561 -0.4780  0.4200
 8584SOL    HW237212   1.108   0.958   3.713 -0.7196  0.2839 -0.1270
 8585SOL     OW37213   2.901   2.663   1.280  0.0939 -0.0902  0.3661
 8585SOL    HW137214   2.862   2.608   1.211  2.9074  0.0720 -1.3507
 8585SOL    HW237215   2.843   2.641   1.353  1.5379 -0.1907  1.4688
 8586SOL     OW37216   0.477   3.079  12.054 -0.3103  0.1977 -0.2043
 8586SOL    HW137217   0.451   3.034  12.135 -1.1984  0.6398 -0.2371
 8586SOL    HW237218   0.558   3.029  12.042  0.7207  1.7481  0.2055
 8587SOL     OW37219   2.544   0.439  11.224 -0.0524 -0.0317  0.2374
 8587SOL    HW137220   2.535   0.431  11.319  0.9562 -2.7679  0.1016
 8587SOL    HW237221   2.621   0.495  11.218 -0.8446  0.9422 -1.0351
 8588SOL     OW37222   0.542   4.716  10.079 -0.7857 -0.3138  0.7204
 8588SOL    HW137223   0.553   0.023   9.990 -2.2673 -1.5945  0.0940
 8588SOL    HW237224   0.451   4.689  10.086 -0.2296 -1.4380  3.9381
 8589SOL     OW37225   4.577   0.518   2.722  1.1168 -0.0241 -0.2518
 8589SOL    HW137226   4.548   0.577   2.792 -1.2079 -1.7558  0.2662
 8589SOL    HW237227   4.666   0.546   2.704  1.1231 -0.9649 -1.6206
 8590SOL     OW37228   1.373   1.892   3.371  0.2487  0.5151 -0.0606
 8590SOL    HW137229   1.461   1.866   3.398 -0.4884  1.2391  2.9895
 8590SOL    HW237230   1.365   1.982   3.404  1.4278  0.9999 -1.1113
 8591SOL     OW37231   3.677   2.328   0.363 -0.1492 -0.0002  0.1351
 8591SOL    HW137232   3.684   2.409   0.313  0.7913 -0.1759 -0.0276
 8591SOL    HW237233   3.585   2.310   0.349  0.3632 -2.2349 -0.3905
 8592SOL     OW37234   2.254   3.956  15.945  0.1360  0.3788 -0.5661
 8592SOL    HW137235   2.304   4.013  16.003  0.6379 -0.1008 -0.5249
 8592SOL    HW237236   2.304   3.876  15.959 -2.7796 -1.6769 -1.8810
 8593SOL     OW37237   2.454   0.338  14.620  0.0201  0.2160 -0.2862
 8593SOL    HW137238   2.388   0.317  14.554  0.4536  1.5102 -1.1277
 8593SOL    HW237239   2.426   0.428  14.636  2.4772  0.5860  1.9164
 8594SOL     OW37240   3.750   3.662   3.377 -0.5459  0.5824  0.2228
 8594SOL    HW137241   3.673   3.607   3.365 -0.0413 -0.3990  1.4369
 8594SOL    HW237242   3.776   3.626   3.462  2.0913  0.8393 -0.4682
 8595SOL     OW37243   4.084   3.252  15.039 -0.8848  0.2130  0.8104
 8595SOL    HW137244   4.076   3.158  15.055  0.6864  0.5636  3.6617
 8595SOL    HW237245   3.995   3.281  15.021 -0.6611 -0.4029 -1.2779
 8596SOL     OW37246   2.056   3.284   0.392 -0.1249 -0.3244 -0.4933
 8596SOL    HW137247   2.108   3.362   0.370  0.9789 -1.0026 -0.3049
 8596SOL    HW237248   2.022   3.262   0.305  0.2703  1.0518 -0.9978
 8597SOL     OW37249   0.825   3.008   8.631  0.3485  0.4423 -1.1226
 8597SOL    HW137250   0.792   2.987   8.718 -0.3670 -0.7961 -1.6967
 8597SOL    HW237251   0.827   2.927   8.580 -0.0263  0.7900 -1.6959
 8598SOL     OW37252   3.612   3.311   8.166 -0.1656 -0.4114 -0.4414
 8598SOL    HW137253   3.592   3.399   8.134 -3.7268 -1.8434 -2.1709
 8598SOL    HW237254   3.675   3.343   8.231 -0.9368  1.2063 -0.4831
 8599SOL     OW37255   0.102   2.466   8.912 -0.2773  0.0209 -0.5422
 8599SOL    HW137256   0.077   2.547   8.868 -2.0636 -0.7227 -0.8864
 8599SOL    HW237257   0.175   2.500   8.964 -2.0723  0.4192  1.6931
 8600SOL     OW37258   0.026   1.493  10.909 -0.0058  0.2293 -0.0666
 8600SOL    HW137259   4.688   1.462  10.975 -1.3220  0.6135 -1.1196
 8600SOL    HW237260   0.058   1.574  10.950  2.3849 -0.4676 -0.5617
 8601SOL     OW37261   0.539   0.161   4.580 -0.1715  0.1368  0.4414
 8601SOL    HW137262   0.600   0.153   4.507  0.0627 -0.2410  0.6787
 8601SOL    HW237263   0.476   0.224   4.546 -0.3484  0.0618  0.6283
 8602SOL     OW37264   2.466   0.086   2.152  0.3050 -0.1145 -0.1862
 8602SOL    HW137265   2.514   0.017   2.197  0.6469  1.7021  2.2912
 8602SOL    HW237266   2.374   0.066   2.171 -0.2037  0.4517 -2.1347
 8603SOL     OW37267   2.690   1.092   3.542  0.1834 -0.0403 -0.4882
 8603SOL    HW137268   2.702   1.019   3.604 -3.2130 -0.7304 -0.6187
 8603SOL    HW237269   2.715   1.159   3.605 -0.9879  0.4887 -0.5817
 8604SOL     OW37270   2.580   3.450   4.719 -0.3694  0.0436 -0.0488
 8604SOL    HW137271   2.609   3.491   4.800 -0.6342  0.8503 -0.3639
 8604SOL    HW237272   2.505   3.506   4.696 -1.8180 -1.0678  2.0077
 8605SOL     OW37273   4.319   0.383   6.520  0.4436 -0.4042 -0.3631
 8605SOL    HW137274   4.403   0.338   6.531  0.6045  0.4138  1.7521
 8605SOL    HW237275   4.260   0.333   6.576  0.4846  1.7273  1.5972
 8606SOL     OW37276   3.955   3.208  17.000  0.1849 -0.0940 -0.3156
 8606SOL    HW137277   3.936   3.140  17.064  0.6696 -0.9303 -1.0578
 8606SOL    HW237278   4.051   3.205  17.002  0.2968  3.2689 -0.7410
 8607SOL     OW37279   2.310   0.941   8.197 -0.5223  0.0982 -0.5103
 8607SOL    HW137280   2.234   0.988   8.163 -0.5460 -0.7211 -1.5830
 8607SOL    HW237281   2.290   0.857   8.155 -5.4812  0.4137  1.3181
 8608SOL     OW37282   0.460   2.061   8.369 -0.1750  0.3225 -0.3230
 8608SOL    HW137283   0.515   2.139   8.362  0.8777 -0.4714 -0.9214
 8608SOL    HW237284   0.378   2.110   8.367  0.4937  1.3780 -1.2191
 8609SOL     OW37285   0.550   0.343  13.782  0.5350 -0.0410  0.3081
 8609SOL    HW137286   0.569   0.417  13.726 -0.9676 -1.6613 -2.3362
 8609SOL    HW237287   0.580   0.269  13.729  1.6498  0.8855 -0.3601
 8610SOL     OW37288   0.140   4.151   2.336 -0.0955  0.1581  0.1259
 8610SOL    HW137289   0.062   4.180   2.289  0.5908 -0.9475 -1.6858
 8610SOL    HW237290   0.208   4.202   2.293 -0.2882  0.1280 -0.2212
 8611SOL     OW37291   2.734   3.082   6.236 -0.1149 -0.8599 -0.3343
 8611SOL    HW137292   2.740   3.091   6.141  4.2937  2.0531  0.2483
 8611SOL    HW237293   2.675   3.156   6.252  1.0736  0.1706 -0.7589
 8612SOL     OW37294   2.214   4.698   4.273 -0.0041  0.2269 -0.8884
 8612SOL    HW137295   2.236   0.054   4.320  0.5032  0.1462 -0.9887
 8612SOL    HW237296   2.269   4.636   4.320 -1.5111 -0.2952  0.1824
 8613SOL     OW37297   4.021   3.097   8.690 -0.0892 -0.1329 -0.4663
 8613SOL    HW137298   3.981   3.140   8.615 -1.4959  2.4569  1.7469
 8613SOL    HW237299   3.981   3.010   8.697 -0.3599 -0.0851 -1.4232
 8614SOL     OW37300   3.875   2.287  15.497  0.7207  0.2774  0.6642
 8614SOL    HW137301   3.847   2.240  15.576 -0.2331  0.1866  0.2741
 8614SOL    HW237302   3.966   2.309  15.519  0.4223  2.4815 -0.2560
 8615SOL     OW37303   0.181   0.524   2.920 -0.0076  0.1939 -0.3453
 8615SOL    HW137304   0.273   0.544   2.906 -0.0419 -0.3285 -1.3525
 8615SOL    HW237305   0.170   0.440   2.875 -1.3497  0.4438 -0.4739
 8616SOL     OW37306   0.723   1.077   3.709 -0.5213  0.1782  0.0313
 8616SOL    HW137307   0.661   1.042   3.774 -1.1338  0.3446 -0.4705
 8616SOL    HW237308   0.751   0.993   3.672 -1.8466 -0.5003  0.5372
 8617SOL     OW37309   3.258   2.471   5.670 -0.1658  0.0963 -0.6913
 8617SOL    HW137310   3.263   2.566   5.659  2.2378 -0.1640 -1.8023
 8617SOL    HW237311   3.331   2.449   5.612  0.2495  0.6080 -0.3714
 8618SOL     OW37312   1.006   1.015   1.715  0.1312  0.3801 -0.3003
 8618SOL    HW137313   0.968   1.034   1.801  0.6180 -1.9356  0.4422
 8618SOL    HW237314   1.079   1.076   1.712 -0.6372  1.3683  1.2633
 8619SOL     OW37315   3.020   3.478   7.976 -0.2657 -0.1611  0.6564
 8619SOL    HW137316   3.052   3.556   8.022  0.6102 -0.0606 -0.1295
 8619SOL    HW237317   2.933   3.478   8.014 -0.0806 -0.4697  1.0858
 8620SOL     OW37318   0.651   3.128  14.546 -0.7447  0.1698 -0.3183
 8620SOL    HW137319   0.661   3.040  14.582  0.2202  0.5236  0.2810
 8620SOL    HW237320   0.658   3.113  14.452 -0.8761  1.0323 -0.4671
 8621SOL     OW37321   0.364   3.505  11.292  0.1378 -0.1750  0.0392
 8621SOL    HW137322   0.322   3.426  11.257 -0.7197  1.4946 -2.6939
 8621SOL    HW237323   0.347   3.580  11.235 -2.4792 -1.3292 -0.6805
 8622SOL     OW37324   2.409   0.469   6.952  0.1504 -0.0729  0.3509
 8622SOL    HW137325   2.474   0.538   6.943  0.7286 -0.7464 -0.5590
 8622SOL    HW237326   2.465   0.393   6.966  0.7652  0.6316  1.7051
 8623SOL     OW37327   3.032   0.538   8.879  0.0950 -0.1567  0.1523
 8623SOL    HW137328   3.049   0.562   8.970  2.1070  2.0976 -0.8212
 8623SOL    HW237329   2.998   0.619   8.842 -1.4579 -0.2751  1.3054
 8624SOL     OW37330   1.775   1.031  13.790 -0.2634  0.1164 -0.1682
 8624SOL    HW137331   1.688   1.029  13.750 -0.2292 -0.7650 -0.1876
 8624SOL    HW237332   1.746   1.063  13.876 -1.1322  0.9600 -0.7784
 8625SOL     OW37333   3.899   1.057   5.246  0.8502  0.2544 -0.6882
 8625SOL    HW137334   3.895   1.064   5.151 -1.8957  0.9320 -0.5278
 8625SOL    HW237335   3.993   1.064   5.264  0.9117  0.3551 -1.0626
 8626SOL     OW37336   2.408   0.609  14.563 -0.0866 -0.4100  0.0944
 8626SOL    HW137337   2.428   0.639  14.475  0.4258  1.5324  0.8797
 8626SOL    HW237338   2.422   0.686  14.618  2.9662  0.0889 -1.4101
 8627SOL     OW37339   2.432   3.376  14.036  0.1567  0.1275  0.6822
 8627SOL    HW137340   2.362   3.314  14.015  0.0985  0.4190 -0.0012
 8627SOL    HW237341   2.400   3.445  14.094  0.1654  0.3059  0.4759
 8628SOL     OW37342   0.502   1.352   3.829 -0.1649 -0.0453  0.6369
 8628SOL    HW137343   0.505   1.422   3.893 -0.1657  2.1878 -1.8182
 8628SOL    HW237344   0.408   1.335   3.832 -0.1624 -0.2429 -0.3546
 8629SOL     OW37345   0.365   2.166   2.796 -0.6151  0.6077  0.2710
 8629SOL    HW137346   0.335   2.135   2.710 -2.1529  2.4155  0.1406
 8629SOL    HW237347   0.281   2.183   2.839  0.6063  2.1467  2.0334
 8630SOL     OW37348   3.817   1.390   6.612  0.3805 -0.2059 -0.4432
 8630SOL    HW137349   3.790   1.408   6.703 -1.1920  3.7348 -1.6794
 8630SOL    HW237350   3.903   1.353   6.632  0.2555 -0.4962 -0.4412
 8631SOL     OW37351   2.632   1.417   8.930 -0.1742  0.5979  0.0091
 8631SOL    HW137352   2.707   1.472   8.908 -1.2747  0.8712 -3.0866
 8631SOL    HW237353   2.669   1.332   8.955 -2.0215 -0.8987 -2.2584
 8632SOL     OW37354   1.003   1.471   2.138  0.5983  0.2520  0.5045
 8632SOL    HW137355   0.931   1.526   2.168  0.3532 -0.4219  1.1517
 8632SOL    HW237356   1.026   1.516   2.056 -1.2061  0.7678  0.2790
 8633SOL     OW37357   3.779   3.097  10.920 -0.4857 -0.1422  0.2818
 8633SOL    HW137358   3.802   3.100  11.013 -1.4328  1.0381  0.4763
 8633SOL    HW237359   3.859   3.057  10.886 -1.4847 -1.3608 -0.6830
 8634SOL     OW37360   0.127   2.129   6.692  0.2949 -0.1890  0.3534
 8634SOL    HW137361   0.097   2.071   6.622  0.4151 -0.2375  0.3418
 8634SOL    HW237362   0.123   2.212   6.645  1.7438 -0.5046 -0.3611
 8635SOL     OW37363   3.982   2.439   0.304  0.3542 -0.3527 -0.7344
 8635SOL    HW137364   3.941   2.503   0.362 -0.9386 -0.5732 -1.4000
 8635SOL    HW237365   4.072   2.471   0.306 -0.2499  1.4098 -1.8217
 8636SOL     OW37366   2.407   2.092   9.358  0.3703 -0.0367 -0.5036
 8636SOL    HW137367   2.390   2.076   9.451  3.0433 -1.7963 -0.3160
 8636SOL    HW237368   2.327   2.131   9.323  0.5242  1.6202  0.9871
 8637SOL     OW37369   4.022   4.272  15.068  0.3547 -0.3741 -0.5553
 8637SOL    HW137370   3.996   4.182  15.046 -1.0020  0.1892 -1.2569
 8637SOL    HW237371   4.016   4.265  15.163 -1.6961  2.0956 -0.4974
 8638SOL     OW37372   1.984   3.482   2.010  0.0226 -0.0604  0.2901
 8638SOL    HW137373   1.984   3.457   1.917  0.8799  1.4614 -0.1208
 8638SOL    HW237374   1.919   3.552   2.015 -0.7420 -0.7766  0.3653
 8639SOL     OW37375   3.061   2.556  14.201  0.5752 -0.7569 -0.1699
 8639SOL    HW137376   3.057   2.527  14.293  1.2159  2.5245  0.9084
 8639SOL    HW237377   2.993   2.506  14.156  0.8043  0.3562 -1.7203
 8640SOL     OW37378   0.280   2.151   6.040  0.4585  0.1345 -0.5555
 8640SOL    HW137379   0.367   2.131   6.008 -0.3194 -2.7872 -0.8277
 8640SOL    HW237380   0.226   2.114   5.971  2.6274  2.8106 -3.6781
 8641SOL     OW37381   2.523   4.453  11.794 -0.0556 -0.2288  0.4727
 8641SOL    HW137382   2.429   4.432  11.789 -0.1200  0.1970 -0.0492
 8641SOL    HW237383   2.540   4.411  11.878  0.6485 -0.7895  0.0542
 8642SOL     OW37384   1.972   4.719   2.920 -0.3000 -1.0772  0.3192
 8642SOL    HW137385   1.928   4.677   2.846  0.7585 -1.0887 -0.3002
 8642SOL    HW237386   2.020   0.067   2.880 -0.2021 -0.6785  1.1539
 8643SOL     OW37387   1.693   1.698   6.486  0.1453 -0.6975  0.0569
 8643SOL    HW137388   1.660   1.780   6.521  0.3735 -0.0135 -1.3044
 8643SOL    HW237389   1.723   1.716   6.396  0.6607 -0.8333  0.2016
 8644SOL     OW37390   0.087   2.576   8.463 -0.0489 -0.8294 -0.1704
 8644SOL    HW137391   4.720   2.546   8.456 -1.0681  1.6832  2.4687
 8644SOL    HW237392   0.137   2.496   8.481 -0.9827 -0.8001  2.6185
 8645SOL     OW37393   4.322   3.275  13.317 -0.5114  1.0848 -0.2432
 8645SOL    HW137394   4.248   3.310  13.367  1.1494 -1.5214  4.0503
 8645SOL    HW237395   4.271   3.232  13.248  0.3964  0.4149 -0.4960
 8646SOL     OW37396   0.984   3.881   6.915  0.1252  0.3369  0.1099
 8646SOL    HW137397   0.973   3.786   6.909 -2.7665  0.6278  0.4501
 8646SOL    HW237398   1.078   3.883   6.929 -0.0983 -1.6128  1.8521
 8647SOL     OW37399   2.688   0.695   6.056  0.1710  0.2025  0.6283
 8647SOL    HW137400   2.684   0.609   6.098 -0.0423  0.0839  0.3626
 8647SOL    HW237401   2.742   0.745   6.117 -0.1068  1.6075 -0.2784
 8648SOL     OW37402   3.199   1.001   4.973  0.1769  0.2898 -0.3334
 8648SOL    HW137403   3.221   1.064   4.904  0.4016 -0.3148 -0.8206
 8648SOL    HW237404   3.104   0.989   4.966  0.0946  1.5347 -1.2675
 8649SOL     OW37405   3.632   1.864   4.578  0.0617 -0.5375  0.0535
 8649SOL    HW137406   3.719   1.823   4.580 -0.1211 -0.8394  1.6268
 8649SOL    HW237407   3.632   1.933   4.644  1.5857 -0.7738  0.3203
 8650SOL     OW37408   4.180   3.433   4.390 -0.4658  0.3007 -0.4069
 8650SOL    HW137409   4.102   3.434   4.334 -0.9514 -2.0640  0.2316
 8650SOL    HW237410   4.227   3.358   4.356  0.1175  0.6466 -0.3624
 8651SOL     OW37411   2.787   0.895  17.035  0.4484 -0.1468  0.2298
 8651SOL    HW137412   2.732   0.823  17.004 -1.5785  1.7306 -0.5502
 8651SOL    HW237413   2.722   0.956  17.071  0.0936 -0.6203  0.3937
 8652SOL     OW37414   1.728   0.892  14.933 -0.2854  0.1309  0.1179
 8652SOL    HW137415   1.729   0.796  14.928 -0.0199  0.1079  0.7038
 8652SOL    HW237416   1.756   0.910  14.843  2.3646  2.0972  1.3688
 8653SOL     OW37417   2.274   1.763   5.447  0.3468  0.2118 -0.4201
 8653SOL    HW137418   2.365   1.760   5.478  0.1516 -1.3477 -0.0080
 8653SOL    HW237419   2.255   1.679   5.405  0.9623  1.1758 -2.6172
 8654SOL     OW37420   0.181   4.243  16.226  0.3990 -0.0135  0.7116
 8654SOL    HW137421   0.188   4.273  16.316 -3.8724  0.7298  0.7835
 8654SOL    HW237422   0.254   4.291  16.187  0.5201 -1.4476 -0.8572
 8655SOL     OW37423   2.033   1.592  16.810  0.6383  0.3499 -0.1898
 8655SOL    HW137424   2.006   1.638  16.890 -0.5574 -0.0866 -0.3478
 8655SOL    HW237425   2.105   1.536  16.838  0.0612  0.6604  1.9275
 8656SOL     OW37426   0.559   3.883   6.622 -0.4497 -0.0405 -0.1207
 8656SOL    HW137427   0.641   3.857   6.663  0.2053 -1.0517 -2.0577
 8656SOL    HW237428   0.519   3.946   6.682  2.0274  1.9266 -0.5635
 8657SOL     OW37429   0.028   0.471   7.608  0.7694 -0.3373  0.1258
 8657SOL    HW137430   0.037   0.380   7.577  3.1217  0.3653 -1.2413
 8657SOL    HW237431   0.024   0.441   7.699  1.1493  1.2573  0.6565
 8658SOL     OW37432   0.164   1.916   3.726  0.1002  0.0232  0.0058
 8658SOL    HW137433   0.216   1.901   3.647  0.5414 -1.8077  0.6253
 8658SOL    HW237434   0.080   1.928   3.682 -0.2242 -0.1345  0.5816
 8659SOL     OW37435   1.958   4.715   6.655 -0.4803 -0.0675 -0.1517
 8659SOL    HW137436   1.929   4.624   6.649 -2.4321  0.7117 -2.5035
 8659SOL    HW237437   1.948   0.017   6.564 -0.8749 -1.6181 -0.5426
 8660SOL     OW37438   2.916   3.674  17.047 -0.1781 -0.0624  0.2037
 8660SOL    HW137439   2.840   3.622  17.073 -0.7845  0.8446  0.2148
 8660SOL    HW237440   2.981   3.605  17.031  0.5911  0.4063  1.3315
 8661SOL     OW37441   4.391   4.271   5.880 -0.2725  0.0617 -0.5267
 8661SOL    HW137442   4.411   4.217   5.956 -1.2246  0.2254 -0.1636
 8661SOL    HW237443   4.328   4.209   5.843 -1.0169  0.9853 -0.8157
 8662SOL     OW37444   1.406   1.729  10.210 -0.6848 -0.2890  0.0326
 8662SOL    HW137445   1.443   1.642  10.191  0.5807 -0.1525  1.8965
 8662SOL    HW237446   1.384   1.708  10.300 -2.3330 -3.5838 -1.1512
 8663SOL     OW37447   2.223   3.123  15.671  0.2828 -0.4395 -0.1777
 8663SOL    HW137448   2.153   3.059  15.673 -1.0265  0.9284 -1.5728
 8663SOL    HW237449   2.289   3.068  15.714  0.2025 -1.7873 -1.8105
 8664SOL     OW37450   2.517   0.063   4.645  0.3717 -0.1469 -0.2814
 8664SOL    HW137451   2.513   0.097   4.735  1.1409 -1.1545  0.1401
 8664SOL    HW237452   2.483   0.133   4.590 -0.8726  0.2065  0.9529
 8665SOL     OW37453   0.039   1.813   5.710  0.1733 -0.0722 -0.6072
 8665SOL    HW137454   4.692   1.785   5.767  0.5215 -2.9475 -1.5713
 8665SOL    HW237455   0.088   1.866   5.773 -2.1513 -1.4270  2.3495
 8666SOL     OW37456   2.596   2.887   0.754  0.2728 -0.7439  0.0811
 8666SOL    HW137457   2.529   2.926   0.698 -0.6240 -2.2697  0.1036
 8666SOL    HW237458   2.672   2.924   0.709 -0.1095  1.8686  1.5454
 8667SOL     OW37459   1.999   2.266   5.867  0.5740  0.4884  0.3968
 8667SOL    HW137460   1.985   2.177   5.899 -1.1812  0.3588 -0.7012
 8667SOL    HW237461   1.910   2.297   5.883  0.0861 -1.0626  0.6860
 8668SOL     OW37462   0.209   0.513   5.955  0.0428 -0.3930 -0.0942
 8668SOL    HW137463   0.261   0.458   6.014 -2.1898 -0.8727  1.4325
 8668SOL    HW237464   0.277   0.539   5.893 -0.2416 -1.3500 -0.8028
 8669SOL     OW37465   2.495   1.963   0.998 -0.4981 -0.1728 -0.8419
 8669SOL    HW137466   2.439   2.007   0.934  1.3794 -0.6732 -2.7972
 8669SOL    HW237467   2.450   1.991   1.078 -2.7521 -0.0236 -2.1535
 8670SOL     OW37468   3.005   2.611  11.405 -0.2835 -0.2773  0.2678
 8670SOL    HW137469   3.059   2.559  11.464  1.9298  0.3362 -1.1898
 8670SOL    HW237470   2.981   2.546  11.340  0.6411  1.0484 -1.4222
 8671SOL     OW37471   2.912   1.916   1.495 -0.0088  0.1122  0.1297
 8671SOL    HW137472   2.875   1.836   1.459  1.4830 -0.1407 -0.8807
 8671SOL    HW237473   2.973   1.874   1.557 -0.8700 -2.3077 -0.6804
 8672SOL     OW37474   2.286   3.655  17.570  0.7945  0.2708  0.4942
 8672SOL    HW137475   2.268   3.662  17.476 -0.3587  1.0053  0.7653
 8672SOL    HW237476   2.330   3.572  17.584 -1.6764 -1.0419  0.5073
 8673SOL     OW37477   3.062   2.942  15.053  0.4595 -0.0231 -0.3707
 8673SOL    HW137478   3.037   2.953  15.144 -0.5743 -1.8262 -0.4367
 8673SOL    HW237479   3.093   2.852  15.063  1.5020  0.5239  1.3257
 8674SOL     OW37480   2.207   2.316   1.953  0.3832  0.1527 -1.0242
 8674SOL    HW137481   2.287   2.277   1.989  1.7066  2.3991 -1.4720
 8674SOL    HW237482   2.137   2.280   2.008  0.9296 -1.1322 -1.1659
 8675SOL     OW37483   1.370   3.693   2.292 -0.0017 -0.3920 -0.5352
 8675SOL    HW137484   1.314   3.741   2.352  1.6667  1.1299 -0.1926
 8675SOL    HW237485   1.346   3.733   2.209  0.0592 -0.4483 -0.5806
 8676SOL     OW37486   1.650   3.528  13.796 -0.0780  0.0101  0.5198
 8676SOL    HW137487   1.667   3.478  13.876 -2.1304  0.0495  0.9988
 8676SOL    HW237488   1.700   3.609  13.804  1.0118 -0.5799 -0.3288
 8677SOL     OW37489   3.920   0.314   7.184 -0.0351  0.1236  0.6226
 8677SOL    HW137490   3.911   0.357   7.269 -1.9763 -0.9699  0.9624
 8677SOL    HW237491   3.973   0.384   7.145  1.9518 -1.0221  1.2718
 8678SOL     OW37492   0.858   2.858   9.213  0.2315 -0.1858  0.1257
 8678SOL    HW137493   0.943   2.844   9.253  1.1301  0.1657 -1.6708
 8678SOL    HW237494   0.834   2.945   9.245 -2.9450 -0.9402 -0.1169
 8679SOL     OW37495   4.217   4.278  12.473  0.7382  0.1416 -0.2251
 8679SOL    HW137496   4.148   4.219  12.505 -0.6826  2.2982  0.7267
 8679SOL    HW237497   4.279   4.216  12.436 -2.5228 -1.7346 -2.6232
 8680SOL     OW37498   2.614   0.662   3.066 -0.0486 -0.5802  0.6990
 8680SOL    HW137499   2.659   0.645   2.983 -0.6074 -0.3034  0.3393
 8680SOL    HW237500   2.519   0.661   3.052 -0.0369 -2.1356  0.6999
 8681SOL     OW37501   4.122   0.600   6.158  0.3322 -0.1242  0.3375
 8681SOL    HW137502   4.209   0.602   6.198  0.5774  1.3126 -0.2541
 8681SOL    HW237503   4.144   0.559   6.074 -0.3264 -1.1614  0.6778
 8682SOL     OW37504   4.212   3.492   6.427  0.5833  0.6477 -0.1115
 8682SOL    HW137505   4.178   3.517   6.513 -0.1345 -1.0816  0.1141
 8682SOL    HW237506   4.155   3.547   6.374 -0.6165 -0.7941 -0.3239
 8683SOL     OW37507   0.813   1.377   0.989 -0.8203 -0.6608 -0.2904
 8683SOL    HW137508   0.785   1.458   0.946  1.0025 -0.5687 -1.2920
 8683SOL    HW237509   0.787   1.400   1.078  2.4671  2.4450 -0.1119
 8684SOL     OW37510   2.308   2.089  15.621 -0.1778  1.1879  0.2299
 8684SOL    HW137511   2.249   2.048  15.558  1.8635  0.1428 -0.9966
 8684SOL    HW237512   2.350   2.010  15.656 -0.0276  1.8990  1.6779
 8685SOL     OW37513   2.386   2.199   6.031 -0.3170  0.5696 -0.0596
 8685SOL    HW137514   2.353   2.120   5.986 -1.1854  0.7416  0.2805
 8685SOL    HW237515   2.468   2.156   6.055 -0.6683  0.4601  0.9117
 8686SOL     OW37516   1.971   3.341   2.653 -0.3801  0.6588  0.1443
 8686SOL    HW137517   2.028   3.267   2.634  0.7147  1.3888  0.5796
 8686SOL    HW237518   1.941   3.346   2.562 -0.3402  1.3275  0.1685
 8687SOL     OW37519   3.367   1.128  10.210  0.0024  0.0136 -0.1581
 8687SOL    HW137520   3.449   1.156  10.250 -0.5205 -1.2845  1.8374
 8687SOL    HW237521   3.328   1.064  10.270  1.2966  1.8410  2.5810
 8688SOL     OW37522   3.816   2.453   5.858 -0.1610  0.1651 -0.6276
 8688SOL    HW137523   3.836   2.450   5.951 -0.0269  1.8919 -0.6028
 8688SOL    HW237524   3.764   2.375   5.842  0.7522 -0.4987 -0.3290
 8689SOL     OW37525   0.647   4.494   3.339 -0.4970  0.3655  0.6354
 8689SOL    HW137526   0.642   4.579   3.294  0.8411  0.4420  0.6260
 8689SOL    HW237527   0.560   4.496   3.377  0.2440  0.6319  2.3174
 8690SOL     OW37528   3.870   0.404   7.789  0.2282  0.0971  0.1529
 8690SOL    HW137529   3.934   0.367   7.727 -0.2367  1.5067 -1.1693
 8690SOL    HW237530   3.788   0.393   7.742  0.0213 -1.0523  0.7924
 8691SOL     OW37531   1.822   2.448   7.375  1.0051 -0.2365  0.4415
 8691SOL    HW137532   1.875   2.441   7.454 -0.1083  0.7842  1.2942
 8691SOL    HW237533   1.889   2.489   7.321  0.1901 -0.1632 -0.5080
 8692SOL     OW37534   4.662   1.214   2.687 -0.3016 -0.1594 -0.5667
 8692SOL    HW137535   0.000   1.229   2.616  1.2176  0.0770  0.7974
 8692SOL    HW237536   4.705   1.263   2.758 -1.9444  0.6512 -0.1237
 8693SOL     OW37537   2.658   3.247   2.363  0.0701 -0.3424  0.2720
 8693SOL    HW137538   2.632   3.304   2.436 -2.2689 -1.7417  0.5665
 8693SOL    HW237539   2.751   3.238   2.381  0.2427 -0.5850 -0.7714
 8694SOL     OW37540   0.902   3.135  15.123 -0.0548  0.1357  0.0974
 8694SOL    HW137541   0.948   3.103  15.200  2.4411  1.0300 -1.0288
 8694SOL    HW237542   0.970   3.168  15.064  1.5202  0.2366  1.9989
 8695SOL     OW37543   2.706   0.661   3.744 -0.1790  0.5188  0.0396
 8695SOL    HW137544   2.655   0.727   3.791 -2.6564 -2.3175  1.2817
 8695SOL    HW237545   2.786   0.707   3.716  0.0636  1.1689  1.7901
 8696SOL     OW37546   4.635   3.354  17.308 -0.2175 -0.6286 -0.3964
 8696SOL    HW137547   4.637   3.446  17.282 -1.0574 -0.8828 -1.3640
 8696SOL    HW237548   0.006   3.340  17.312  0.3405  2.6625 -2.5493
 8697SOL     OW37549   0.640   2.724   0.813 -0.7933  0.2931 -0.4656
 8697SOL    HW137550   0.571   2.778   0.852 -3.6768 -1.5155 -3.1055
 8697SOL    HW237551   0.695   2.788   0.768 -1.5679  0.1558 -1.6037
 8698SOL     OW37552   3.237   2.077   4.388  0.1286  0.5749 -0.0258
 8698SOL    HW137553   3.282   2.006   4.433 -0.9186  0.6979  1.2110
 8698SOL    HW237554   3.281   2.082   4.303 -1.3952  0.5706 -0.8346
 8699SOL     OW37555   2.733   0.051  16.927 -0.0489  0.2956  0.5126
 8699SOL    HW137556   2.804   0.008  16.879 -2.1517 -2.1011 -0.4184
 8699SOL    HW237557   2.706   4.701  16.980 -1.4531  0.5050  0.0871
 8700SOL     OW37558   3.480   2.763   0.392 -0.8509 -0.0428 -0.3609
 8700SOL    HW137559   3.430   2.820   0.334 -0.6459  1.2757  0.7557
 8700SOL    HW237560   3.564   2.747   0.348  0.6733  0.5413  2.2833
 8701SOL     OW37561   4.383   4.101   4.332  0.5187  0.4567  0.0386
 8701SOL    HW137562   4.449   4.101   4.263 -2.5445 -0.1542 -2.8607
 8701SOL    HW237563   4.402   4.016   4.373  0.5438  0.0397 -0.8371
 8702SOL     OW37564   1.571   0.942  13.607  0.0038 -0.6085  0.1603
 8702SOL    HW137565   1.643   0.948  13.544 -1.1118 -0.7222 -1.1225
 8702SOL    HW237566   1.489   0.933  13.557  0.4103  1.8292 -0.9223
 8703SOL     OW37567   1.307   3.639  11.992 -0.2472  0.0339 -0.4067
 8703SOL    HW137568   1.267   3.552  11.986 -2.1035  1.1671 -4.3316
 8703SOL    HW237569   1.245   3.690  11.939 -0.5393 -0.7170 -0.7862
 8704SOL     OW37570   4.158   1.157   6.014 -0.7629 -0.1272  1.0879
 8704SOL    HW137571   4.220   1.189   5.948  0.1474  0.5227  2.2719
 8704SOL    HW237572   4.188   1.068   6.032  0.5893  0.2002  0.4356
 8705SOL     OW37573   0.329   1.682  16.892 -0.0643  0.3410  0.5702
 8705SOL    HW137574   0.402   1.636  16.853 -0.4938  1.0653 -1.0673
 8705SOL    HW237575   0.253   1.658  16.839 -0.8361  0.0963  1.7676
 8706SOL     OW37576   1.550   2.888   2.151 -0.7332 -0.3245  0.0415
 8706SOL    HW137577   1.628   2.833   2.153  0.6173  1.5821 -0.3080
 8706SOL    HW237578   1.491   2.860   2.081  0.6539  0.9853 -1.6548
 8707SOL     OW37579   0.001   3.970   4.397 -0.5557  0.2041  0.3584
 8707SOL    HW137580   0.016   4.061   4.423  1.1912  0.3285 -1.0655
 8707SOL    HW237581   4.635   3.956   4.425 -0.6235  1.9295  1.0244
 8708SOL     OW37582   1.306   0.516  12.325 -0.2343  0.2452 -0.0259
 8708SOL    HW137583   1.239   0.487  12.386 -0.1122 -0.2162 -0.1070
 8708SOL    HW237584   1.322   0.441  12.267  1.0819  0.2203  0.3644
 8709SOL     OW37585   2.158   3.739   1.097 -0.2210 -0.0650 -0.2239
 8709SOL    HW137586   2.090   3.672   1.092 -0.0993 -0.1297 -0.9589
 8709SOL    HW237587   2.235   3.688   1.120  0.8052  1.6439  0.1284
 8710SOL     OW37588   2.173   3.571   2.220  0.4968  0.7294  0.0095
 8710SOL    HW137589   2.139   3.643   2.165  1.7489  0.3196 -1.3201
 8710SOL    HW237590   2.134   3.494   2.179 -1.4807  2.0651 -0.6546
 8711SOL     OW37591   2.678   2.336   6.214 -0.9072  0.0664 -0.5866
 8711SOL    HW137592   2.679   2.243   6.190  0.8512 -0.4174  1.4684
 8711SOL    HW237593   2.614   2.341   6.284  0.0313 -4.2697  0.5861
 8712SOL     OW37594   0.479   0.198   6.455  0.1959  0.0989 -0.3980
 8712SOL    HW137595   0.518   0.114   6.482 -3.5063 -1.6063 -0.3669
 8712SOL    HW237596   0.390   0.188   6.489  0.8728 -1.0021  1.0802
 8713SOL     OW37597   1.478   0.488   3.265 -0.9779  0.9324  0.6061
 8713SOL    HW137598   1.476   0.562   3.326  0.9968  1.7539 -0.3290
 8713SOL    HW237599   1.386   0.461   3.261 -0.5697 -0.4418  0.6626
 8714SOL     OW37600   0.284   4.353   2.190  0.0462  0.4596  0.3056
 8714SOL    HW137601   0.226   4.420   2.154  0.1745  0.6659  0.4803
 8714SOL    HW237602   0.357   4.364   2.130 -0.2255  0.1837 -0.0763
 8715SOL     OW37603   4.291   3.671   1.183 -0.6375 -0.1882 -0.0453
 8715SOL    HW137604   4.339   3.720   1.251  0.0458  0.3351 -0.8957
 8715SOL    HW237605   4.365   3.626   1.142 -0.6311 -1.5448  1.4734
 8716SOL     OW37606   3.943   4.429  12.444  0.3255 -0.2437 -0.2747
 8716SOL    HW137607   3.937   4.335  12.427  0.2974 -0.0869 -1.1256
 8716SOL    HW237608   3.930   4.430  12.539 -1.4790  2.2259 -0.5610
 8717SOL     OW37609   0.443   2.759   5.513  0.0161 -0.1926  0.5155
 8717SOL    HW137610   0.371   2.696   5.508  0.6530 -1.0833  2.6560
 8717SOL    HW237611   0.404   2.838   5.549  0.2636  1.6075 -3.1110
 8718SOL     OW37612   2.047   2.918   5.757 -0.2240  0.2257  0.0582
 8718SOL    HW137613   2.091   2.899   5.840 -1.8853 -0.3577  0.8204
 8718SOL    HW237614   1.989   2.989   5.782 -1.6407 -2.1365  3.5080
 8719SOL     OW37615   1.244   3.780   8.023  0.2722 -0.5684  0.1377
 8719SOL    HW137616   1.310   3.803   7.958 -3.1303  3.2112 -1.9669
 8719SOL    HW237617   1.168   3.821   7.982 -0.4505 -1.6030  0.4564
 8720SOL     OW37618   2.333   2.987  11.357  0.4743 -0.1331  0.0207
 8720SOL    HW137619   2.299   2.897  11.358 -0.4253  0.1959 -0.8833
 8720SOL    HW237620   2.423   2.973  11.330 -0.1478 -2.0518 -1.0921
 8721SOL     OW37621   0.376   3.206  11.627  0.4482 -0.2361 -0.2665
 8721SOL    HW137622   0.386   3.118  11.665  1.1481 -0.9805 -2.2049
 8721SOL    HW237623   0.422   3.197  11.544 -1.4219 -1.1973 -1.1876
 8722SOL     OW37624   2.016   3.006  11.388 -0.6636 -0.0401  0.2942
 8722SOL    HW137625   2.110   3.011  11.408 -1.2286  0.7810  2.6719
 8722SOL    HW237626   2.017   3.000  11.292  1.1382  1.3477  0.2127
 8723SOL     OW37627   2.353   2.803   5.277 -0.7846 -0.1826 -0.4665
 8723SOL    HW137628   2.272   2.764   5.310 -0.1245 -2.5314 -1.6322
 8723SOL    HW237629   2.416   2.741   5.314 -1.0863 -2.6905 -4.0586
 8724SOL     OW37630   3.142   1.949   6.126  0.3638  0.1113 -0.0057
 8724SOL    HW137631   3.172   1.872   6.076 -1.5570  1.0699 -2.6544
 8724SOL    HW237632   3.123   2.008   6.053 -0.3738 -1.3485 -0.9742
 8725SOL     OW37633   2.092   3.454   6.169 -0.3337  0.0988  0.1743
 8725SOL    HW137634   2.185   3.433   6.164 -0.5216 -0.2874 -1.7552
 8725SOL    HW237635   2.061   3.426   6.255 -1.3205  0.0140 -0.1984
 8726SOL     OW37636   1.661   2.623   0.275 -0.3063  0.3743  0.2766
 8726SOL    HW137637   1.587   2.684   0.274 -0.9330 -0.4042 -2.4584
 8726SOL    HW237638   1.730   2.664   0.222 -2.5136  0.4359 -2.5821
 8727SOL     OW37639   1.464   2.975  14.802 -0.0583  0.4829 -0.3811
 8727SOL    HW137640   1.455   2.882  14.781  2.1646 -0.6200  3.5660
 8727SOL    HW237641   1.379   2.991  14.842  0.9206  1.5519  1.2412
 8728SOL     OW37642   0.196   1.100  10.397  0.6785 -0.2774 -0.0043
 8728SOL    HW137643   0.290   1.111  10.384  0.5065 -0.9576 -1.9021
 8728SOL    HW237644   0.158   1.187  10.401 -0.0835 -0.5293 -1.5098
 8729SOL     OW37645   4.014   4.461   4.465  0.1819  0.4165  0.4349
 8729SOL    HW137646   4.034   4.403   4.539 -0.4603 -1.2715 -0.6929
 8729SOL    HW237647   4.060   4.540   4.492  1.4204 -0.8883  2.1510
 8730SOL     OW37648   3.515   1.525   5.857 -0.2388 -0.1797  0.0040
 8730SOL    HW137649   3.608   1.539   5.874  0.4057 -3.1498 -1.0103
 8730SOL    HW237650   3.492   1.463   5.926 -0.3407 -0.0600  0.0765
 8731SOL     OW37651   4.595   2.047   3.345 -0.3304 -0.3533  0.2483
 8731SOL    HW137652   4.677   2.003   3.368 -1.2481 -0.8525  2.5281
 8731SOL    HW237653   4.539   1.970   3.334 -0.7563 -0.6108  4.1992
 8732SOL     OW37654   1.506   1.460   5.211  0.2799  0.0004  0.1376
 8732SOL    HW137655   1.506   1.556   5.211 -0.6779  0.0115  1.1247
 8732SOL    HW237656   1.598   1.442   5.232  0.2240  0.7343  1.0065
 8733SOL     OW37657   0.115   3.951   3.525  0.7293  0.2988 -0.0134
 8733SOL    HW137658   0.115   3.880   3.589 -1.3794 -0.3464 -0.7322
 8733SOL    HW237659   0.182   3.919   3.465  0.6263 -1.7835  0.9539
 8734SOL     OW37660   0.891   4.316   1.278  0.5215 -0.2657 -0.1475
 8734SOL    HW137661   0.856   4.374   1.345  0.6275  1.0154 -1.2093
 8734SOL    HW237662   0.915   4.372   1.205 -0.9877 -0.3272 -0.7047
 8735SOL     OW37663   0.316   3.959   4.325 -0.0705 -0.0072 -0.0064
 8735SOL    HW137664   0.400   3.994   4.356 -0.7052 -0.5220  2.2327
 8735SOL    HW237665   0.254   3.983   4.394 -2.1162  0.1231 -1.8905
 8736SOL     OW37666   0.119   1.492   5.017 -0.8354 -0.2005  0.3034
 8736SOL    HW137667   0.204   1.500   4.973 -0.8743 -1.2431  0.0452
 8736SOL    HW237668   0.113   1.398   5.033  1.4820 -0.9395 -3.1221
 8737SOL     OW37669   4.532   2.398   7.900  0.2570 -0.0748  0.0541
 8737SOL    HW137670   4.522   2.371   7.809 -1.0887 -1.7683  0.7166
 8737SOL    HW237671   4.442   2.414   7.926 -0.6776 -4.7241 -0.3269
 8738SOL     OW37672   0.935   2.365   5.876 -0.0292 -0.7290 -0.1134
 8738SOL    HW137673   1.012   2.413   5.842  0.1136  0.1017  1.4130
 8738SOL    HW237674   0.957   2.279   5.840 -0.2804 -0.5144 -0.7803
 8739SOL     OW37675   2.435   0.924   4.651  0.1039  0.0849  0.2052
 8739SOL    HW137676   2.414   0.949   4.561 -1.4623 -1.3234  0.1856
 8739SOL    HW237677   2.466   0.834   4.639  1.6691  0.9952 -2.7151
 8740SOL     OW37678   1.400   4.656  15.158 -0.2746 -0.0572 -0.3876
 8740SOL    HW137679   1.385   0.026  15.151  1.0381  0.2483  1.0229
 8740SOL    HW237680   1.491   4.650  15.126  0.2240  2.9292  0.4611
 8741SOL     OW37681   2.508   1.012   6.397  0.0366 -0.3278 -0.2306
 8741SOL    HW137682   2.465   1.032   6.314 -0.3647 -2.2868 -0.4862
 8741SOL    HW237683   2.594   1.053   6.386 -0.2677  0.6495  1.0702
 8742SOL     OW37684   4.133   2.286   0.023  0.3021 -0.2563 -0.2604
 8742SOL    HW137685   4.152   2.242  17.638  2.0909  0.4460 -0.2308
 8742SOL    HW237686   4.081   2.361  17.691 -0.9903 -0.7604  0.7311
 8743SOL     OW37687   2.602   4.206  17.177 -0.4078 -0.7500 -0.1267
 8743SOL    HW137688   2.557   4.290  17.181  3.1417  1.0116  2.7314
 8743SOL    HW237689   2.542   4.147  17.223 -0.3323 -0.9507 -0.2857
 8744SOL     OW37690   1.287   3.181  10.155 -0.4827 -0.0723  0.7333
 8744SOL    HW137691   1.283   3.261  10.102  3.6977 -0.9290 -0.8784
 8744SOL    HW237692   1.205   3.196  10.202  0.0032 -0.8097  1.8229
 8745SOL     OW37693   1.106   0.867   5.441 -0.7698 -0.1527  0.5751
 8745SOL    HW137694   1.120   0.791   5.497 -0.5060  0.7096  1.6812
 8745SOL    HW237695   1.021   0.900   5.471 -0.8085  0.7051 -0.4769
 8746SOL     OW37696   4.421   3.533   5.315  0.2288 -0.0224 -0.2462
 8746SOL    HW137697   4.339   3.562   5.356 -0.3176 -0.9594 -0.6921
 8746SOL    HW237698   4.403   3.556   5.224  0.1547 -0.1291 -0.2587
 8747SOL     OW37699   2.387   3.567   8.189 -0.4523 -0.4223 -0.1853
 8747SOL    HW137700   2.457   3.502   8.176  1.1947  1.3952 -0.3607
 8747SOL    HW237701   2.434   3.650   8.192 -1.3968  0.1436 -1.0681
 8748SOL     OW37702   3.507   3.058  12.995  0.4822  0.0201 -0.0177
 8748SOL    HW137703   3.601   3.044  12.978  0.7957 -0.2965  1.9836
 8748SOL    HW237704   3.488   2.976  13.040  0.5167  0.8418  1.5257
 8749SOL     OW37705   3.589   4.405  13.809 -0.1946  0.5878  0.3907
 8749SOL    HW137706   3.510   4.352  13.821 -1.5772  2.7003  0.6462
 8749SOL    HW237707   3.598   4.443  13.896 -1.4618  1.8468 -0.0236
 8750SOL     OW37708   0.156   3.028   3.882  0.4134  0.0401  0.0468
 8750SOL    HW137709   0.134   3.089   3.812  2.2885  0.6982  0.0446
 8750SOL    HW237710   0.204   3.086   3.941  0.9912  1.1589 -1.5254
 8751SOL     OW37711   3.903   0.601  15.500  0.5545  0.6116 -0.0041
 8751SOL    HW137712   3.852   0.587  15.580 -1.2557  2.8928 -0.7752
 8751SOL    HW237713   3.836   0.618  15.434  0.7033  0.3155 -0.2351
 8752SOL     OW37714   1.024   1.099   4.294 -0.2825 -0.0607 -0.2870
 8752SOL    HW137715   1.069   1.014   4.299  0.6873  0.5439  1.0396
 8752SOL    HW237716   1.106   1.145   4.308 -0.0925 -0.6886  0.6332
 8753SOL     OW37717   3.268   1.803   4.147 -0.3139  0.6237  0.6677
 8753SOL    HW137718   3.308   1.886   4.119 -0.3624  0.3104 -0.2935
 8753SOL    HW237719   3.321   1.745   4.093 -1.0724  0.8597 -0.3184
 8754SOL     OW37720   1.011   3.158  12.145 -0.3110 -0.3581  0.2824
 8754SOL    HW137721   0.990   3.190  12.233  0.5279  0.9305  0.0140
 8754SOL    HW237722   1.076   3.090  12.167 -1.1523 -0.7343  1.6170
 8755SOL     OW37723   2.962   0.886  10.782  0.2077 -0.1023  0.5937
 8755SOL    HW137724   2.980   0.805  10.831  1.2057  0.2712  0.8299
 8755SOL    HW237725   2.927   0.942  10.851  0.9011  1.4618 -0.3424
 8756SOL     OW37726   3.485   0.382  15.704 -0.1509  0.7922  0.1838
 8756SOL    HW137727   3.403   0.339  15.728  0.5121 -1.3189 -1.2818
 8756SOL    HW237728   3.514   0.327  15.631  2.3356 -1.0622  2.5456
 8757SOL     OW37729   2.576   1.910   3.933  0.2618 -0.2070  0.3245
 8757SOL    HW137730   2.628   1.970   3.879  0.5020 -2.6614 -2.1012
 8757SOL    HW237731   2.528   1.863   3.866  4.1104 -1.6989 -1.3418
 8758SOL     OW37732   4.609   1.284   9.788 -0.3648 -0.3934  0.0123
 8758SOL    HW137733   4.534   1.328   9.749 -2.6509 -4.3081 -0.0356
 8758SOL    HW237734   4.676   1.324   9.733 -2.2588 -0.0844 -2.0798
 8759SOL     OW37735   0.981   1.226   6.980  0.0535 -0.4167 -0.1942
 8759SOL    HW137736   0.945   1.139   6.960  1.6862 -1.0891 -0.1831
 8759SOL    HW237737   1.075   1.216   6.963  0.5774  0.1029  2.4074
 8760SOL     OW37738   4.168   2.725   8.474  0.5730 -0.4460 -0.3735
 8760SOL    HW137739   4.143   2.776   8.551  0.5700  0.5650 -1.0442
 8760SOL    HW237740   4.197   2.645   8.518 -0.0257  0.3067  1.3755
 8761SOL     OW37741   0.985   3.487   6.382  0.7605  0.1609  0.0854
 8761SOL    HW137742   1.073   3.449   6.381  1.6052  2.1674 -1.6452
 8761SOL    HW237743   0.990   3.573   6.422  1.4524  1.2697 -2.4072
 8762SOL     OW37744   1.487   0.793  11.695 -1.1143  0.0746 -0.2577
 8762SOL    HW137745   1.467   0.762  11.783  1.9422  0.7927  0.6686
 8762SOL    HW237746   1.421   0.861  11.691 -1.0936  0.1667  1.0351
 8763SOL     OW37747   3.077   2.620   5.248 -0.2896  0.1630  0.4835
 8763SOL    HW137748   2.991   2.616   5.289  0.4905 -1.3096  1.9502
 8763SOL    HW237749   3.113   2.535   5.274  0.6432  0.5793  0.5569
 8764SOL     OW37750   2.123   1.603  13.788 -0.2128  0.7283  0.2605
 8764SOL    HW137751   2.124   1.636  13.878 -0.9900 -0.2312  0.6205
 8764SOL    HW237752   2.049   1.654  13.755 -0.7026 -0.0971  0.0780
 8765SOL     OW37753   1.442   1.793   9.513  0.7536 -0.2542 -0.1622
 8765SOL    HW137754   1.386   1.805   9.590 -0.2959 -1.2670 -0.7771
 8765SOL    HW237755   1.501   1.868   9.522  0.9789 -0.5794  1.0758
 8766SOL     OW37756   3.992   2.308   2.811 -0.0301  0.1254  0.4580
 8766SOL    HW137757   4.053   2.239   2.784  0.0348 -0.3598  1.8176
 8766SOL    HW237758   4.061   2.368   2.841 -1.4343  1.5788  0.7522
 8767SOL     OW37759   1.930   0.456  11.033  0.3165  0.0913 -0.1171
 8767SOL    HW137760   1.945   0.393  11.103 -0.0864  2.5289  2.1516
 8767SOL    HW237761   2.021   0.487  11.036  0.0924  0.7760 -0.2780
 8768SOL     OW37762   0.647   2.137   4.421  0.3276 -0.0787 -0.4935
 8768SOL    HW137763   0.641   2.043   4.437  0.2294 -0.0101 -0.1383
 8768SOL    HW237764   0.733   2.146   4.462  0.0063 -0.9624  0.3743
 8769SOL     OW37765   0.235   3.272  17.306  0.3516 -0.2938 -0.1517
 8769SOL    HW137766   0.196   3.252  17.220 -0.8700 -1.4729  0.6745
 8769SOL    HW237767   0.264   3.361  17.285 -0.4378 -0.1670 -0.7453
 8770SOL     OW37768   1.622   4.003   1.281  0.2006 -0.3202 -0.0935
 8770SOL    HW137769   1.635   3.926   1.226 -0.6326 -0.1269 -0.5607
 8770SOL    HW237770   1.672   4.057   1.219 -0.6903  1.1613  0.4701
 8771SOL     OW37771   3.130   1.332  11.306  0.2693 -0.0460  0.8317
 8771SOL    HW137772   3.121   1.380  11.389  1.0684  1.8163 -0.1600
 8771SOL    HW237773   3.149   1.407  11.250  0.0217 -0.1109  0.6636
 8772SOL     OW37774   2.007   2.122  11.001  0.0480  0.4974 -0.0672
 8772SOL    HW137775   1.912   2.115  11.011  0.2129 -0.5167  0.8074
 8772SOL    HW237776   2.037   2.091  11.086 -0.3151  1.2248  0.3218
 8773SOL     OW37777   0.344   1.162   4.317 -0.2149  0.2351 -0.1099
 8773SOL    HW137778   0.341   1.240   4.263  2.0988  0.1090 -0.3850
 8773SOL    HW237779   0.437   1.152   4.338  0.0330  1.6739 -0.5504
 8774SOL     OW37780   3.199   0.912   5.225  0.6641  0.5043 -0.4410
 8774SOL    HW137781   3.217   0.940   5.135  0.6592  0.1055 -0.5649
 8774SOL    HW237782   3.288   0.922   5.258 -0.5559  1.0945  2.7117
 8775SOL     OW37783   4.572   1.592  13.572 -0.3479  0.2285 -0.6812
 8775SOL    HW137784   4.490   1.610  13.618 -0.5474 -0.1960 -0.8711
 8775SOL    HW237785   4.615   1.677  13.568  0.7148 -0.2710  0.0596
 8776SOL     OW37786   0.588   2.408   4.251 -0.4406 -0.1286  0.1918
 8776SOL    HW137787   0.615   2.324   4.288 -0.8200 -0.4692 -0.3116
 8776SOL    HW237788   0.668   2.454   4.226 -0.4199 -0.2987 -0.0454
 8777SOL     OW37789   3.559   2.518  16.290  0.7662 -0.3497 -0.2813
 8777SOL    HW137790   3.627   2.586  16.298 -1.0634  1.7346 -2.4198
 8777SOL    HW237791   3.562   2.493  16.383 -0.1148 -0.0449 -0.1726
 8778SOL     OW37792   2.488   1.484   7.458 -0.1515 -0.0360  0.5799
 8778SOL    HW137793   2.565   1.443   7.420  1.7623  3.8265  0.2129
 8778SOL    HW237794   2.465   1.526   7.375 -0.6195 -2.6812 -0.5958
 8779SOL     OW37795   3.468   1.969   6.834  0.0750  0.1460 -0.1784
 8779SOL    HW137796   3.479   2.064   6.835  0.1949  0.1173  0.8804
 8779SOL    HW237797   3.548   1.950   6.785 -1.3388 -2.1043 -1.6230
 8780SOL     OW37798   3.432   1.154   5.076  0.0516 -0.3931 -0.3620
 8780SOL    HW137799   3.399   1.084   5.020  0.2830 -1.2929  0.6170
 8780SOL    HW237800   3.425   1.121   5.166 -1.3444  0.4262 -0.1713
 8781SOL     OW37801   3.661   2.452   4.314 -0.2894 -0.5895 -0.1219
 8781SOL    HW137802   3.619   2.484   4.394  2.8325 -0.9250  1.6449
 8781SOL    HW237803   3.697   2.368   4.343 -0.8113 -1.0206 -0.7196
 8782SOL     OW37804   2.169   3.048   3.152  0.2380  0.2023 -0.0632
 8782SOL    HW137805   2.240   2.984   3.153  1.6028  1.7279 -0.2638
 8782SOL    HW237806   2.110   3.004   3.091  2.4027 -3.0268  0.1653
 8783SOL     OW37807   1.622   0.539   3.625 -0.1476 -0.6178 -0.3818
 8783SOL    HW137808   1.534   0.511   3.649 -1.0934  1.0072 -1.9261
 8783SOL    HW237809   1.631   0.618   3.679 -0.4197  2.1496 -4.3984
 8784SOL     OW37810   4.392   0.540   1.009  0.2839  0.2913 -0.2977
 8784SOL    HW137811   4.300   0.559   1.027  0.6309  1.0296  0.6489
 8784SOL    HW237812   4.435   0.554   1.093  0.4083 -3.3441  0.2197
 8785SOL     OW37813   1.069   2.645   1.882 -0.3964  0.3097 -0.4208
 8785SOL    HW137814   1.011   2.569   1.869 -1.1863  0.8791 -0.2476
 8785SOL    HW237815   1.143   2.603   1.926 -1.6289 -1.0041  0.4274
 8786SOL     OW37816   4.517   0.682  10.215  0.1075  0.0178  0.0348
 8786SOL    HW137817   4.451   0.618  10.188 -1.6481  2.6373 -1.8816
 8786SOL    HW237818   4.537   0.653  10.304  0.7193 -1.8273 -0.6932
 8787SOL     OW37819   0.673   0.331   3.820 -0.4884 -0.7142 -0.2887
 8787SOL    HW137820   0.693   0.239   3.802 -1.9137 -1.2756  0.9162
 8787SOL    HW237821   0.720   0.381   3.754 -3.1974  1.3910 -0.6386
 8788SOL     OW37822   2.790   3.096   9.099  0.0373  0.0036 -0.2106
 8788SOL    HW137823   2.793   3.115   9.193  0.6362  0.1350 -0.2607
 8788SOL    HW237824   2.879   3.095   9.065 -0.2050 -1.2553 -0.7909
 8789SOL     OW37825   1.204   4.277  17.084  0.0500 -0.4892 -0.1492
 8789SOL    HW137826   1.263   4.267  17.009  0.1829  2.0292 -0.3703
 8789SOL    HW237827   1.273   4.278  17.151  1.6470  0.8900 -1.7984
 8790SOL     OW37828   2.964   3.466   4.516 -0.3182 -0.3983  0.1082
 8790SOL    HW137829   3.052   3.496   4.493  0.0293 -2.4913 -1.2393
 8790SOL    HW237830   2.946   3.535   4.580 -1.8883 -0.7036  0.0009
 8791SOL     OW37831   0.715   2.433   3.366 -0.0310 -0.0729  0.9727
 8791SOL    HW137832   0.716   2.369   3.295 -0.1438  0.1330  0.7831
 8791SOL    HW237833   0.695   2.514   3.318  1.4407  0.7683  1.7695
 8792SOL     OW37834   3.000   2.126  17.566 -0.0921 -0.0698  0.5692
 8792SOL    HW137835   2.944   2.049  17.576  0.9904 -1.0816 -1.1024
 8792SOL    HW237836   3.007   2.127  17.471 -2.3719  0.8399  0.4095
 8793SOL     OW37837   2.368   1.250   9.160 -0.3696  0.0748  0.0954
 8793SOL    HW137838   2.370   1.155   9.157  1.7277  0.1308 -0.1922
 8793SOL    HW237839   2.431   1.277   9.226 -3.7935  1.4940  2.7507
 8794SOL     OW37840   0.191   4.261   7.263  0.2816 -0.8926 -0.1652
 8794SOL    HW137841   0.223   4.224   7.181 -0.2895 -0.9274 -0.3694
 8794SOL    HW237842   0.097   4.245   7.254  0.0900 -0.9794  2.0177
 8795SOL     OW37843   3.377   1.877   7.195 -1.3934 -0.5320 -0.2543
 8795SOL    HW137844   3.469   1.856   7.202 -0.5784  2.7256 -0.9533
 8795SOL    HW237845   3.350   1.844   7.281 -1.6983 -2.5732 -1.1377
 8796SOL     OW37846   1.933   4.586   4.022 -0.0924 -0.2154 -0.9233
 8796SOL    HW137847   1.898   4.550   3.940 -1.6703  0.9614 -0.7839
 8796SOL    HW237848   1.928   4.524   4.094 -0.3678 -1.2758 -1.8481
 8797SOL     OW37849   0.797   0.756   0.054  0.1037  0.1772 -0.7022
 8797SOL    HW137850   0.737   0.739   0.126  0.0185  1.7600 -0.3995
 8797SOL    HW237851   0.748   0.821   0.002  1.3561  0.5112 -1.4565
 8798SOL     OW37852   4.154   3.253  12.196 -0.1550 -0.0404  0.5169
 8798SOL    HW137853   4.130   3.281  12.107 -0.1682 -1.5599  0.0363
 8798SOL    HW237854   4.093   3.181  12.211  0.9259 -1.1142 -0.1696
 8799SOL     OW37855   0.472   1.406   0.999 -0.3467  1.0241 -0.4269
 8799SOL    HW137856   0.379   1.398   0.978 -0.0813 -0.6007 -0.9592
 8799SOL    HW237857   0.503   1.446   0.918 -0.8651  1.5593 -0.3668
 8800SOL     OW37858   1.134   3.215   0.207  0.0600 -0.2096  0.4481
 8800SOL    HW137859   1.216   3.242   0.165  0.3046  0.1242  1.1452
 8800SOL    HW237860   1.096   3.169   0.132 -0.3364 -1.9377  1.6995
 8801SOL     OW37861   3.323   1.202   8.334  0.4210  0.7949 -0.7026
 8801SOL    HW137862   3.303   1.110   8.347 -0.6141  0.9424 -1.3046
 8801SOL    HW237863   3.415   1.198   8.362  0.2980 -1.7715 -0.7418
 8802SOL     OW37864   3.122   1.499  12.596  0.0749 -0.5569  0.2840
 8802SOL    HW137865   3.170   1.582  12.599  1.0363 -1.1198  0.4292
 8802SOL    HW237866   3.071   1.510  12.676  2.4013  1.4846  1.4896
 8803SOL     OW37867   1.155   2.696   3.776  0.1246  0.2408  0.2022
 8803SOL    HW137868   1.096   2.628   3.808  1.1370 -1.2215 -1.0421
 8803SOL    HW237869   1.158   2.742   3.860 -1.7138  0.3932  0.1867
 8804SOL     OW37870   2.217   2.784   0.838 -0.0483  0.0847  0.3107
 8804SOL    HW137871   2.240   2.840   0.912  0.1191  2.3935 -1.4697
 8804SOL    HW237872   2.262   2.820   0.761  1.7700 -0.8805  0.9354
 8805SOL     OW37873   1.553   0.178  11.470  0.3284  0.0144 -0.1627
 8805SOL    HW137874   1.533   0.088  11.443  1.6165 -0.1897 -0.4476
 8805SOL    HW237875   1.515   0.224  11.395 -0.1001 -0.6950 -0.3834
 8806SOL     OW37876   1.945   2.456  15.466 -0.1080  0.0326  0.0286
 8806SOL    HW137877   1.868   2.458  15.408 -0.3432  1.3477  0.3966
 8806SOL    HW237878   1.932   2.371  15.509  1.1225 -0.3877 -0.4384
 8807SOL     OW37879   0.566   0.196   4.877 -0.3299 -0.0358  0.0643
 8807SOL    HW137880   0.534   0.170   4.790 -0.5016 -0.5944  0.2934
 8807SOL    HW237881   0.655   0.159   4.873 -0.7050 -1.0567  1.2714
 8808SOL     OW37882   1.253   4.571   3.969  0.5979  0.0779  0.5190
 8808SOL    HW137883   1.158   4.563   3.954  0.9099 -1.1579 -0.7611
 8808SOL    HW237884   1.254   4.553   4.063 -0.5192  0.2363  0.5621
 8809SOL     OW37885   2.051   3.810   9.633  0.2731  0.5166 -0.0868
 8809SOL    HW137886   2.097   3.857   9.702  0.3408 -1.0771  0.9544
 8809SOL    HW237887   2.097   3.835   9.553 -0.5544 -1.7848 -1.3015
 8810SOL     OW37888   4.558   1.041   3.081 -0.0324 -0.1481 -0.4486
 8810SOL    HW137889   4.646   1.021   3.047  0.1078  0.5183 -0.4736
 8810SOL    HW237890   4.529   1.116   3.030 -0.5136 -1.4552 -2.1179
 8811SOL     OW37891   4.562   0.749   6.731  0.2884 -0.4626  0.2838
 8811SOL    HW137892   4.487   0.805   6.752  0.2584 -1.0464  1.7621
 8811SOL    HW237893   4.599   0.723   6.815 -0.6443  1.4660  1.2909
 8812SOL     OW37894   2.371   3.057   3.856  0.1838 -0.2025  0.3590
 8812SOL    HW137895   2.293   3.021   3.815  0.0538 -1.5101  1.7447
 8812SOL    HW237896   2.432   3.079   3.786  0.4165  1.2538  1.0029
 8813SOL     OW37897   1.098   0.350   9.371 -0.6202  0.4426 -0.3414
 8813SOL    HW137898   1.186   0.364   9.336 -0.1038 -0.1747  0.7106
 8813SOL    HW237899   1.045   0.402   9.310  0.7831  0.9762 -1.1070
 8814SOL     OW37900   1.593   1.650  16.184 -0.4723 -0.7954  0.1565
 8814SOL    HW137901   1.587   1.727  16.241  0.1120  0.1955 -1.1193
 8814SOL    HW237902   1.636   1.687  16.107  0.0388 -1.0858  0.3024
 8815SOL     OW37903   2.095   3.129  10.058  0.0030  0.2341 -0.4851
 8815SOL    HW137904   2.114   3.059   9.995  1.4870  0.3061 -0.1326
 8815SOL    HW237905   2.000   3.122  10.064  0.0407  0.1829  0.0711
 8816SOL     OW37906   2.878   1.532   7.425 -0.2403  0.1366  0.7361
 8816SOL    HW137907   2.915   1.563   7.508 -0.9783  2.4186  0.1975
 8816SOL    HW237908   2.804   1.590   7.408 -0.9971 -0.8215  0.7360
 8817SOL     OW37909   1.605   3.022   8.737 -0.6696 -0.5404 -0.2634
 8817SOL    HW137910   1.636   3.027   8.827 -0.5120 -2.5214 -0.2086
 8817SOL    HW237911   1.580   2.930   8.732 -0.1203 -0.6713 -0.6022
 8818SOL     OW37912   3.666   3.009   0.768  1.0189 -0.4067 -0.0678
 8818SOL    HW137913   3.652   3.101   0.789 -4.7650 -1.4311  0.5060
 8818SOL    HW237914   3.626   2.962   0.841  0.8660  1.4437  1.0134
 8819SOL     OW37915   1.438   0.333  14.945 -0.1299  0.2223 -0.3574
 8819SOL    HW137916   1.440   0.428  14.952  1.7429  0.1879 -0.2970
 8819SOL    HW237917   1.529   0.313  14.967 -0.8020 -4.1955 -1.4578
 8820SOL     OW37918   0.035   1.299  11.840  0.1908 -0.1907  0.0158
 8820SOL    HW137919   4.702   1.224  11.821  0.0607 -0.1444  0.2140
 8820SOL    HW237920   4.714   1.365  11.787  2.9378  1.0579 -0.7316
 8821SOL     OW37921   0.278   3.757  14.898 -0.2534 -0.5382 -0.6515
 8821SOL    HW137922   0.287   3.710  14.815  0.2262 -1.0430 -0.3142
 8821SOL    HW237923   0.299   3.687  14.960 -1.2203 -0.2309  0.0296
 8822SOL     OW37924   0.495   4.682   7.970 -0.9472 -0.0205 -0.1657
 8822SOL    HW137925   0.528   4.629   8.042 -1.8280  0.3032  0.4838
 8822SOL    HW237926   0.563   4.672   7.903 -0.1077 -0.2976  0.7366
 8823SOL     OW37927   4.471   3.269   1.979  0.6157  0.1262  0.3177
 8823SOL    HW137928   4.470   3.189   2.031  0.9577 -0.5930 -0.7894
 8823SOL    HW237929   4.529   3.249   1.906 -1.3936 -1.6263 -0.7735
 8824SOL     OW37930   2.717   0.945   2.832  0.5214 -0.6846 -0.2792
 8824SOL    HW137931   2.751   0.994   2.757  2.1018  2.0166  2.2462
 8824SOL    HW237932   2.642   0.902   2.790 -1.0214  1.6445  0.0918
 8825SOL     OW37933   4.350   0.010   2.230  0.1278 -0.2432  0.5084
 8825SOL    HW137934   4.394   4.680   2.164  0.6343  0.3256  0.3862
 8825SOL    HW237935   4.261   0.009   2.195  0.2739  0.0221  0.1312
 8826SOL     OW37936   0.285   1.147   5.616  0.1538  0.4771 -0.1590
 8826SOL    HW137937   0.234   1.078   5.659 -0.7787  1.8231  0.9347
 8826SOL    HW237938   0.355   1.163   5.680 -1.5303  2.3203  1.2633
 8827SOL     OW37939   3.189   1.409   6.389 -0.6540 -0.1582 -0.6784
 8827SOL    HW137940   3.266   1.461   6.411  0.0777 -1.3321 -0.4276
 8827SOL    HW237941   3.230   1.324   6.406  1.2979  0.5591 -1.7981
 8828SOL     OW37942   4.622   0.712  11.772 -0.1374 -0.0993  0.1718
 8828SOL    HW137943   4.542   0.690  11.820 -1.2191  2.3012 -0.5489
 8828SOL    HW237944   4.579   0.722  11.688 -0.0731 -2.3175 -0.1267
 8829SOL     OW37945   1.939   2.441   3.452 -0.3710 -0.1499  0.0484
 8829SOL    HW137946   1.945   2.394   3.369  0.6861 -1.7732  1.0326
 8829SOL    HW237947   1.945   2.364   3.509 -2.9069 -0.4539 -0.0826
 8830SOL     OW37948   1.245   3.781   2.041 -0.6523  0.0062 -0.0704
 8830SOL    HW137949   1.268   3.865   2.001  1.1851 -0.3399  0.2449
 8830SOL    HW237950   1.275   3.723   1.970 -0.1111 -0.8218  0.8206
 8831SOL     OW37951   3.946   2.898  11.714  0.2215 -0.4625  0.2169
 8831SOL    HW137952   3.862   2.854  11.729 -0.1542  0.4601  0.8663
 8831SOL    HW237953   3.994   2.908  11.797 -0.2425  1.7691  0.2222
 8832SOL     OW37954   2.801   3.034   9.872 -0.2571 -0.6082  0.3629
 8832SOL    HW137955   2.765   3.076   9.950  1.9840  0.0448  1.0204
 8832SOL    HW237956   2.776   2.942   9.883 -1.4340 -0.4429 -0.9040
 8833SOL     OW37957   1.818   3.361   6.989 -0.7178  0.2041 -0.0565
 8833SOL    HW137958   1.876   3.312   7.048  1.4257  1.7210 -0.9032
 8833SOL    HW237959   1.768   3.421   7.045  0.9139  1.7089 -0.2190
 8834SOL     OW37960   0.969   2.265   4.145 -0.0390 -0.1172  0.3473
 8834SOL    HW137961   0.917   2.186   4.126  1.9121 -0.9551 -1.4888
 8834SOL    HW237962   0.945   2.280   4.236 -3.6261 -1.6351 -0.3380
 8835SOL     OW37963   3.608   4.444   9.593  0.0241  0.5370  0.5220
 8835SOL    HW137964   3.518   4.412   9.588  0.9159 -1.9882  0.4677
 8835SOL    HW237965   3.646   4.356   9.582 -1.8036  0.0526 -2.0322
 8836SOL     OW37966   4.432   3.204   2.854  0.2958 -0.4666 -0.5959
 8836SOL    HW137967   4.391   3.278   2.809  3.3004  0.2688 -2.0950
 8836SOL    HW237968   4.362   3.204   2.919  0.3939 -2.1248 -0.4987
 8837SOL     OW37969   1.576   2.023   9.275 -0.5649  0.5956  0.1911
 8837SOL    HW137970   1.668   2.035   9.298  0.0563 -1.7747 -1.0395
 8837SOL    HW237971   1.594   1.998   9.184 -1.5212  0.7743 -0.0471
 8838SOL     OW37972   3.119   3.442   4.978 -0.0347 -0.0974 -0.5978
 8838SOL    HW137973   3.196   3.478   5.022  1.0506 -0.2718 -2.3538
 8838SOL    HW237974   3.089   3.382   5.046 -1.4311  0.3537 -0.8045
 8839SOL     OW37975   2.551   1.063   8.300 -0.3587 -0.7208  0.0468
 8839SOL    HW137976   2.488   0.991   8.290  0.5114 -1.1697 -2.2957
 8839SOL    HW237977   2.547   1.110   8.216  2.1120 -1.1526 -0.3336
 8840SOL     OW37978   4.165   3.078   9.908  0.4069 -0.1108 -0.1169
 8840SOL    HW137979   4.109   3.109   9.837  1.3762  1.8363 -0.0246
 8840SOL    HW237980   4.116   3.094   9.988  1.5646 -0.0396  0.5696
 8841SOL     OW37981   0.934   1.256   0.774 -0.3961 -0.1414  0.2959
 8841SOL    HW137982   1.022   1.226   0.797  0.2599  0.8157 -0.9386
 8841SOL    HW237983   0.913   1.297   0.857 -2.2321 -0.3762 -0.0460
 8842SOL     OW37984   0.485   2.130   3.343 -0.5880 -0.2168 -0.0521
 8842SOL    HW137985   0.419   2.188   3.305 -2.2261 -2.0184  0.1169
 8842SOL    HW237986   0.518   2.079   3.269  1.1951  0.0796  0.5429
 8843SOL     OW37987   1.069   1.825   3.367  0.1228 -0.5383 -0.4284
 8843SOL    HW137988   1.150   1.874   3.376  0.1602 -0.9169  1.2277
 8843SOL    HW237989   1.052   1.800   3.458  1.1836  0.4998  0.0470
 8844SOL     OW37990   0.655   2.644   2.432  0.4784 -0.0100  0.8349
 8844SOL    HW137991   0.562   2.622   2.426  0.1504  1.6949 -0.1453
 8844SOL    HW237992   0.673   2.666   2.341  1.6648 -1.8858  0.6163
 8845SOL     OW37993   0.743   1.296   9.684  0.0417  0.0786 -0.4236
 8845SOL    HW137994   0.781   1.365   9.631  0.4043 -0.4023 -0.7793
 8845SOL    HW237995   0.659   1.286   9.638 -1.8090 -0.0770  2.9250
 8846SOL     OW37996   0.579   1.116   1.246 -1.0660 -0.7140  0.1290
 8846SOL    HW137997   0.546   1.187   1.302  3.4214  2.1674 -0.8711
 8846SOL    HW237998   0.498   1.071   1.223 -0.9357 -2.3339  2.8486
 8847SOL     OW37999   2.603   2.867   3.592 -0.7187 -0.0796  0.1190
 8847SOL    HW138000   2.579   2.958   3.604 -2.1907 -0.6865  1.8268
 8847SOL    HW238001   2.685   2.852   3.639 -0.6897  2.9806  1.0081
 8848SOL     OW38002   3.573   3.400   0.555  0.0918  0.1705 -0.1045
 8848SOL    HW138003   3.624   3.401   0.474 -0.5174  1.1079 -0.4750
 8848SOL    HW238004   3.573   3.493   0.578 -2.9981 -0.0030  0.5914
 8849SOL     OW38005   0.828   2.061   9.997  0.0192 -0.0509  0.2384
 8849SOL    HW138006   0.823   2.156  10.002 -0.9246 -0.0937  0.0077
 8849SOL    HW238007   0.853   2.044  10.088 -1.7990 -0.8441  0.5771
 8850SOL     OW38008   2.578   2.178   8.213  0.2156 -0.4637  0.0479
 8850SOL    HW138009   2.633   2.254   8.193 -0.6288  0.7573  2.2705
 8850SOL    HW238010   2.561   2.151   8.123  2.4544 -1.1821 -0.1733
 8851SOL     OW38011   3.212   0.498   8.296  0.1061 -0.4209  0.4322
 8851SOL    HW138012   3.269   0.504   8.373 -1.0032 -1.4296  1.3358
 8851SOL    HW238013   3.146   0.561   8.324  1.8867  1.3847  0.5751
 8852SOL     OW38014   1.058   0.418   6.277  0.3767 -0.3744 -0.1889
 8852SOL    HW138015   1.132   0.404   6.336 -0.1809 -2.2720  0.0569
 8852SOL    HW238016   1.100   0.413   6.192  0.0881  1.4475 -0.4476
 8853SOL     OW38017   4.394   3.328   6.643 -0.2772 -0.2899  0.1960
 8853SOL    HW138018   4.441   3.360   6.566  1.8057 -2.9649  0.3381
 8853SOL    HW238019   4.461   3.289   6.699  0.9748  0.1618 -0.9937
 8854SOL     OW38020   1.720   1.470   5.865 -0.2163  0.4651 -0.0185
 8854SOL    HW138021   1.794   1.525   5.891  0.2070 -0.1990  0.1717
 8854SOL    HW238022   1.696   1.442   5.953 -0.7844 -0.5159 -0.4841
 8855SOL     OW38023   4.599   2.524  10.438 -0.0899 -0.0682  0.0855
 8855SOL    HW138024   4.524   2.523  10.497 -1.0598  0.5356 -1.1443
 8855SOL    HW238025   4.577   2.596  10.378 -1.3799  2.4491  3.6273
 8856SOL     OW38026   2.526   3.511   6.362 -0.6653  0.1569 -0.3315
 8856SOL    HW138027   2.562   3.593   6.396 -0.6007 -0.5047  1.2242
 8856SOL    HW238028   2.504   3.470   6.446 -1.6433  1.2276 -0.0639
 8857SOL     OW38029   4.553   1.887  12.116  0.3835  0.0759  0.7990
 8857SOL    HW138030   4.616   1.819  12.092 -0.5294 -0.3640 -0.3471
 8857SOL    HW238031   4.522   1.855  12.201 -1.2708 -0.6078 -0.0666
 8858SOL     OW38032   3.983   4.460   3.693  0.1008 -0.4667 -0.3566
 8858SOL    HW138033   3.894   4.492   3.679  0.9313  1.5379 -0.9083
 8858SOL    HW238034   4.039   4.536   3.682 -1.5385  0.7334 -0.3050
 8859SOL     OW38035   3.422   0.048   6.536  0.5849 -0.2860 -0.0985
 8859SOL    HW138036   3.382   4.690   6.507  0.0582  0.0421 -0.2973
 8859SOL    HW238037   3.482   0.022   6.606 -0.4880 -1.2792  0.4448
 8860SOL     OW38038   4.240   2.382   4.080 -0.0109  0.1052  0.5175
 8860SOL    HW138039   4.251   2.476   4.071 -0.1561  0.1864  1.1543
 8860SOL    HW238040   4.327   2.355   4.112 -0.5150 -0.6822  1.2363
 8861SOL     OW38041   3.057   1.838   5.699  0.0077 -0.1788 -0.4900
 8861SOL    HW138042   3.106   1.847   5.617  1.2967 -1.9617  0.0674
 8861SOL    HW238043   3.092   1.755   5.732  0.2741  0.5483  1.0818
 8862SOL     OW38044   2.095   2.732   4.660 -0.3104 -0.1786  0.0192
 8862SOL    HW138045   2.067   2.823   4.661  0.4592  0.0499  1.3373
 8862SOL    HW238046   2.062   2.715   4.748 -0.7145  0.7009  0.0388
 8863SOL     OW38047   0.201   4.684   0.135  0.2120  0.0325 -0.4254
 8863SOL    HW138048   0.188   4.590   0.127 -0.2807  0.0920 -0.3381
 8863SOL    HW238049   0.285   4.687   0.090  0.8941 -2.0349  0.7291
 8864SOL     OW38050   3.918   0.980   2.694 -0.1396  0.2095 -0.4432
 8864SOL    HW138051   3.917   0.967   2.599  0.0579  1.2011 -0.5830
 8864SOL    HW238052   3.899   1.074   2.695 -0.9686  0.0500 -0.5622
 8865SOL     OW38053   4.602   3.167   1.756 -0.2261 -0.3213  0.3402
 8865SOL    HW138054   4.616   3.073   1.739 -3.1608 -0.9861  1.6224
 8865SOL    HW238055   4.575   3.198   1.670  2.1965 -0.0472 -0.3079
 8866SOL     OW38056   1.592   1.074   5.373 -0.0386 -0.3056  0.4488
 8866SOL    HW138057   1.626   1.077   5.283  0.3479 -0.4953  0.5904
 8866SOL    HW238058   1.507   1.036   5.351 -0.1486  0.9053 -1.2868
 8867SOL     OW38059   1.637   3.485  13.508  0.1247 -0.2489  0.2228
 8867SOL    HW138060   1.656   3.393  13.525  0.8845  0.0024  0.7589
 8867SOL    HW238061   1.623   3.514  13.598  0.4410  0.0929  0.1602
 8868SOL     OW38062   1.156   3.037   9.743  0.2529 -0.2065 -0.2388
 8868SOL    HW138063   1.181   2.977   9.813 -0.2757 -0.0858  0.0493
 8868SOL    HW238064   1.148   2.975   9.670  0.0132  2.0598 -2.1511
 8869SOL     OW38065   1.678   3.185   8.992  0.6675 -0.2543  0.1674
 8869SOL    HW138066   1.631   3.246   8.936 -0.1927 -0.3432  0.7996
 8869SOL    HW238067   1.625   3.186   9.072  1.3623  1.3479  0.6030
 8870SOL     OW38068   4.299   4.257   8.334  0.7561  1.3632  0.0655
 8870SOL    HW138069   4.378   4.208   8.311  1.3211  0.9960  2.7632
 8870SOL    HW238070   4.243   4.184   8.361  0.6599  0.9104 -1.3271
 8871SOL     OW38071   2.232   4.708   8.374 -0.2490 -0.7133 -0.0575
 8871SOL    HW138072   2.259   0.037   8.298  0.7019 -1.8751 -0.5284
 8871SOL    HW238073   2.161   4.654   8.339 -0.1577 -1.6265  1.1815
 8872SOL     OW38074   1.640   0.512  11.256 -0.3515 -0.4754  0.5698
 8872SOL    HW138075   1.563   0.549  11.212  0.0247  2.6089  2.4368
 8872SOL    HW238076   1.612   0.529  11.346 -0.7877  1.5126  0.0715
 8873SOL     OW38077   1.806   0.883   9.297 -0.1162  0.2151 -0.3078
 8873SOL    HW138078   1.894   0.911   9.272  0.3170 -2.0988 -1.3998
 8873SOL    HW238079   1.754   0.899   9.218  1.2539 -1.2096 -1.4905
 8874SOL     OW38080   4.590   4.382   4.933  0.3314 -0.7420  0.3002
 8874SOL    HW138081   4.588   4.477   4.944 -0.0097 -0.6765 -0.3165
 8874SOL    HW238082   4.675   4.363   4.893  0.0427 -1.5197  0.0614
 8875SOL     OW38083   0.342   4.688   4.480 -0.3057 -0.3166 -0.0589
 8875SOL    HW138084   0.361   0.041   4.426 -0.3820  0.9666  1.7628
 8875SOL    HW238085   0.247   4.685   4.463 -0.0871 -2.0974 -0.9435
 8876SOL     OW38086   2.678   0.343   3.711  0.4523  0.3954 -0.1268
 8876SOL    HW138087   2.713   0.420   3.756 -0.2852  0.6163  0.0845
 8876SOL    HW238088   2.742   0.333   3.641  0.5315  0.0297 -0.0006
 8877SOL     OW38089   2.274   4.711  10.987  0.3341  0.2932 -0.1692
 8877SOL    HW138090   2.360   4.670  10.977  1.0817  1.7083  0.3545
 8877SOL    HW238091   2.230   4.665  10.916  2.0116 -0.0488 -0.9864
 8878SOL     OW38092   0.601   2.080   2.622  0.2425 -0.3009  0.1294
 8878SOL    HW138093   0.508   2.082   2.600 -0.0217 -0.0599  1.2427
 8878SOL    HW238094   0.604   1.986   2.638  2.5443  0.0443  1.7945
 8879SOL     OW38095   2.640   3.599  17.470  0.5763 -0.3386 -0.5389
 8879SOL    HW138096   2.663   3.508  17.452 -1.2735 -0.8706 -0.2279
 8879SOL    HW238097   2.699   3.615  17.543 -0.9218  3.6566 -0.2213
 8880SOL     OW38098   0.032   4.221  13.996 -0.4607  0.3725 -0.0349
 8880SOL    HW138099   0.026   4.143  13.941 -0.0091  1.2783 -1.3555
 8880SOL    HW238100   0.107   4.198  14.051 -0.8370  1.1905  0.8208
 8881SOL     OW38101   0.903   3.200  12.395  0.0691 -0.1698 -0.2640
 8881SOL    HW138102   0.898   3.139  12.469 -0.8989  0.8434  0.5190
 8881SOL    HW238103   0.911   3.282  12.444 -2.5390 -1.0541  1.6414
 8882SOL     OW38104   2.187   0.519  11.050 -0.3923 -0.6096  0.5998
 8882SOL    HW138105   2.249   0.446  11.054 -0.3016 -0.4811  1.6198
 8882SOL    HW238106   2.243   0.581  11.097  1.5449 -1.9665  0.1050
 8883SOL     OW38107   4.388   2.494  11.847 -0.4127  0.1362  0.3402
 8883SOL    HW138108   4.349   2.536  11.924 -1.2897  0.9608 -0.5585
 8883SOL    HW238109   4.308   2.467  11.803 -0.9433  2.2280 -0.0051
 8884SOL     OW38110   1.420   3.240   6.502  0.7378  0.0173  0.3940
 8884SOL    HW138111   1.373   3.159   6.483  0.3269  1.1259 -3.2339
 8884SOL    HW238112   1.349   3.302   6.522 -0.3056 -1.0713  0.0467
 8885SOL     OW38113   0.555   1.148   0.622  0.1346  0.6483  0.1351
 8885SOL    HW138114   0.643   1.184   0.619 -0.1892  1.1989 -2.9760
 8885SOL    HW238115   0.510   1.231   0.633  0.6716  1.0722 -0.8721
 8886SOL     OW38116   1.211   1.283   2.165 -0.8881 -0.3906  0.2870
 8886SOL    HW138117   1.150   1.356   2.151  0.2303  0.2970 -0.9801
 8886SOL    HW238118   1.267   1.278   2.088 -1.0287  3.4947 -0.0400
 8887SOL     OW38119   2.255   0.300   6.622 -0.2111  0.3172 -0.4887
 8887SOL    HW138120   2.195   0.295   6.548  1.2934  0.1305 -1.6891
 8887SOL    HW238121   2.271   0.394   6.631  3.1567 -0.2298 -0.7527
 8888SOL     OW38122   3.051   2.901  14.618 -0.4630  0.1315 -0.3263
 8888SOL    HW138123   3.108   2.945  14.555  2.1490 -1.0201  1.2118
 8888SOL    HW238124   2.991   2.841  14.574 -1.3371  0.0727  0.9601
 8889SOL     OW38125   0.694   0.316   2.210  0.1092 -0.7096 -0.6567
 8889SOL    HW138126   0.687   0.295   2.117 -3.5942  0.3994 -0.6542
 8889SOL    HW238127   0.759   0.256   2.245 -0.2953 -0.0526  1.2118
 8890SOL     OW38128   1.670   3.769   1.126 -0.1121  0.0166 -0.1681
 8890SOL    HW138129   1.721   3.693   1.098 -0.9453 -0.9277  0.8893
 8890SOL    HW238130   1.666   3.814   1.042  1.1008 -0.8794 -0.7027
 8891SOL     OW38131   0.906   1.104   6.051 -0.3058 -0.2596 -0.5495
 8891SOL    HW138132   0.943   1.039   6.111 -1.0665 -1.8958 -1.8377
 8891SOL    HW238133   0.939   1.067   5.968 -0.6234 -0.9624 -0.3657
 8892SOL     OW38134   3.401   4.503   8.270 -0.0291 -0.0594 -0.4915
 8892SOL    HW138135   3.442   4.521   8.186  1.0814  0.5690  0.1861
 8892SOL    HW238136   3.315   4.544   8.260 -0.4712 -0.1967  2.6720
 8893SOL     OW38137   4.235   1.378   3.704 -0.0138  0.0289  0.5275
 8893SOL    HW138138   4.250   1.283   3.712  0.5336 -0.0997 -1.9569
 8893SOL    HW238139   4.198   1.388   3.616  1.1661  0.1655  0.0558
 8894SOL     OW38140   4.339   3.956   0.125  0.3030  0.4758 -0.1669
 8894SOL    HW138141   4.267   3.899   0.150  1.5018 -0.1560  1.8353
 8894SOL    HW238142   4.381   3.892   0.068 -3.0250  0.1522 -2.2601
 8895SOL     OW38143   3.573   3.002   8.178  0.1792  0.0040 -0.1004
 8895SOL    HW138144   3.578   3.098   8.180  0.5484  0.0475 -3.6844
 8895SOL    HW238145   3.506   2.984   8.112 -0.4723 -0.1395  0.5954
 8896SOL     OW38146   1.469   2.124   6.068  0.2202 -0.2935  0.7820
 8896SOL    HW138147   1.437   2.067   5.998  1.4351  0.6900 -0.5695
 8896SOL    HW238148   1.499   2.069   6.140  2.3831 -0.9985 -0.6497
 8897SOL     OW38149   1.324   0.331  10.673 -0.9808  0.0527  0.3830
 8897SOL    HW138150   1.306   0.318  10.579 -0.6605 -1.3799  0.5229
 8897SOL    HW238151   1.397   0.271  10.689 -0.4207  0.6913  0.2268
 8898SOL     OW38152   4.241   2.700  10.257  0.2270 -0.2615  0.3793
 8898SOL    HW138153   4.184   2.754  10.311  0.9873  0.4259  0.5037
 8898SOL    HW238154   4.307   2.667  10.318 -0.7262  0.4028  1.7646
 8899SOL     OW38155   1.388   0.693  15.414 -0.0584  0.6183  0.3388
 8899SOL    HW138156   1.475   0.669  15.447 -0.0180  0.8515  0.4051
 8899SOL    HW238157   1.404   0.702  15.320  0.1370  0.3488  0.3457
 8900SOL     OW38158   0.628   3.568   0.802 -0.2423 -0.4110  0.1693
 8900SOL    HW138159   0.595   3.492   0.849 -0.5302 -0.6822 -0.4626
 8900SOL    HW238160   0.703   3.535   0.752  0.4286 -1.1723  1.6727
 8901SOL     OW38161   1.449   0.032   8.998  0.4730  0.4483 -0.3628
 8901SOL    HW138162   1.432   0.125   8.986 -0.3815  0.1570 -1.3655
 8901SOL    HW238163   1.544   0.039   9.010  0.3935  0.6435  0.1723
 8902SOL     OW38164   1.956   0.132   3.603 -0.4129 -0.4630  0.3472
 8902SOL    HW138165   1.892   0.082   3.554  0.2901 -0.8812 -0.1434
 8902SOL    HW238166   1.893   0.185   3.652 -1.8586  1.4816 -3.6136
 8903SOL     OW38167   3.814   3.445  16.947  0.1755  0.5829  0.1817
 8903SOL    HW138168   3.893   3.457  16.895  1.4533  1.5594  2.3579
 8903SOL    HW238169   3.834   3.366  16.998  3.3739 -0.2710 -2.4115
 8904SOL     OW38170   2.861   3.339   2.725  0.6215 -0.0092 -0.0911
 8904SOL    HW138171   2.861   3.257   2.676 -0.7063 -0.2108  0.2345
 8904SOL    HW238172   2.942   3.324   2.775 -0.7538 -0.7930  1.9396
 8905SOL     OW38173   3.094   0.852   4.365 -0.1477  0.4104  0.4798
 8905SOL    HW138174   3.097   0.908   4.442  0.8395  0.0363  0.7230
 8905SOL    HW238175   3.048   0.915   4.309 -0.6281 -0.1430  0.2581
 8906SOL     OW38176   0.130   2.776   7.148 -0.3973  0.1651 -0.3530
 8906SOL    HW138177   0.208   2.730   7.117 -0.8675 -1.0263  0.2481
 8906SOL    HW238178   0.170   2.849   7.195 -1.2524 -0.8424  1.9351
 8907SOL     OW38179   0.851   0.835   3.603 -0.6751 -0.4505 -0.1085
 8907SOL    HW138180   0.913   0.785   3.551  0.9660 -2.0466  3.3592
 8907SOL    HW238181   0.849   0.789   3.687 -0.6049  3.1842  1.9081
 8908SOL     OW38182   0.038   0.390   4.381 -0.2947 -0.4326  0.2307
 8908SOL    HW138183   0.071   0.461   4.326  1.7767 -2.0066 -0.5304
 8908SOL    HW238184   4.700   0.445   4.429 -0.3338 -1.9487  1.9203
 8909SOL     OW38185   4.136   3.240  16.260  0.3427 -0.0804 -0.3822
 8909SOL    HW138186   4.167   3.223  16.349 -1.3274  2.8056  0.7425
 8909SOL    HW238187   4.049   3.277  16.271  0.2668  0.0183 -1.2836
 8910SOL     OW38188   1.747   0.535   7.132  0.2903 -0.1419 -0.0859
 8910SOL    HW138189   1.708   0.534   7.045  1.0348  2.1685 -0.4506
 8910SOL    HW238190   1.816   0.469   7.123  0.7362  0.3145 -0.0076
 8911SOL     OW38191   0.023   2.825  16.744 -0.3269 -0.0926 -0.3757
 8911SOL    HW138192   0.103   2.807  16.695 -1.4559  1.9807 -3.0137
 8911SOL    HW238193   4.688   2.859  16.676 -1.2744  0.0434  0.5150
 8912SOL     OW38194   2.207   3.823   5.929  0.4521 -0.2568  0.0750
 8912SOL    HW138195   2.239   3.741   5.892 -0.1613 -0.6564  0.4315
 8912SOL    HW238196   2.114   3.803   5.925  0.6873 -1.0114 -1.3427
 8913SOL     OW38197   1.404   4.040   6.383  0.2520  0.0911 -0.2119
 8913SOL    HW138198   1.371   3.987   6.456 -0.4770  0.0820 -0.5393
 8913SOL    HW238199   1.484   4.066   6.428  0.9380 -1.9831 -0.2081
 8914SOL     OW38200   4.066   4.412   3.058  0.3464  0.0886  0.4029
 8914SOL    HW138201   3.990   4.375   3.013 -1.1100  0.4369  2.5653
 8914SOL    HW238202   4.022   4.471   3.121  1.0499 -0.8289  1.7545
 8915SOL     OW38203   1.596   4.429   7.554 -0.4090  0.5085 -0.2783
 8915SOL    HW138204   1.580   4.513   7.511  0.4970  0.9506  0.2437
 8915SOL    HW238205   1.635   4.466   7.634 -0.5875 -0.9463  0.4837
 8916SOL     OW38206   2.142   0.693   2.042  0.1910  0.2404 -0.1981
 8916SOL    HW138207   2.230   0.728   2.052  0.0869  0.6803 -0.8713
 8916SOL    HW238208   2.103   0.768   1.999 -1.4368  0.4009  1.5342
 8917SOL     OW38209   3.513   3.509   6.273 -0.0755 -0.2522  0.2531
 8917SOL    HW138210   3.431   3.489   6.230 -0.4035 -0.9649  1.1990
 8917SOL    HW238211   3.501   3.591   6.320  2.7156  0.6376 -0.5825
 8918SOL     OW38212   1.140   4.417   6.167  0.1159 -0.4629  0.5947
 8918SOL    HW138213   1.122   4.421   6.073  2.0987  0.1736  0.2416
 8918SOL    HW238214   1.134   4.322   6.176  2.5598 -0.9306 -2.6940
 8919SOL     OW38215   4.128   4.247   5.634  0.2872  0.3828  0.9698
 8919SOL    HW138216   4.043   4.289   5.619  0.5500  1.1859  1.7581
 8919SOL    HW238217   4.110   4.161   5.672  0.6099  0.6655  1.7594
 8920SOL     OW38218   3.553   4.214   2.681 -0.6809  0.0349  0.1674
 8920SOL    HW138219   3.565   4.303   2.647  0.8766  0.6722  2.3816
 8920SOL    HW238220   3.459   4.207   2.665 -1.1699  0.5047  2.8037
 8921SOL     OW38221   1.227   3.548   2.896 -0.7130  0.1646 -0.1785
 8921SOL    HW138222   1.195   3.561   2.985  0.8099  1.7767  0.1392
 8921SOL    HW238223   1.147   3.515   2.856 -1.0883 -2.2536  2.5589
 8922SOL     OW38224   1.836   0.191   7.176 -0.0418  0.3533  0.7241
 8922SOL    HW138225   1.909   0.132   7.188 -1.0681 -1.1522 -0.4184
 8922SOL    HW238226   1.810   0.178   7.085  0.9340  0.7836  0.3817
 8923SOL     OW38227   3.650   1.312  14.747  0.0157 -0.6259 -0.0328
 8923SOL    HW138228   3.568   1.262  14.750 -1.2207  1.3221 -1.7391
 8923SOL    HW238229   3.621   1.382  14.688 -1.1941  0.6751  2.1091
 8924SOL     OW38230   3.972   4.547  13.608 -0.2526  0.2434 -0.2184
 8924SOL    HW138231   4.055   4.576  13.572 -0.5406  1.0821 -0.2030
 8924SOL    HW238232   3.989   4.565  13.700 -1.0816 -0.3118  0.0427
 8925SOL     OW38233   2.419   1.038   4.398  0.0207 -0.3876 -0.1804
 8925SOL    HW138234   2.459   1.124   4.406 -0.5158 -0.1198 -0.3878
 8925SOL    HW238235   2.326   1.061   4.400  0.0518 -0.0857 -2.9946
 8926SOL     OW38236   3.132   4.543   8.158 -0.3672  0.0683 -0.1083
 8926SOL    HW138237   3.056   4.597   8.181 -0.7586 -2.0644  3.4407
 8926SOL    HW238238   3.107   4.464   8.206  1.3419 -1.5677 -1.9047
 8927SOL     OW38239   2.704   4.489   8.412 -0.5111  0.0147  0.2761
 8927SOL    HW138240   2.654   4.438   8.348 -0.9819 -0.7080  1.2082
 8927SOL    HW238241   2.631   4.542   8.446 -0.3837  0.1383  0.3564
 8928SOL     OW38242   1.237   1.163  16.696  0.1612 -0.4723  0.2133
 8928SOL    HW138243   1.214   1.143  16.787 -2.3124 -0.8251 -0.4709
 8928SOL    HW238244   1.232   1.258  16.701 -0.3917 -0.4090 -1.3357
 8929SOL     OW38245   1.160   1.501   6.673 -0.0220 -0.5503 -0.3926
 8929SOL    HW138246   1.188   1.441   6.742 -1.8131 -0.7649  0.1383
 8929SOL    HW238247   1.229   1.565   6.654 -0.1022 -0.9024 -1.9218
 8930SOL     OW38248   1.452   2.520   3.811 -0.0534 -0.4441  0.0344
 8930SOL    HW138249   1.418   2.549   3.726 -3.3928  0.8224  1.8145
 8930SOL    HW238250   1.486   2.603   3.844 -0.8329 -0.0654 -0.1053
 8931SOL     OW38251   0.975   0.880  15.642  0.4027 -0.2976 -0.2929
 8931SOL    HW138252   1.066   0.860  15.621  0.4660 -0.6398  0.2987
 8931SOL    HW238253   0.959   0.804  15.699 -1.1708  0.3742  0.1430
 8932SOL     OW38254   2.780   4.023   5.500  0.1067  0.3113 -0.5356
 8932SOL    HW138255   2.733   3.950   5.460 -0.8932  1.4506 -1.4548
 8932SOL    HW238256   2.872   4.012   5.478  0.5351  2.7701 -0.0423
 8933SOL     OW38257   2.694   2.028   2.477 -0.3399 -0.2016  0.4288
 8933SOL    HW138258   2.603   2.025   2.505 -0.4584 -0.7575 -0.0198
 8933SOL    HW238259   2.689   2.093   2.407  0.6624 -1.0930 -0.4712
 8934SOL     OW38260   4.258   2.139   5.969 -0.5737  0.2421 -0.3579
 8934SOL    HW138261   4.337   2.086   5.969 -0.3106  0.6234  1.8300
 8934SOL    HW238262   4.213   2.092   6.040  0.7384 -1.7856 -0.8525
 8935SOL     OW38263   2.397   0.964  10.404 -0.0427  0.0252  0.2200
 8935SOL    HW138264   2.363   0.960  10.315 -1.9165 -2.5950  1.0511
 8935SOL    HW238265   2.407   0.868  10.407  0.0137  0.0348  0.3588
 8936SOL     OW38266   2.314   1.884   0.482 -0.4496 -0.8707 -0.1549
 8936SOL    HW138267   2.358   1.919   0.560 -0.3345  0.8632 -0.9945
 8936SOL    HW238268   2.335   1.792   0.497 -1.8888 -1.0991  0.4239
 8937SOL     OW38269   1.296   1.031   1.100  0.0614  0.7368  0.1441
 8937SOL    HW138270   1.384   1.029   1.136  0.5280 -1.7249 -1.1144
 8937SOL    HW238271   1.264   0.944   1.125 -0.8695  1.4643  1.4855
 8938SOL     OW38272   2.749   1.200   4.265 -0.4439  0.5069  0.0478
 8938SOL    HW138273   2.674   1.190   4.324 -0.2048 -3.2662 -0.2701
 8938SOL    HW238274   2.696   1.213   4.186 -0.6788 -1.4828 -0.1258
 8939SOL     OW38275   1.151   3.135   1.972 -0.1145 -0.2385 -0.1910
 8939SOL    HW138276   1.212   3.109   1.904 -1.1804  0.5747 -1.4639
 8939SOL    HW238277   1.163   3.065   2.036 -1.3747 -0.1789  0.1235
 8940SOL     OW38278   3.525   4.414  10.306  0.5811 -0.3085 -0.5652
 8940SOL    HW138279   3.577   4.481  10.350  1.1234 -1.3401  0.3567
 8940SOL    HW238280   3.520   4.447  10.216 -2.9275  1.3734  0.2927
 8941SOL     OW38281   1.109   1.563   0.810 -0.1446 -0.6722  0.0824
 8941SOL    HW138282   1.100   1.508   0.888 -2.8361  1.1371  1.0367
 8941SOL    HW238283   1.054   1.639   0.828  0.6474 -0.5520  1.9563
 8942SOL     OW38284   0.221   4.645   3.151  0.3796  0.6063 -0.2284
 8942SOL    HW138285   0.128   4.660   3.134  0.8148 -0.4500 -3.4948
 8942SOL    HW238286   0.225   4.715   3.217 -2.1233 -0.3660  0.9793
 8943SOL     OW38287   2.072   2.288   6.977 -0.4204 -0.5534  0.2952
 8943SOL    HW138288   2.005   2.232   6.938 -1.4611 -0.1907  1.5580
 8943SOL    HW238289   2.062   2.369   6.928 -0.7202  0.9218  2.7904
 8944SOL     OW38290   1.320   0.535   9.278  0.1317  0.2112 -0.9399
 8944SOL    HW138291   1.314   0.591   9.355 -0.0933 -0.9501 -0.1115
 8944SOL    HW238292   1.409   0.506   9.260  0.5486  0.5901  0.5775
 8945SOL     OW38293   3.983   1.161   6.462  0.0884 -0.4911 -0.3157
 8945SOL    HW138294   3.892   1.148   6.437  0.5754 -1.2178 -1.6988
 8945SOL    HW238295   4.016   1.085   6.414 -0.7671  0.2679 -2.1018
 8946SOL     OW38296   3.494   4.300  14.195 -0.1437  0.1615 -0.0429
 8946SOL    HW138297   3.506   4.378  14.250  1.0469  1.7432 -2.5515
 8946SOL    HW238298   3.403   4.318  14.172 -0.8162 -0.9993  1.6950
 8947SOL     OW38299   3.703   3.566   6.889 -0.2835  0.3351  0.0959
 8947SOL    HW138300   3.725   3.495   6.828 -3.1570  0.2128 -0.7761
 8947SOL    HW238301   3.669   3.514   6.962  1.1439  0.5760  0.9519
 8948SOL     OW38302   2.306   1.494   3.976 -0.2096 -0.2645 -0.0387
 8948SOL    HW138303   2.253   1.574   3.971  0.1711 -0.0306 -0.3476
 8948SOL    HW238304   2.274   1.467   4.062 -2.8822 -2.1992 -1.6765
 8949SOL     OW38305   2.438   4.517   9.407  0.2995  0.5970 -0.0845
 8949SOL    HW138306   2.486   4.576   9.350  0.7812 -0.3308 -0.6430
 8949SOL    HW238307   2.439   4.563   9.491  0.5106  0.4923 -0.0314
 8950SOL     OW38308   3.945   1.611   3.683  0.2312  0.1896 -0.6330
 8950SOL    HW138309   4.023   1.663   3.704 -0.2904  0.7107 -0.0015
 8950SOL    HW238310   3.922   1.637   3.594  0.1495 -2.1229 -1.2752
 8951SOL     OW38311   1.244   1.751   4.068  0.0819  0.2877  0.2409
 8951SOL    HW138312   1.223   1.772   3.976  2.7642  1.5188 -0.0930
 8951SOL    HW238313   1.222   1.658   4.075  2.2034  0.0273  3.4864
 8952SOL     OW38314   1.310   1.584  12.030 -0.0010  0.3852  0.5810
 8952SOL    HW138315   1.346   1.527  11.962 -1.9274  0.9674 -0.9020
 8952SOL    HW238316   1.238   1.616  11.975 -0.8584 -1.1294  0.8195
 8953SOL     OW38317   2.598   4.281   3.047 -0.1984 -0.1042  0.6434
 8953SOL    HW138318   2.505   4.289   3.024 -0.4581 -3.0411  0.6266
 8953SOL    HW238319   2.607   4.189   3.024  0.9840  0.1097  0.2434
 8954SOL     OW38320   0.381   0.563   3.225  0.3748  0.5322  0.5368
 8954SOL    HW138321   0.438   0.616   3.170  0.8587 -0.7510 -0.1974
 8954SOL    HW238322   0.443   0.499   3.259  1.2006  1.5700  0.9623
 8955SOL     OW38323   0.256   2.713   1.118 -0.4106  0.3046  0.2479
 8955SOL    HW138324   0.228   2.671   1.199 -1.9683  1.5471  0.3501
 8955SOL    HW238325   0.317   2.650   1.079 -0.5819  0.5790 -0.4625
 8956SOL     OW38326   1.694   1.239  16.188 -0.1010 -0.3036 -0.5643
 8956SOL    HW138327   1.625   1.287  16.234 -1.0268  0.4361 -2.7360
 8956SOL    HW238328   1.707   1.163  16.244  1.3498  0.8769  0.7026
 8957SOL     OW38329   0.038   3.505  12.014 -0.0459  0.0634  0.2985
 8957SOL    HW138330   0.055   3.417  11.979 -1.3143  0.5973 -1.6350
 8957SOL    HW238331   4.679   3.527  11.972  0.9302 -3.1136 -3.3180
 8958SOL     OW38332   0.006   1.823   3.441  0.2601  0.2439  0.3704
 8958SOL    HW138333   4.699   1.736   3.418  0.5101 -0.0104  0.9818
 8958SOL    HW238334   0.100   1.813   3.422  0.9346  0.7006  3.4591
 8959SOL     OW38335   1.230   3.105   0.833  0.3924  0.6491  0.3066
 8959SOL    HW138336   1.294   3.168   0.799  1.2449 -1.7710 -2.6211
 8959SOL    HW238337   1.279   3.052   0.896  0.7314  2.3323  1.4494
 8960SOL     OW38338   0.741   1.784   7.318 -0.1478  0.0723 -0.1755
 8960SOL    HW138339   0.686   1.846   7.365 -1.6118 -0.7737 -0.7569
 8960SOL    HW238340   0.677   1.715   7.301  1.0466 -0.4565 -2.6778
 8961SOL     OW38341   2.543   3.797   1.682  0.6262  0.7286  0.5668
 8961SOL    HW138342   2.618   3.756   1.725  2.9749  3.4242 -0.9752
 8961SOL    HW238343   2.587   3.882   1.673  1.4638  0.2715  0.4424
 8962SOL     OW38344   0.314   0.972  15.411  0.4156 -0.5596  0.2067
 8962SOL    HW138345   0.385   0.959  15.474  1.2750  0.6292 -0.5019
 8962SOL    HW238346   0.325   0.898  15.351  1.0118  0.6991 -1.2454
 8963SOL     OW38347   1.878   2.815  16.159  0.4859 -0.3311  0.3639
 8963SOL    HW138348   1.788   2.784  16.168  0.1827  0.5068  0.2213
 8963SOL    HW238349   1.921   2.773  16.234  1.1466  2.8820  1.7958
 8964SOL     OW38350   1.268   4.711  16.239 -0.0112  0.2888  0.1353
 8964SOL    HW138351   1.326   0.059  16.262 -1.0644  1.2628 -0.2482
 8964SOL    HW238352   1.203   0.027  16.180  0.0397 -1.3640 -1.0370
 8965SOL     OW38353   3.193   0.971  14.981  0.2741 -0.3767  0.4651
 8965SOL    HW138354   3.167   0.892  14.933  1.7634 -0.2517 -0.5264
 8965SOL    HW238355   3.287   0.969  14.962  0.4613 -0.3595  1.3933
 8966SOL     OW38356   1.672   2.925   5.086  0.1080  0.3429  0.0089
 8966SOL    HW138357   1.617   2.905   5.011 -0.3933 -1.6001  0.8896
 8966SOL    HW238358   1.705   3.007   5.051  1.1268 -0.3685 -0.7148
 8967SOL     OW38359   3.632   2.209   3.743 -0.5432  0.7229  0.3966
 8967SOL    HW138360   3.630   2.264   3.665  2.1612  0.5017  0.1522
 8967SOL    HW238361   3.670   2.261   3.815 -1.7400  2.1179  0.0171
 8968SOL     OW38362   0.743   3.012   6.678 -0.1369  0.3615  0.7818
 8968SOL    HW138363   0.648   3.019   6.678 -0.2226 -0.8205 -0.2544
 8968SOL    HW238364   0.760   3.008   6.584  0.1693 -0.6887  0.8792
 8969SOL     OW38365   0.387   2.732   7.054  0.2105  0.2467 -0.4821
 8969SOL    HW138366   0.474   2.693   7.043  0.6071  0.6180  1.3535
 8969SOL    HW238367   0.406   2.784   7.132  1.9672 -1.2958  0.1079
 8970SOL     OW38368   0.792   1.308   2.704  1.1696 -0.0659  0.1354
 8970SOL    HW138369   0.845   1.250   2.649 -0.4077 -2.3145  0.9737
 8970SOL    HW238370   0.857   1.322   2.773  2.0567 -1.0853 -0.4804
 8971SOL     OW38371   4.025   3.569   1.267 -0.3587 -0.1002 -0.4516
 8971SOL    HW138372   4.037   3.610   1.353 -3.0215 -0.3703  0.0394
 8971SOL    HW238373   4.107   3.593   1.223 -0.2937  0.1660 -0.1896
 8972SOL     OW38374   0.199   4.003   3.220  0.1229  0.0635 -0.5212
 8972SOL    HW138375   0.105   4.009   3.237  0.5922  1.6984  1.5034
 8972SOL    HW238376   0.200   4.019   3.126  1.6155  0.7454 -0.3970
 8973SOL     OW38377   3.576   2.276   9.936 -0.6922  0.0684  0.8380
 8973SOL    HW138378   3.537   2.363   9.928  1.2619  0.9226  0.6376
 8973SOL    HW238379   3.560   2.253  10.028 -0.5722 -0.8456  0.6279
 8974SOL     OW38380   4.568   3.027   7.406 -0.3421  0.5042 -0.5203
 8974SOL    HW138381   4.517   3.019   7.486 -0.6382  2.0014 -0.5430
 8974SOL    HW238382   4.498   3.031   7.340  1.0421  0.1900 -2.0116
 8975SOL     OW38383   0.608   1.982   5.920 -0.4650  0.5853  0.6276
 8975SOL    HW138384   0.546   1.921   5.881  0.8598 -0.2500 -0.1768
 8975SOL    HW238385   0.675   1.925   5.960  0.5530 -0.0300 -1.9773
 8976SOL     OW38386   0.956   3.851   8.272 -0.3749  0.1533 -0.1203
 8976SOL    HW138387   0.998   3.786   8.328 -0.2352  1.0560  0.8229
 8976SOL    HW238388   0.897   3.891   8.337 -0.3641  2.5683 -1.5863
 8977SOL     OW38389   0.602   4.146   8.763 -0.3562  0.4539  0.2957
 8977SOL    HW138390   0.529   4.099   8.805  0.0169 -1.5884 -1.3435
 8977SOL    HW238391   0.620   4.212   8.830  0.1487  1.8514 -1.2050
 8978SOL     OW38392   0.821   4.460   4.518  0.3730 -0.0449 -0.5877
 8978SOL    HW138393   0.764   4.513   4.574  0.8782 -0.5887  0.4305
 8978SOL    HW238394   0.890   4.519   4.489  0.0819  0.6712  0.1978
 8979SOL     OW38395   2.205   1.566  10.766 -0.3140  0.0652  0.2383
 8979SOL    HW138396   2.145   1.620  10.715  0.8198 -0.1578 -1.3269
 8979SOL    HW238397   2.285   1.609  10.736  1.1973 -2.2836  0.9025
 8980SOL     OW38398   3.168   1.705  17.638 -0.1093 -0.0799  0.1687
 8980SOL    HW138399   3.154   1.750   0.023  1.5808 -1.6562  1.3128
 8980SOL    HW238400   3.187   1.613  17.659 -0.1993 -0.2316 -0.3981
 8981SOL     OW38401   0.916   3.623   1.029  0.1468 -0.0771  0.3522
 8981SOL    HW138402   0.943   3.713   1.049  0.1688 -0.1651  0.7175
 8981SOL    HW238403   0.838   3.606   1.083  0.1954 -1.4488 -0.0035
 8982SOL     OW38404   1.770   0.541   8.904 -0.0117 -0.3730 -0.1801
 8982SOL    HW138405   1.756   0.534   8.810 -0.9285 -3.9522  0.2132
 8982SOL    HW238406   1.684   0.514   8.936  0.1488 -2.1315 -1.2294
 8983SOL     OW38407   3.388   3.374   8.398  0.2934 -0.1447 -0.2641
 8983SOL    HW138408   3.429   3.340   8.319  0.2382 -1.6230  0.3494
 8983SOL    HW238409   3.370   3.295   8.450 -3.2719  1.5438  1.0835
 8984SOL     OW38410   2.036   2.272   9.731 -0.1712 -0.3080  0.0090
 8984SOL    HW138411   2.095   2.273   9.806 -0.3738 -1.2556  0.1849
 8984SOL    HW238412   2.008   2.363   9.729  1.9998  0.3487 -0.4496
 8985SOL     OW38413   0.772   1.480  16.068 -0.1677  0.1262  0.3131
 8985SOL    HW138414   0.734   1.568  16.058  3.3771  1.3875 -1.9572
 8985SOL    HW238415   0.689   1.435  16.053  0.5188 -0.3194 -2.1052
 8986SOL     OW38416   0.762   2.054  15.400  0.0196 -0.0208  0.1147
 8986SOL    HW138417   0.821   2.127  15.383 -1.5556  0.4944 -3.1268
 8986SOL    HW238418   0.693   2.085  15.341  0.0047 -0.4168 -0.0795
 8987SOL     OW38419   1.263   2.085   8.495  0.0047  0.0839  0.1283
 8987SOL    HW138420   1.337   2.032   8.524  0.2565 -0.0344 -0.7460
 8987SOL    HW238421   1.278   2.179   8.507  0.4160  0.0600 -0.2155
 8988SOL     OW38422   0.055   4.188   5.289 -0.4120 -0.2667 -0.1479
 8988SOL    HW138423   0.112   4.118   5.256  0.4052  0.0413  0.6134
 8988SOL    HW238424   0.040   4.164   5.380 -2.1211  0.6197 -0.1978
 8989SOL     OW38425   3.304   1.152   6.418 -0.0674 -0.1663  0.4178
 8989SOL    HW138426   3.242   1.088   6.382  0.3253 -0.7254  0.7375
 8989SOL    HW238427   3.368   1.159   6.347  1.5057 -1.3012  1.7323
 8990SOL     OW38428   1.378   4.437   6.958  0.1399 -0.2448  1.0843
 8990SOL    HW138429   1.438   4.512   6.961 -2.1951  1.7512 -2.7228
 8990SOL    HW238430   1.331   4.445   6.875 -0.6114  1.9128  1.7048
 8991SOL     OW38431   4.482   3.718   8.217 -0.1369  0.5244  0.3894
 8991SOL    HW138432   4.530   3.786   8.169  0.0469  0.2185  0.1399
 8991SOL    HW238433   4.401   3.767   8.232 -0.7560 -0.5800  0.6447
 8992SOL     OW38434   1.926   2.243   5.142  0.1966 -0.4065 -0.4275
 8992SOL    HW138435   1.990   2.173   5.159  1.9901  1.0012 -1.3394
 8992SOL    HW238436   1.872   2.238   5.221 -0.2163  0.8754 -0.6201
 8993SOL     OW38437   3.899   1.765   2.329  0.2549  0.0454  0.3369
 8993SOL    HW138438   3.945   1.812   2.259  0.1697  0.9633  0.9026
 8993SOL    HW238439   3.941   1.681   2.312 -0.2463 -0.5643  2.1714
 8994SOL     OW38440   0.845   3.902  10.012 -0.3720  0.1785  0.4369
 8994SOL    HW138441   0.928   3.903   9.964 -0.3661  4.0895  0.5559
 8994SOL    HW238442   0.861   3.848  10.089 -1.8509 -1.0249 -0.0995
 8995SOL     OW38443   2.502   0.608   9.302  0.1978 -0.1580 -0.2630
 8995SOL    HW138444   2.540   0.554   9.371  0.2162  0.4481  0.1987
 8995SOL    HW238445   2.437   0.660   9.350  1.3280  0.5164  0.5346
 8996SOL     OW38446   1.513   1.079  12.829 -0.0788  0.9161  0.1742
 8996SOL    HW138447   1.472   1.161  12.803  0.1207  0.8433 -0.3786
 8996SOL    HW238448   1.529   1.093  12.922  0.6927  2.6278 -0.2273
 8997SOL     OW38449   4.702   2.596  12.679  0.1556 -0.5053 -0.1472
 8997SOL    HW138450   4.723   2.619  12.589 -1.9121  0.0405 -0.4861
 8997SOL    HW238451   0.057   2.562  12.720  2.5941  1.7957 -2.9119
 8998SOL     OW38452   0.893   0.967   6.937  0.1377  0.4592  0.1648
 8998SOL    HW138453   0.899   0.966   7.033 -0.4771  1.0339  0.2028
 8998SOL    HW238454   0.946   0.890   6.913 -1.3701 -0.5436  0.0514
 8999SOL     OW38455   1.907   0.062   1.936 -0.2444  0.4105  0.2208
 8999SOL    HW138456   1.900   4.709   1.880  0.4187 -0.4281  1.2700
 8999SOL    HW238457   1.905   0.022   2.023  1.0160 -1.0957 -0.4367
 9000SOL     OW38458   1.849   2.905  15.447  0.0039  0.1599 -0.0122
 9000SOL    HW138459   1.897   2.825  15.425  2.0367  0.4349  3.5112
 9000SOL    HW238460   1.760   2.869  15.445 -0.0757  0.2817  1.3905
 9001SOL     OW38461   0.794   2.464  16.321 -0.0209  0.5309 -0.0905
 9001SOL    HW138462   0.839   2.421  16.394 -1.0938 -0.0485  0.2269
 9001SOL    HW238463   0.753   2.386  16.285  1.2190 -0.1529 -0.0456
 9002SOL     OW38464   0.632   2.396  17.588  0.3124 -0.4845  0.3561
 9002SOL    HW138465   0.655   2.310  17.624  0.5585 -0.5567  0.0317
 9002SOL    HW238466   0.603   2.446  17.664 -2.2159 -0.4869 -0.6220
 9003SOL     OW38467   0.886   2.959  10.874 -0.0863 -0.3598 -0.4540
 9003SOL    HW138468   0.837   2.958  10.957  0.5567  0.8274 -0.0595
 9003SOL    HW238469   0.881   2.869  10.843 -1.6430  0.3402 -2.2492
 9004SOL     OW38470   0.357   1.352   4.111  0.2055  0.5150 -0.0301
 9004SOL    HW138471   0.433   1.297   4.093 -1.4488 -2.0317  0.7116
 9004SOL    HW238472   0.316   1.350   4.025  0.8112 -0.3629 -0.3024
 9005SOL     OW38473   2.540   1.031   1.781  0.2433 -0.4766  0.5316
 9005SOL    HW138474   2.507   1.093   1.846  0.3831 -1.1552  1.2445
 9005SOL    HW238475   2.632   1.054   1.792 -0.2925  1.7497  0.3762
 9006SOL     OW38476   2.002   4.429   5.813  0.6820  0.7213  0.1242
 9006SOL    HW138477   2.098   4.425   5.808  0.6499  0.0154  0.0848
 9006SOL    HW238478   1.986   4.375   5.736  2.2291  1.2969 -0.6102
 9007SOL     OW38479   0.067   2.978   4.273 -0.6156  0.0213  0.5379
 9007SOL    HW138480   0.152   3.020   4.284 -0.0935 -1.0827  0.6685
 9007SOL    HW238481   0.089   2.913   4.339  0.9558  1.6428  1.6057
 9008SOL     OW38482   3.427   0.072   3.793 -0.3524  0.0661  0.1833
 9008SOL    HW138483   3.482   4.722   3.819  0.4565  0.6181  0.0073
 9008SOL    HW238484   3.454   0.083   3.702 -1.0919  1.0706  0.0858
 9009SOL     OW38485   2.165   3.939   7.156 -0.0397 -0.0095 -0.8868
 9009SOL    HW138486   2.103   3.984   7.213 -0.2981 -0.3576 -0.8894
 9009SOL    HW238487   2.244   3.923   7.207  1.0539 -0.3244 -2.6732
 9010SOL     OW38488   3.990   3.113   4.248 -0.7259  0.6765  0.4739
 9010SOL    HW138489   3.927   3.056   4.292 -0.6325 -0.7873 -1.2505
 9010SOL    HW238490   4.031   3.043   4.196  0.5526  1.5028  0.3770
 9011SOL     OW38491   3.794   2.413  14.036 -0.1308 -0.4056 -0.5121
 9011SOL    HW138492   3.842   2.368  13.967  0.4692 -0.3879 -0.1089
 9011SOL    HW238493   3.870   2.469  14.056 -1.1323  2.0901 -3.5553
 9012SOL     OW38494   1.527   0.583   5.230  0.3746  0.3613 -0.3120
 9012SOL    HW138495   1.475   0.652   5.189  1.0870  2.4186  2.2077
 9012SOL    HW238496   1.557   0.619   5.314 -0.2102  1.0502 -0.3975
 9013SOL     OW38497   0.283   4.395   2.494  0.3712  0.1193 -0.0574
 9013SOL    HW138498   0.296   4.395   2.399 -1.5052 -0.8069 -0.3287
 9013SOL    HW238499   0.313   4.307   2.518 -4.5851 -2.0094 -1.6023
 9014SOL     OW38500   4.464   4.325   4.474  0.6527 -0.0122 -0.3924
 9014SOL    HW138501   4.454   4.361   4.386 -1.4270  0.1543 -0.0962
 9014SOL    HW238502   4.431   4.238   4.451 -2.6779  0.5680  2.1034
 9015SOL     OW38503   1.365   3.454   4.432  0.5515 -0.4810  0.3252
 9015SOL    HW138504   1.416   3.411   4.500 -1.4947 -1.2720  1.3556
 9015SOL    HW238505   1.293   3.479   4.491 -1.3763  1.5324 -2.8912
 9016SOL     OW38506   1.113   1.147   0.920 -0.7162 -0.1363  0.1719
 9016SOL    HW138507   1.080   1.059   0.907  0.9478 -0.9252  1.2200
 9016SOL    HW238508   1.193   1.124   0.967 -1.2256  1.2503  1.7023
 9017SOL     OW38509   2.831   2.023   7.870 -0.0541 -0.3719  0.2629
 9017SOL    HW138510   2.737   2.039   7.861  0.0809  0.1604 -0.1847
 9017SOL    HW238511   2.858   2.009   7.780 -1.6432  1.8218 -0.5707
 9018SOL     OW38512   3.815   0.674   8.709 -0.8654 -0.0222  0.2854
 9018SOL    HW138513   3.818   0.592   8.658  0.3362  2.0098 -2.9305
 9018SOL    HW238514   3.853   0.642   8.791 -0.2875  0.5105  0.2208
 9019SOL     OW38515   3.745   1.894  14.047  0.0831  0.3953  0.2269
 9019SOL    HW138516   3.823   1.892  13.990 -0.5421 -0.7802 -0.5869
 9019SOL    HW238517   3.678   1.897  13.978  0.4600 -2.7421 -0.2821
 9020SOL     OW38518   0.220   1.262   1.135 -0.5145  0.6206  0.1289
 9020SOL    HW138519   0.210   1.330   1.202  2.3123 -0.6310  1.8438
 9020SOL    HW238520   0.196   1.299   1.051  2.7169 -1.2835 -1.6217
 9021SOL     OW38521   1.846   0.379   2.820 -0.1391 -0.0082  0.3024
 9021SOL    HW138522   1.912   0.318   2.853  0.8546 -0.8043 -3.1521
 9021SOL    HW238523   1.869   0.456   2.872 -2.3733 -0.4519  1.9181
 9022SOL     OW38524   1.416   0.045   4.028  0.1438 -0.5131 -0.4480
 9022SOL    HW138525   1.496   0.009   4.065 -0.2099  0.0110  0.8247
 9022SOL    HW238526   1.365   4.692   4.005 -1.7718  0.9977 -1.2601
 9023SOL     OW38527   0.068   1.758   3.016  0.4835 -0.1601 -0.3408
 9023SOL    HW138528   0.040   1.848   2.998  0.5153 -0.0412  0.2283
 9023SOL    HW238529   4.715   1.721   3.059  0.8432 -0.2294  0.2513
 9024SOL     OW38530   4.470   0.052   6.850  0.4300 -0.9245  0.4779
 9024SOL    HW138531   4.469   0.148   6.843  1.2712 -0.7152  3.0892
 9024SOL    HW238532   4.530   0.035   6.923  1.1898 -1.3971 -0.2528
 9025SOL     OW38533   1.990   1.701   8.022 -0.1150 -0.5074  0.0920
 9025SOL    HW138534   1.956   1.790   8.034 -0.0384 -0.7327  2.0338
 9025SOL    HW238535   1.924   1.653   8.073 -0.9145 -0.9978 -1.4172
 9026SOL     OW38536   2.827   0.498   9.192  0.0717  0.3456 -0.2150
 9026SOL    HW138537   2.747   0.539   9.159 -0.5318 -0.6053  0.0660
 9026SOL    HW238538   2.894   0.562   9.167 -1.2604  1.1536 -1.6718
 9027SOL     OW38539   1.703   2.381   6.555 -0.3669 -0.2986  0.2112
 9027SOL    HW138540   1.737   2.321   6.621  1.4423 -0.4074 -0.8311
 9027SOL    HW238541   1.742   2.466   6.576  0.1834  0.3373 -3.3049
 9028SOL     OW38542   2.482   4.629   8.510 -0.5110 -0.3983  0.2543
 9028SOL    HW138543   2.402   4.667   8.473  0.0522 -1.4465 -2.0574
 9028SOL    HW238544   2.450   4.551   8.556 -0.0746 -0.5588  0.2869
 9029SOL     OW38545   1.554   1.469   6.476 -0.2513 -0.4109  0.1587
 9029SOL    HW138546   1.620   1.538   6.474  2.1964 -2.6726  2.5358
 9029SOL    HW238547   1.500   1.507   6.545 -0.6476 -0.4508 -0.1285
 9030SOL     OW38548   2.054   0.442  15.550 -0.2824 -0.0070  0.2651
 9030SOL    HW138549   2.124   0.460  15.487 -0.4071 -0.8050 -0.0983
 9030SOL    HW238550   2.059   0.515  15.612 -1.1545 -0.8904  1.3534
 9031SOL     OW38551   0.877   3.251   8.469 -0.0432 -0.1141  0.0168
 9031SOL    HW138552   0.972   3.266   8.465 -0.3208  0.5516 -4.5322
 9031SOL    HW238553   0.865   3.169   8.516  1.6816 -1.3122 -1.6192
 9032SOL     OW38554   3.649   1.312   9.122 -0.4015 -0.4336 -0.3261
 9032SOL    HW138555   3.577   1.323   9.184 -1.4157 -1.0004 -1.3930
 9032SOL    HW238556   3.722   1.295   9.181  0.3545 -1.9686 -1.6855
 9033SOL     OW38557   0.268   1.332   8.460  0.2880 -0.2239 -0.2618
 9033SOL    HW138558   0.225   1.262   8.510 -3.4307  2.0564 -0.3425
 9033SOL    HW238559   0.227   1.312   8.376  0.1155  0.2188 -0.2818
 9034SOL     OW38560   2.429   2.181   2.018 -0.0726 -0.0250 -0.6889
 9034SOL    HW138561   2.418   2.106   2.076  1.7493  0.1560 -0.0890
 9034SOL    HW238562   2.525   2.190   2.022 -0.1470 -0.1328  1.3386
 9035SOL     OW38563   1.072   4.210   3.504 -0.2025  0.0562 -0.6873
 9035SOL    HW138564   1.165   4.233   3.514 -0.3325  0.6921 -0.9176
 9035SOL    HW238565   1.037   4.294   3.473  0.0704  1.0110  1.5596
 9036SOL     OW38566   1.519   4.070   2.165 -0.1266 -0.1598  0.0948
 9036SOL    HW138567   1.550   3.998   2.111  2.4621  1.3044 -0.3802
 9036SOL    HW238568   1.525   4.036   2.254 -4.1545 -0.2764  0.3444
 9037SOL     OW38569   1.232   3.872   2.473  0.8069  0.0575  0.1577
 9037SOL    HW138570   1.218   3.877   2.567 -1.7694 -0.2743 -0.2134
 9037SOL    HW238571   1.274   3.957   2.461 -1.1204  0.7277 -1.8727
 9038SOL     OW38572   3.708   2.871  10.555 -0.3290  0.1661  0.9144
 9038SOL    HW138573   3.687   2.801  10.493  0.1809  0.7215  0.1251
 9038SOL    HW238574   3.798   2.846  10.574  0.5391  2.6412 -0.0007
 9039SOL     OW38575   3.356   0.783   7.524  0.3094  0.6227 -0.2258
 9039SOL    HW138576   3.393   0.696   7.532 -2.0001 -0.2612  0.9462
 9039SOL    HW238577   3.345   0.812   7.615 -1.1172 -0.0665 -0.1781
 9040SOL     OW38578   3.850   2.622   0.450  0.2477 -0.4550  0.2969
 9040SOL    HW138579   3.794   2.622   0.528  1.9861 -0.5158  1.5689
 9040SOL    HW238580   3.927   2.659   0.495 -0.9120  2.7265 -0.3420
 9041SOL     OW38581   3.834   2.964   8.049 -0.4761  0.5684 -0.2283
 9041SOL    HW138582   3.752   2.981   8.095 -1.2313 -3.1926 -0.1575
 9041SOL    HW238583   3.853   3.057   8.036 -0.5808  0.6683  0.3151
 9042SOL     OW38584   3.484   2.556   8.802  0.3643  0.5527 -0.2179
 9042SOL    HW138585   3.505   2.568   8.895 -1.6586 -2.1911  0.6138
 9042SOL    HW238586   3.388   2.554   8.807  0.3490 -2.1448 -1.7540
 9043SOL     OW38587   4.551   1.522   6.038  0.7726 -0.0112 -0.7702
 9043SOL    HW138588   4.582   1.607   6.007  0.7742 -0.1812 -1.2224
 9043SOL    HW238589   4.642   1.492   6.042  0.5399 -0.6723 -0.4659
 9044SOL     OW38590   2.922   0.504  16.311  0.2697 -0.0578  0.0643
 9044SOL    HW138591   2.913   0.493  16.217  0.9241  0.6689 -0.0781
 9044SOL    HW238592   2.998   0.448  16.322 -0.4589 -1.0142  0.2787
 9045SOL     OW38593   0.999   2.686   5.120 -0.1954  0.0607 -0.2175
 9045SOL    HW138594   0.963   2.695   5.208  1.4569  0.1516  0.4383
 9045SOL    HW238595   1.034   2.774   5.106  1.6429 -0.6344  0.0392
 9046SOL     OW38596   2.357   1.406   8.934 -0.7079  0.1601  0.0234
 9046SOL    HW138597   2.452   1.406   8.936 -0.6872 -1.5063 -0.8858
 9046SOL    HW238598   2.336   1.322   8.973 -0.5589 -0.1359 -0.5313
 9047SOL     OW38599   3.884   2.961  12.016 -0.0905 -0.1338 -0.4230
 9047SOL    HW138600   3.964   2.912  11.996  0.2579  0.9612 -1.7444
 9047SOL    HW238601   3.904   3.003  12.100  4.6232 -0.1042 -1.5875
 9048SOL     OW38602   2.237   0.680  17.660 -0.5267  0.2801  0.4220
 9048SOL    HW138603   2.332   0.686  17.668 -0.1533 -1.6003 -2.4978
 9048SOL    HW238604   2.223   0.590  17.630  0.3754  0.8201 -1.6410
 9049SOL     OW38605   1.012   3.966   2.739 -0.3715  0.5479 -0.2530
 9049SOL    HW138606   1.044   4.055   2.753  0.6108  0.3233 -1.0854
 9049SOL    HW238607   1.085   3.905   2.751 -1.9887 -1.5347 -0.9662
 9050SOL     OW38608   2.812   3.264  11.040  0.2878 -0.6953 -0.1482
 9050SOL    HW138609   2.828   3.269  11.134  0.3312 -0.9832 -0.1381
 9050SOL    HW238610   2.762   3.182  11.029 -2.6077  1.1950 -1.1012
 9051SOL     OW38611   4.667   0.131   4.315  0.4567 -0.1310 -0.6167
 9051SOL    HW138612   4.601   0.171   4.258 -1.4318 -1.7882  0.4242
 9051SOL    HW238613   4.707   0.215   4.339  0.5434 -0.4227  0.2716
 9052SOL     OW38614   1.398   0.762   6.456  0.2237  0.0895 -0.0567
 9052SOL    HW138615   1.371   0.765   6.547 -0.8967  2.2610 -0.4568
 9052SOL    HW238616   1.477   0.709   6.463 -1.4985 -2.5919 -1.0958
 9053SOL     OW38617   0.211   0.831   1.253 -0.0461  0.2457 -0.4902
 9053SOL    HW138618   0.129   0.821   1.205 -0.7921  3.9096  0.0654
 9053SOL    HW238619   0.244   0.916   1.226 -0.0282  0.3810 -0.0513
 9054SOL     OW38620   2.947   2.564   6.582 -0.7430 -0.3561  0.4430
 9054SOL    HW138621   2.999   2.637   6.548 -0.8044 -1.0362 -1.0992
 9054SOL    HW238622   2.992   2.491   6.540  0.0656 -0.1592  0.9676
 9055SOL     OW38623   3.736   3.914   0.606 -0.0104 -0.3763  0.1088
 9055SOL    HW138624   3.665   3.940   0.663  0.4824  0.0811  0.5144
 9055SOL    HW238625   3.800   3.985   0.614  1.2263 -1.3660 -0.8080
 9056SOL     OW38626   0.176   2.077   8.103  0.1510 -0.1164 -0.0997
 9056SOL    HW138627   0.085   2.105   8.097  0.6293  1.4559  0.0330
 9056SOL    HW238628   0.169   2.019   8.180 -3.4988  0.4190 -0.0487
 9057SOL     OW38629   0.885   1.680   6.651  0.6997 -0.2618  0.0502
 9057SOL    HW138630   0.971   1.653   6.683  0.1846  1.0405  2.5376
 9057SOL    HW238631   0.913   1.740   6.581 -0.9894 -1.1825 -1.4067
 9058SOL     OW38632   0.954   2.373   3.040 -0.3814 -0.0308  0.1883
 9058SOL    HW138633   0.961   2.468   3.047  1.4631 -0.3150  2.1368
 9058SOL    HW238634   1.048   2.359   3.048 -0.2784  0.3439 -0.3696
 9059SOL     OW38635   4.165   1.996  14.399  0.6701 -0.0938 -0.1020
 9059SOL    HW138636   4.194   2.083  14.373  0.6012 -0.6704 -2.1678
 9059SOL    HW238637   4.136   1.962  14.314 -3.1280 -0.3814  1.3036
 9060SOL     OW38638   1.691   4.242   1.694 -0.1100  0.0214 -0.3838
 9060SOL    HW138639   1.627   4.188   1.648 -1.4187  1.5382 -0.3289
 9060SOL    HW238640   1.715   4.301   1.622  1.7122 -2.0076 -1.4160
 9061SOL     OW38641   2.922   2.205   0.152  0.0426 -0.3453  0.3651
 9061SOL    HW138642   2.870   2.126   0.137  1.5633 -1.2348 -0.2273
 9061SOL    HW238643   2.872   2.264   0.096 -0.8477 -0.4505  1.0480
 9062SOL     OW38644   2.170   1.190   5.443 -0.7765 -0.3088  0.3380
 9062SOL    HW138645   2.228   1.147   5.506  0.5281 -0.0037 -0.6664
 9062SOL    HW238646   2.217   1.272   5.427 -0.6408 -0.2727  0.9130
 9063SOL     OW38647   3.433   2.088  12.337 -0.5157 -0.2270 -0.0713
 9063SOL    HW138648   3.386   2.113  12.416 -0.0402  1.7123 -0.3995
 9063SOL    HW238649   3.456   1.996  12.352  0.7741  0.4771  2.2116
 9064SOL     OW38650   1.148   4.192   7.961  0.2096  0.1768  0.1570
 9064SOL    HW138651   1.189   4.135   8.026  1.2042  0.3452 -0.3270
 9064SOL    HW238652   1.227   4.243   7.940 -1.3375  0.9354 -3.7773
 9065SOL     OW38653   1.990   0.866   5.875 -0.1257  0.1690 -0.3070
 9065SOL    HW138654   2.085   0.859   5.884  0.0714  1.8479 -0.9824
 9065SOL    HW238655   1.981   0.900   5.785  2.1561 -1.8638 -1.2994
 9066SOL     OW38656   4.697   1.167   4.129  0.5277 -0.3355 -0.5506
 9066SOL    HW138657   4.606   1.138   4.121 -0.0161  0.9198  0.8227
 9066SOL    HW238658   4.679   1.236   4.194  0.2047 -1.0965  0.1595
 9067SOL     OW38659   3.825   0.611   4.878 -0.2255 -0.7699 -0.1558
 9067SOL    HW138660   3.920   0.602   4.882 -0.2696 -0.3964  1.7883
 9067SOL    HW238661   3.813   0.696   4.836  2.4234  0.3107  1.2396
 9068SOL     OW38662   1.615   4.091  17.322 -0.3858 -0.2052 -0.5867
 9068SOL    HW138663   1.671   4.147  17.269  0.5063  0.0436  0.6140
 9068SOL    HW238664   1.652   4.114  17.407  2.3344 -1.5086 -1.4003
 9069SOL     OW38665   1.696   1.217  10.161  0.1926  0.5053  0.2072
 9069SOL    HW138666   1.762   1.237  10.095  0.4262  1.1886  0.6478
 9069SOL    HW238667   1.621   1.205  10.104  1.6550 -2.3113 -1.1325
 9070SOL     OW38668   0.381   3.887   9.789  0.6797 -0.2021  0.6218
 9070SOL    HW138669   0.303   3.897   9.733  0.3065  0.1075  1.1973
 9070SOL    HW238670   0.384   3.976   9.825  0.1767  0.4228 -0.8840
 9071SOL     OW38671   4.465   1.277   2.943 -0.0775 -0.0584  0.2839
 9071SOL    HW138672   4.490   1.211   2.878 -2.9243  0.0251 -0.8992
 9071SOL    HW238673   4.370   1.269   2.931  0.0620  2.1513 -2.1036
 9072SOL     OW38674   3.506   0.827  10.855  0.4865 -0.0331  0.2324
 9072SOL    HW138675   3.445   0.806  10.925 -0.3941  0.6656 -0.3200
 9072SOL    HW238676   3.543   0.911  10.881  1.1622 -1.1048  2.6972
 9073SOL     OW38677   3.766   3.438   8.312 -0.4577  0.8201  0.2590
 9073SOL    HW138678   3.850   3.480   8.329 -0.2194  0.6324 -0.4602
 9073SOL    HW238679   3.702   3.477   8.371 -2.1894 -1.5928 -0.0169
 9074SOL     OW38680   4.679   1.999   6.851 -0.2474 -0.7377  0.0424
 9074SOL    HW138681   0.021   2.029   6.789 -1.9868 -0.0456 -1.4580
 9074SOL    HW238682   4.672   1.904   6.846  1.6037 -0.9458  1.2371
 9075SOL     OW38683   3.837   0.645   2.939  0.5902 -0.0387 -0.1625
 9075SOL    HW138684   3.901   0.606   2.999  1.8082  3.0403  0.5031
 9075SOL    HW238685   3.895   0.631   2.864  0.6938  1.9756 -0.4356
 9076SOL     OW38686   2.240   2.080   5.398 -0.3572  0.3958  0.0284
 9076SOL    HW138687   2.268   1.995   5.432  0.9251  0.1904 -1.5076
 9076SOL    HW238688   2.323   2.114   5.364  0.7611 -0.3800  1.9602
 9077SOL     OW38689   0.655   2.659  15.975  0.3256  0.0090 -0.3790
 9077SOL    HW138690   0.699   2.734  15.937  0.6162 -0.5210 -1.1003
 9077SOL    HW238691   0.641   2.688  16.065  1.4503  0.1158 -0.2385
 9078SOL     OW38692   2.522   1.864  17.677  0.1312  0.5897  0.2497
 9078SOL    HW138693   2.490   1.809  17.605 -0.3266  3.0820 -1.4576
 9078SOL    HW238694   2.444   1.860   0.034 -1.8181 -0.3696 -2.5404
 9079SOL     OW38695   4.293   0.470   4.215 -0.1115 -0.3515  0.0895
 9079SOL    HW138696   4.332   0.552   4.243 -2.3171  0.8725 -0.4079
 9079SOL    HW238697   4.287   0.485   4.120  5.5719  0.3592 -0.1213
 9080SOL     OW38698   2.555   4.510   5.170  0.2812 -0.5364  0.3281
 9080SOL    HW138699   2.468   4.480   5.145  1.6077 -0.2710 -4.5640
 9080SOL    HW238700   2.609   4.431   5.165 -1.1388 -1.5108  0.4426
 9081SOL     OW38701   1.115   3.101  13.404  0.5624  0.3416 -0.3920
 9081SOL    HW138702   1.036   3.140  13.366 -0.5563 -1.6502 -0.0820
 9081SOL    HW238703   1.173   3.176  13.391 -1.1826  1.4643 -1.6235
 9082SOL     OW38704   1.244   1.971   6.880 -0.2871 -0.3082  0.2077
 9082SOL    HW138705   1.247   1.901   6.944 -1.7787 -0.7976 -0.2677
 9082SOL    HW238706   1.149   1.980   6.870 -0.6428 -3.7515  0.7384
 9083SOL     OW38707   2.163   0.017   3.977 -0.3171  0.2162 -0.1739
 9083SOL    HW138708   2.094   4.675   3.970  1.8716 -2.0942 -0.5071
 9083SOL    HW238709   2.203   4.716   4.060 -0.8146  0.8972  0.2639
 9084SOL     OW38710   1.529   3.969   7.421 -0.0934 -0.4452  0.4288
 9084SOL    HW138711   1.444   4.012   7.434  0.7644  1.4660 -0.4450
 9084SOL    HW238712   1.489   3.906   7.360 -0.9253  0.5468 -0.0420
 9085SOL     OW38713   3.154   3.111   3.302  0.5072  0.4394  0.6261
 9085SOL    HW138714   3.213   3.060   3.358 -0.2145  0.9892  1.8710
 9085SOL    HW238715   3.089   3.145   3.362 -0.1663  1.2792 -0.5811
 9086SOL     OW38716   4.033   0.007   4.835 -0.1790  0.2355  0.2351
 9086SOL    HW138717   3.974   0.019   4.761 -0.9348 -2.4595  0.4203
 9086SOL    HW238718   4.033   0.095   4.874  0.4261  0.2702  0.1593
 9087SOL     OW38719   2.218   0.724   4.399  0.2383  0.4600 -0.5093
 9087SOL    HW138720   2.286   0.664   4.429 -0.9607 -0.9545 -0.6000
 9087SOL    HW238721   2.223   0.720   4.303  0.0081 -1.4870 -0.4400
 9088SOL     OW38722   1.464   0.713   6.864 -0.6671  0.1481 -0.3809
 9088SOL    HW138723   1.461   0.751   6.951  0.0926  1.9939 -1.1564
 9088SOL    HW238724   1.485   0.793   6.815 -2.2039  0.5844 -0.3159
 9089SOL     OW38725   3.544   0.993   2.987 -0.1124 -0.4052 -0.2167
 9089SOL    HW138726   3.622   0.963   2.940 -1.6751 -0.6576 -2.6621
 9089SOL    HW238727   3.574   0.971   3.075 -0.7658  3.0052  0.8702
 9090SOL     OW38728   2.274   2.284   5.788 -0.2262  0.5584  0.0055
 9090SOL    HW138729   2.181   2.281   5.810 -0.2309  0.1495 -0.0775
 9090SOL    HW238730   2.311   2.235   5.861 -0.9849 -2.5682 -1.6764
 9091SOL     OW38731   0.884   2.746   4.273 -0.3841  0.1976 -0.0416
 9091SOL    HW138732   0.957   2.757   4.335 -0.1019 -1.3377 -0.0817
 9091SOL    HW238733   0.810   2.772   4.328 -0.6184  0.1620 -0.3407
 9092SOL     OW38734   2.678   1.138   2.043 -0.1361  0.3140  0.2938
 9092SOL    HW138735   2.730   1.189   2.104 -2.0653  1.5653  0.8955
 9092SOL    HW238736   2.689   1.053   2.085 -1.4733 -0.1323 -0.2426
 9093SOL     OW38737   4.699   3.812  11.285 -0.1871 -0.2836 -0.5991
 9093SOL    HW138738   0.003   3.805  11.376 -1.7165  0.1489 -0.0974
 9093SOL    HW238739   4.711   3.907  11.275  1.4096 -0.5696 -1.3435
 9094SOL     OW38740   0.974   1.283   7.759  0.4075  0.3914 -0.3367
 9094SOL    HW138741   0.900   1.270   7.699  1.0114  0.1758 -1.0233
 9094SOL    HW238742   0.937   1.346   7.821  0.6650  0.1545  0.0548
 9095SOL     OW38743   4.475   1.823   1.605  0.0537 -0.2980 -0.2893
 9095SOL    HW138744   4.521   1.904   1.583 -0.3049  0.1698  0.6666
 9095SOL    HW238745   4.548   1.761   1.614 -0.7022 -1.0549  0.6167
 9096SOL     OW38746   4.246   3.746   2.265 -0.2860  0.2284 -0.2312
 9096SOL    HW138747   4.271   3.658   2.292  0.1547 -0.2831 -2.2886
 9096SOL    HW238748   4.277   3.749   2.174  1.5585  0.2342  0.4021
 9097SOL     OW38749   1.398   2.312  10.687 -0.1546  0.4376 -0.4413
 9097SOL    HW138750   1.356   2.392  10.657 -2.3745 -0.1007  1.2610
 9097SOL    HW238751   1.385   2.328  10.780  0.0866 -3.5231  0.2861
 9098SOL     OW38752   1.417   0.029   4.374 -0.2562 -0.3998  0.2134
 9098SOL    HW138753   1.456   4.676   4.414 -0.5542 -0.9893 -0.6284
 9098SOL    HW238754   1.423   0.009   4.281 -0.3811 -1.3567  0.4166
 9099SOL     OW38755   2.128   4.277   1.002  0.0201  0.2512  0.2212
 9099SOL    HW138756   2.206   4.291   1.056  0.9937 -0.8197 -0.8885
 9099SOL    HW238757   2.094   4.205   1.055 -1.7619  0.7314 -0.2944
 9100SOL     OW38758   1.198   2.942  10.760 -0.0371  0.1361  0.4450
 9100SOL    HW138759   1.185   2.932  10.855 -0.6252  0.6457  0.4184
 9100SOL    HW238760   1.237   2.858  10.736  0.5457  0.1198  1.4107
 9101SOL     OW38761   1.516   3.557   0.848 -0.2682  0.1977 -0.0373
 9101SOL    HW138762   1.435   3.534   0.803  0.9152 -0.0259 -2.0150
 9101SOL    HW238763   1.533   3.640   0.803 -2.4237 -0.2290 -1.6261
 9102SOL     OW38764   0.963   1.064   2.518 -0.2091 -0.3227 -0.3292
 9102SOL    HW138765   0.974   1.009   2.595  3.4077  0.5776 -0.2028
 9102SOL    HW238766   1.055   1.078   2.494  0.4757  0.3722  2.7333
 9103SOL     OW38767   4.573   4.491   7.921  0.0931 -0.3112  0.0302
 9103SOL    HW138768   4.647   4.528   7.970 -0.5644  0.9817  0.0486
 9103SOL    HW238769   4.540   4.420   7.975 -0.5796  1.0931  1.4659
 9104SOL     OW38770   2.587   0.347   5.831 -0.2658 -0.1041  0.1211
 9104SOL    HW138771   2.519   0.360   5.897 -0.7348  0.6746 -0.5177
 9104SOL    HW238772   2.537   0.291   5.771 -0.4449  0.7055 -0.4825
 9105SOL     OW38773   1.047   4.583   4.454  0.1572 -0.1085  0.1469
 9105SOL    HW138774   1.089   4.567   4.539  0.7374  0.3029 -0.0667
 9105SOL    HW238775   1.057   4.678   4.453  0.3641 -0.1100  1.2287
 9106SOL     OW38776   1.499   1.786  17.011 -0.2514 -0.3974 -0.0952
 9106SOL    HW138777   1.428   1.837  17.051  1.0396  0.2718  1.3458
 9106SOL    HW238778   1.512   1.834  16.929  2.4258 -1.1347 -0.1011
 9107SOL     OW38779   0.074   2.021  17.691  0.0775  0.1907 -0.0719
 9107SOL    HW138780   0.029   1.967  17.627  0.9451 -0.3516 -0.2198
 9107SOL    HW238781   4.721   2.077   0.001 -0.6411 -0.9689  1.0497
 9108SOL     OW38782   2.701   4.271  14.099 -0.6407  0.8297  0.2893
 9108SOL    HW138783   2.796   4.261  14.087 -0.6489  1.4784 -0.3155
 9108SOL    HW238784   2.667   4.274  14.010 -2.3062  0.3168  0.9126
 9109SOL     OW38785   0.117   2.457  16.895 -0.4932  0.1935 -0.2772
 9109SOL    HW138786   0.188   2.446  16.959  0.1339  3.0644 -0.4496
 9109SOL    HW238787   0.045   2.457  16.958 -0.4149  0.8528 -0.1807
 9110SOL     OW38788   0.781   1.069  15.630 -0.4322  0.1634  0.1611
 9110SOL    HW138789   0.830   0.987  15.624  0.4789  0.7705 -0.7757
 9110SOL    HW238790   0.706   1.025  15.592  0.2472  0.1082 -1.0985
 9111SOL     OW38791   4.554   1.013  17.154  0.8913  0.1115 -0.3242
 9111SOL    HW138792   4.597   1.099  17.152 -0.1537  0.6362 -0.3663
 9111SOL    HW238793   4.630   0.955  17.150  1.2627  0.5478  0.2761
 9112SOL     OW38794   1.089   2.636   4.663  0.0724  0.3355 -0.2061
 9112SOL    HW138795   1.064   2.728   4.673 -0.4706  0.1443  0.2506
 9112SOL    HW238796   1.004   2.595   4.647  0.0961  0.2699 -0.1653
 9113SOL     OW38797   0.820   1.595  11.938  0.0654 -0.4866 -0.2556
 9113SOL    HW138798   0.905   1.590  11.895 -0.3515 -0.8086 -1.0570
 9113SOL    HW238799   0.764   1.584  11.861 -0.1266  1.0210 -0.3219
 9114SOL     OW38800   1.855   1.627   3.331 -0.0382 -0.1685 -0.1625
 9114SOL    HW138801   1.947   1.645   3.312  0.0527 -1.3235 -0.8297
 9114SOL    HW238802   1.860   1.548   3.277  1.8377  0.0451 -0.3228
 9115SOL     OW38803   1.856   4.431   0.732  0.1560 -0.6571  0.6433
 9115SOL    HW138804   1.833   4.437   0.639  0.4178  0.5535  0.6542
 9115SOL    HW238805   1.951   4.424   0.724 -0.1060 -1.0763 -2.1836
 9116SOL     OW38806   1.139   1.318   9.792  1.1381  0.2893  0.5616
 9116SOL    HW138807   1.187   1.310   9.710 -1.6860 -1.4082 -0.9367
 9116SOL    HW238808   1.153   1.232   9.833 -1.4083 -0.7233 -0.6696
 9117SOL     OW38809   0.519   2.179   8.788  0.1813  0.1898 -0.0433
 9117SOL    HW138810   0.471   2.225   8.720  1.1636  2.9299  1.1377
 9117SOL    HW238811   0.513   2.090   8.754 -0.3202  0.5855 -0.9820
 9118SOL     OW38812   3.800   4.517   3.090  0.6386 -0.2002  0.2178
 9118SOL    HW138813   3.737   4.486   3.155 -0.9534 -0.8554 -1.6401
 9118SOL    HW238814   3.755   4.592   3.049  0.4773 -0.9378 -0.9710
 9119SOL     OW38815   2.699   3.982  15.130  0.0440  0.3412 -0.0018
 9119SOL    HW138816   2.652   3.910  15.088  0.0827  1.2541 -1.5812
 9119SOL    HW238817   2.688   4.056  15.071  1.8014  0.4112 -0.2370
 9120SOL     OW38818   2.736   3.913   7.794  0.0569  0.4667 -0.0783
 9120SOL    HW138819   2.796   3.986   7.782 -0.2483  0.7764  0.2956
 9120SOL    HW238820   2.794   3.849   7.835  0.4849  1.8476  1.4713
 9121SOL     OW38821   2.236   2.786  10.142  0.4830 -0.0758  0.5383
 9121SOL    HW138822   2.292   2.751  10.210 -0.7927  0.0325  1.6414
 9121SOL    HW238823   2.164   2.824  10.192 -0.9247  0.3697 -1.8344
 9122SOL     OW38824   2.965   3.840   2.089  0.4587  0.0989 -0.3135
 9122SOL    HW138825   2.898   3.777   2.112  0.6507 -0.6417 -1.7384
 9122SOL    HW238826   2.908   3.904   2.046 -0.0646  0.2570  0.6430
 9123SOL     OW38827   0.101   0.023   2.711  0.1825 -0.6272  0.3857
 9123SOL    HW138828   0.130   0.040   2.800 -1.0976 -1.2507  0.9192
 9123SOL    HW238829   0.084   0.109   2.673 -0.1808 -0.6885  0.4092
 9124SOL     OW38830   1.807   3.887   5.663  0.1473  0.1547 -0.2048
 9124SOL    HW138831   1.774   3.797   5.658 -0.7223  0.4883 -0.4655
 9124SOL    HW238832   1.730   3.937   5.636  0.9796  0.6872 -1.5646
 9125SOL     OW38833   1.242   0.368   4.489  0.2199  0.5142 -0.1883
 9125SOL    HW138834   1.286   0.365   4.574  1.4185 -0.8972 -0.8677
 9125SOL    HW238835   1.315   0.363   4.427  1.1936  0.6480  0.9615
 9126SOL     OW38836   4.126   0.486   4.647 -0.2125  0.0066  0.2699
 9126SOL    HW138837   4.101   0.547   4.577  0.6951 -1.9547 -1.7527
 9126SOL    HW238838   4.131   0.535   4.730  5.2572 -1.1159  0.5979
 9127SOL     OW38839   4.104   0.439  15.540  0.0190 -0.2198  0.1954
 9127SOL    HW138840   4.045   0.511  15.522  0.0611 -0.9529 -2.7928
 9127SOL    HW238841   4.091   0.415  15.632  0.4140 -0.7229  0.1277
 9128SOL     OW38842   3.643   3.358   6.445  0.2121  0.2402  0.1934
 9128SOL    HW138843   3.577   3.344   6.513  0.4141  0.1333  0.3682
 9128SOL    HW238844   3.595   3.412   6.382 -1.2954  0.6186  1.6633
 9129SOL     OW38845   2.884   3.868   4.023 -0.3401 -0.4111  0.1239
 9129SOL    HW138846   2.877   3.948   3.971  0.0860 -0.6230 -0.2579
 9129SOL    HW238847   2.863   3.798   3.960  0.0769 -1.7493  1.4688
 9130SOL     OW38848   1.394   2.018  14.762 -0.2901 -0.6849  0.0534
 9130SOL    HW138849   1.329   1.966  14.714 -0.4795  0.5956 -1.0825
 9130SOL    HW238850   1.334   2.069  14.817 -0.7658  0.3736 -1.4522
 9131SOL     OW38851   0.467   1.444   8.585  0.1001 -0.0274  0.0354
 9131SOL    HW138852   0.380   1.438   8.544 -0.9636  2.6900  1.8800
 9131SOL    HW238853   0.521   1.405   8.516 -1.2140  0.4185 -1.2705
 9132SOL     OW38854   2.414   3.958  14.435 -0.3409  0.1907 -0.1543
 9132SOL    HW138855   2.496   4.001  14.411 -1.0160  0.8167 -1.3592
 9132SOL    HW238856   2.359   3.977  14.359  1.1221 -0.7849 -1.4527
 9133SOL     OW38857   3.376   2.522  13.458  0.0285  0.2370 -0.8006
 9133SOL    HW138858   3.299   2.544  13.511  1.9814 -1.1505  2.5854
 9133SOL    HW238859   3.359   2.441  13.410 -1.0997  0.8743 -1.4696
 9134SOL     OW38860   0.336   4.553   4.720  0.4220 -0.0760 -0.1844
 9134SOL    HW138861   0.403   4.597   4.773  0.1140 -1.4542  1.3496
 9134SOL    HW238862   0.335   4.609   4.643  2.8928 -0.5076 -0.5485
 9135SOL     OW38863   2.955   2.569   8.664  0.7658 -0.4807  0.0691
 9135SOL    HW138864   3.004   2.558   8.746  1.0683 -0.8656 -0.1631
 9135SOL    HW238865   2.883   2.624   8.696  1.5538  0.9488 -0.5751
 9136SOL     OW38866   2.290   3.054   8.613  0.2407 -0.0230  0.1795
 9136SOL    HW138867   2.303   3.019   8.701  0.7619  0.9828  0.5030
 9136SOL    HW238868   2.332   3.138   8.632  0.9526  0.0094 -1.4928
 9137SOL     OW38869   2.240   0.649   7.024  0.5851 -0.3648  0.4102
 9137SOL    HW138870   2.213   0.607   7.105  1.2419 -1.5724 -0.0061
 9137SOL    HW238871   2.294   0.577   6.990  0.2432 -0.3630 -0.1302
 9138SOL     OW38872   2.107   1.138   4.335 -0.1787 -0.3457 -0.1333
 9138SOL    HW138873   2.069   1.082   4.403  0.4603 -1.3919 -0.6213
 9138SOL    HW238874   2.077   1.223   4.365 -1.3125 -0.5188 -0.7814
 9139SOL     OW38875   3.621   0.600   5.320  0.2388 -0.3677  0.4891
 9139SOL    HW138876   3.575   0.643   5.392  0.3489 -0.1060  0.4035
 9139SOL    HW238877   3.642   0.677   5.268 -0.6898 -0.1275  0.4656
 9140SOL     OW38878   2.780   3.517   8.788  0.3080 -0.1743 -0.0114
 9140SOL    HW138879   2.764   3.437   8.838  3.0363  0.2089  1.4596
 9140SOL    HW238880   2.763   3.482   8.701  0.1490  0.5986 -0.2933
 9141SOL     OW38881   4.365   0.579   2.207  0.2607  0.3809 -0.0260
 9141SOL    HW138882   4.413   0.649   2.250 -0.7434 -0.2016  2.0423
 9141SOL    HW238883   4.392   0.504   2.260 -0.9895 -0.1904 -0.1821
 9142SOL     OW38884   0.138   3.222   1.807  0.1958  0.4159 -0.3522
 9142SOL    HW138885   0.043   3.232   1.802  0.0592 -0.7333  0.0576
 9142SOL    HW238886   0.165   3.199   1.718 -1.6546  0.2168 -0.8630
 9143SOL     OW38887   3.685   2.005  12.871 -0.0385 -0.0011  0.0977
 9143SOL    HW138888   3.650   2.025  12.958  0.0093 -1.9947  0.5526
 9143SOL    HW238889   3.711   1.913  12.871  0.0995  0.0410 -1.4233
 9144SOL     OW38890   2.006   2.940   9.154  0.4000 -1.1536  0.4588
 9144SOL    HW138891   2.050   2.888   9.087 -0.5882  0.0425 -1.1114
 9144SOL    HW238892   1.930   2.882   9.162 -0.7224 -0.0292 -2.1922
 9145SOL     OW38893   3.380   0.134   8.160 -0.1160 -0.0635  0.2646
 9145SOL    HW138894   3.306   0.144   8.219  0.3470  0.3083  0.7811
 9145SOL    HW238895   3.453   0.112   8.218 -0.0523 -3.5675 -1.1301
 9146SOL     OW38896   3.884   2.231  10.413  0.5572 -0.3492  0.0281
 9146SOL    HW138897   3.913   2.147  10.449  2.7841  0.7703  0.8406
 9146SOL    HW238898   3.855   2.277  10.492 -1.6732 -1.0254 -0.3781
 9147SOL     OW38899   1.214   0.546  10.115  0.7156  0.4771 -0.3919
 9147SOL    HW138900   1.201   0.493  10.036 -0.4907  0.4871 -0.1904
 9147SOL    HW238901   1.310   0.548  10.120  0.6718 -0.3047  0.5407
 9148SOL     OW38902   0.528   1.495  16.817  0.1387  0.1515  0.4108
 9148SOL    HW138903   0.590   1.423  16.826 -0.8936 -0.8755 -0.5916
 9148SOL    HW238904   0.572   1.574  16.850  3.4799 -0.8683 -1.6252
 9149SOL     OW38905   3.667   0.814  10.645 -0.4515 -0.0315 -0.4101
 9149SOL    HW138906   3.618   0.831  10.726 -0.1512 -0.7610 -0.0745
 9149SOL    HW238907   3.642   0.886  10.588  0.5104  0.2865 -0.4355
 9150SOL     OW38908   3.174   4.443  17.660 -0.3307  0.3014 -0.1712
 9150SOL    HW138909   3.263   4.469  17.634  0.0976 -0.0811  0.8934
 9150SOL    HW238910   3.172   4.471   0.054 -1.2707 -0.5203  0.0579
 9151SOL     OW38911   1.753   1.931   7.369 -0.4242 -0.2574 -0.0015
 9151SOL    HW138912   1.680   1.870   7.360 -0.4763 -0.1914 -0.0209
 9151SOL    HW238913   1.821   1.884   7.419  1.7621  1.2266 -1.5581
 9152SOL     OW38914   4.581   0.825   9.669 -0.0707 -0.5779  0.3694
 9152SOL    HW138915   4.607   0.863   9.584  0.0220 -2.4736 -0.4407
 9152SOL    HW238916   4.641   0.854   9.737  2.4089 -0.9954 -1.6666
 9153SOL     OW38917   1.895   3.059  17.020 -0.0578  0.2166 -0.4793
 9153SOL    HW138918   1.853   3.014  17.093  2.1707 -2.8420 -1.0775
 9153SOL    HW238919   1.963   2.998  16.990  0.5482  1.1865 -1.0761
 9154SOL     OW38920   0.850   1.000   4.556 -0.1246 -0.0771 -0.1634
 9154SOL    HW138921   0.860   0.932   4.490  0.1911 -0.8246  0.6493
 9154SOL    HW238922   0.809   0.955   4.630  0.1760 -1.2842 -0.7408
 9155SOL     OW38923   4.077   0.564   8.404 -0.1897 -0.1440  0.0143
 9155SOL    HW138924   4.147   0.524   8.353 -1.1402 -0.1973 -1.2275
 9155SOL    HW238925   4.080   0.506   8.480 -2.9993  0.7548  0.8110
 9156SOL     OW38926   2.302   2.854   8.064  0.8068  0.1183  0.3400
 9156SOL    HW138927   2.363   2.827   7.995  0.1241 -1.1632  0.2307
 9156SOL    HW238928   2.235   2.785   8.064 -0.7598  1.6423  1.3765
 9157SOL     OW38929   0.321   4.109   8.933 -0.1765  0.1681  0.0067
 9157SOL    HW138930   0.355   4.042   8.992  2.4915  0.3451 -1.3068
 9157SOL    HW238931   0.228   4.106   8.953  0.0808 -3.1491  0.5779
 9158SOL     OW38932   2.843   2.511   5.317 -0.0326 -0.6796  0.3828
 9158SOL    HW138933   2.804   2.481   5.234  0.6251  2.2391 -0.9731
 9158SOL    HW238934   2.848   2.425   5.359  1.7712  0.3661  2.2956
 9159SOL     OW38935   1.932   3.313   6.732 -0.4483 -0.5042  0.2485
 9159SOL    HW138936   1.891   3.338   6.815  1.0465  2.0759  0.2191
 9159SOL    HW238937   2.020   3.297   6.764  0.0116  0.9313 -0.2996
 9160SOL     OW38938   4.185   1.581   9.667 -0.0063  0.4448  0.9849
 9160SOL    HW138939   4.190   1.651   9.732 -0.0184  0.8271  0.5744
 9160SOL    HW238940   4.136   1.624   9.597 -1.2243 -2.1544  0.2637
 9161SOL     OW38941   0.062   3.396  16.500 -0.0708  0.4841 -0.0530
 9161SOL    HW138942   0.074   3.431  16.589  1.9340  0.0763 -0.1673
 9161SOL    HW238943   4.720   3.328  16.514  3.9670 -3.1828  1.1606
 9162SOL     OW38944   4.528   1.614  14.151 -0.2899  0.6577 -0.1684
 9162SOL    HW138945   4.616   1.586  14.127 -0.1304  1.6366 -0.7065
 9162SOL    HW238946   4.473   1.559  14.096 -0.1826  0.0087  0.3711
 9163SOL     OW38947   3.409   0.450   5.265 -0.0415  0.0362 -0.3022
 9163SOL    HW138948   3.499   0.473   5.286  0.5646 -0.8192 -1.9474
 9163SOL    HW238949   3.367   0.467   5.349  2.0424  0.3668  0.6642
 9164SOL     OW38950   0.161   0.440   6.998  0.5320 -0.7118 -0.3772
 9164SOL    HW138951   0.232   0.392   6.957  2.6559  1.7823  0.3713
 9164SOL    HW238952   0.143   0.383   7.072  1.1344  0.3406  0.5870
 9165SOL     OW38953   3.986   4.087   5.301  0.5937 -0.5311  0.7557
 9165SOL    HW138954   4.068   4.136   5.294 -0.0610  0.2813 -1.3324
 9165SOL    HW238955   3.923   4.159   5.307  0.7494 -0.3097 -0.3053
 9166SOL     OW38956   2.974   0.664  15.130 -0.4297  0.4097 -0.0203
 9166SOL    HW138957   2.993   0.757  15.137  1.5194  0.0399 -0.3963
 9166SOL    HW238958   3.054   0.634  15.085 -0.3014 -0.0795  0.5287
 9167SOL     OW38959   1.272   0.703   8.303  0.0888  0.1567 -0.1984
 9167SOL    HW138960   1.325   0.669   8.231  0.1083  2.1403 -1.0943
 9167SOL    HW238961   1.186   0.684   8.264  1.3137 -0.7292 -2.4724
 9168SOL     OW38962   0.527   2.864   1.778  0.0724  0.6558 -0.7043
 9168SOL    HW138963   0.436   2.834   1.785  0.3083  0.1486  0.1946
 9168SOL    HW238964   0.528   2.917   1.698  1.6119  1.7346  0.0274
 9169SOL     OW38965   0.212   1.434   6.439 -0.4421  0.1618  0.2137
 9169SOL    HW138966   0.159   1.383   6.500  1.1364 -1.5730  0.1529
 9169SOL    HW238967   0.286   1.374   6.446 -0.2300  0.7089  2.5096
 9170SOL     OW38968   4.044   4.060   0.620 -0.4828  0.2648 -0.0703
 9170SOL    HW138969   4.099   3.981   0.619  2.6231  2.3969  1.1242
 9170SOL    HW238970   4.035   4.066   0.525 -1.7905 -0.9794 -0.0185
 9171SOL     OW38971   0.526   3.126   8.495  0.0660  0.4413 -0.2739
 9171SOL    HW138972   0.511   3.105   8.588 -1.2612  2.8628  0.0335
 9171SOL    HW238973   0.578   3.047   8.479  1.1378  0.7784  1.4595
 9172SOL     OW38974   3.386   2.506   5.021 -0.5252 -0.0186 -0.2026
 9172SOL    HW138975   3.375   2.583   5.077 -1.7014 -0.4035  0.1030
 9172SOL    HW238976   3.293   2.485   5.013  0.1317 -2.0133 -2.6001
 9173SOL     OW38977   3.806   0.149   4.119  0.0898  0.6867 -0.2924
 9173SOL    HW138978   3.813   0.124   4.211 -0.7229 -1.4792 -0.8379
 9173SOL    HW238979   3.724   0.198   4.127  0.9992  2.3734 -1.1574
 9174SOL     OW38980   3.789   0.824  16.390  0.7788 -0.5473  0.3300
 9174SOL    HW138981   3.824   0.817  16.302  0.3227  0.5785  0.0598
 9174SOL    HW238982   3.810   0.914  16.414 -0.4342  0.1566 -1.3091
 9175SOL     OW38983   1.698   2.391   3.765  0.4501  0.2240  0.3319
 9175SOL    HW138984   1.673   2.375   3.673  0.4232 -0.4374  0.4486
 9175SOL    HW238985   1.612   2.416   3.798 -0.5101 -0.2513 -1.8135
 9176SOL     OW38986   4.294   3.189   8.744  0.1247 -0.1369  0.5727
 9176SOL    HW138987   4.201   3.210   8.752  0.6213  2.4707 -0.4282
 9176SOL    HW238988   4.284   3.149   8.658 -0.3707 -0.4027  0.7517
 9177SOL     OW38989   0.188   1.816   7.161 -0.3356  0.1624  0.0049
 9177SOL    HW138990   0.254   1.831   7.093 -1.1121 -0.7287 -0.9557
 9177SOL    HW238991   0.199   1.896   7.212  2.3825 -0.4308  0.3500
 9178SOL     OW38992   0.370   2.619   8.027  0.2694 -0.2401 -0.5110
 9178SOL    HW138993   0.419   2.581   8.100  0.2758 -1.9031 -1.4038
 9178SOL    HW238994   0.435   2.689   8.019 -1.1235  1.1753  0.5379
 9179SOL     OW38995   0.168   2.204   8.857  0.1660  0.1682  0.3860
 9179SOL    HW138996   0.251   2.228   8.899  1.6407  1.3591 -3.2255
 9179SOL    HW238997   0.137   2.292   8.836 -0.8115 -0.4609 -0.8304
 9180SOL     OW38998   4.199   1.861  14.643  0.5814  0.4836 -0.1971
 9180SOL    HW138999   4.195   1.891  14.552 -0.9004  0.6180 -0.0877
 9180SOL    HW239000   4.263   1.924  14.676 -0.3477  0.3443  1.8926
 9181SOL     OW39001   2.615   3.707   6.566  0.0502  0.4203 -0.5120
 9181SOL    HW139002   2.594   3.620   6.602  0.7496  0.2693 -0.4823
 9181SOL    HW239003   2.703   3.721   6.601  0.2270 -1.1929 -0.2868
 9182SOL     OW39004   1.601   3.673   9.836 -0.8345 -0.1573  0.4214
 9182SOL    HW139005   1.642   3.748   9.793 -2.2017  1.2513  1.6329
 9182SOL    HW239006   1.664   3.645   9.903 -0.0528 -0.0998 -0.2826
 9183SOL     OW39007   4.166   3.634   5.381  0.1440 -0.2553 -0.5042
 9183SOL    HW139008   4.135   3.702   5.322 -2.2791 -1.5868 -0.7831
 9183SOL    HW239009   4.096   3.624   5.446  0.0985  2.6901 -0.1240
 9184SOL     OW39010   1.153   0.122   8.292  0.0598  0.3282 -0.0310
 9184SOL    HW139011   1.122   0.120   8.201 -3.0355 -0.2773  1.0110
 9184SOL    HW239012   1.228   0.063   8.289 -1.3295 -1.5324  1.4004
 9185SOL     OW39013   2.381   2.066  12.929 -0.1870 -0.3804  0.9824
 9185SOL    HW139014   2.435   2.143  12.946 -0.4696  0.2587 -1.0867
 9185SOL    HW239015   2.304   2.092  12.879 -0.0070 -1.9977 -0.1365
 9186SOL     OW39016   3.865   1.237   4.502 -0.0139 -0.3597 -0.2025
 9186SOL    HW139017   3.821   1.304   4.554 -1.3666 -1.8968  0.6428
 9186SOL    HW239018   3.789   1.195   4.462 -1.9962  1.3895  1.7612
 9187SOL     OW39019   1.164   1.808   7.183  0.3311 -0.1600 -0.2306
 9187SOL    HW139020   1.092   1.758   7.221  0.7732  0.5203  1.5117
 9187SOL    HW239021   1.117   1.837   7.105 -0.4674  0.3811  0.4507
 9188SOL     OW39022   0.121   4.327   0.519  0.6534  0.5312 -0.5893
 9188SOL    HW139023   0.083   4.396   0.464 -3.1971 -1.4768 -0.4796
 9188SOL    HW239024   0.049   4.264   0.516 -1.4379  2.8712  0.3323
 9189SOL     OW39025   4.063   4.232   1.910  0.0714  0.2251 -0.5836
 9189SOL    HW139026   4.096   4.150   1.946 -0.2494  0.5287  0.4118
 9189SOL    HW239027   3.996   4.206   1.846 -1.6844  2.1898  0.4424
 9190SOL     OW39028   0.151   2.980   7.352  0.7664  0.2550  0.2463
 9190SOL    HW139029   0.181   3.049   7.293 -0.4504  0.4071 -0.2102
 9190SOL    HW239030   0.056   2.994   7.358  1.0269  1.7794  0.8963
 9191SOL     OW39031   0.121   4.478   4.883  0.2101 -0.1553  0.3202
 9191SOL    HW139032   0.190   4.524   4.834  0.1721 -1.8959 -1.4043
 9191SOL    HW239033   0.166   4.410   4.933 -0.6682 -1.3801 -0.5507
 9192SOL     OW39034   3.797   2.968   5.230  0.4282 -0.3801  0.1036
 9192SOL    HW139035   3.745   2.947   5.308  0.9258 -2.6761 -0.1627
 9192SOL    HW239036   3.876   3.007   5.266 -0.4572  0.2315  1.3902
 9193SOL     OW39037   1.629   2.726   8.119  0.1655  0.3941 -0.1707
 9193SOL    HW139038   1.538   2.712   8.094 -0.3108 -1.5115  2.6612
 9193SOL    HW239039   1.624   2.727   8.215 -1.1787  4.3697 -0.2563
 9194SOL     OW39040   0.058   1.271   5.541 -0.0881 -0.1689  0.0018
 9194SOL    HW139041   0.137   1.229   5.574 -0.4817 -1.7420 -1.0163
 9194SOL    HW239042   0.006   1.272   5.621 -2.3277  0.3396 -1.4470
 9195SOL     OW39043   2.822   0.739  13.887  0.1094  0.4076  0.4730
 9195SOL    HW139044   2.796   0.742  13.979 -1.3294 -0.2588  0.0775
 9195SOL    HW239045   2.803   0.827  13.855 -1.5107 -0.2321 -0.2938
 9196SOL     OW39046   3.589   1.849   5.260 -0.1532 -0.0422 -0.0907
 9196SOL    HW139047   3.566   1.818   5.348  0.3536  1.1725  0.4845
 9196SOL    HW239048   3.528   1.922   5.251  0.9878  0.7333 -1.4609
 9197SOL     OW39049   2.151   2.389   7.968  0.0411  0.1694 -0.1729
 9197SOL    HW139050   2.178   2.337   8.043  1.2045  0.9232 -0.0736
 9197SOL    HW239051   2.187   2.335   7.898  0.9132  0.8197 -0.2289
 9198SOL     OW39052   3.158   2.471   8.512  0.1297  0.1471 -0.2874
 9198SOL    HW139053   3.098   2.531   8.557 -1.6662 -0.4592 -1.9034
 9198SOL    HW239054   3.196   2.431   8.591 -0.2134 -1.0221 -0.7182
 9199SOL     OW39055   3.182   1.716   6.451 -0.1386  0.2541 -0.7606
 9199SOL    HW139056   3.170   1.693   6.543  0.7128  1.2160 -0.4089
 9199SOL    HW239057   3.111   1.777   6.433 -0.2293  0.1121 -0.8820
 9200SOL     OW39058   2.920   1.282   7.288  0.8327  0.1293 -0.2981
 9200SOL    HW139059   2.929   1.364   7.337 -1.6263  1.0200 -1.3087
 9200SOL    HW239060   2.884   1.218   7.350  0.0122  1.2583  0.4017
 9201SOL     OW39061   1.827   0.363   8.661  0.4519 -0.4010  0.3333
 9201SOL    HW139062   1.892   0.375   8.730  0.8103 -0.9017  0.0731
 9201SOL    HW239063   1.787   0.286   8.701 -0.1752 -0.0754  0.3477
 9202SOL     OW39064   1.674   2.305   7.648 -0.0099  0.0121 -0.3426
 9202SOL    HW139065   1.724   2.267   7.720  0.4769  1.6111  0.1555
 9202SOL    HW239066   1.703   2.246   7.579 -1.1223 -0.9209 -0.0217
 9203SOL     OW39067   2.220   4.587   5.585 -0.0976  0.2243 -0.3953
 9203SOL    HW139068   2.307   4.618   5.562  0.3977 -1.1823 -0.3969
 9203SOL    HW239069   2.233   4.538   5.666  2.2692 -0.1925 -1.0479
 9204SOL     OW39070   1.510   0.487   8.799 -0.3722  0.5696  0.0587
 9204SOL    HW139071   1.463   0.474   8.717 -1.0848  1.5332  0.3168
 9204SOL    HW239072   1.532   0.580   8.797 -0.1962  0.5427  0.9589
 9205SOL     OW39073   4.137   3.555   2.513  0.1988 -0.1600  0.2269
 9205SOL    HW139074   4.233   3.551   2.511  0.4159  4.1694  0.8990
 9205SOL    HW239075   4.110   3.469   2.482  0.7925 -0.2161 -0.1307
 9206SOL     OW39076   1.993   2.183   2.128 -0.2734 -0.1986 -0.3546
 9206SOL    HW139077   1.974   2.115   2.191 -0.7029  0.1884 -0.0700
 9206SOL    HW239078   1.954   2.151   2.047 -0.4664 -0.8480 -0.0024
 9207SOL     OW39079   2.692   4.578  17.441 -0.2630 -0.3758 -0.2409
 9207SOL    HW139080   2.720   4.502  17.492 -0.9516 -1.6707 -1.7967
 9207SOL    HW239081   2.674   4.538  17.356 -0.9268 -1.1008  0.2507
 9208SOL     OW39082   1.714   1.351   4.905 -0.6545  0.2821  0.5133
 9208SOL    HW139083   1.634   1.403   4.916 -0.4042  0.9316 -0.7221
 9208SOL    HW239084   1.702   1.351   4.810  2.1041  0.3715  0.1799
 9209SOL     OW39085   1.834   1.475   3.100  0.4890 -0.5977  0.6869
 9209SOL    HW139086   1.768   1.535   3.065  1.6050 -0.1129 -0.5918
 9209SOL    HW239087   1.805   1.404   3.044  0.5735  0.1914 -0.3605
 9210SOL     OW39088   3.956   0.601   8.958 -0.3640 -0.6604  0.2451
 9210SOL    HW139089   4.051   0.599   8.967 -0.4501  0.4070  1.4943
 9210SOL    HW239090   3.931   0.519   9.000 -1.7333 -0.0156  0.6696
 9211SOL     OW39091   1.371   0.900   5.360  0.2776  0.0289  0.2947
 9211SOL    HW139092   1.366   0.819   5.411 -2.3480 -1.3241 -2.1509
 9211SOL    HW239093   1.284   0.928   5.388  0.5220  1.0754  0.0208
 9212SOL     OW39094   1.653   4.620   2.974  0.4667  0.3911  0.3640
 9212SOL    HW139095   1.637   4.696   2.918 -0.4170 -0.2280 -0.2347
 9212SOL    HW239096   1.700   4.657   3.048  1.2167 -2.4480  1.2845
 9213SOL     OW39097   0.098   0.847   9.221  0.0082  0.4757 -0.1884
 9213SOL    HW139098   0.068   0.821   9.133 -1.1988  0.4184  0.2316
 9213SOL    HW239099   0.163   0.916   9.212 -0.3592  0.5607 -2.2878
 9214SOL     OW39100   1.155   0.132   4.448 -0.5356 -0.5676  0.0595
 9214SOL    HW139101   1.175   0.223   4.466 -1.0280 -0.6117  0.8254
 9214SOL    HW239102   1.243   0.095   4.440 -0.7236 -1.1446  0.6224
 9215SOL     OW39103   1.722   0.632  13.971  0.1768  0.0386  0.5598
 9215SOL    HW139104   1.701   0.663  14.059 -0.7145  1.4359 -0.1430
 9215SOL    HW239105   1.643   0.612  13.922  0.6849  0.5237 -0.4598
 9216SOL     OW39106   3.266   2.693  14.397 -0.0707  0.7790 -0.9738
 9216SOL    HW139107   3.292   2.621  14.454 -2.4129  0.1482 -0.7290
 9216SOL    HW239108   3.356   2.722  14.384 -0.1838  0.7754 -1.7729
 9217SOL     OW39109   2.871   1.410   7.049 -0.4072 -0.0950 -0.0431
 9217SOL    HW139110   2.879   1.339   7.113 -2.2216  0.2404  0.5634
 9217SOL    HW239111   2.933   1.475   7.084  1.0604 -0.9359 -1.0873
 9218SOL     OW39112   4.115   3.042  11.113 -0.1194 -0.3859 -0.3431
 9218SOL    HW139113   4.188   3.103  11.128 -0.4280  0.3391 -1.7955
 9218SOL    HW239114   4.069   3.050  11.196 -0.8765 -1.3049 -0.6866
 9219SOL     OW39115   2.632   0.976   4.820  0.0553 -0.8076  0.0160
 9219SOL    HW139116   2.603   1.053   4.869  0.3345  0.9346 -2.4982
 9219SOL    HW239117   2.574   0.977   4.743  0.3663  0.7585 -0.2136
 9220SOL     OW39118   3.801   0.328   4.784  0.3398 -0.0691  0.1185
 9220SOL    HW139119   3.786   0.336   4.690  0.5469 -1.9469 -0.0831
 9220SOL    HW239120   3.767   0.412   4.813  0.1434 -0.2425  0.3857
 9221SOL     OW39121   2.016   2.380   4.115 -0.0120 -0.3589  0.5850
 9221SOL    HW139122   2.084   2.414   4.057  0.0382  0.6016  1.1900
 9221SOL    HW239123   1.955   2.339   4.054 -0.4300  2.0803 -0.6431
 9222SOL     OW39124   2.071   3.194   7.140  0.1579 -0.4765 -0.8228
 9222SOL    HW139125   2.153   3.199   7.189  0.0665  0.0425 -0.7256
 9222SOL    HW239126   2.003   3.171   7.203  0.8916  0.4220  0.2986
 9223SOL     OW39127   0.225   1.913   9.501  0.4636  0.2879 -0.3425
 9223SOL    HW139128   0.234   1.877   9.413 -1.5980 -0.9187 -0.0486
 9223SOL    HW239129   0.318   1.921   9.522  0.8681  0.6913 -2.2498
 9224SOL     OW39130   1.581   2.577   1.986 -1.0026 -0.4828 -0.2012
 9224SOL    HW139131   1.528   2.527   2.048  0.9796  1.1981  2.8668
 9224SOL    HW239132   1.622   2.516   1.925  3.6786  1.7076  0.6938
 9225SOL     OW39133   0.236   2.550   7.465  0.2221 -0.1249 -0.2222
 9225SOL    HW139134   0.262   2.639   7.489 -0.8187  0.4206 -1.1575
 9225SOL    HW239135   0.309   2.536   7.405  1.3954  1.7765  0.7711
 9226SOL     OW39136   1.534   3.272  12.560  0.4147  0.0041  0.6701
 9226SOL    HW139137   1.565   3.283  12.470 -2.1401  0.5756 -0.1502
 9226SOL    HW239138   1.573   3.351  12.599 -1.2115  0.5414  1.2232
 9227SOL     OW39139   2.454   0.467   4.081 -0.2180  0.1992 -0.7083
 9227SOL    HW139140   2.406   0.394   4.041  0.9696 -0.9913  0.0237
 9227SOL    HW239141   2.469   0.420   4.163 -1.5142 -3.2003 -2.4031
 9228SOL     OW39142   3.109   1.241   8.659 -0.3415  0.4534  0.1056
 9228SOL    HW139143   3.016   1.245   8.683 -0.5812 -1.0968 -0.5561
 9228SOL    HW239144   3.141   1.266   8.745 -0.2101 -0.2227  0.2526
 9229SOL     OW39145   2.076   3.048   0.185 -0.1794  0.5915 -0.2109
 9229SOL    HW139146   2.008   3.046   0.253 -0.5446 -1.9885 -0.6591
 9229SOL    HW239147   2.087   2.958   0.154  2.1907  0.7040  0.3441
 9230SOL     OW39148   2.430   4.323   6.684  0.6510  0.4519  0.3206
 9230SOL    HW139149   2.449   4.413   6.660  0.7753  0.3337 -0.0205
 9230SOL    HW239150   2.338   4.324   6.657  0.4628 -1.5320  0.8402
 9231SOL     OW39151   1.973   3.876   4.658  0.1316  0.4779  0.4317
 9231SOL    HW139152   1.950   3.795   4.612  0.5377  0.9932 -0.6951
 9231SOL    HW239153   1.989   3.935   4.584 -2.9509 -0.4866 -1.0079
 9232SOL     OW39154   3.296   2.906   4.174  0.6480  0.1314  0.0818
 9232SOL    HW139155   3.319   2.836   4.114  0.1133  0.2365 -0.2477
 9232SOL    HW239156   3.348   2.901   4.254 -0.4451 -0.6546  0.7590
 9233SOL     OW39157   2.298   3.585  11.293 -0.4054 -0.3616 -0.5912
 9233SOL    HW139158   2.243   3.651  11.251 -0.9541  0.0395  0.7507
 9233SOL    HW239159   2.363   3.577  11.224  0.6242  0.2944  0.2993
 9234SOL     OW39160   1.051   1.043   6.457  0.1395  0.1115 -0.1453
 9234SOL    HW139161   0.966   1.000   6.464 -0.6945  1.4760 -1.6495
 9234SOL    HW239162   1.112   0.995   6.512  0.9003  0.4174 -0.7183
 9235SOL     OW39163   2.021   2.021   0.476 -0.0407 -0.1154 -0.1568
 9235SOL    HW139164   1.928   2.042   0.463 -0.0506 -0.3710 -0.4872
 9235SOL    HW239165   2.026   1.933   0.439 -0.4588 -0.6106  0.9706
 9236SOL     OW39166   4.690   1.815   6.030  0.1811 -0.4597 -0.1055
 9236SOL    HW139167   4.655   1.806   6.119  0.0542 -0.8489 -0.1954
 9236SOL    HW239168   0.054   1.846   6.051 -0.3665  0.8131  0.3541
 9237SOL     OW39169   3.854   4.695   2.775  0.1335  0.2633 -0.1056
 9237SOL    HW139170   3.918   4.647   2.722  0.9458 -0.3064  1.3796
 9237SOL    HW239171   3.895   4.691   2.861 -1.7278  4.6197  0.9626
 9238SOL     OW39172   3.307   4.687  12.783 -0.2768 -0.4293  0.3961
 9238SOL    HW139173   3.222   4.699  12.741 -0.5974  2.0887  1.7612
 9238SOL    HW239174   3.280   4.607  12.829  1.4267 -0.9533  0.4612
 9239SOL     OW39175   2.584   3.778   2.199  0.7387  0.1384  0.3513
 9239SOL    HW139176   2.664   3.777   2.251  0.2922  2.0689  1.1014
 9239SOL    HW239177   2.547   3.861   2.230 -0.2092  0.5797 -1.9446
 9240SOL     OW39178   4.637   4.300  17.033 -0.6470 -0.5106 -0.1411
 9240SOL    HW139179   4.583   4.335  16.963 -2.2360 -0.6874  1.0013
 9240SOL    HW239180   4.578   4.300  17.108  1.6849  0.2548  1.7001
 9241SOL     OW39181   1.241   2.429   3.335  0.3511 -0.2534  0.4432
 9241SOL    HW139182   1.327   2.471   3.336 -0.1247  0.7656 -1.9672
 9241SOL    HW239183   1.202   2.470   3.258  1.1527 -1.4948 -0.6309
 9242SOL     OW39184   1.457   0.330   9.004 -0.5032 -0.2890 -0.3464
 9242SOL    HW139185   1.469   0.383   8.926  2.5670 -0.7655 -0.1846
 9242SOL    HW239186   1.484   0.382   9.080 -3.2707  0.0493  0.4071
 9243SOL     OW39187   2.418   3.857  15.334  0.2457  0.1279 -0.8222
 9243SOL    HW139188   2.464   3.794  15.278  1.6733  0.5080 -0.0773
 9243SOL    HW239189   2.494   3.887  15.383  0.6126  0.1871 -1.4375
 9244SOL     OW39190   0.673   4.465   5.633  0.4573  0.2695 -0.0636
 9244SOL    HW139191   0.751   4.520   5.633  1.4610 -1.1328 -1.3981
 9244SOL    HW239192   0.695   4.396   5.697  3.0128  1.0724 -0.0755
 9245SOL     OW39193   3.876   2.252   3.052 -0.3711  0.1948 -0.1800
 9245SOL    HW139194   3.807   2.308   3.017 -0.2225  0.4063 -0.1341
 9245SOL    HW239195   3.944   2.263   2.985  0.4528 -2.9877  0.1103
 9246SOL     OW39196   0.285   3.874   2.669  0.0566  0.6142 -0.5623
 9246SOL    HW139197   0.298   3.788   2.710 -1.6525  0.8051  0.3807
 9246SOL    HW239198   0.224   3.854   2.599 -3.0771  0.4281  2.2166
 9247SOL     OW39199   2.867   3.693   3.528  0.4428 -0.2731  0.3165
 9247SOL    HW139200   2.939   3.732   3.478  0.9406  0.1485  1.3606
 9247SOL    HW239201   2.808   3.668   3.457  0.8625  1.6596 -0.7247
 9248SOL     OW39202   3.580   4.466   2.553 -0.4332 -0.2773 -0.4643
 9248SOL    HW139203   3.641   4.511   2.495  0.5305 -0.4756  0.3910
 9248SOL    HW239204   3.522   4.434   2.485 -0.7713  1.6343 -1.0679
 9249SOL     OW39205   0.294   2.024   3.079 -0.2832  0.5896  0.2586
 9249SOL    HW139206   0.386   2.010   3.098 -0.8937 -1.3534  1.8063
 9249SOL    HW239207   0.276   1.947   3.024 -1.9365  1.0842  0.0818
 9250SOL     OW39208   4.404   1.322  17.665 -0.6718  0.1919  0.2477
 9250SOL    HW139209   4.414   1.252   0.032  0.8425  0.9696  0.8564
 9250SOL    HW239210   4.439   1.289  17.582  1.0226 -0.2440  1.1147
 9251SOL     OW39211   2.496   1.307   4.439 -0.3756 -0.3470  0.4196
 9251SOL    HW139212   2.459   1.382   4.394 -1.9365 -0.7391  1.0295
 9251SOL    HW239213   2.492   1.326   4.533 -1.0278  0.9023  0.1428
 9252SOL     OW39214   4.224   1.343   5.296 -0.2834  0.3019  0.2027
 9252SOL    HW139215   4.237   1.426   5.342  1.9926  0.3475 -0.5327
 9252SOL    HW239216   4.129   1.356   5.284  0.0397  0.9729 -1.7396
 9253SOL     OW39217   2.591   2.672  13.383  0.2792 -0.3430 -0.5459
 9253SOL    HW139218   2.677   2.704  13.408 -0.3242  0.5361  0.4303
 9253SOL    HW239219   2.534   2.723  13.441  0.2471 -0.0435 -0.8483
 9254SOL     OW39220   2.557   3.890   3.291 -0.1915  0.4204  0.3829
 9254SOL    HW139221   2.593   3.809   3.326 -2.2773 -1.6145 -2.1417
 9254SOL    HW239222   2.513   3.924   3.368 -1.3647  0.4323 -0.2824
 9255SOL     OW39223   0.322   1.761  11.453 -0.1140  0.5670  0.3258
 9255SOL    HW139224   0.304   1.667  11.454  1.9374  0.1702  0.4389
 9255SOL    HW239225   0.413   1.756  11.422  0.5360  3.0429  1.8088
 9256SOL     OW39226   3.772   3.298   2.422 -0.3765  0.2010  0.0413
 9256SOL    HW139227   3.826   3.356   2.367  1.4096 -1.9372 -0.4547
 9256SOL    HW239228   3.818   3.215   2.411 -0.3502  0.2054  0.1163
 9257SOL     OW39229   2.138   2.141   9.210  0.0598 -0.6785  0.0167
 9257SOL    HW139230   2.057   2.138   9.160 -0.4741  0.5833  0.8153
 9257SOL    HW239231   2.094   2.150   9.295 -1.4889  2.1998 -1.1081
 9258SOL     OW39232   2.891   1.387  11.580 -0.3343 -0.2403 -0.1056
 9258SOL    HW139233   2.826   1.364  11.514  0.6030  3.5057 -2.3931
 9258SOL    HW239234   2.942   1.457  11.539 -0.1359 -1.9278 -2.7518
 9259SOL     OW39235   4.121   1.072  15.653  0.2109  0.3377  0.0295
 9259SOL    HW139236   4.193   1.009  15.644  0.0930 -0.2169  2.9389
 9259SOL    HW239237   4.173   1.143  15.617  0.3591 -0.5961 -1.6108
 9260SOL     OW39238   3.361   4.195  16.302  0.0180 -0.1774 -0.1497
 9260SOL    HW139239   3.431   4.260  16.296  1.0060 -1.2950 -0.6552
 9260SOL    HW239240   3.393   4.140  16.373  2.1185 -1.2696 -1.9281
 9261SOL     OW39241   2.187   3.991   1.805  0.0753 -0.4992  0.2619
 9261SOL    HW139242   2.101   3.995   1.764 -0.1495  1.0221  0.9008
 9261SOL    HW239243   2.204   4.083   1.824  0.3424 -0.5476  0.2591
 9262SOL     OW39244   0.879   0.234  10.029  0.4345  0.4343  0.0900
 9262SOL    HW139245   0.815   0.284   9.978 -1.1061  0.6605  2.2491
 9262SOL    HW239246   0.926   0.307  10.069  0.9457  0.5716 -0.7753
 9263SOL     OW39247   0.894   3.868  11.778 -0.2523 -0.9320  0.4940
 9263SOL    HW139248   0.959   3.798  11.771  0.7766 -0.0273  1.0531
 9263SOL    HW239249   0.945   3.925  11.721 -1.6996  2.1817  2.2909
 9264SOL     OW39250   4.255   1.707   6.156  0.0766 -0.0600  0.0798
 9264SOL    HW139251   4.349   1.700   6.169  0.0162  1.2252  1.2444
 9264SOL    HW239252   4.230   1.634   6.212  1.5533 -2.6487 -2.6490
 9265SOL     OW39253   2.655   4.578   4.053 -0.1483 -0.0615  0.4703
 9265SOL    HW139254   2.576   4.585   3.999 -0.1802  0.7781  0.6167
 9265SOL    HW239255   2.717   4.646   4.025 -0.5950 -0.0249 -0.4304
 9266SOL     OW39256   4.509   2.526   3.328  0.1791 -0.4411 -0.6236
 9266SOL    HW139257   4.521   2.443   3.281 -1.3078 -1.4270  0.7153
 9266SOL    HW239258   4.531   2.585   3.256  1.6608 -0.2501 -0.0012
 9267SOL     OW39259   4.215   0.026   6.358  0.4112 -0.3686  0.0438
 9267SOL    HW139260   4.266   0.037   6.278  1.3592 -3.1038  0.2715
 9267SOL    HW239261   4.279   4.707   6.414 -1.2896  0.1986  2.4170
 9268SOL     OW39262   1.509   3.038   8.285 -0.5404 -0.5401  0.2664
 9268SOL    HW139263   1.514   3.021   8.191  0.8422 -0.8175  0.3933
 9268SOL    HW239264   1.439   3.103   8.280 -0.0128  0.0126 -0.0078
 9269SOL     OW39265   4.202   2.971   5.247 -0.1935 -0.1473 -0.1989
 9269SOL    HW139266   4.262   3.042   5.271 -1.1713  1.2160 -1.8311
 9269SOL    HW239267   4.194   2.988   5.154  0.1443 -1.6234 -0.4989
 9270SOL     OW39268   1.826   3.223  11.384 -0.1197  0.1172 -0.2525
 9270SOL    HW139269   1.788   3.187  11.464  0.6717 -1.3152 -0.5280
 9270SOL    HW239270   1.871   3.144  11.356  0.5749  0.5612 -0.3795
 9271SOL     OW39271   0.944   2.180   2.557  0.3965 -0.2607 -0.3576
 9271SOL    HW139272   1.002   2.237   2.507 -0.8674  1.3789  0.0656
 9271SOL    HW239273   0.996   2.181   2.637 -0.5439  0.1353  0.2425
 9272SOL     OW39274   1.249   0.383   6.472 -0.3381 -0.4662  0.0656
 9272SOL    HW139275   1.265   0.440   6.547 -0.1852 -1.3133  0.6781
 9272SOL    HW239276   1.164   0.346   6.495 -0.3987 -0.8935 -0.8294
 9273SOL     OW39277   0.545   4.667   7.049  0.5959 -0.0985 -0.2049
 9273SOL    HW139278   0.558   4.626   7.135 -0.8757 -0.5989 -0.2363
 9273SOL    HW239279   0.534   0.034   7.077  0.5858  0.2963 -1.5059
 9274SOL     OW39280   0.908   1.781  14.582  0.4784 -0.3158  0.2254
 9274SOL    HW139281   0.836   1.725  14.611  0.2963 -0.5184 -0.5900
 9274SOL    HW239282   0.954   1.719  14.524 -1.7151 -1.1289 -0.6419
 9275SOL     OW39283   2.143   2.849  11.984  0.0206 -0.5408 -0.5520
 9275SOL    HW139284   2.124   2.757  12.001  1.8036 -0.6787  0.7185
 9275SOL    HW239285   2.058   2.889  12.003 -0.6973 -1.1771 -2.4446
 9276SOL     OW39286   2.478   4.462   8.002 -0.0856 -0.7751  0.3827
 9276SOL    HW139287   2.484   4.432   8.093  0.3791 -0.5797  0.4194
 9276SOL    HW239288   2.486   4.557   8.011  2.3183 -0.9510  0.2212
 9277SOL     OW39289   0.720   1.183   2.251 -0.2251 -0.1163  0.0615
 9277SOL    HW139290   0.815   1.177   2.247 -0.1471 -0.4452  2.5460
 9277SOL    HW239291   0.698   1.243   2.181 -0.9760 -0.4887 -0.0271
 9278SOL     OW39292   1.959   2.360  12.086 -0.5395 -1.1311 -0.1476
 9278SOL    HW139293   1.957   2.356  11.990  0.4020 -0.6720 -0.1930
 9278SOL    HW239294   1.897   2.428  12.112  2.2939  0.7085  1.8389
 9279SOL     OW39295   0.673   3.816   9.830 -0.5193  0.1575 -0.2806
 9279SOL    HW139296   0.727   3.855   9.899  1.4695  1.3188 -2.4722
 9279SOL    HW239297   0.746   3.803   9.770 -1.2333 -2.9973 -0.4496
 9280SOL     OW39298   2.502   3.474   3.263  0.1834  0.1064 -0.7913
 9280SOL    HW139299   2.442   3.507   3.330  0.7072  1.2384 -0.8849
 9280SOL    HW239300   2.460   3.393   3.235 -1.3511 -0.0267  1.9405
 9281SOL     OW39301   2.364   0.331   1.600  0.0742 -0.1100  0.2622
 9281SOL    HW139302   2.357   0.373   1.686 -1.3028  2.0947 -0.9445
 9281SOL    HW239303   2.456   0.346   1.581 -0.1521 -0.1618 -0.8689
 9282SOL     OW39304   0.570   1.380   3.263 -0.5165  0.4340  0.2475
 9282SOL    HW139305   0.616   1.392   3.180  1.2061 -0.3390  1.0850
 9282SOL    HW239306   0.614   1.441   3.322 -0.2389  0.3695  0.1077
 9283SOL     OW39307   4.407   4.651   4.043 -0.4329  0.3559  0.1359
 9283SOL    HW139308   4.395   4.691   3.957  0.8539  0.6216  0.0801
 9283SOL    HW239309   4.423   0.004   4.098  0.6723 -0.0847  0.4336
 9284SOL     OW39310   1.209   3.063   5.324 -0.5621 -0.2996 -0.3169
 9284SOL    HW139311   1.281   3.099   5.377 -0.8877  0.2702 -0.2561
 9284SOL    HW239312   1.132   3.102   5.366  0.2633  1.8344 -0.7993
 9285SOL     OW39313   1.323   3.128   8.587 -0.2371  0.1776  0.1185
 9285SOL    HW139314   1.303   3.136   8.680 -0.4700 -0.3724  0.1144
 9285SOL    HW239315   1.365   3.042   8.591  0.1457  0.4129  1.0261
 9286SOL     OW39316   3.191   1.726   7.506 -0.3284  0.2937 -1.0049
 9286SOL    HW139317   3.264   1.667   7.492  1.0431  1.0288  3.0590
 9286SOL    HW239318   3.240   1.805   7.528 -0.8781  0.5440 -0.6695
 9287SOL     OW39319   4.433   3.635   3.674 -0.4970  0.1115  0.5997
 9287SOL    HW139320   4.426   3.635   3.579 -1.2901  0.5319  0.6508
 9287SOL    HW239321   4.382   3.557   3.696 -0.4818  0.0460  0.4043
 9288SOL     OW39322   4.652   4.514   8.686 -0.1844 -0.0792  0.0609
 9288SOL    HW139323   4.608   4.581   8.737 -1.4377 -1.6837  1.0887
 9288SOL    HW239324   4.585   4.496   8.620  0.3066 -0.0525 -0.4463
 9289SOL     OW39325   1.875   3.076   9.355 -0.5065  0.1641 -0.7262
 9289SOL    HW139326   1.797   3.031   9.323 -0.1703 -1.0794  0.1806
 9289SOL    HW239327   1.930   3.064   9.279 -0.2998 -1.1242 -0.3693
 9290SOL     OW39328   3.251   4.306   8.013 -0.3827 -0.3263  0.6098
 9290SOL    HW139329   3.156   4.306   8.028 -0.4058  0.7766  0.4210
 9290SOL    HW239330   3.260   4.398   8.037 -1.3427 -0.2070  0.5146
 9291SOL     OW39331   3.683   0.512   3.147  0.5455 -0.3800  0.2403
 9291SOL    HW139332   3.697   0.567   3.070 -3.4155 -0.0244 -0.2353
 9291SOL    HW239333   3.683   0.428   3.100 -0.4267 -1.8341  2.8182
 9292SOL     OW39334   2.601   2.134  10.400  0.5589  0.2728 -0.0373
 9292SOL    HW139335   2.509   2.115  10.418  0.9599 -1.6366  0.0282
 9292SOL    HW239336   2.611   2.211  10.456  0.3384  0.1743  0.1362
 9293SOL     OW39337   0.057   3.309  15.996 -0.2560  0.6430 -0.4360
 9293SOL    HW139338   0.137   3.256  15.993 -0.2884  0.4957  1.3394
 9293SOL    HW239339   0.013   3.267  16.069  3.4982 -1.8892  0.3633
 9294SOL     OW39340   4.493   0.679   8.251 -0.0575 -0.5228 -0.3967
 9294SOL    HW139341   4.523   0.699   8.162  1.0297  1.5187  0.4162
 9294SOL    HW239342   4.577   0.686   8.297 -1.0870 -1.3593  1.6225
 9295SOL     OW39343   1.170   4.168  10.426  0.4561 -0.5386  0.6055
 9295SOL    HW139344   1.166   4.131  10.514 -1.2069 -0.8280  0.4021
 9295SOL    HW239345   1.139   4.258  10.436 -0.5132 -0.6300 -1.5379
 9296SOL     OW39346   1.634   1.912   8.548 -0.0211 -0.2421  0.1150
 9296SOL    HW139347   1.606   1.956   8.468  1.0133  2.1087  1.0461
 9296SOL    HW239348   1.548   1.901   8.589 -0.2299 -1.6972 -0.7326
 9297SOL     OW39349   1.206   4.471  16.380  0.4056 -0.1583  0.1372
 9297SOL    HW139350   1.202   4.451  16.473  1.1323  1.1934  0.4473
 9297SOL    HW239351   1.205   4.566  16.374  0.7495 -0.2338 -1.2197
 9298SOL     OW39352   3.023   3.633   5.736 -0.0125 -0.0363  0.2721
 9298SOL    HW139353   3.020   3.537   5.731  1.2812 -0.0594 -0.1681
 9298SOL    HW239354   3.065   3.650   5.820  1.1895 -1.9258  0.0706
 9299SOL     OW39355   1.189   0.365   3.173 -0.1546  0.1440 -0.2800
 9299SOL    HW139356   1.236   0.283   3.157  1.4380  0.9744  0.1335
 9299SOL    HW239357   1.163   0.353   3.264 -0.1739  2.0396 -0.0295
 9300SOL     OW39358   4.047   1.145   3.662  0.1977  0.3691 -0.2613
 9300SOL    HW139359   4.110   1.090   3.614 -0.3651  0.2181 -0.8242
 9300SOL    HW239360   4.012   1.206   3.598 -1.1828 -0.5698 -0.4061
 9301SOL     OW39361   3.425   3.966   8.536 -0.0652 -0.1155 -0.0312
 9301SOL    HW139362   3.434   4.058   8.560 -0.2278  0.4503 -2.0871
 9301SOL    HW239363   3.380   3.942   8.617 -0.7501 -2.8186 -1.1917
 9302SOL     OW39364   0.529   4.249   3.838 -0.4640  0.0816 -0.1405
 9302SOL    HW139365   0.595   4.185   3.863 -1.0935  0.0613  1.4672
 9302SOL    HW239366   0.548   4.313   3.906  2.8259 -1.9538  0.8260
 9303SOL     OW39367   4.536   0.187   3.297  0.4936  0.2347 -0.2087
 9303SOL    HW139368   4.473   0.258   3.311  0.2918  0.2666 -1.3445
 9303SOL    HW239369   4.619   0.234   3.303  0.7780 -0.2492 -0.3302
 9304SOL     OW39370   4.346   0.341   4.450  0.1333  0.5246 -0.0764
 9304SOL    HW139371   4.437   0.368   4.464  0.0214 -0.1806  1.8847
 9304SOL    HW239372   4.320   0.397   4.377  2.4581  1.1856 -0.4114
 9305SOL     OW39373   3.954   1.727  16.978  0.7767 -0.4525  0.1847
 9305SOL    HW139374   3.883   1.720  16.914  0.0281  0.6231  0.9115
 9305SOL    HW239375   3.956   1.638  17.014 -0.2175  0.4110  2.2991
 9306SOL     OW39376   1.353   1.572   7.361  0.5074  0.6491  0.1689
 9306SOL    HW139377   1.311   1.512   7.299  1.8809 -0.1080 -0.0409
 9306SOL    HW239378   1.303   1.653   7.357 -1.8330 -0.7606  1.1338
 9307SOL     OW39379   2.288   1.077  10.788 -0.2279 -0.1873 -0.0898
 9307SOL    HW139380   2.247   1.163  10.793  1.2098  0.6159 -2.1598
 9307SOL    HW239381   2.218   1.018  10.761  0.4785 -1.0027 -0.1160
 9308SOL     OW39382   3.320   1.675   3.863  0.1239  0.2913  0.3561
 9308SOL    HW139383   3.228   1.678   3.837  0.5909 -0.4751 -1.3897
 9308SOL    HW239384   3.316   1.610   3.933  1.3648 -0.3358 -0.1638
 9309SOL     OW39385   0.712   0.133  13.702 -0.0896 -0.0823 -0.4625
 9309SOL    HW139386   0.779   0.075  13.738 -1.9051 -0.7931  1.8053
 9309SOL    HW239387   0.660   0.079  13.643 -1.7879  0.6771  0.3403
 9310SOL     OW39388   3.937   4.132   9.642  0.6956  0.1361  0.0310
 9310SOL    HW139389   3.950   4.055   9.697  0.4016  0.3064  0.3395
 9310SOL    HW239390   4.019   4.178   9.658 -0.4803  0.8123  4.2241
 9311SOL     OW39391   2.321   1.952  12.559  0.0976 -0.4421  0.1223
 9311SOL    HW139392   2.260   1.942  12.485 -1.9008 -1.3083  1.9053
 9311SOL    HW239393   2.257   1.926  12.624 -0.7677 -0.0030 -0.5504
 9312SOL     OW39394   1.131   0.432   8.143  0.0146  0.0512 -0.0439
 9312SOL    HW139395   1.038   0.453   8.143  0.6171  2.6990  1.1575
 9312SOL    HW239396   1.146   0.391   8.058 -0.9607 -1.7373  0.6405
 9313SOL     OW39397   0.184   0.353   2.046 -0.0048 -0.2167 -0.5375
 9313SOL    HW139398   0.165   0.389   1.959  0.3120  0.5760 -0.2764
 9313SOL    HW239399   0.279   0.353   2.035 -0.0857 -1.9813 -1.3567
 9314SOL     OW39400   0.589   1.858   6.229  0.1953  0.2114  0.6823
 9314SOL    HW139401   0.537   1.913   6.170 -1.2995 -1.1302  0.7672
 9314SOL    HW239402   0.663   1.833   6.172 -1.8333  1.0123 -2.2976
 9315SOL     OW39403   1.642   1.910   3.170  0.0462  0.7022  0.3951
 9315SOL    HW139404   1.709   1.848   3.196 -2.3738 -1.6435  1.0086
 9315SOL    HW239405   1.572   1.879   3.227  0.2557 -0.6734 -0.0924
 9316SOL     OW39406   1.753   1.902   6.987  0.6098 -0.3440  0.8352
 9316SOL    HW139407   1.662   1.875   6.974  1.1813 -0.6000 -2.7855
 9316SOL    HW239408   1.745   1.970   7.053 -1.0199 -0.1041  0.3861
 9317SOL     OW39409   0.915   2.263  14.888 -0.1438 -0.1847 -0.2055
 9317SOL    HW139410   0.848   2.194  14.887 -1.3257  0.9046  2.7807
 9317SOL    HW239411   0.879   2.309  14.813  0.3306  1.5196  0.6286
 9318SOL     OW39412   0.202   1.071   6.270 -0.1321  0.0051  0.8567
 9318SOL    HW139413   0.282   1.070   6.217 -1.5586  0.8403 -1.3222
 9318SOL    HW239414   0.228   1.109   6.354 -1.3530  0.0884  1.1974
 9319SOL     OW39415   1.180   4.301  16.014  0.0652  0.2274 -0.0714
 9319SOL    HW139416   1.220   4.272  16.096 -1.4420  1.4660  1.1060
 9319SOL    HW239417   1.233   4.380  16.004  0.3241  0.3931  2.5618
 9320SOL     OW39418   1.746   3.616   8.348 -0.8845 -0.2034 -0.5406
 9320SOL    HW139419   1.834   3.652   8.340 -1.4470  1.9067  2.9674
 9320SOL    HW239420   1.765   3.534   8.394 -0.4645  1.1131  1.6301
 9321SOL     OW39421   0.249   2.830  16.608 -0.1960  0.5280 -0.3052
 9321SOL    HW139422   0.303   2.782  16.545 -0.2117 -0.0478  0.1256
 9321SOL    HW239423   0.252   2.918  16.570 -2.3883  1.4432  1.6614
 9322SOL     OW39424   4.063   2.911   9.000  0.9913  0.1760 -0.2780
 9322SOL    HW139425   4.022   2.996   8.985 -3.5348 -1.6144  1.9192
 9322SOL    HW239426   4.135   2.942   9.055  0.4719  0.1698  0.4038
 9323SOL     OW39427   4.627   4.297   7.587  0.1379  0.3228 -0.0486
 9323SOL    HW139428   4.564   4.369   7.592 -1.1890 -0.7885 -0.6592
 9323SOL    HW239429   4.584   4.232   7.531 -0.1889 -1.0049  1.7434
 9324SOL     OW39430   1.499   4.064  14.490 -0.0455  0.0747  0.5044
 9324SOL    HW139431   1.526   4.014  14.567 -1.5096  0.4045  1.2366
 9324SOL    HW239432   1.577   4.060  14.435  0.4773  2.0402  1.0771
 9325SOL     OW39433   3.436   0.889   4.883 -0.6746  0.4335  0.2487
 9325SOL    HW139434   3.344   0.897   4.908 -0.3398 -0.6937  1.8129
 9325SOL    HW239435   3.459   0.797   4.896 -0.1432  0.4448 -0.5823
 9326SOL     OW39436   0.615   1.316  11.874  0.5266  0.0097 -0.0040
 9326SOL    HW139437   0.644   1.394  11.827 -1.7597  0.1305 -1.2504
 9326SOL    HW239438   0.660   1.251  11.820 -0.8232  0.5203 -1.7554
 9327SOL     OW39439   2.375   4.472   1.272 -0.0382  0.0003  0.3661
 9327SOL    HW139440   2.311   4.530   1.231 -0.2881  0.0008  0.7523
 9327SOL    HW239441   2.400   4.537   1.339  1.9618 -0.1739 -0.2111
 9328SOL     OW39442   2.702   4.524   3.109 -0.1341 -0.0984  0.1118
 9328SOL    HW139443   2.677   4.443   3.065 -0.4024 -0.2075  0.4566
 9328SOL    HW239444   2.793   4.517   3.137 -0.3236 -0.0542  0.7587
 9329SOL     OW39445   2.516   1.752   6.325 -0.0621  0.4417 -0.0511
 9329SOL    HW139446   2.460   1.815   6.371 -1.3993  0.8714 -2.2576
 9329SOL    HW239447   2.452   1.686   6.300 -0.5982  0.5161  1.1699
 9330SOL     OW39448   4.476   1.774   9.514  0.0722  0.4937  0.9821
 9330SOL    HW139449   4.407   1.825   9.556 -3.7890 -3.5331 -0.4423
 9330SOL    HW239450   4.543   1.773   9.583 -0.0217 -0.0204  1.0684
 9331SOL     OW39451   0.612   2.190  13.909 -0.6597  0.0295  0.2637
 9331SOL    HW139452   0.627   2.269  13.857 -2.5933 -1.1365 -2.0375
 9331SOL    HW239453   0.674   2.129  13.868 -1.0516  0.1698 -0.5288
 9332SOL     OW39454   2.513   4.223   0.979 -0.3373 -0.5815 -0.0346
 9332SOL    HW139455   2.575   4.292   1.003 -0.2378 -0.1688 -1.4773
 9332SOL    HW239456   2.502   4.237   0.885 -1.6818  0.8273  0.3333
 9333SOL     OW39457   3.786   4.556   6.773 -0.1609  0.2570 -0.7518
 9333SOL    HW139458   3.857   4.571   6.710 -0.1407  0.3236 -0.7121
 9333SOL    HW239459   3.834   4.519   6.847  0.3562 -0.3019 -1.3541
 9334SOL     OW39460   4.139   3.353   5.343 -0.3550  0.3118 -0.3453
 9334SOL    HW139461   4.048   3.367   5.318 -0.6801 -0.2469  0.5594
 9334SOL    HW239462   4.176   3.441   5.357  0.0378  0.4139 -2.0496
 9335SOL     OW39463   0.745   0.340   9.278 -0.1545  0.3260  0.7026
 9335SOL    HW139464   0.797   0.418   9.264 -1.8704  0.8773 -2.8427
 9335SOL    HW239465   0.669   0.378   9.322 -0.0614 -0.8469  1.8808
 9336SOL     OW39466   0.139   1.361   0.065 -0.1177 -0.2913 -0.0899
 9336SOL    HW139467   0.090   1.279   0.061  0.2556 -0.3615 -2.9741
 9336SOL    HW239468   0.198   1.338   0.137  0.7400  1.8314 -0.1110
 9337SOL     OW39469   3.091   0.666  13.826  0.1535  0.0764  0.4451
 9337SOL    HW139470   3.001   0.690  13.848 -0.0229  2.1186 -2.4418
 9337SOL    HW239471   3.135   0.726  13.887 -0.8863  0.6921  0.5992
 9338SOL     OW39472   4.568   0.636   0.682  0.1336 -0.0635  0.2923
 9338SOL    HW139473   4.498   0.572   0.693  1.5099 -1.7448 -0.9591
 9338SOL    HW239474   4.641   0.577   0.700  0.9895  1.8539  3.1067
 9339SOL     OW39475   0.068   0.927   7.331  0.6135  0.0700  0.1109
 9339SOL    HW139476   0.112   0.931   7.416  2.3582  1.3093 -0.8280
 9339SOL    HW239477   0.010   1.003   7.340  0.4509 -0.0865  0.3505
 9340SOL     OW39478   2.770   2.828  13.128  0.1649  0.1990 -0.1359
 9340SOL    HW139479   2.841   2.764  13.132  0.7424  0.9170  1.3699
 9340SOL    HW239480   2.784   2.887  13.202 -0.1421 -0.7565  0.6930
 9341SOL     OW39481   2.757   4.653   5.442  0.2646  0.5234  0.3469
 9341SOL    HW139482   2.844   4.688   5.461  0.8962 -1.2398  0.7462
 9341SOL    HW239483   2.782   4.611   5.359  1.0451  1.1964  0.2478
 9342SOL     OW39484   2.316   2.483   9.953  0.4174 -0.0313  0.0122
 9342SOL    HW139485   2.367   2.559   9.925  0.7124 -0.8245 -1.5928
 9342SOL    HW239486   2.251   2.517  10.015  0.3432  0.0972 -0.1385
 9343SOL     OW39487   2.443   1.700   3.084 -0.0944  0.1510  0.4658
 9343SOL    HW139488   2.535   1.723   3.097  0.2184  0.3228 -2.1963
 9343SOL    HW239489   2.454   1.608   3.061  0.0625  0.0502  0.9485
 9344SOL     OW39490   0.618   1.863   7.806  0.3647  0.7274  0.0731
 9344SOL    HW139491   0.541   1.841   7.752 -0.0128  1.3884  0.3476
 9344SOL    HW239492   0.644   1.781   7.847  1.6415  0.7738 -0.6503
 9345SOL     OW39493   2.303   3.628   0.711 -0.2037  0.1295  0.6498
 9345SOL    HW139494   2.314   3.705   0.767 -0.2987  1.1227 -0.6734
 9345SOL    HW239495   2.391   3.591   0.700 -0.2001 -0.0648  1.3612
 9346SOL     OW39496   3.024   4.397   4.402  0.0189  0.2728  0.1176
 9346SOL    HW139497   3.081   4.367   4.472 -0.1859 -0.1685  0.0906
 9346SOL    HW239498   3.055   4.359   4.320 -2.6191  1.5399 -1.4831
 9347SOL     OW39499   0.104   3.713   9.820 -0.0729 -0.5857 -0.3153
 9347SOL    HW139500   0.187   3.680   9.855 -0.5763 -0.2315  1.2342
 9347SOL    HW239501   0.130   3.786   9.764 -0.9361 -0.3921 -0.4652
 9348SOL     OW39502   2.067   4.566   3.658 -0.7991 -0.3059 -0.5079
 9348SOL    HW139503   1.973   4.563   3.641 -0.9901  2.2286  0.1160
 9348SOL    HW239504   2.105   4.635   3.603 -1.2873  1.5613  1.5144
 9349SOL     OW39505   3.368   4.487   3.710  0.9930  0.2844  0.3517
 9349SOL    HW139506   3.452   4.509   3.750  1.0566 -0.1178  0.4449
 9349SOL    HW239507   3.349   4.400   3.746  0.8670  1.0583  2.1710
 9350SOL     OW39508   1.804   3.700   2.025  0.1940  0.2150 -0.1631
 9350SOL    HW139509   1.758   3.680   2.107 -1.9000  1.7306 -0.9587
 9350SOL    HW239510   1.773   3.788   2.001  1.7713  0.2214 -2.1984
 9351SOL     OW39511   3.578   0.277   4.186  0.1181  0.2852  0.2145
 9351SOL    HW139512   3.541   0.274   4.098  0.4243  0.5948  0.0780
 9351SOL    HW239513   3.502   0.305   4.237  0.2226  0.5140  0.2426
 9352SOL     OW39514   2.082   1.428   9.545 -0.0514  0.2356  0.2564
 9352SOL    HW139515   1.999   1.405   9.587  0.0539 -0.2742  0.1927
 9352SOL    HW239516   2.053   1.460   9.459 -2.1615  0.7123  1.1473
 9353SOL     OW39517   0.604   3.948   2.692 -0.0112 -0.4329 -0.3992
 9353SOL    HW139518   0.593   3.890   2.768  1.5539  0.7508  0.7111
 9353SOL    HW239519   0.678   3.910   2.645 -1.0072 -2.8957  0.0078
 9354SOL     OW39520   3.189   1.252   1.493  0.6490 -0.0333  0.3882
 9354SOL    HW139521   3.202   1.205   1.575  0.4518 -1.7913 -0.6028
 9354SOL    HW239522   3.136   1.326   1.525  2.1266  1.8746 -1.5682
 9355SOL     OW39523   0.162   1.837   5.480  0.2692 -0.5037  0.0062
 9355SOL    HW139524   0.144   1.841   5.574 -0.5081  2.0737 -0.2675
 9355SOL    HW239525   0.086   1.784   5.454 -0.8126  1.8437 -1.5457
 9356SOL     OW39526   3.204   0.043  17.364 -0.5657 -0.3374 -0.4313
 9356SOL    HW139527   3.222   0.081  17.278  4.6799 -0.6201  0.5413
 9356SOL    HW239528   3.289   0.046  17.408 -1.6183 -2.6890  1.7585
 9357SOL     OW39529   2.957   1.968   3.724  0.6828  0.0040  0.1920
 9357SOL    HW139530   3.009   2.011   3.792  0.9030  0.3321 -0.1798
 9357SOL    HW239531   2.944   1.891   3.780  2.4652 -0.3545  0.1159
 9358SOL     OW39532   3.363   2.262  11.003  0.0047 -0.1516 -0.3088
 9358SOL    HW139533   3.446   2.266  11.050 -1.3151 -0.6738  2.0711
 9358SOL    HW239534   3.319   2.190  11.048 -0.1227 -0.9766 -1.7485
 9359SOL     OW39535   1.711   0.621  12.704 -0.1933 -0.4345  0.2999
 9359SOL    HW139536   1.639   0.605  12.643  0.0665  0.4691 -0.2456
 9359SOL    HW239537   1.684   0.711  12.726  1.8186 -0.3350  2.3519
 9360SOL     OW39538   2.543   0.755   8.382  0.7486  0.0009  0.2290
 9360SOL    HW139539   2.451   0.746   8.359  0.7438  1.2165 -0.2649
 9360SOL    HW239540   2.578   0.778   8.295 -2.2054 -1.1120 -1.2451
 9361SOL     OW39541   3.614   0.811   7.159  0.0411  0.1503  0.1481
 9361SOL    HW139542   3.580   0.879   7.217 -0.4869 -1.9940  2.3223
 9361SOL    HW239543   3.658   0.756   7.224 -1.9661 -2.1075 -0.4193
 9362SOL     OW39544   1.492   0.928   9.521  0.0341 -0.2626 -0.1404
 9362SOL    HW139545   1.521   0.965   9.438  1.7210 -2.3328 -0.4576
 9362SOL    HW239546   1.436   0.857   9.492 -0.2329  0.3976 -1.2421
 9363SOL     OW39547   2.146   2.663   4.160  0.2696  0.0720 -0.1243
 9363SOL    HW139548   2.097   2.731   4.113 -0.2256  0.7402  1.3567
 9363SOL    HW239549   2.167   2.612   4.082 -0.1614 -1.1837  0.5846
 9364SOL     OW39550   2.185   4.321   0.079 -0.1015 -0.0576  0.0217
 9364SOL    HW139551   2.256   4.270   0.039  0.7957  2.5973 -1.7360
 9364SOL    HW239552   2.224   4.343   0.164  0.2686 -0.7017  0.0239
 9365SOL     OW39553   3.511   2.699  16.582 -0.3527 -0.0994 -0.4488
 9365SOL    HW139554   3.476   2.698  16.671  0.2749  3.0843 -0.1353
 9365SOL    HW239555   3.582   2.636  16.591 -0.5925 -0.3743 -0.4981
 9366SOL     OW39556   3.749   0.303   3.814 -0.1362 -0.3455  0.1474
 9366SOL    HW139557   3.654   0.293   3.817 -0.1997  0.5245  0.7398
 9366SOL    HW239558   3.775   0.241   3.882  0.3811  0.5284  0.7446
 9367SOL     OW39559   1.958   3.607   1.585  0.4784  1.0732  0.2720
 9367SOL    HW139560   1.905   3.578   1.511 -1.0534  0.9408  1.4129
 9367SOL    HW239561   1.982   3.525   1.630 -1.9676 -1.7006 -3.4474
 9368SOL     OW39562   3.418   3.030   2.155  0.4078 -0.4909 -0.0333
 9368SOL    HW139563   3.325   3.020   2.136  0.6672 -1.3113 -0.8415
 9368SOL    HW239564   3.454   2.958   2.103  0.9681  0.0285 -0.3668
 9369SOL     OW39565   0.750   1.339   0.588  0.4108 -0.7123  0.4854
 9369SOL    HW139566   0.795   1.291   0.658 -0.0884  0.5366  1.6527
 9369SOL    HW239567   0.817   1.332   0.520  0.2339  1.9814  0.0241
 9370SOL     OW39568   0.586   1.795   2.633 -0.0392 -0.5113  0.5301
 9370SOL    HW139569   0.518   1.736   2.599  0.5553 -1.1915  0.5028
 9370SOL    HW239570   0.646   1.725   2.658 -0.4587 -1.3315 -0.7005
 9371SOL     OW39571   3.426   0.351   4.439 -0.0272 -0.1050 -0.3193
 9371SOL    HW139572   3.446   0.358   4.532  0.0048  1.8181 -0.4647
 9371SOL    HW239573   3.359   0.420   4.435 -1.8903 -1.6501  4.2034
 9372SOL     OW39574   3.957   0.274   8.774  0.0004  0.3470 -0.2351
 9372SOL    HW139575   3.923   0.187   8.755  0.3951  0.3602 -0.9848
 9372SOL    HW239576   3.937   0.284   8.867 -2.2727  1.6039 -0.8669
 9373SOL     OW39577   4.523   1.743   3.151  0.4191  0.2663  0.3998
 9373SOL    HW139578   4.466   1.666   3.142 -0.7129  1.0420  0.9932
 9373SOL    HW239579   4.465   1.803   3.197  0.0686  0.3221 -0.1084
 9374SOL     OW39580   3.788   2.203   4.384  0.3833 -0.1819  0.0127
 9374SOL    HW139581   3.881   2.182   4.373  0.3732  0.9315 -2.1453
 9374SOL    HW239582   3.753   2.129   4.434 -2.1139 -1.0666 -3.0538
 9375SOL     OW39583   0.733   0.660   1.152  0.1074 -0.2852 -0.2181
 9375SOL    HW139584   0.776   0.590   1.104  0.5086  0.1400 -0.4843
 9375SOL    HW239585   0.747   0.734   1.093 -0.4745 -0.0808 -0.1077
 9376SOL     OW39586   0.916   0.141   7.362  0.3135 -0.0871  0.0029
 9376SOL    HW139587   0.903   0.183   7.447 -0.2587 -2.2843  1.0144
 9376SOL    HW239588   0.836   0.088   7.359  0.5758 -0.5467  1.2133
 9377SOL     OW39589   1.303   1.798   3.128  0.1284 -0.3537  0.0683
 9377SOL    HW139590   1.310   1.805   3.224  1.4359  0.9961 -0.1153
 9377SOL    HW239591   1.336   1.708   3.126 -2.2537 -1.2020 -1.0161
 9378SOL     OW39592   1.651   3.298   3.264 -0.0544  0.3898 -0.0612
 9378SOL    HW139593   1.704   3.270   3.189 -0.6161 -0.8949  0.0186
 9378SOL    HW239594   1.615   3.213   3.290  1.9684 -1.0337 -1.8061
 9379SOL     OW39595   4.500   3.732   7.198  0.7374  0.0164  0.2685
 9379SOL    HW139596   4.583   3.776   7.181 -0.4975  3.1064  2.2399
 9379SOL    HW239597   4.523   3.683   7.278 -0.2178 -0.2718  0.3698
 9380SOL     OW39598   3.736   0.596  17.011  0.2169 -0.0905  0.5081
 9380SOL    HW139599   3.793   0.585  16.934  0.1655  0.7651  0.3540
 9380SOL    HW239600   3.709   0.687  17.021 -1.2757 -0.5373  0.5303
 9381SOL     OW39601   1.533   1.410   8.792  0.4706 -0.0300 -0.1677
 9381SOL    HW139602   1.484   1.489   8.813 -2.1034 -1.5368 -0.4029
 9381SOL    HW239603   1.481   1.344   8.839 -0.0472 -0.6957 -1.6743
 9382SOL     OW39604   0.742   1.322   6.754  0.1863  0.2762  0.6052
 9382SOL    HW139605   0.823   1.272   6.743 -0.1867  0.3383 -2.3865
 9382SOL    HW239606   0.690   1.265   6.812  1.0491 -1.0947  0.0348
 9383SOL     OW39607   1.147   2.193   1.843  0.8730  0.8597  0.8581
 9383SOL    HW139608   1.126   2.168   1.753  1.5951 -1.3535  1.3131
 9383SOL    HW239609   1.179   2.108   1.872 -1.3144  0.4014  1.9903
 9384SOL     OW39610   3.169   3.031   7.388  0.3396  0.0657 -0.3631
 9384SOL    HW139611   3.203   2.999   7.304 -2.0226  0.6306 -1.5479
 9384SOL    HW239612   3.092   3.069   7.346 -1.3582  0.1172  2.7632
 9385SOL     OW39613   2.049   4.534  17.634  0.6594  0.0442 -0.4170
 9385SOL    HW139614   2.030   4.466  17.569 -0.1342  1.2293 -1.4004
 9385SOL    HW239615   2.100   4.476  17.691  0.1104  0.6329  0.6696
 9386SOL     OW39616   0.995   3.799   5.198 -0.1556  0.4795 -0.2994
 9386SOL    HW139617   0.993   3.749   5.280 -1.5878  2.1686  0.7256
 9386SOL    HW239618   1.001   3.729   5.133 -1.9126  0.6642 -0.6631
 9387SOL     OW39619   2.411   0.913   2.971 -0.6790  0.5708  0.1702
 9387SOL    HW139620   2.494   0.929   3.017  0.0866 -2.0922 -0.2747
 9387SOL    HW239621   2.382   0.844   3.030 -0.9425  0.4209 -0.1388
 9388SOL     OW39622   0.454   0.319   2.331  0.2739 -0.2231  0.6006
 9388SOL    HW139623   0.547   0.321   2.306 -0.2940  0.9106 -1.4639
 9388SOL    HW239624   0.423   0.236   2.297  1.0100  0.0149 -0.6616
 9389SOL     OW39625   3.805   1.028  11.514  0.7819  0.4048 -0.4946
 9389SOL    HW139626   3.837   0.972  11.585 -1.6279  1.6049  1.5595
 9389SOL    HW239627   3.806   0.970  11.438  0.6722  0.3173 -0.4285
 9390SOL     OW39628   0.076   3.336  15.317 -0.0490 -0.1814  0.3217
 9390SOL    HW139629   0.082   3.365  15.226 -0.0206 -0.2865  0.2906
 9390SOL    HW239630   0.040   3.250  15.296 -1.6856  0.4093  0.7416
 9391SOL     OW39631   1.357   4.297   4.259 -0.4299 -0.0442 -0.1463
 9391SOL    HW139632   1.302   4.219   4.268 -0.0920 -0.4468 -1.6354
 9391SOL    HW239633   1.377   4.293   4.166 -1.1117 -1.0559 -0.2514
 9392SOL     OW39634   0.021   2.986  15.294 -0.2764 -0.2130 -0.3583
 9392SOL    HW139635   0.005   2.970  15.387  2.5098 -0.2495  0.1298
 9392SOL    HW239636   4.687   3.060  15.278  1.4653  1.4453  0.9194
 9393SOL     OW39637   3.592   1.718  10.905 -0.6627  0.1253 -0.5973
 9393SOL    HW139638   3.648   1.654  10.949  1.5001  2.0524 -0.4835
 9393SOL    HW239639   3.647   1.762  10.840 -1.7308  1.7652 -0.3856
 9394SOL     OW39640   1.664   2.916   2.961  0.6106  0.1473  1.2327
 9394SOL    HW139641   1.716   2.894   3.038  0.9662 -1.0174  0.6611
 9394SOL    HW239642   1.640   2.835   2.915  0.5902 -0.3370  2.1099
 9395SOL     OW39643   0.321   3.176   5.805  0.1756 -0.4217  0.6867
 9395SOL    HW139644   0.373   3.183   5.885  0.0072 -1.1202  0.8555
 9395SOL    HW239645   0.321   3.081   5.798  1.6574 -0.3417 -0.3335
 9396SOL     OW39646   0.983   3.623   4.718  0.3917 -0.4554  0.4598
 9396SOL    HW139647   0.996   3.534   4.685 -2.7853 -0.7839  0.1215
 9396SOL    HW239648   0.975   3.601   4.811  0.8001  0.7207  0.7694
 9397SOL     OW39649   4.362   1.990   5.649  0.4711 -0.3266 -0.0684
 9397SOL    HW139650   4.274   1.952   5.645 -0.2139  1.2423  0.2804
 9397SOL    HW239651   4.367   2.006   5.743 -0.0051  0.3748 -0.1647
 9398SOL     OW39652   2.024   1.200  10.214 -0.3097  0.3479  0.5415
 9398SOL    HW139653   2.115   1.178  10.196 -0.6572 -1.6442  1.2639
 9398SOL    HW239654   2.028   1.279  10.267  0.5440 -0.1771  1.2527
 9399SOL     OW39655   0.763   1.171   7.242 -0.4599 -0.3572  0.1399
 9399SOL    HW139656   0.841   1.198   7.193  0.0867  0.1852  1.3064
 9399SOL    HW239657   0.687   1.187   7.186 -0.1030  0.0847 -0.2190
 9400SOL     OW39658   2.508   4.626   6.309 -0.2353 -0.4230  0.5383
 9400SOL    HW139659   2.602   4.614   6.314 -0.1355  0.2072  0.2422
 9400SOL    HW239660   2.475   4.617   6.398  0.9833 -0.3504  0.9979
 9401SOL     OW39661   2.906   0.810  16.424 -0.3316  0.9983 -0.2358
 9401SOL    HW139662   2.942   0.870  16.489 -0.9162 -0.8055  1.7475
 9401SOL    HW239663   2.851   0.873  16.378 -1.9117  0.0243  0.3171
 9402SOL     OW39664   4.345   3.670  13.408 -0.2329  0.6585  0.0245
 9402SOL    HW139665   4.275   3.734  13.398 -2.0821 -1.1369  1.2727
 9402SOL    HW239666   4.402   3.732  13.453  1.5575 -0.4130 -0.7624
 9403SOL     OW39667   2.241   0.556   6.678  0.5355 -0.4087 -0.2733
 9403SOL    HW139668   2.249   0.651   6.666 -2.9659 -0.1533 -0.8430
 9403SOL    HW239669   2.154   0.548   6.717  0.7210 -0.7508  0.0622
 9404SOL     OW39670   1.782   2.980   5.433  0.5273 -0.3374 -0.0791
 9404SOL    HW139671   1.810   3.063   5.472  0.7403 -0.9775  1.1459
 9404SOL    HW239672   1.865   2.960   5.389  0.7471 -0.6138  0.4630
 9405SOL     OW39673   2.196   1.848  14.772 -0.6610 -0.1458  0.2547
 9405SOL    HW139674   2.270   1.801  14.733 -2.1356 -1.7806 -0.5722
 9405SOL    HW239675   2.237   1.908  14.834  0.4355  0.5993 -1.1716
 9406SOL     OW39676   0.795   2.570  13.528 -0.3950  0.2823 -0.5453
 9406SOL    HW139677   0.850   2.603  13.600  0.3862 -2.4127  0.1021
 9406SOL    HW239678   0.859   2.552  13.459 -0.1941  0.7718 -0.4938
 9407SOL     OW39679   1.555   0.746   8.744  0.7354 -0.0239  0.2098
 9407SOL    HW139680   1.592   0.830   8.715 -0.1027  0.5997  0.9105
 9407SOL    HW239681   1.485   0.735   8.680 -0.3963  1.1129  1.2550
 9408SOL     OW39682   4.100   1.928   6.141  0.3587 -0.4106 -0.0123
 9408SOL    HW139683   4.160   1.854   6.151 -0.8678 -1.3072  0.7498
 9408SOL    HW239684   4.044   1.921   6.219  0.4276  0.2526  0.0999
 9409SOL     OW39685   0.801   0.844   0.954  0.0073  0.3830 -0.1577
 9409SOL    HW139686   0.896   0.845   0.951  0.1404  0.8340  3.6329
 9409SOL    HW239687   0.790   0.937   0.973  3.3093  1.1402 -1.9545
 9410SOL     OW39688   2.105   1.618   3.533  0.5943  0.1263  0.3807
 9410SOL    HW139689   2.130   1.536   3.575  0.3329  0.6626  1.5880
 9410SOL    HW239690   2.017   1.637   3.566 -0.0099 -0.3051 -0.9727
 9411SOL     OW39691   2.076   4.347   1.333  0.4131  0.1422 -0.2433
 9411SOL    HW139692   2.101   4.432   1.297 -0.2189 -0.2412 -1.5624
 9411SOL    HW239693   2.000   4.317   1.284 -0.3424 -1.7035  2.0483
 9412SOL     OW39694   1.176   4.474   5.507  0.2977  0.0690 -0.7532
 9412SOL    HW139695   1.116   4.545   5.481 -2.6945 -2.3538 -0.4319
 9412SOL    HW239696   1.118   4.400   5.489 -0.9296  1.2432 -1.6775
 9413SOL     OW39697   4.387   2.135   5.353 -0.1638  0.2559 -0.2212
 9413SOL    HW139698   4.370   2.060   5.410  0.4999  1.0646  1.0261
 9413SOL    HW239699   4.327   2.202   5.385 -1.5660 -0.2473 -1.7762
 9414SOL     OW39700   2.378   4.202   2.235  0.1353  0.1517  0.1277
 9414SOL    HW139701   2.305   4.142   2.249 -0.3220  0.5556 -0.5922
 9414SOL    HW239702   2.424   4.159   2.163  1.7171 -0.8299  1.7152
 9415SOL     OW39703   2.732   4.483   5.688  0.4533 -0.4538 -0.0660
 9415SOL    HW139704   2.707   4.410   5.631  1.6841  0.6204 -1.9620
 9415SOL    HW239705   2.771   4.432   5.759  1.0666  0.7540  0.4581
 9416SOL     OW39706   3.410   1.943  14.021 -0.1521 -0.4030  0.0325
 9416SOL    HW139707   3.386   2.035  14.011 -1.9600 -0.6241  2.1523
 9416SOL    HW239708   3.328   1.894  14.016 -0.9240  0.5634  2.7570
 9417SOL     OW39709   4.226   2.466   4.770 -0.2029 -0.5704 -0.1084
 9417SOL    HW139710   4.241   2.382   4.813 -0.1124 -1.0521 -1.0782
 9417SOL    HW239711   4.240   2.530   4.840  0.3878 -0.6838 -0.1221
 9418SOL     OW39712   2.167   0.878   6.903  0.1139  0.1932  0.3172
 9418SOL    HW139713   2.181   0.798   6.954  3.1605 -0.7040 -1.9542
 9418SOL    HW239714   2.243   0.930   6.930 -0.3546  0.5018  1.0561
 9419SOL     OW39715   2.384   2.791   2.844  0.1189 -0.4042  0.3718
 9419SOL    HW139716   2.322   2.838   2.788  0.4205 -1.3837 -0.8060
 9419SOL    HW239717   2.433   2.745   2.776  2.0346  3.7770 -1.0491
 9420SOL     OW39718   1.944   3.536  16.416  0.4976  0.0817  0.0045
 9420SOL    HW139719   1.878   3.590  16.373  0.7095  0.8417  0.6349
 9420SOL    HW239720   1.930   3.456  16.365  0.8665  1.1636 -1.7996
 9421SOL     OW39721   2.439   4.093   7.194 -0.5481 -0.0208  0.4959
 9421SOL    HW139722   2.417   4.155   7.124  1.1109  0.4575  0.3941
 9421SOL    HW239723   2.519   4.051   7.162 -0.9338 -0.2199 -0.2212
 9422SOL     OW39724   3.942   3.199   5.497  0.1793  0.0771  0.0961
 9422SOL    HW139725   3.929   3.240   5.583  0.3745  1.2273 -0.4283
 9422SOL    HW239726   3.893   3.263   5.445 -1.2189  0.8714  2.3582
 9423SOL     OW39727   1.002   0.575   8.369  0.3339 -0.5950 -0.0849
 9423SOL    HW139728   1.064   0.509   8.338 -1.6342 -2.0682 -0.8845
 9423SOL    HW239729   0.924   0.527   8.397 -0.2209  0.6897  0.5521
 9424SOL     OW39730   1.790   1.528   1.671 -0.1446 -0.7085  0.3705
 9424SOL    HW139731   1.746   1.442   1.672 -2.8130  0.6498 -0.0249
 9424SOL    HW239732   1.795   1.534   1.767 -0.8530 -0.4852  0.3959
 9425SOL     OW39733   3.727   3.567   9.978 -0.6471  0.4271  0.0948
 9425SOL    HW139734   3.793   3.626  10.013  1.1129 -1.3298 -0.2248
 9425SOL    HW239735   3.747   3.482  10.019 -1.9282 -0.0836 -0.3196
 9426SOL     OW39736   1.423   0.492  13.535 -0.2356  0.4756  0.1836
 9426SOL    HW139737   1.425   0.481  13.440  2.1540  1.9050  0.0690
 9426SOL    HW239738   1.357   0.426  13.557  0.3233  0.1969  1.0379
 9427SOL     OW39739   1.225   1.187   1.714  0.4712  0.4142  0.3737
 9427SOL    HW139740   1.215   1.281   1.704 -0.6399  0.2579  0.0799
 9427SOL    HW239741   1.261   1.167   1.627 -0.6984  0.8693 -0.2020
 9428SOL     OW39742   1.299   1.831   4.361 -0.6080  0.7314 -0.0300
 9428SOL    HW139743   1.372   1.893   4.365  0.0660 -0.0429 -0.3595
 9428SOL    HW239744   1.274   1.825   4.269  2.4419 -2.5251 -0.6668
 9429SOL     OW39745   3.406   1.724   9.691  0.4377 -0.1263 -0.1885
 9429SOL    HW139746   3.372   1.772   9.615  0.1131 -0.5665 -0.3226
 9429SOL    HW239747   3.448   1.653   9.644 -1.0254 -1.4297  0.4743
 9430SOL     OW39748   0.365   0.590  11.658 -0.0020  0.1537 -0.4603
 9430SOL    HW139749   0.338   0.669  11.611 -0.1653  1.2581  1.4815
 9430SOL    HW239750   0.289   0.556  11.703  0.0024  1.3028  0.4176
 9431SOL     OW39751   1.935   3.799   0.689  0.5056  0.1505 -0.9024
 9431SOL    HW139752   1.989   3.848   0.752 -1.3406  2.3850 -1.0380
 9431SOL    HW239753   1.959   3.834   0.603  0.3798  0.8892 -0.6424
 9432SOL     OW39754   3.119   3.622   7.205  0.6929 -0.6445  0.5679
 9432SOL    HW139755   3.037   3.584   7.172  0.6504  1.4637 -1.7740
 9432SOL    HW239756   3.141   3.545   7.258  0.1035 -1.0792  0.1801
 9433SOL     OW39757   1.803   3.674  17.280  0.2807  0.2497  0.3283
 9433SOL    HW139758   1.877   3.730  17.306 -1.2588  3.2857 -1.7442
 9433SOL    HW239759   1.742   3.732  17.234  0.1336 -0.1107  0.0684
 9434SOL     OW39760   2.106   4.638  14.815 -0.1590 -0.2699  0.0564
 9434SOL    HW139761   2.041   4.639  14.885 -0.0032 -0.5300  0.2057
 9434SOL    HW239762   2.054   4.637  14.735  0.1346  3.3310 -0.1690
 9435SOL     OW39763   0.819   3.687   8.760 -0.1742  0.2317  0.0563
 9435SOL    HW139764   0.779   3.603   8.782 -0.8376  0.1533 -1.4207
 9435SOL    HW239765   0.882   3.666   8.691  1.0297 -1.3945  1.6333
 9436SOL     OW39766   2.739   4.596   4.622 -0.1408  0.1641 -0.0474
 9436SOL    HW139767   2.724   4.618   4.530  3.2775  0.7818 -0.4369
 9436SOL    HW239768   2.682   4.657   4.670  0.1784  0.2533  0.2193
 9437SOL     OW39769   0.554   4.403   9.861  0.0525  0.5614 -0.0704
 9437SOL    HW139770   0.525   4.394   9.952  0.4500 -0.8108 -0.0814
 9437SOL    HW239771   0.649   4.397   9.866  0.1071 -0.6164 -2.5342
 9438SOL     OW39772   4.138   1.119   4.453 -1.4090 -0.7976  0.1145
 9438SOL    HW139773   4.071   1.183   4.476  1.0565  1.7748  0.1872
 9438SOL    HW239774   4.094   1.070   4.384 -0.5807  1.0303 -1.7496
 9439SOL     OW39775   0.407   0.514   5.753 -0.2187  0.3851 -0.5325
 9439SOL    HW139776   0.479   0.576   5.739 -0.2451  0.5341  0.0087
 9439SOL    HW239777   0.363   0.534   5.670  0.4969 -1.5721 -1.3741
 9440SOL     OW39778   4.028   2.589  16.603  0.2372  0.2033 -0.1157
 9440SOL    HW139779   4.030   2.652  16.676  1.8405 -0.0372  0.0483
 9440SOL    HW239780   4.116   2.558  16.622  0.4735  0.4251 -0.8593
 9441SOL     OW39781   1.111   2.868   2.151 -0.7019  0.6574  0.2337
 9441SOL    HW139782   1.054   2.825   2.215  0.6794  2.2318  2.5201
 9441SOL    HW239783   1.114   2.820   2.069 -0.3528  1.2006 -0.0685
 9442SOL     OW39784   0.589   4.381  13.069  0.1543  0.3800  0.1472
 9442SOL    HW139785   0.587   4.477  13.071 -0.2003  0.3534  1.0087
 9442SOL    HW239786   0.559   4.376  12.979  0.1713 -0.6915  0.2047
 9443SOL     OW39787   0.397   4.186  14.430  0.6531  0.0445  0.7104
 9443SOL    HW139788   0.463   4.123  14.402  0.8648  0.4480  0.2969
 9443SOL    HW239789   0.415   4.263  14.376 -3.3141  0.1259 -0.5070
 9444SOL     OW39790   1.398   0.529  17.660 -0.5437 -0.4182 -0.1962
 9444SOL    HW139791   1.440   0.453   0.003 -1.6604  0.2989  2.2819
 9444SOL    HW239792   1.424   0.529  17.568 -1.1059 -1.0298 -0.3517
 9445SOL     OW39793   3.049   2.027   4.830 -0.2265 -0.1021 -0.3857
 9445SOL    HW139794   3.024   2.102   4.885 -0.1354 -0.2302 -0.1701
 9445SOL    HW239795   3.047   2.057   4.739  2.1531  0.7931 -0.1315
 9446SOL     OW39796   1.250   1.351   8.162 -0.6866 -0.5854  0.3719
 9446SOL    HW139797   1.253   1.314   8.073 -4.8242 -0.6491  0.2568
 9446SOL    HW239798   1.344   1.361   8.176 -0.7976 -0.7218  1.1873
 9447SOL     OW39799   0.190   3.234  10.668  0.7692 -0.0037  0.0578
 9447SOL    HW139800   0.217   3.288  10.743  1.2492  0.1148 -0.2046
 9447SOL    HW239801   0.261   3.211  10.610  1.2937  0.2405  0.6036
 9448SOL     OW39802   1.376   2.794   8.057  0.1177  0.3694  0.0035
 9448SOL    HW139803   1.360   2.730   7.988 -2.5388  1.1514 -0.0999
 9448SOL    HW239804   1.284   2.818   8.073  0.2521 -1.0299  2.7805
 9449SOL     OW39805   3.240   2.129   1.778  0.5350  0.6305 -0.1675
 9449SOL    HW139806   3.154   2.163   1.755 -0.0909  0.1293  1.4333
 9449SOL    HW239807   3.268   2.100   1.691  0.6458 -0.4989  0.2388
 9450SOL     OW39808   2.179   2.450   7.554 -0.9312 -0.1168 -0.7850
 9450SOL    HW139809   2.267   2.445   7.592 -0.4283  1.8637 -1.7298
 9450SOL    HW239810   2.158   2.356   7.553  0.7205 -0.5039 -0.3070
 9451SOL     OW39811   1.193   0.773   5.724 -0.1516 -0.0221  0.3114
 9451SOL    HW139812   1.239   0.701   5.681 -0.9746 -0.0477 -0.5476
 9451SOL    HW239813   1.265   0.830   5.750 -0.0070 -0.2745  0.4534
 9452SOL     OW39814   1.334   2.938   0.506  0.6874 -0.0871  0.0293
 9452SOL    HW139815   1.281   3.017   0.501 -2.1425 -1.8678  2.1772
 9452SOL    HW239816   1.274   2.876   0.549  1.7491 -1.1546 -0.0107
 9453SOL     OW39817   4.093   4.359   6.048  0.6070  0.1731  0.2752
 9453SOL    HW139818   4.037   4.434   6.065 -0.8544 -0.6725 -0.7997
 9453SOL    HW239819   4.180   4.395   6.031  0.7788 -0.0362  0.7110
 9454SOL     OW39820   4.483   4.562  15.811  0.1253 -0.1669  0.0993
 9454SOL    HW139821   4.424   4.487  15.819 -0.3061 -0.0586 -2.0224
 9454SOL    HW239822   4.557   4.505  15.790  1.4705  2.1306 -1.3645
 9455SOL     OW39823   2.612   3.125   8.666 -0.5423  0.5895  0.3167
 9455SOL    HW139824   2.596   3.219   8.665 -0.4847  0.6140  1.3512
 9455SOL    HW239825   2.532   3.091   8.705  0.6060 -0.3972  1.8425
 9456SOL     OW39826   3.914   1.083   4.769  0.3805 -0.8971  0.7931
 9456SOL    HW139827   3.913   1.162   4.713 -3.0708 -3.0112 -2.0998
 9456SOL    HW239828   3.871   1.022   4.708  1.4674  1.1679 -2.0692
 9457SOL     OW39829   2.164   3.572   2.979 -0.5421 -0.0904 -0.1483
 9457SOL    HW139830   2.118   3.655   2.966  0.6438  0.4599 -0.8908
 9457SOL    HW239831   2.191   3.572   3.071  3.3143 -1.9817 -1.2639
 9458SOL     OW39832   2.361   0.262  15.408 -0.8360  0.2411 -0.1274
 9458SOL    HW139833   2.343   0.268  15.502 -0.7583  0.1316 -0.1057
 9458SOL    HW239834   2.399   0.175  15.402  0.2254  0.6970 -0.0267
 9459SOL     OW39835   2.114   1.112   4.689 -0.3022  0.2025  0.1610
 9459SOL    HW139836   2.126   1.030   4.642 -3.8833  0.6815 -1.5797
 9459SOL    HW239837   2.026   1.098   4.722 -0.5378 -0.4635 -0.7640
 9460SOL     OW39838   4.587   2.646   7.901 -0.2373  0.4960 -0.4656
 9460SOL    HW139839   4.586   2.550   7.897  2.9966  0.4707 -0.5680
 9460SOL    HW239840   4.585   2.653   7.996 -4.7593  0.5169 -0.5872
 9461SOL     OW39841   0.760   3.006   1.611  0.2555 -0.3191 -0.2752
 9461SOL    HW139842   0.791   2.921   1.642  0.7564  0.6772  1.9510
 9461SOL    HW239843   0.818   3.063   1.663 -0.6392 -1.0376  1.5147
 9462SOL     OW39844   3.457   2.107   5.167  0.2142 -0.2101  0.0584
 9462SOL    HW139845   3.402   2.086   5.091 -1.1812  1.4327  0.6253
 9462SOL    HW239846   3.530   2.153   5.126 -0.5700  0.2329 -0.8300
 9463SOL     OW39847   4.253   2.463   6.512  0.2454  0.0898  0.1356
 9463SOL    HW139848   4.307   2.489   6.586  1.8479  1.8486 -1.6497
 9463SOL    HW239849   4.325   2.426   6.462  0.8863  2.2248 -0.5426
 9464SOL     OW39850   4.580   0.235   6.235  0.1977 -0.1917 -0.2032
 9464SOL    HW139851   4.612   0.256   6.147  2.3190 -0.2736  0.5482
 9464SOL    HW239852   4.594   0.317   6.282  0.6595 -0.5373  0.2480
 9465SOL     OW39853   2.768   0.284   2.245  0.1334  0.3283  0.2033
 9465SOL    HW139854   2.819   0.306   2.167 -0.2230 -0.2786 -0.2016
 9465SOL    HW239855   2.826   0.310   2.317 -0.6874  3.2331 -0.1948
 9466SOL     OW39856   1.506   0.743  16.685  0.0330  0.1666 -0.4567
 9466SOL    HW139857   1.498   0.838  16.694  0.3193 -0.0413  1.9587
 9466SOL    HW239858   1.591   0.734  16.728 -1.1735  3.7851  2.5620
 9467SOL     OW39859   0.985   0.323   4.904 -0.2492 -0.1522  0.1705
 9467SOL    HW139860   1.062   0.287   4.949 -2.6369 -3.3198  1.6765
 9467SOL    HW239861   0.946   0.245   4.865  1.6161 -1.6589  1.2614
 9468SOL     OW39862   0.642   1.035   6.763  0.0337 -0.2867 -0.2999
 9468SOL    HW139863   0.649   1.000   6.674  1.5734 -2.6329  0.7432
 9468SOL    HW239864   0.720   1.009   6.812 -0.2009  0.3707  0.4170
 9469SOL     OW39865   3.144   4.249   9.543 -0.4307  0.6333  0.1275
 9469SOL    HW139866   3.215   4.186   9.558  0.4389  1.9665  1.6343
 9469SOL    HW239867   3.073   4.233   9.604  0.1850 -0.6449  0.5182
 9470SOL     OW39868   2.152   2.181  12.833 -0.2514  0.2024 -0.1491
 9470SOL    HW139869   2.108   2.257  12.871 -0.0054 -0.1098  0.7675
 9470SOL    HW239870   2.087   2.135  12.781  0.4780 -0.7346 -0.2384
 9471SOL     OW39871   2.435   2.868  11.096  0.0683 -0.1528 -0.0285
 9471SOL    HW139872   2.479   2.795  11.053 -1.1175 -0.9034  0.0307
 9471SOL    HW239873   2.343   2.871  11.068 -0.3717 -0.6904  1.3773
 9472SOL     OW39874   1.587   0.960   3.217 -0.6872 -0.7218  0.2872
 9472SOL    HW139875   1.541   0.928   3.139 -2.2660  1.6109  0.2646
 9472SOL    HW239876   1.549   0.915   3.292 -1.7604 -0.9858 -0.4248
 9473SOL     OW39877   2.623   3.068  11.119 -0.9797 -0.3918 -0.4273
 9473SOL    HW139878   2.542   3.018  11.123 -2.3598  1.8620 -0.0217
 9473SOL    HW239879   2.676   3.011  11.064 -2.3277 -1.9624 -0.0995
 9474SOL     OW39880   3.389   1.828  12.401 -0.2551 -0.3065 -0.0451
 9474SOL    HW139881   3.396   1.745  12.353 -2.9852 -0.5490 -0.0289
 9474SOL    HW239882   3.379   1.807  12.494 -2.0348  2.6004  0.4325
 9475SOL     OW39883   2.560   0.868   5.165  0.5069 -0.3851  0.2486
 9475SOL    HW139884   2.561   0.818   5.083 -1.6876 -0.4294  0.2622
 9475SOL    HW239885   2.484   0.925   5.157 -0.0073 -1.1086 -0.0813
 9476SOL     OW39886   4.245   0.623   3.021  0.5551 -0.1272 -0.1435
 9476SOL    HW139887   4.314   0.682   3.054 -2.2052  0.7370  4.0318
 9476SOL    HW239888   4.203   0.677   2.954  0.5618 -1.5166 -1.2534
 9477SOL     OW39889   1.793   0.442  12.192  0.0630 -0.5380 -0.0436
 9477SOL    HW139890   1.819   0.352  12.176 -0.0633 -0.6907  0.6288
 9477SOL    HW239891   1.782   0.436  12.287 -1.7197 -1.4892 -0.3087
 9478SOL     OW39892   2.510   3.830   8.237 -0.6404 -0.1828 -0.0741
 9478SOL    HW139893   2.562   3.871   8.167  0.3228  0.5975  1.1116
 9478SOL    HW239894   2.455   3.905   8.262 -0.2550  0.1255 -0.1538
 9479SOL     OW39895   1.731   2.264   3.283 -0.2704  0.3987  0.2870
 9479SOL    HW139896   1.684   2.227   3.208  0.2888  0.3340 -0.0322
 9479SOL    HW239897   1.751   2.184   3.332  1.0594  1.2993  1.2241
 9480SOL     OW39898   1.883   2.844   3.565  0.2919 -0.2473  0.0652
 9480SOL    HW139899   1.902   2.883   3.480 -0.1750 -0.6435 -0.2148
 9480SOL    HW239900   1.959   2.788   3.578 -1.0877 -1.7005  1.8006
 9481SOL     OW39901   0.693   2.093  13.554  0.4118 -0.0736  0.6960
 9481SOL    HW139902   0.682   2.095  13.459  0.2364 -0.7340  0.7020
 9481SOL    HW239903   0.714   2.185  13.570  0.5845 -0.1312  0.7997
 9482SOL     OW39904   0.583   1.033   7.744  0.2028 -0.5537  0.2034
 9482SOL    HW139905   0.632   0.971   7.691  1.2836  0.3496  0.1395
 9482SOL    HW239906   0.527   1.072   7.677  0.8255 -2.0560 -1.1772
 9483SOL     OW39907   3.127   3.507   8.387 -0.4822 -0.4038 -0.1883
 9483SOL    HW139908   3.217   3.501   8.356  0.1117 -1.4877  1.6945
 9483SOL    HW239909   3.147   3.537   8.476 -2.0445 -0.3569  0.1489
 9484SOL     OW39910   3.311   4.077  14.359  0.1313 -0.5023  0.1664
 9484SOL    HW139911   3.393   4.058  14.313  0.6957  0.7253  0.6843
 9484SOL    HW239912   3.250   4.008  14.333  0.8438 -0.4608 -1.6145
 9485SOL     OW39913   4.252   3.530   8.663  0.1985 -0.1498 -0.0176
 9485SOL    HW139914   4.170   3.485   8.641 -1.1194  2.9547 -1.4154
 9485SOL    HW239915   4.264   3.589   8.589 -0.4878 -1.0516 -0.8503
 9486SOL     OW39916   4.498   3.318   5.584 -0.1114  0.7506 -0.8156
 9486SOL    HW139917   4.510   3.314   5.679 -0.0609  2.8735 -0.7422
 9486SOL    HW239918   4.414   3.276   5.566 -0.1445  0.5927 -0.2964
 9487SOL     OW39919   4.026   2.035  10.558  0.3035  0.3683 -0.4099
 9487SOL    HW139920   4.106   2.083  10.537 -0.8501  2.2928 -0.3742
 9487SOL    HW239921   4.050   1.971  10.624 -1.2650  2.8646  2.5768
 9488SOL     OW39922   1.073   2.625  17.151  0.2328  0.2864 -0.2652
 9488SOL    HW139923   1.035   2.628  17.063  0.0633 -0.8416 -0.2294
 9488SOL    HW239924   1.100   2.717  17.153 -0.4578  0.4694  0.8301
 9489SOL     OW39925   0.202   2.414   2.311 -0.4489 -0.2843  0.2949
 9489SOL    HW139926   0.295   2.395   2.304 -0.7225 -1.4330 -0.2282
 9489SOL    HW239927   0.164   2.365   2.238  1.5792 -0.4039 -0.6544
 9490SOL     OW39928   0.547   2.052  10.568 -0.1472  0.0939 -0.3091
 9490SOL    HW139929   0.459   2.020  10.589 -0.5996  2.0241  0.7557
 9490SOL    HW239930   0.599   1.977  10.595  1.0654  1.4613  1.1208
 9491SOL     OW39931   2.848   0.537   4.720  0.4693 -0.3798  0.2044
 9491SOL    HW139932   2.921   0.490   4.760  0.7069  0.3854  0.6658
 9491SOL    HW239933   2.896   0.579   4.649 -0.0235 -1.2893 -0.6689
 9492SOL     OW39934   0.653   4.350   4.349 -0.5718 -0.2542 -0.3943
 9492SOL    HW139935   0.703   4.405   4.410  1.1227 -0.3688 -1.6705
 9492SOL    HW239936   0.580   4.409   4.329  0.0692  0.4458 -0.6863
 9493SOL     OW39937   4.121   4.103   8.449  0.5064 -0.0243  0.6294
 9493SOL    HW139938   4.074   4.020   8.450  1.1391 -0.3885  0.4664
 9493SOL    HW239939   4.118   4.137   8.538 -0.3231  0.9767  0.2090
 9494SOL     OW39940   2.797   2.141  15.523 -0.2596  0.1637 -0.3147
 9494SOL    HW139941   2.729   2.075  15.515  0.1142 -0.4575  1.6143
 9494SOL    HW239942   2.837   2.138  15.436 -0.9719 -0.4054 -0.6177
 9495SOL     OW39943   3.724   3.462   8.823 -0.0404 -0.0931 -0.5900
 9495SOL    HW139944   3.760   3.506   8.900 -2.2112 -0.9589  0.9014
 9495SOL    HW239945   3.649   3.520   8.812 -1.1920 -1.3488  0.6589
 9496SOL     OW39946   1.365   3.303  13.936 -0.5499  0.0317  0.0370
 9496SOL    HW139947   1.311   3.224  13.935 -0.9517  0.3180 -0.6381
 9496SOL    HW239948   1.363   3.330  14.028 -2.3902 -0.0892  0.0345
 9497SOL     OW39949   1.418   1.204  11.096  0.0126 -0.1728 -0.1801
 9497SOL    HW139950   1.393   1.125  11.145 -2.4632 -0.0327 -1.2259
 9497SOL    HW239951   1.391   1.179  11.008  0.3410 -0.8769 -0.0827
 9498SOL     OW39952   3.707   3.945   3.459 -0.0918  0.6678  0.0837
 9498SOL    HW139953   3.726   3.918   3.549 -0.1080 -1.2788 -0.4975
 9498SOL    HW239954   3.749   3.866   3.425  0.1663  0.4704  0.8451
 9499SOL     OW39955   1.987   4.139   2.545 -0.8692 -0.3298  0.3525
 9499SOL    HW139956   2.055   4.084   2.505 -0.4307  2.8616 -3.2267
 9499SOL    HW239957   1.921   4.134   2.476  0.1393  0.3064 -0.6557
 9500SOL     OW39958   0.234   2.589   6.922  0.8591 -0.5649  0.2104
 9500SOL    HW139959   0.302   2.642   6.963  0.4685 -0.3506  0.5972
 9500SOL    HW239960   0.282   2.547   6.852  1.1282 -0.7756  0.5203
 9501SOL     OW39961   2.136   0.461   7.930 -0.1174  0.3908  0.0257
 9501SOL    HW139962   2.208   0.403   7.906 -0.8183 -0.2669 -0.5036
 9501SOL    HW239963   2.128   0.497   7.842  2.0282  0.4633 -0.1477
 9502SOL     OW39964   0.327   3.588   9.958  0.9449 -0.1284 -0.2711
 9502SOL    HW139965   0.319   3.588  10.053  2.3713  1.0052 -0.1586
 9502SOL    HW239966   0.278   3.506   9.949 -0.9192  1.0315 -0.7984
 9503SOL     OW39967   1.154   1.212  10.805 -0.3743  0.3783 -0.2299
 9503SOL    HW139968   1.065   1.227  10.836 -1.3333 -2.6887 -1.5260
 9503SOL    HW239969   1.149   1.226  10.710  0.1253 -0.6218 -0.4022
 9504SOL     OW39970   2.514   3.253   7.483  0.0488 -0.2112  0.2797
 9504SOL    HW139971   2.465   3.221   7.558  0.0590  0.4077  0.5514
 9504SOL    HW239972   2.542   3.164   7.462 -2.4249 -0.9316  0.0817
 9505SOL     OW39973   3.909   1.798   0.215  0.0022  0.5000 -0.5531
 9505SOL    HW139974   3.958   1.716   0.207 -0.4672 -0.1036  2.4877
 9505SOL    HW239975   3.841   1.769   0.276  0.6547 -0.7111 -0.3830
 9506SOL     OW39976   2.260   2.340   1.330  0.0051 -0.3628 -0.1062
 9506SOL    HW139977   2.203   2.403   1.375  0.0963 -0.5366  0.2493
 9506SOL    HW239978   2.277   2.378   1.244  0.8911  0.5899  0.4879
 9507SOL     OW39979   0.928   0.633   1.378 -0.0376  0.3629 -0.5298
 9507SOL    HW139980   0.963   0.720   1.364 -1.5756  1.0074 -0.4014
 9507SOL    HW239981   0.906   0.637   1.471 -1.9500 -0.9264 -0.9174
 9508SOL     OW39982   0.273   2.715   4.694  0.4115  0.1099 -0.0623
 9508SOL    HW139983   0.288   2.781   4.762 -2.3722  1.6505 -0.9426
 9508SOL    HW239984   0.215   2.656   4.741  0.7796 -0.0594  0.1807
 9509SOL     OW39985   3.822   3.334   3.481  0.0146  0.0905  0.2239
 9509SOL    HW139986   3.733   3.326   3.517 -0.7400  0.2771 -1.6430
 9509SOL    HW239987   3.873   3.358   3.558  0.3100  1.7958 -0.5223
 9510SOL     OW39988   0.334   3.672   7.489  0.5950  0.5915  0.5021
 9510SOL    HW139989   0.257   3.677   7.432  1.3030 -0.9517 -0.6157
 9510SOL    HW239990   0.354   3.578   7.493 -2.5407 -0.0853  0.3222
 9511SOL     OW39991   0.709   3.847   4.811 -0.3025 -0.1039 -0.0303
 9511SOL    HW139992   0.671   3.788   4.876 -0.6604 -0.5398 -0.6336
 9511SOL    HW239993   0.736   3.783   4.746 -1.0779  0.0620 -0.5199
 9512SOL     OW39994   3.278   4.269   2.927 -0.5108 -0.3271  0.2874
 9512SOL    HW139995   3.259   4.278   2.834  0.6156  3.1297  0.3807
 9512SOL    HW239996   3.283   4.174   2.934  0.9162 -0.2162  0.7948
 9513SOL     OW39997   0.349   2.760   8.762 -0.5242  0.3627  0.1831
 9513SOL    HW139998   0.388   2.673   8.757 -0.4739  0.3901  0.0997
 9513SOL    HW239999   0.262   2.735   8.793  1.5849 -2.5908  3.6795
 9514SOL     OW40000   2.390   3.869   1.926 -0.1145  0.5054 -0.3031
 9514SOL    HW140001   2.314   3.903   1.878 -0.9647 -2.5570 -1.1174
 9514SOL    HW240002   2.417   3.801   1.864 -2.8858 -2.0953  1.3584
 9515SOL     OW40003   0.711   0.553   8.964  0.2722 -0.2257  0.2007
 9515SOL    HW140004   0.768   0.551   8.887  1.5824  1.9992  1.1323
 9515SOL    HW240005   0.643   0.603   8.918  0.8843 -0.2971 -0.7848
 9516SOL     OW40006   2.791   1.102   5.740 -1.2881 -0.1594  0.1505
 9516SOL    HW140007   2.842   1.039   5.791  0.4153  0.3409 -0.9474
 9516SOL    HW240008   2.859   1.170   5.735 -0.1569 -1.1317  2.0888
 9517SOL     OW40009   4.400   4.172   5.145  0.4299  0.3493 -1.1004
 9517SOL    HW140010   4.479   4.139   5.101  1.5019  0.4196  0.7722
 9517SOL    HW240011   4.341   4.160   5.070  0.6098 -2.1636 -0.8441
 9518SOL     OW40012   3.577   4.027   5.453 -0.3465  0.3901 -0.8282
 9518SOL    HW140013   3.622   3.956   5.409 -0.0640  0.5197 -0.7484
 9518SOL    HW240014   3.503   3.976   5.486  0.6248 -0.3239  0.2543
 9519SOL     OW40015   3.081   1.065  10.169 -0.1711  0.2744  0.4056
 9519SOL    HW140016   3.001   1.059  10.223 -0.6030 -1.8192 -0.4423
 9519SOL    HW240017   3.061   1.146  10.123 -0.8568  0.5662  1.2069
 9520SOL     OW40018   1.529   0.832   9.105 -0.1856  0.2973 -0.4764
 9520SOL    HW140019   1.481   0.890   9.164  0.2074 -0.1810  0.3219
 9520SOL    HW240020   1.464   0.800   9.042  1.0623  1.5295 -2.3616
 9521SOL     OW40021   4.381   2.113   7.697 -0.4952 -0.0282 -0.0197
 9521SOL    HW140022   4.350   2.202   7.683  1.2956  0.9694  2.2240
 9521SOL    HW240023   4.343   2.088   7.613 -0.2216  1.2643 -0.5125
 9522SOL     OW40024   0.870   1.014   4.043  0.6202  0.0033  0.1006
 9522SOL    HW140025   0.803   0.946   4.056  0.9760 -0.4620 -0.5035
 9522SOL    HW240026   0.907   1.030   4.130 -0.4150  0.7607  0.4064
 9523SOL     OW40027   4.617   0.118  10.576  0.0302 -0.2738 -0.0913
 9523SOL    HW140028   4.542   0.161  10.537  1.0709  0.5284 -1.1926
 9523SOL    HW240029   4.590   0.033  10.611  1.3094 -0.3960  0.6219
 9524SOL     OW40030   0.385   0.984   1.535 -0.2794 -0.0775  0.5787
 9524SOL    HW140031   0.339   0.945   1.610 -0.7863 -0.6139 -0.0156
 9524SOL    HW240032   0.317   0.990   1.469 -0.9768 -1.3734  1.1760
 9525SOL     OW40033   2.067   0.216  15.975  0.4622 -0.0681 -0.6127
 9525SOL    HW140034   2.039   0.153  15.909 -0.3380 -1.3744  0.9811
 9525SOL    HW240035   1.986   0.229  16.025  0.0319 -2.9324 -0.5586
 9526SOL     OW40036   3.992   2.175   2.329  0.7755  0.2734  0.0655
 9526SOL    HW140037   4.085   2.191   2.312  0.8285  1.1522  1.1806
 9526SOL    HW240038   3.999   2.121   2.408 -0.2960  0.5305  0.3326
 9527SOL     OW40039   2.795   2.084   7.100 -0.3938  0.4635  0.0647
 9527SOL    HW140040   2.795   2.172   7.062  1.2806  0.3049 -0.3313
 9527SOL    HW240041   2.738   2.034   7.043 -0.3032  1.5438 -0.9605
 9528SOL     OW40042   1.492   4.202   6.747 -0.1048  0.0237  0.2493
 9528SOL    HW140043   1.540   4.278   6.780 -0.1402 -0.0003  0.3564
 9528SOL    HW240044   1.559   4.177   6.683 -0.5173 -2.5568  0.8205
 9529SOL     OW40045   3.250   3.212  13.091  0.2288  0.5248  0.3267
 9529SOL    HW140046   3.234   3.254  13.175 -1.7157  1.4093 -0.4855
 9529SOL    HW240047   3.340   3.180  13.102  0.5739  2.1359  2.2343
 9530SOL     OW40048   2.825   4.276   4.578 -0.4471  0.2607 -0.8735
 9530SOL    HW140049   2.880   4.287   4.500 -1.9101 -0.7714 -2.0592
 9530SOL    HW240050   2.861   4.343   4.636 -0.8764 -1.0586  0.9049
 9531SOL     OW40051   0.226   3.984   8.078 -0.4676  0.5290  0.2673
 9531SOL    HW140052   0.311   4.020   8.102 -0.2604  0.3456 -0.1884
 9531SOL    HW240053   0.198   4.058   8.023 -1.6452 -2.5909 -3.3863
 9532SOL     OW40054   4.576   2.516   8.301  0.1517 -0.4168  0.1351
 9532SOL    HW140055   4.548   2.586   8.242  1.2186  1.1345  1.4650
 9532SOL    HW240056   4.664   2.497   8.267  0.1328  0.9047 -0.6921
 9533SOL     OW40057   3.559   3.538   2.116  0.4770 -0.0123  0.3057
 9533SOL    HW140058   3.533   3.447   2.129 -0.1405  0.4833  2.4933
 9533SOL    HW240059   3.479   3.579   2.083  0.4641 -0.4917 -0.2650
 9534SOL     OW40060   1.820   0.812   6.932  0.4373  0.2899 -0.0242
 9534SOL    HW140061   1.821   0.813   7.028  0.2541 -0.0754 -0.0183
 9534SOL    HW240062   1.909   0.785   6.910  0.4796  1.5922 -1.5226
 9535SOL     OW40063   4.204   1.319   1.361  0.1028  0.0630 -0.2899
 9535SOL    HW140064   4.283   1.296   1.312 -1.7313 -0.9776 -2.7471
 9535SOL    HW240065   4.240   1.318   1.450  0.5486 -1.2626 -0.4878
 9536SOL     OW40066   1.291   3.210   7.111  0.2516  0.2923  0.4469
 9536SOL    HW140067   1.293   3.200   7.016 -2.7939  0.6199  0.3275
 9536SOL    HW240068   1.307   3.120   7.139 -2.4809 -0.0793  0.8789
 9537SOL     OW40069   3.309   3.661   3.591 -0.3105  0.3022  0.1259
 9537SOL    HW140070   3.375   3.730   3.581  0.1908 -0.2649 -0.4645
 9537SOL    HW240071   3.314   3.657   3.686 -3.2808 -1.0500  0.2154
 9538SOL     OW40072   1.229   4.082   4.916  0.0410 -0.2656  0.3074
 9538SOL    HW140073   1.223   4.043   4.829 -2.2070  1.2875 -0.2545
 9538SOL    HW240074   1.195   4.009   4.967  0.4590  1.4665  3.0850
 9539SOL     OW40075   3.955   1.418   5.329  0.1435 -0.1804 -0.2777
 9539SOL    HW140076   3.932   1.370   5.408 -1.4051 -1.1765 -1.3326
 9539SOL    HW240077   3.869   1.415   5.288  1.3954  2.4079 -3.0973
 9540SOL     OW40078   3.225   3.301  15.036  0.4366  0.2135 -0.3427
 9540SOL    HW140079   3.171   3.285  15.113 -0.3799 -1.0387 -1.1592
 9540SOL    HW240080   3.264   3.387  15.052  0.9895  0.4193 -2.6771
 9541SOL     OW40081   2.453   2.768  17.496 -0.2481 -0.4627  0.0112
 9541SOL    HW140082   2.362   2.748  17.478 -1.0730  3.0815  0.3160
 9541SOL    HW240083   2.500   2.713  17.433 -1.6818 -2.0175  0.3061
 9542SOL     OW40084   2.717   2.556   1.479  0.3309 -0.0443 -0.0058
 9542SOL    HW140085   2.754   2.618   1.541  1.2497  0.8511 -1.4631
 9542SOL    HW240086   2.629   2.590   1.464  0.3483  0.2887  0.6669
 9543SOL     OW40087   1.150   0.021   9.791 -0.1985  0.1622 -0.1005
 9543SOL    HW140088   1.228   4.706   9.750  0.6154  1.3999  0.2475
 9543SOL    HW240089   1.099   0.058   9.719  1.2383  1.9061 -0.2277
 9544SOL     OW40090   2.982   0.278   7.018  0.5371 -0.0886  0.3577
 9544SOL    HW140091   3.056   0.320   7.063  0.8455  0.0559 -0.2811
 9544SOL    HW240092   2.936   0.353   6.979  0.4631  0.2563  1.1043
 9545SOL     OW40093   0.352   3.800   8.550 -0.0631 -0.0656  0.2814
 9545SOL    HW140094   0.442   3.772   8.533  0.5093  1.8193  0.2557
 9545SOL    HW240095   0.341   3.784   8.644 -0.9321  1.7959  0.5099
 9546SOL     OW40096   3.370   3.447   0.143  0.0199  0.4227 -0.3989
 9546SOL    HW140097   3.424   3.514   0.185 -1.0140  0.9079  0.1455
 9546SOL    HW240098   3.280   3.473   0.158  0.1056 -0.5648  1.7629
 9547SOL     OW40099   3.194   3.045   3.035  0.4913 -0.5459 -0.3178
 9547SOL    HW140100   3.287   3.023   3.041  0.6979  0.9440  1.7819
 9547SOL    HW240101   3.177   3.043   3.129  1.1071  1.1299 -0.1767
 9548SOL     OW40102   0.676   0.446   3.019  0.5209 -0.4084 -0.5233
 9548SOL    HW140103   0.626   0.374   2.979  0.5831 -1.7430  1.8007
 9548SOL    HW240104   0.768   0.423   3.008  0.5972  0.1811 -1.0459
 9549SOL     OW40105   0.835   4.539   9.533 -0.1731 -0.3597  0.0927
 9549SOL    HW140106   0.823   4.607   9.468  1.0334  0.7955  1.0704
 9549SOL    HW240107   0.926   4.518   9.511  0.3944  0.9708  1.1459
 9550SOL     OW40108   0.195   3.668   3.658  0.7168  0.4414  0.0980
 9550SOL    HW140109   0.195   3.585   3.610 -1.7109  0.8835 -0.6339
 9550SOL    HW240110   0.120   3.652   3.716 -1.4500  1.4557 -2.4712
 9551SOL     OW40111   4.243   0.208   4.035 -0.0620  0.2425 -0.5365
 9551SOL    HW140112   4.267   0.186   4.125  2.0498  0.3022 -1.0841
 9551SOL    HW240113   4.224   0.300   4.051 -1.9976 -0.6003  2.0018
 9552SOL     OW40114   4.148   2.733  14.983  0.4335 -0.1305  0.2405
 9552SOL    HW140115   4.242   2.720  14.971  1.3916  3.4199  3.5166
 9552SOL    HW240116   4.116   2.737  14.893 -0.8866 -2.5305  0.6237
 9553SOL     OW40117   1.618   2.835   0.684 -0.1504 -0.5084  1.1282
 9553SOL    HW140118   1.664   2.767   0.635  0.6736 -0.9693  2.5346
 9553SOL    HW240119   1.691   2.879   0.727  0.2913 -1.2541  1.1337
 9554SOL     OW40120   1.416   3.529   7.741  0.7382  0.0022  0.5227
 9554SOL    HW140121   1.481   3.557   7.805  0.2747  1.2182  0.4607
 9554SOL    HW240122   1.391   3.611   7.699 -0.4486 -1.3985 -1.4878
 9555SOL     OW40123   0.150   4.428   3.429 -0.1235 -0.5225 -0.1381
 9555SOL    HW140124   0.153   4.351   3.487  0.9574 -0.5942 -0.2777
 9555SOL    HW240125   0.072   4.477   3.454  1.6877  2.5812 -0.5415
 9556SOL     OW40126   3.121   4.651   6.913 -0.1408  0.0908  0.2847
 9556SOL    HW140127   3.115   4.602   6.831  1.3030  0.7262 -0.2055
 9556SOL    HW240128   3.153   4.574   6.960  1.0883  0.3860 -0.0765
 9557SOL     OW40129   3.027   0.293   3.712  0.5143  0.0231 -0.3412
 9557SOL    HW140130   2.996   0.289   3.802  0.8353 -0.9708 -0.2700
 9557SOL    HW240131   2.944   0.285   3.666  2.0678 -1.0579 -3.0007
 9558SOL     OW40132   1.619   0.505  16.918  0.3350 -0.0564  0.4038
 9558SOL    HW140133   1.666   0.453  16.983 -0.0243 -0.1026  0.6259
 9558SOL    HW240134   1.668   0.587  16.915  1.2116 -0.5772  0.4139
 9559SOL     OW40135   3.371   3.666  11.842  0.7374  0.4274  0.0978
 9559SOL    HW140136   3.282   3.699  11.855  0.7184  0.3069  0.2815
 9559SOL    HW240137   3.367   3.577  11.878 -2.9038  0.9615  1.0888
 9560SOL     OW40138   0.152   0.391   3.774  0.5779  0.0948  0.2563
 9560SOL    HW140139   0.231   0.399   3.721  0.5693 -0.0331  0.2234
 9560SOL    HW240140   0.147   0.483   3.797  1.0978  0.0564  0.5126
 9561SOL     OW40141   3.987   3.068  13.319  0.3678 -0.6519 -0.0082
 9561SOL    HW140142   4.065   3.099  13.273  0.8143 -2.2844 -0.3500
 9561SOL    HW240143   3.955   3.146  13.363 -1.4001 -1.4699  0.1562
 9562SOL     OW40144   2.717   2.006  13.058  0.6984  0.5196  0.2398
 9562SOL    HW140145   2.630   1.967  13.047  1.0686 -0.6793  1.4833
 9562SOL    HW240146   2.708   2.027  13.151 -2.1549 -0.0155  0.0857
 9563SOL     OW40147   1.325   3.317   4.693 -0.4534  0.1299  0.2096
 9563SOL    HW140148   1.355   3.403   4.723  0.1049  0.6889 -1.9174
 9563SOL    HW240149   1.406   3.268   4.683 -0.6356  0.1287 -1.2625
 9564SOL     OW40150   3.240   4.646   3.556 -0.2685 -0.4426  0.1729
 9564SOL    HW140151   3.284   4.595   3.625  0.6866 -0.7881 -0.6836
 9564SOL    HW240152   3.298   4.721   3.544 -0.4969  0.1017  2.4382
 9565SOL     OW40153   1.440   2.751   4.128 -0.0489 -0.5097  0.1751
 9565SOL    HW140154   1.472   2.747   4.037  0.0610  0.5814  0.1574
 9565SOL    HW240155   1.458   2.843   4.148 -1.3055 -0.5583  1.4935
   4.72406   4.72406  17.69788
